<LesHouchesEvents version="1.0">
<header>
<!--
#*********************************************************************
#                                                                    *
#                       MadGraph/MadEvent                            *
#                                                                    *
#                      The new web generation                        *
#                                                                    *
#                   http://madgraph.hep.uiuc.edu                     *
#                   http://madgraph.phys.ucl.ac.be                   *
#                   http://madgraph.roma2.infn.it                    *
#                                                                    *
#            CP3 team                      Tim Stelzer               *
#      Universite de Louvain          University of Illinois         *
#                                                                    *
#....................................................................*
#                                                                    *
# This file contains all the information necessary to reproduce      *
# the events generated:                                              *
#                                                                    *
# 1. software version                                                *
# 2. proc_card.dat      : code generation info including model       *
# 3. param_card.dat     : model primary parameters in the LH format  *
# 4. run_card.dat       : running parameters (collider and cuts)     *
# 5. pythia_card.dat    : present only in the pythia event file      *
# 6. pgs_card.dat       : present only in the pgs event file         *
#                                                                    *
#                                                                    *
#*********************************************************************
-->
<MGVersion>
# MG/ME version    : 4.4.17
# madgraph version : 4.4.2
# template version : 2.4.8
# helas version    : 3.5
# model version    : usrmod_1.0.4
</MGVersion>
<MGProcCard>
#*********************************************************************
#                        MadGraph/MadEvent                           *
#                   http://madgraph.hep.uiuc.edu                     *
#                                                                    *
#                          proc_card.dat                             *
#                                                                    *
# This file is used to generate the code for a specific process.     *
# Some notation/conventions:                                         *
#                                                                    *
# 0. Do not modify the TAGS and their order.                         *
# 1. hash/pound is a comment.                                        *
# 2. The number after the @ is used as an identifier for the class   *
#    of processes. It can be any positive integer.                   *
# 3. The number of lines for the max couplings depends on how many   *
#    different classes of couplings are present in the model         *
#    In the SM these are just two: QED (which include EW) and QCD    *
# 4. Write "end_coup" after  the couplings list,                     *
#    to tell MG that the couplings input is over.                    *
# 5. Write "done" after the proc list to                             *
#    to tell MG that the proc input is over.                         *
# 6. Some model names available at present are:                      *
#    sm     =  Standard Model                                        *
#    smckm =  Standard Model with Cabibbo matrix                     *
#    mssm   =  Minimal Supersymmetric Standard Model                 *
#    2hdm   =  Generic Two Higgs Doublet model                       *
#    heft   =  Higgs EFT (+Standard Model)                           *
#    usrmod =  User Model                                            *
# 7. Don't leave spaces between the particles name in the            *
#    definition of the multiparticles.                               *
#*********************************************************************
#*********************************************************************
# Process(es) requested : mg2 input                                  *
#*********************************************************************
# Begin PROCESS # This is TAG. Do not modify this line
e- N+ > e- N+ x      # Radiative
QCD=0             # Max QCD couplings
QED=1             # Max QED couplings
QFD=0 
QND=1
QWD=9
QDS=2
end_coup           # End the couplings input
done               # this tells MG there are no more procs
# End PROCESS  # This is TAG. Do not modify this line
#*********************************************************************
# Model information                                                  *
#*********************************************************************
# Begin MODEL  # This is TAG. Do not modify this line
fixedAP2     
# End   MODEL  # This is TAG. Do not modify this line
#*********************************************************************
# Start multiparticle definitions                                    *
#*********************************************************************
# Begin MULTIPARTICLES # This is TAG. Do not modify this line
P uu~cc~dd~ss~gf+f-
J uu~cc~dd~ss~gf+f-
L+ e+mu+
L- e-mu-
vl vevm
vl~ ve~vm~
# End  MULTIPARTICLES # This is TAG. Do not modify this line
</MGProcCard>
<slha>
#*********************************************************************
#                        MadGraph/MadEvent                           *
#                   http://madgraph.hep.uiuc.edu                     *
#                                                                    *
#                         param_card.dat                             *
#                                                                    *
#   Les Houches friendly file for the SM parameters of MadGraph      *
#        Spectrum and decay widths produced by SMCalc                *
#                                                                    *
#  Please note the following IMPORTANT issues:                       *
#                                                                    *
# 0. REFRAIN from editing this file by hand! Some of the parame-     *
#    ters are not independent                                        *
#    (such as G_Fermi, alpha_em, sin(theta_W),MZ,MW) and serious     *
#    problems might be encountered (such as violation of unitarity   *
#    or gauge invariance).  Always use a calculator.                 *
#                                                                    *
# 1. alpha_S(MZ) has been used in the calculation of the parameters  *
#    but, for consistency, it will be reset by madgraph to the       *
#    value expected IF the pdfs for collisions with hadrons are      *
#    used. This value is KEPT by madgraph when no pdf are used       *
#    lpp(i)=0 .                                                      *
#                                                                    *
#  2. Values of the charm and bottom kinematic (pole) masses are     *
#     those used in the matrix elements and phase space UNLESS they  *
#     are set to ZERO from the start in the model (particles.dat)    *
#     This happens, for example,  when using 5-flavor QCD where      *
#     charm and bottom are treated as partons in the initial state   *
#     and a zero mass might be hardwired in the model definition.    *
#                                                                    *
##********************************************************************
Block MODSEL # Select Model
     0   1   #  0 1 = SM
Block SMINPUTS      # Standard Model inputs
     1         1.27900000E+02   # alpha_em(MZ)(-1) SM MSbar
     2         1.16600000E-05   # G_Fermi
     3         1.18000000E-01   # alpha_s(MZ) SM MSbar
     4         9.15445065E+01   # Z mass (as input parameter)
Block MGYUKAWA     # Yukawa masses m/v=y/sqrt(2)
#    PDG          YMASS
     5         4.20000000E+00   # mbottom for the Yukawa  y_b
     4         1.25000000E+00   # mcharm  for the Yukawa  y_c
     6         1.74300000E+02   # mtop    for the Yukawa  y_t
    15         1.77700000E+00   # mtau    for the Yukawa  y_ta
Block MGCKM     # CKM elements for MadGraph
     1   1     9.75000000E-01   # Vud for Cabibbo matrix
#===========================================================
# QUANTUM NUMBERS OF NEW STATE(S) (NON SM PDG CODE) IF ANY
# (see below for masses and decay tables)
# These blocks are automatically created by the MadGraph
# qnumbers.pl script from the particles.dat model file
#===========================================================
BLOCK QNUMBERS 611 # f-
         1  -3 # 3 times electric charge
         2  2 # number of spin states (2S+1)
         3  1 # colour rep (1: singlet, 3: triplet, 8: octet)
         4  1 # Particle/Antiparticle distinction (0=own anti)
BLOCK QNUMBERS 622 # x
         1  0 # 3 times electric charge
         2  3 # number of spin states (2S+1)
         3  1 # colour rep (1: singlet, 3: triplet, 8: octet)
         4  0 # Particle/Antiparticle distinction (0=own anti)
BLOCK QNUMBERS 623 # N-
         1  0 # 3 times electric charge
         2  2 # number of spin states (2S+1)
         3  1 # colour rep (1: singlet, 3: triplet, 8: octet)
         4  1 # Particle/Antiparticle distinction (0=own anti)
# END of QNUMBERS blocks
#===========================================================
Block MASS      #  Mass spectrum (kinematic masses)
#       PDG       Mass
         4     1.40000000E+00   # charm    pole mass
         5     4.20000000E+00   # bottom   pole mass
         6     1.74300000E+02   # top      pole mass
        11     0.51109989E-03   # electron mass
        13     0.10565837E+00   # muon     mass
        15     1.77700000E+00   # tau      mass
        23     9.15445065E+01   # Z        mass
        24     8.02673592E+01   # W        mass
        25     1.20000000E+02   # H        mass
       611 0.1 # FMASS
       622 0.3 # APMASS
       623     1.71300000e+02   # HPMASS (tungsten)
#            PDG       Width
DECAY       611     0.00000000e+00   # ELWIDTH
DECAY 622 0.009109906575 # APWIDTH
DECAY       623     0.00000000e+00   # HPWIDTH
DECAY         6     1.51013490E+00   # top width
DECAY        23     2.44639985E+00   # Z   width
DECAY        24     2.03535570E+00   # W   width
DECAY        25     6.79485838E-03   # H   width
#        BR           NDA        ID1       ID2
     7.00588389E-02    2           4        -4   # BR( H -> c  cbar  )
     7.61074375E-01    2           5        -5   # BR( H -> b  bbar  )
     0.00000000E+00    2           6        -6   # BR( H -> t  tbar  )
     3.65529942E-02    2          15       -15   # BR( H -> tau- tau+)
     5.84716539E-03    2          23        23   # BR( H -> Z   Z^(*))
     6.31545979E-02    2          24       -24   # BR( H -> W   W^(*))
     2.55499652E-02    2          21        21   # BR( H -> g   g    )
     1.20906932E-03    2          22        22   # BR( H -> A   A    )
BLOCK MGUSER
         1     1.00000000e-00   # epsilon ,mixing coefficient
         2     74.0000000e+00   # Znuc    ,nuclear charge
</slha>
<MGRunCard>
#*********************************************************************
#                       MadGraph/MadEvent                            *
#                  http://madgraph.hep.uiuc.edu                      *
#                                                                    *
#                        run_card.dat                                *
#                                                                    *
#  This file is used to set the parameters of the run.               *
#                                                                    *
#  Some notation/conventions:                                        *
#                                                                    *
#   Lines starting with a '# ' are info or comments                  *
#                                                                    *
#   mind the format:   value    = variable     ! comment             *
#*********************************************************************
#
#*******************                                                 
# Running parameters
#*******************                                                 
#                                                                    
#*********************************************************************
# Tag name for the run (one word)                                    *
#*********************************************************************
  'HPS'     = run_tag ! name of the run 
#*********************************************************************
# Run to generate the grid pack                                      *
#*********************************************************************
  .false.     = gridpack  !True = setting up the grid pack
#*********************************************************************
# Number of events and rnd seed                                      *
#*********************************************************************
   1000      = nevents ! Number of unweighted events requested 
188714 = iseed ! rnd seed (0=assigned automatically=default))
#*********************************************************************
# Collider type and energy                                           *
#*********************************************************************
        0     = lpp1  ! beam 1 type (0=NO PDF)
        0     = lpp2  ! beam 2 type (0=NO PDF)
4 = ebeam1  ! beam 1 energy in GeV
    171.3    = ebeam2  ! beam 2 energy in GeV
    0.000511  = mbeam1  ! beam 1 energy in GeV
    171.3    = mbeam2  ! beam 2 energy in GeV
#*********************************************************************
# Beam polarization from -100 (left-handed) to 100 (right-handed)    *
#*********************************************************************
        0     = polbeam1 ! beam polarization for beam 1
        0     = polbeam2 ! beam polarization for beam 2
#*********************************************************************
# PDF CHOICE: this automatically fixes also alpha_s and its evol.    *
#*********************************************************************
 'cteq6l1'    = pdlabel     ! PDF set                                     
#*********************************************************************
# Renormalization and factorization scales                           *
#*********************************************************************
 F        = fixed_ren_scale  ! if .true. use fixed ren scale
 F        = fixed_fac_scale  ! if .true. use fixed fac scale
 91.1880  = scale            ! fixed ren scale
 91.1880  = dsqrt_q2fact1    ! fixed fact scale for pdf1
 91.1880  = dsqrt_q2fact2    ! fixed fact scale for pdf2
 1        = scalefact        ! scale factor for event-by-event scales
 F        = fixed_couplings  ! if .false. calc. coupl. for every event
#*********************************************************************
# Matching - Warning! ickkw > 0 is still beta
#*********************************************************************
 0        = ickkw            ! 0 no matching, 1 MLM, 2 CKKW matching
#*********************************************************************
#                                                                    
#**********************************
32.9311829414 = bwcutoff*Gamma)
#**********************************
32.9311829414 = bwcutoff
#*******************                                                 
# Fixed-Target Cuts
#*******************                                                 
#
 0.0 = ef        ! minimum E for all f's
 100.0 = efmax     ! maximum E for all f's
 0.0 = thetafmin ! min angle for both f's
 100.0 = thetafmax ! max angle for both f's
 0.0 = thetaxfmin ! min angle (x direction) for both f's
 100.0 = thetaxfmax ! max angle (x direction) for both f's 
 0.0 = thetayfmin ! min angle (y direction) for both f's
 100.0 = thetayfmax ! max angle (y direction) for both f's 
 0.0 = xthetaxfmin ! min angle (x direction) for >=1 f's
 100.0 = xthetaxfmax ! max angle (x direction) for >=1 f's 
 0.0 = xthetayfmin ! min angle (y direction) for >=1 f's
 100.0 = xthetayfmax ! max angle (y direction) for >=1 f's 
 0.0 = mmff      ! min invariant mass of f+f- lepton pair
 100.0 = mmffmax  ! max invariant mass of f+f- lepton pair
 0.0 = xef       ! min. energy for at least one f
 0.0 = xthetaf   ! minimum angle for at least one f
 0.0 = eftot     ! minimum energy for the two f's
 0d0 = efrat     ! min. ratio Emin/Emax for the two f's
 0.0  = el     !!! 0.2 = el  !!! was 0.05 with normal cuts! minimum E for the charged leptons 
 0.0  = drll  !!! was 0.1  ! min distance between leptons 
 0.0  = mmll    ! min invariant mass of l+l- (same flavour) lepton pair
#
#*******************                                                 
# Standard Cuts
#*******************                                                 
#                                                                    
#*********************************************************************
# Minimum and maximum pt's                                           *
#*********************************************************************
  0  = ptj       ! minimum pt for the jets 
  0  = ptb       ! minimum pt for the b 
  0  = pta       ! minimum pt for the photons 
  0  = ptl       ! minimum pt for the charged leptons 
  0  = misset    ! minimum missing Et (sum of neutrino's momenta)
  0  = ptheavy   ! minimum pt for one heavy final state
 1.0 = ptonium   ! minimum pt for the quarkonium states
 1d5 = ptjmax    ! maximum pt for the jets
 1d5 = ptbmax    ! maximum pt for the b
 1d5 = ptamax    ! maximum pt for the photons
 1d9 = ptlmax    ! maximum pt for the charged leptons
 1d9 = missetmax ! maximum missing Et (sum of neutrino's momenta)
#*********************************************************************
# Minimum and maximum E's (in the lab frame)                         *
#*********************************************************************
  0  = ej     ! minimum E for the jets 
  0  = eb     ! minimum E for the b 
  0  = ea     ! minimum E for the photons 
 1d5  = ejmax ! maximum E for the jets
 1d5  = ebmax ! maximum E for the b
 1d5  = eamax ! maximum E for the photons
 1.2  = elmax ! maximum E for the charged leptons
#*********************************************************************
# Maximum and minimum rapidity                                       *
#*********************************************************************
 1d5  = etaj    ! max rap for the jets 
 1d5  = etab    ! max rap for the b 
 1d5  = etaa    ! max rap for the photons 
 1d5  = etal     !!! 1(2) wth cuts ! max rap for the charged leptons 
 1d5  = etafl     !!! 0(1) wth cuts ! max rap for the charged leptons 
 0.0  = etaonium ! max rap for the quarkonium states
 0d0  = etajmin ! min rap for the jets
 0d0  = etabmin ! min rap for the b
 0d0  = etaamin ! min rap for the photons
 0d0  = etalmin ! main rap for the charged lepton
#*********************************************************************
# Minimum and maximum DeltaR distance                                *
#*********************************************************************
 0   = drjj    ! min distance between jets 
 0   = drbb    ! min distance between b's 
 0   = draa    ! min distance between gammas 
 0   = drbj    ! min distance between b and jet 
 0   = draj    ! min distance between gamma and jet 
 0   = drjl    ! min distance between jet and lepton 
 0   = drab    ! min distance between gamma and b 
 0   = drbl    ! min distance between b and lepton 
 0   = dral    ! min distance between gamma and lepton 
 1d2 = drjjmax ! max distance between jets
 1d2 = drbbmax ! max distance between b's
 1d9 = drllmax ! max distance between leptons
 1d2 = draamax ! max distance between gammas
 1d2 = drbjmax ! max distance between b and jet
 1d2 = drajmax ! max distance between gamma and jet
 1d2 = drjlmax ! max distance between jet and lepton
 1d2 = drabmax ! max distance between gamma and b
 1d2 = drblmax ! max distance between b and lepton
 1d2 = dralmax ! maxdistance between gamma and lepton
#*********************************************************************
# Minimum and maximum invariant mass for pairs                       *
#*********************************************************************
 0   = mmjj    ! min invariant mass of a jet pair 
 0   = mmbb    ! min invariant mass of a b pair 
 0   = mmaa    ! min invariant mass of gamma gamma pair
 1d5 = mmjjmax ! max invariant mass of a jet pair
 1d5 = mmbbmax ! max invariant mass of a b pair
 1d5 = mmaamax ! max invariant mass of gamma gamma pair
 1d5 = mmllmax ! max invariant mass of l+l- (same flavour) lepton pair
#*********************************************************************
# Minimum and maximum invariant mass for all letpons                 *
#*********************************************************************
 0   = mmnl    ! min invariant mass for all letpons (l+- and vl) 
 1d9 = mmnlmax ! max invariant mass for all letpons (l+- and vl) 
#*********************************************************************
# Inclusive cuts                                                     *
#*********************************************************************
 0  = xptj ! minimum pt for at least one jet  
 0  = xptb ! minimum pt for at least one b 
 0  = xpta ! minimum pt for at least one photon 
 0  = xptl ! minimum pt for at least one charged lepton 
#*********************************************************************
# Control the pt's of the jets sorted by pt                          *
#*********************************************************************
 0   = ptj1min ! minimum pt for the leading jet in pt
 0   = ptj2min ! minimum pt for the second jet in pt
 0   = ptj3min ! minimum pt for the third jet in pt
 0   = ptj4min ! minimum pt for the fourth jet in pt
 1d5 = ptj1max ! maximum pt for the leading jet in pt 
 1d5 = ptj2max ! maximum pt for the second jet in pt
 1d5 = ptj3max ! maximum pt for the third jet in pt
 1d5 = ptj4max ! maximum pt for the fourth jet in pt
 0   = cutuse  ! reject event if fails any (0) / all (1) jet pt cuts
#*********************************************************************
# Control the Ht(k)=Sum of k leading jets                            *
#*********************************************************************
 0   = htjmin ! minimum jet HT=Sum(jet pt)
 1d5 = htjmax ! maximum jet HT=Sum(jet pt)
 0   = ht2min ! minimum Ht for the two leading jets
 0   = ht3min ! minimum Ht for the three leading jets
 0   = ht4min ! minimum Ht for the four leading jets
 1d5 = ht2max ! maximum Ht for the two leading jets
 1d5 = ht3max ! maximum Ht for the three leading jets
 1d5 = ht4max ! maximum Ht for the four leading jets
#*********************************************************************
# WBF cuts                                                           *
#*********************************************************************
 0   = xetamin ! minimum rapidity for two jets in the WBF case  
 0   = deltaeta ! minimum rapidity for two jets in the WBF case 
#*********************************************************************
# maximal pdg code for quark to be considered as a jet               *
# otherwise b cuts are applied                                       *
#*********************************************************************
 4 = maxjetflavor
#*********************************************************************
# Jet measure cuts                                                   *
#*********************************************************************
 0   = xqcut   ! minimum kt jet measure between partons
#*********************************************************************
</MGRunCard>
<MGGenerationInfo>
#  Number of Events        :        1000
#  Integrated weight (pb)  :  .51370E+08
#  Truncated wgt (pb)      :  .15183E+05
#  Unit wgt                :  .51370E+05
</MGGenerationInfo>
</header>
<init>
       11     -623  0.40000000000E+01  0.17130000000E+03 0 0     0     0 3  1
  0.51369846910E+08  0.57224829461E+06  0.51370000000E+05   0
</init>
<event>
 5   0  0.5137000E+05  0.9118800E+02  0.7818608E-02  0.1180000E+00
       11   -1    0    0    0    0  0.00000000000E+00  0.00000000000E+00  0.39999999673E+01  0.40000000000E+01  0.51109989000E-03 0. -1.
     -623   -1    0    0    0    0  0.00000000000E+00  0.00000000000E+00  0.12525980253E-10  0.17130000000E+03  0.17130000000E+03 0.  1.
       11    1    1    2    0    0  0.31370721615E-02  0.45547171399E-02 -0.66269773876E-03  0.55934838305E-02  0.51109989000E-03 0. -1.
     -623    1    1    2    0    0  0.22853047354E-03 -0.11300960980E-01  0.17546244616E-01  0.17130000127E+03  0.17130000000E+03 0.  1.
      622    1    1    2    0    0 -0.33656026351E-02  0.67462438404E-02  0.39831164205E+01  0.39944052446E+01  0.30000000000E+00 0. -1.
</event>
<event>
 5   0  0.5137000E+05  0.9118800E+02  0.7818608E-02  0.1180000E+00
       11   -1    0    0    0    0  0.00000000000E+00  0.00000000000E+00  0.39999999673E+01  0.40000000000E+01  0.51109989000E-03 0. -1.
     -623   -1    0    0    0    0  0.00000000000E+00  0.00000000000E+00  0.12525980253E-10  0.17130000000E+03  0.17130000000E+03 0.  1.
       11    1    1    2    0    0  0.16187558100E-02  0.40020323466E-02 -0.50640596726E-02  0.66740210324E-02  0.51109989000E-03 0. -1.
     -623    1    1    2    0    0  0.27565455449E-02 -0.67849422776E-02  0.23027880255E-01  0.17130000170E+03  0.17130000000E+03 0.  1.
      622    1    1    2    0    0 -0.43753013550E-02  0.27829099311E-02  0.39820361468E+01  0.39933242746E+01  0.30000000000E+00 0. -1.
</event>
<event>
 5   0  0.5137000E+05  0.9118800E+02  0.7818608E-02  0.1180000E+00
       11   -1    0    0    0    0  0.00000000000E+00  0.00000000000E+00  0.39999999673E+01  0.40000000000E+01  0.51109989000E-03 0.  1.
     -623   -1    0    0    0    0  0.00000000000E+00  0.00000000000E+00  0.12525980253E-10  0.17130000000E+03  0.17130000000E+03 0. -1.
       11    1    1    2    0    0  0.69375512796E-01  0.97615464647E-02  0.99031117628E+00  0.99278634995E+00  0.51109989000E-03 0.  1.
     -623    1    1    2    0    0  0.14019900146E-01 -0.22153440805E-01  0.18667661245E-01  0.17130000302E+03  0.17130000000E+03 0. -1.
      622    1    1    2    0    0 -0.83395412942E-01  0.12391894340E-01  0.29910211298E+01  0.30072106267E+01  0.30000000000E+00 0.  1.
</event>
<event>
 5   0  0.5137000E+05  0.9118800E+02  0.7818608E-02  0.1180000E+00
       11   -1    0    0    0    0  0.00000000000E+00  0.00000000000E+00  0.39999999673E+01  0.40000000000E+01  0.51109989000E-03 0.  1.
     -623   -1    0    0    0    0  0.00000000000E+00  0.00000000000E+00  0.12525980253E-10  0.17130000000E+03  0.17130000000E+03 0. -1.
       11    1    1    2    0    0 -0.29427465889E-01  0.23907008547E-01  0.96293449065E+00  0.96368076421E+00  0.51109989000E-03 0.  1.
     -623    1    1    2    0    0  0.84035064127E-02 -0.22831761883E-01  0.15678958974E-01  0.17130000245E+03  0.17130000000E+03 0. -1.
      622    1    1    2    0    0  0.21023959476E-01 -0.10752466640E-02  0.30213865177E+01  0.30363167905E+01  0.30000000000E+00 0.  1.
</event>
<event>
 5   0  0.5137000E+05  0.9118800E+02  0.7818608E-02  0.1180000E+00
       11   -1    0    0    0    0  0.00000000000E+00  0.00000000000E+00  0.39999999673E+01  0.40000000000E+01  0.51109989000E-03 0.  1.
     -623   -1    0    0    0    0  0.00000000000E+00  0.00000000000E+00  0.12525980253E-10  0.17130000000E+03  0.17130000000E+03 0.  1.
       11    1    1    2    0    0  0.17032271309E-01 -0.17165380407E-03 -0.24822122091E-01  0.30108581820E-01  0.51109989000E-03 0.  1.
     -623    1    1    2    0    0 -0.40684542975E-01  0.30848032920E-01  0.66492324706E-01  0.17130002051E+03  0.17130000000E+03 0.  1.
      622    1    1    2    0    0  0.23652271666E-01 -0.30676379116E-01  0.39583297648E+01  0.39698709043E+01  0.30000000000E+00 0.  1.
</event>
<event>
 5   0  0.5137000E+05  0.9118800E+02  0.7818608E-02  0.1180000E+00
       11   -1    0    0    0    0  0.00000000000E+00  0.00000000000E+00  0.39999999673E+01  0.40000000000E+01  0.51109989000E-03 0. -1.
     -623   -1    0    0    0    0  0.00000000000E+00  0.00000000000E+00  0.12525980253E-10  0.17130000000E+03  0.17130000000E+03 0. -1.
       11    1    1    2    0    0 -0.49624413598E-02 -0.14531905355E-01  0.11750425533E+00  0.11850448659E+00  0.51109989000E-03 0. -1.
     -623    1    1    2    0    0  0.44501088472E-02  0.18363594253E-02  0.12632427591E-01  0.17130000053E+03  0.17130000000E+03 0. -1.
      622    1    1    2    0    0  0.51233251256E-03  0.12695545930E-01  0.38698632845E+01  0.38814949800E+01  0.30000000000E+00 0. -1.
</event>
<event>
 5   0  0.5137000E+05  0.9118800E+02  0.7818608E-02  0.1180000E+00
       11   -1    0    0    0    0  0.00000000000E+00  0.00000000000E+00  0.39999999673E+01  0.40000000000E+01  0.51109989000E-03 0. -1.
     -623   -1    0    0    0    0  0.00000000000E+00  0.00000000000E+00  0.12525980253E-10  0.17130000000E+03  0.17130000000E+03 0.  1.
       11    1    1    2    0    0  0.18728028102E-02  0.78298544876E-02  0.10133171918E-01  0.12952081218E-01  0.51109989000E-03 0. -1.
     -623    1    1    2    0    0 -0.72771185416E-02 -0.96881941769E-03  0.14131778671E-01  0.17130000074E+03  0.17130000000E+03 0.  1.
      622    1    1    2    0    0  0.54043157314E-02 -0.68610350699E-02  0.39757350168E+01  0.39870471785E+01  0.30000000000E+00 0. -1.
</event>
<event>
 5   0  0.5137000E+05  0.9118800E+02  0.7818608E-02  0.1180000E+00
       11   -1    0    0    0    0  0.00000000000E+00  0.00000000000E+00  0.39999999673E+01  0.40000000000E+01  0.51109989000E-03 0.  1.
     -623   -1    0    0    0    0  0.00000000000E+00  0.00000000000E+00  0.12525980253E-10  0.17130000000E+03  0.17130000000E+03 0. -1.
       11    1    1    2    0    0  0.75351836609E-03  0.25276622778E-01  0.22572847962E+00  0.22714110853E+00  0.51109989000E-03 0.  1.
     -623    1    1    2    0    0  0.81858456920E-02  0.76497937791E-02  0.13514467342E-01  0.17130000090E+03  0.17130000000E+03 0. -1.
      622    1    1    2    0    0 -0.89393640581E-02 -0.32926416557E-01  0.37607570204E+01  0.37728579920E+01  0.30000000000E+00 0.  1.
</event>
<event>
 5   0  0.5137000E+05  0.9118800E+02  0.7818608E-02  0.1180000E+00
       11   -1    0    0    0    0  0.00000000000E+00  0.00000000000E+00  0.39999999673E+01  0.40000000000E+01  0.51109989000E-03 0. -1.
     -623   -1    0    0    0    0  0.00000000000E+00  0.00000000000E+00  0.12525980253E-10  0.17130000000E+03  0.17130000000E+03 0.  1.
       11    1    1    2    0    0 -0.63592605382E-01  0.31992823657E-01  0.59369410592E+00  0.59794691475E+00  0.51109989000E-03 0. -1.
     -623    1    1    2    0    0  0.63771134261E-01  0.22789457312E-02  0.17692055942E-01  0.17130001280E+03  0.17130000000E+03 0.  1.
      622    1    1    2    0    0 -0.17852887936E-03 -0.34271769388E-01  0.33886138055E+01  0.34020402862E+01  0.30000000000E+00 0. -1.
</event>
<event>
 5   0  0.5137000E+05  0.9118800E+02  0.7818608E-02  0.1180000E+00
       11   -1    0    0    0    0  0.00000000000E+00  0.00000000000E+00  0.39999999673E+01  0.40000000000E+01  0.51109989000E-03 0.  1.
     -623   -1    0    0    0    0  0.00000000000E+00  0.00000000000E+00  0.12525980253E-10  0.17130000000E+03  0.17130000000E+03 0. -1.
       11    1    1    2    0    0  0.11761569421E-01  0.25716309117E-02  0.10251178759E+00  0.10321761293E+00  0.51109989000E-03 0.  1.
     -623    1    1    2    0    0  0.31427499137E-02 -0.12135843472E-01  0.12312207453E-01  0.17130000090E+03  0.17130000000E+03 0. -1.
      622    1    1    2    0    0 -0.14904319334E-01  0.95642125607E-02  0.38851759723E+01  0.38967814859E+01  0.30000000000E+00 0.  1.
</event>
<event>
 5   0  0.5137000E+05  0.9118800E+02  0.7818608E-02  0.1180000E+00
       11   -1    0    0    0    0  0.00000000000E+00  0.00000000000E+00  0.39999999673E+01  0.40000000000E+01  0.51109989000E-03 0.  1.
     -623   -1    0    0    0    0  0.00000000000E+00  0.00000000000E+00  0.12525980253E-10  0.17130000000E+03  0.17130000000E+03 0.  1.
       11    1    1    2    0    0 -0.57118087864E-01 -0.11891164792E-01  0.17728778686E+00  0.18664162546E+00  0.51109989000E-03 0.  1.
     -623    1    1    2    0    0  0.43878344330E-01  0.11928977453E-01  0.21203168970E-01  0.17130000735E+03  0.17130000000E+03 0.  1.
      622    1    1    2    0    0  0.13239743534E-01 -0.37812660757E-04  0.38015090115E+01  0.38133510273E+01  0.30000000000E+00 0.  1.
</event>
<event>
 5   0  0.5137000E+05  0.9118800E+02  0.7818608E-02  0.1180000E+00
       11   -1    0    0    0    0  0.00000000000E+00  0.00000000000E+00  0.39999999673E+01  0.40000000000E+01  0.51109989000E-03 0.  1.
     -623   -1    0    0    0    0  0.00000000000E+00  0.00000000000E+00  0.12525980253E-10  0.17130000000E+03  0.17130000000E+03 0.  1.
       11    1    1    2    0    0  0.29321499279E-01 -0.22746547325E-01  0.27196847290E+00  0.27448910217E+00  0.51109989000E-03 0.  1.
     -623    1    1    2    0    0 -0.22235455730E-01  0.95009644095E-02  0.14651846818E-01  0.17130000233E+03  0.17130000000E+03 0.  1.
      622    1    1    2    0    0 -0.70860435489E-02  0.13245582916E-01  0.37133796476E+01  0.37255085646E+01  0.30000000000E+00 0.  1.
</event>
<event>
 5   0  0.5137000E+05  0.9118800E+02  0.7818608E-02  0.1180000E+00
       11   -1    0    0    0    0  0.00000000000E+00  0.00000000000E+00  0.39999999673E+01  0.40000000000E+01  0.51109989000E-03 0. -1.
     -623   -1    0    0    0    0  0.00000000000E+00  0.00000000000E+00  0.12525980253E-10  0.17130000000E+03  0.17130000000E+03 0.  1.
       11    1    1    2    0    0  0.25463969739E-01  0.13101001172E-01  0.65050331025E-01  0.71076415034E-01  0.51109989000E-03 0. -1.
     -623    1    1    2    0    0 -0.93032041093E-02 -0.24873852946E-01  0.17550304404E-01  0.17130000296E+03  0.17130000000E+03 0.  1.
      622    1    1    2    0    0 -0.16160765630E-01  0.11772851773E-01  0.39173993319E+01  0.39289206274E+01  0.30000000000E+00 0. -1.
</event>
<event>
 5   0  0.5137000E+05  0.9118800E+02  0.7818608E-02  0.1180000E+00
       11   -1    0    0    0    0  0.00000000000E+00  0.00000000000E+00  0.39999999673E+01  0.40000000000E+01  0.51109989000E-03 0. -1.
     -623   -1    0    0    0    0  0.00000000000E+00  0.00000000000E+00  0.12525980253E-10  0.17130000000E+03  0.17130000000E+03 0. -1.
       11    1    1    2    0    0 -0.39954420682E-01 -0.27544776200E-01  0.16733916934E+00  0.17423469586E+00  0.51109989000E-03 0. -1.
     -623    1    1    2    0    0  0.13141007484E-01  0.81142363946E-01  0.19167728273E-01  0.17130002079E+03  0.17130000000E+03 0. -1.
      622    1    1    2    0    0  0.26813413198E-01 -0.53597587745E-01  0.38134930698E+01  0.38257445097E+01  0.30000000000E+00 0. -1.
</event>
<event>
 5   0  0.5137000E+05  0.9118800E+02  0.7818608E-02  0.1180000E+00
       11   -1    0    0    0    0  0.00000000000E+00  0.00000000000E+00  0.39999999673E+01  0.40000000000E+01  0.51109989000E-03 0.  1.
     -623   -1    0    0    0    0  0.00000000000E+00  0.00000000000E+00  0.12525980253E-10  0.17130000000E+03  0.17130000000E+03 0.  1.
       11    1    1    2    0    0 -0.15104421303E-02  0.11516713570E-01  0.19549010657E-01  0.22745135032E-01  0.51109989000E-03 0.  1.
     -623    1    1    2    0    0  0.14671518760E-01 -0.55942627914E-02  0.14554169215E-01  0.17130000134E+03  0.17130000000E+03 0.  1.
      622    1    1    2    0    0 -0.13161076630E-01 -0.59224507789E-02  0.39658967875E+01  0.39772535270E+01  0.30000000000E+00 0.  1.
</event>
<event>
 5   0  0.5137000E+05  0.9118800E+02  0.7818608E-02  0.1180000E+00
       11   -1    0    0    0    0  0.00000000000E+00  0.00000000000E+00  0.39999999673E+01  0.40000000000E+01  0.51109989000E-03 0.  1.
     -623   -1    0    0    0    0  0.00000000000E+00  0.00000000000E+00  0.12525980253E-10  0.17130000000E+03  0.17130000000E+03 0.  1.
       11    1    1    2    0    0  0.13225989502E-01 -0.42653739690E-01  0.13668124550E+00  0.14379253250E+00  0.51109989000E-03 0.  1.
     -623    1    1    2    0    0  0.27434457705E-02  0.37425422385E-01  0.18840345886E-01  0.17130000515E+03  0.17130000000E+03 0.  1.
      622    1    1    2    0    0 -0.15969435273E-01  0.52283173048E-02  0.38444783760E+01  0.38562023211E+01  0.30000000000E+00 0.  1.
</event>
<event>
 5   0  0.5137000E+05  0.9118800E+02  0.7818608E-02  0.1180000E+00
       11   -1    0    0    0    0  0.00000000000E+00  0.00000000000E+00  0.39999999673E+01  0.40000000000E+01  0.51109989000E-03 0. -1.
     -623   -1    0    0    0    0  0.00000000000E+00  0.00000000000E+00  0.12525980253E-10  0.17130000000E+03  0.17130000000E+03 0. -1.
       11    1    1    2    0    0  0.79577499629E-02  0.31014182270E-02  0.56786104841E-02  0.10269002854E-01  0.51109989000E-03 0. -1.
     -623    1    1    2    0    0 -0.56771169303E-02 -0.46950098797E-02  0.15887174182E-01  0.17130000090E+03  0.17130000000E+03 0. -1.
      622    1    1    2    0    0 -0.22806330325E-02  0.15935916528E-02  0.39784341827E+01  0.39897301020E+01  0.30000000000E+00 0. -1.
</event>
<event>
 5   0  0.5137000E+05  0.9118800E+02  0.7818608E-02  0.1180000E+00
       11   -1    0    0    0    0  0.00000000000E+00  0.00000000000E+00  0.39999999673E+01  0.40000000000E+01  0.51109989000E-03 0. -1.
     -623   -1    0    0    0    0  0.00000000000E+00  0.00000000000E+00  0.12525980253E-10  0.17130000000E+03  0.17130000000E+03 0.  1.
       11    1    1    2    0    0 -0.64832500732E-02  0.11933144318E+00  0.14766546266E+00  0.18996677590E+00  0.51109989000E-03 0. -1.
     -623    1    1    2    0    0 -0.17791408884E-01 -0.12388334512E+00  0.54265349409E-01  0.17130005432E+03  0.17130000000E+03 0.  1.
      622    1    1    2    0    0  0.24274658958E-01  0.45519019387E-02  0.37980691553E+01  0.38099789090E+01  0.30000000000E+00 0. -1.
</event>
<event>
 5   0  0.5137000E+05  0.9118800E+02  0.7818608E-02  0.1180000E+00
       11   -1    0    0    0    0  0.00000000000E+00  0.00000000000E+00  0.39999999673E+01  0.40000000000E+01  0.51109989000E-03 0.  1.
     -623   -1    0    0    0    0  0.00000000000E+00  0.00000000000E+00  0.12525980253E-10  0.17130000000E+03  0.17130000000E+03 0.  1.
       11    1    1    2    0    0  0.54088317421E-02 -0.10857157001E-03  0.89245948460E-01  0.89411228531E-01  0.51109989000E-03 0.  1.
     -623    1    1    2    0    0  0.18723402109E-01 -0.29638213517E-01  0.11881614686E-01  0.17130000400E+03  0.17130000000E+03 0.  1.
      622    1    1    2    0    0 -0.24132233852E-01  0.29746785087E-01  0.38988724042E+01  0.39105847722E+01  0.30000000000E+00 0.  1.
</event>
<event>
 5   0  0.5137000E+05  0.9118800E+02  0.7818608E-02  0.1180000E+00
       11   -1    0    0    0    0  0.00000000000E+00  0.00000000000E+00  0.39999999673E+01  0.40000000000E+01  0.51109989000E-03 0. -1.
     -623   -1    0    0    0    0  0.00000000000E+00  0.00000000000E+00  0.12525980253E-10  0.17130000000E+03  0.17130000000E+03 0. -1.
       11    1    1    2    0    0  0.17025407230E-02  0.32666186537E-01  0.10479634615E+00  0.10978394135E+00  0.51109989000E-03 0. -1.
     -623    1    1    2    0    0 -0.19615197519E-01 -0.14294926955E-02  0.16741395083E-01  0.17130000195E+03  0.17130000000E+03 0. -1.
      622    1    1    2    0    0  0.17912656796E-01 -0.31236693841E-01  0.38784622261E+01  0.38902141116E+01  0.30000000000E+00 0. -1.
</event>
<event>
 5   0  0.5137000E+05  0.9118800E+02  0.7818608E-02  0.1180000E+00
       11   -1    0    0    0    0  0.00000000000E+00  0.00000000000E+00  0.39999999673E+01  0.40000000000E+01  0.51109989000E-03 0.  1.
     -623   -1    0    0    0    0  0.00000000000E+00  0.00000000000E+00  0.12525980253E-10  0.17130000000E+03  0.17130000000E+03 0. -1.
       11    1    1    2    0    0  0.16718186452E-01  0.37237332339E-01  0.85899994623E-01  0.95106187902E-01  0.51109989000E-03 0.  1.
     -623    1    1    2    0    0  0.16834047496E-01  0.88084877014E-03  0.21080536892E-01  0.17130000213E+03  0.17130000000E+03 0. -1.
      622    1    1    2    0    0 -0.33552233948E-01 -0.38118181109E-01  0.38930194359E+01  0.39048916856E+01  0.30000000000E+00 0.  1.
</event>
<event>
 5   0  0.5137000E+05  0.9118800E+02  0.7818608E-02  0.1180000E+00
       11   -1    0    0    0    0  0.00000000000E+00  0.00000000000E+00  0.39999999673E+01  0.40000000000E+01  0.51109989000E-03 0.  1.
     -623   -1    0    0    0    0  0.00000000000E+00  0.00000000000E+00  0.12525980253E-10  0.17130000000E+03  0.17130000000E+03 0.  1.
       11    1    1    2    0    0 -0.19365392920E-02 -0.22236840638E-01  0.97810963787E-01  0.10032683153E+00  0.51109989000E-03 0.  1.
     -623    1    1    2    0    0 -0.29288989538E-01  0.85553475833E-02  0.14225166024E-01  0.17130000331E+03  0.17130000000E+03 0.  1.
      622    1    1    2    0    0  0.31225528830E-01  0.13681493055E-01  0.38879638375E+01  0.38996698603E+01  0.30000000000E+00 0.  1.
</event>
<event>
 5   0  0.5137000E+05  0.9118800E+02  0.7818608E-02  0.1180000E+00
       11   -1    0    0    0    0  0.00000000000E+00  0.00000000000E+00  0.39999999673E+01  0.40000000000E+01  0.51109989000E-03 0.  1.
     -623   -1    0    0    0    0  0.00000000000E+00  0.00000000000E+00  0.12525980253E-10  0.17130000000E+03  0.17130000000E+03 0.  1.
       11    1    1    2    0    0  0.84888850390E-03 -0.26650639411E-02 -0.20236140502E-03  0.28505000856E-02  0.51109989000E-03 0.  1.
     -623    1    1    2    0    0  0.48241907401E-02 -0.60621457639E-02  0.14341119819E-01  0.17130000078E+03  0.17130000000E+03 0.  1.
      622    1    1    2    0    0 -0.56730792440E-02  0.87272097050E-02  0.39858612089E+01  0.39971487244E+01  0.30000000000E+00 0.  1.
</event>
<event>
 5   0  0.5137000E+05  0.9118800E+02  0.7818608E-02  0.1180000E+00
       11   -1    0    0    0    0  0.00000000000E+00  0.00000000000E+00  0.39999999673E+01  0.40000000000E+01  0.51109989000E-03 0.  1.
     -623   -1    0    0    0    0  0.00000000000E+00  0.00000000000E+00  0.12525980253E-10  0.17130000000E+03  0.17130000000E+03 0.  1.
       11    1    1    2    0    0 -0.67220419778E-02 -0.33378382217E-02  0.21291269336E-01  0.22581106823E-01  0.51109989000E-03 0.  1.
     -623    1    1    2    0    0  0.15337231166E-01 -0.56665799042E-03  0.12632247576E-01  0.17130000115E+03  0.17130000000E+03 0.  1.
      622    1    1    2    0    0 -0.86151891878E-02  0.39044962121E-02  0.39660764505E+01  0.39774177399E+01  0.30000000000E+00 0.  1.
</event>
<event>
 5   0  0.5137000E+05  0.9118800E+02  0.7818608E-02  0.1180000E+00
       11   -1    0    0    0    0  0.00000000000E+00  0.00000000000E+00  0.39999999673E+01  0.40000000000E+01  0.51109989000E-03 0.  1.
     -623   -1    0    0    0    0  0.00000000000E+00  0.00000000000E+00  0.12525980253E-10  0.17130000000E+03  0.17130000000E+03 0.  1.
       11    1    1    2    0    0  0.39927762380E-01  0.28761693605E-01  0.11663798765E+01  0.11674175511E+01  0.51109989000E-03 0.  1.
     -623    1    1    2    0    0 -0.24526258863E-01  0.23879811750E-01  0.17507424372E-01  0.17130000431E+03  0.17130000000E+03 0.  1.
      622    1    1    2    0    0 -0.15401503517E-01 -0.52641505356E-01  0.28161126665E+01  0.28325781339E+01  0.30000000000E+00 0.  1.
</event>
<event>
 5   0  0.5137000E+05  0.9118800E+02  0.7818608E-02  0.1180000E+00
       11   -1    0    0    0    0  0.00000000000E+00  0.00000000000E+00  0.39999999673E+01  0.40000000000E+01  0.51109989000E-03 0.  1.
     -623   -1    0    0    0    0  0.00000000000E+00  0.00000000000E+00  0.12525980253E-10  0.17130000000E+03  0.17130000000E+03 0. -1.
       11    1    1    2    0    0 -0.54991205254E-03  0.23881278064E-03  0.73570578620E-03  0.10779243532E-02  0.51109989000E-03 0. -1.
     -623    1    1    2    0    0  0.76058243166E-02  0.31017410849E-02  0.11619330648E-01  0.17130000059E+03  0.17130000000E+03 0. -1.
      622    1    1    2    0    0 -0.70559122641E-02 -0.33405538656E-02  0.39876449309E+01  0.39989214847E+01  0.30000000000E+00 0.  1.
</event>
<event>
 5   0  0.5137000E+05  0.9118800E+02  0.7818608E-02  0.1180000E+00
       11   -1    0    0    0    0  0.00000000000E+00  0.00000000000E+00  0.39999999673E+01  0.40000000000E+01  0.51109989000E-03 0. -1.
     -623   -1    0    0    0    0  0.00000000000E+00  0.00000000000E+00  0.12525980253E-10  0.17130000000E+03  0.17130000000E+03 0.  1.
       11    1    1    2    0    0  0.10790304770E-01 -0.94997236092E-02  0.39417965923E+00  0.39444206216E+00  0.51109989000E-03 0. -1.
     -623    1    1    2    0    0 -0.20499955141E-01 -0.54809214091E-01  0.13364004705E-01  0.17130001052E+03  0.17130000000E+03 0.  1.
      622    1    1    2    0    0  0.97096503712E-02  0.64308937700E-01  0.35924563034E+01  0.36055474215E+01  0.30000000000E+00 0. -1.
</event>
<event>
 5   0  0.5137000E+05  0.9118800E+02  0.7818608E-02  0.1180000E+00
       11   -1    0    0    0    0  0.00000000000E+00  0.00000000000E+00  0.39999999673E+01  0.40000000000E+01  0.51109989000E-03 0. -1.
     -623   -1    0    0    0    0  0.00000000000E+00  0.00000000000E+00  0.12525980253E-10  0.17130000000E+03  0.17130000000E+03 0. -1.
       11    1    1    2    0    0  0.55075159299E-01 -0.43018819658E-01  0.43799151115E+00  0.44353209250E+00  0.51109989000E-03 0. -1.
     -623    1    1    2    0    0 -0.52011383504E-01  0.36424426212E-01  0.18236385299E-01  0.17130001274E+03  0.17130000000E+03 0. -1.
      622    1    1    2    0    0 -0.30637757953E-02  0.65943934468E-02  0.35437720709E+01  0.35564551682E+01  0.30000000000E+00 0. -1.
</event>
<event>
 5   0  0.5137000E+05  0.9118800E+02  0.7818608E-02  0.1180000E+00
       11   -1    0    0    0    0  0.00000000000E+00  0.00000000000E+00  0.39999999673E+01  0.40000000000E+01  0.51109989000E-03 0. -1.
     -623   -1    0    0    0    0  0.00000000000E+00  0.00000000000E+00  0.12525980253E-10  0.17130000000E+03  0.17130000000E+03 0.  1.
       11    1    1    2    0    0  0.20590928878E-01 -0.15637439256E-02  0.92700339184E-01  0.94973921438E-01  0.51109989000E-03 0. -1.
     -623    1    1    2    0    0 -0.68748309897E-02 -0.12422211717E-01  0.13864646228E-01  0.17130000115E+03  0.17130000000E+03 0.  1.
      622    1    1    2    0    0 -0.13716097888E-01  0.13985955642E-01  0.38934349819E+01  0.39050249291E+01  0.30000000000E+00 0. -1.
</event>
<event>
 5   0  0.5137000E+05  0.9118800E+02  0.7818608E-02  0.1180000E+00
       11   -1    0    0    0    0  0.00000000000E+00  0.00000000000E+00  0.39999999673E+01  0.40000000000E+01  0.51109989000E-03 0.  1.
     -623   -1    0    0    0    0  0.00000000000E+00  0.00000000000E+00  0.12525980253E-10  0.17130000000E+03  0.17130000000E+03 0. -1.
       11    1    1    2    0    0  0.73686365402E-02  0.22184344409E-01  0.50359103111E-01  0.55522449763E-01  0.51109989000E-03 0.  1.
     -623    1    1    2    0    0 -0.37915046078E-02 -0.47122601851E-01  0.16676261640E-01  0.17130000734E+03  0.17130000000E+03 0. -1.
      622    1    1    2    0    0 -0.35771319324E-02  0.24938257442E-01  0.39329646026E+01  0.39444702151E+01  0.30000000000E+00 0.  1.
</event>
<event>
 5   0  0.5137000E+05  0.9118800E+02  0.7818608E-02  0.1180000E+00
       11   -1    0    0    0    0  0.00000000000E+00  0.00000000000E+00  0.39999999673E+01  0.40000000000E+01  0.51109989000E-03 0. -1.
     -623   -1    0    0    0    0  0.00000000000E+00  0.00000000000E+00  0.12525980253E-10  0.17130000000E+03  0.17130000000E+03 0.  1.
       11    1    1    2    0    0  0.51070965162E-01 -0.25036466429E-02  0.44140293670E+00  0.44435495437E+00  0.51109989000E-03 0. -1.
     -623    1    1    2    0    0 -0.44073475954E-01  0.25614722050E-01  0.15721145827E-01  0.17130000831E+03  0.17130000000E+03 0.  1.
      622    1    1    2    0    0 -0.69974892084E-02 -0.23111075407E-01  0.35428758848E+01  0.35556367393E+01  0.30000000000E+00 0. -1.
</event>
<event>
 5   0  0.5137000E+05  0.9118800E+02  0.7818608E-02  0.1180000E+00
       11   -1    0    0    0    0  0.00000000000E+00  0.00000000000E+00  0.39999999673E+01  0.40000000000E+01  0.51109989000E-03 0. -1.
     -623   -1    0    0    0    0  0.00000000000E+00  0.00000000000E+00  0.12525980253E-10  0.17130000000E+03  0.17130000000E+03 0.  1.
       11    1    1    2    0    0  0.44184371778E-01 -0.36055218694E-01  0.24731301964E+00  0.25380352325E+00  0.51109989000E-03 0. -1.
     -623    1    1    2    0    0  0.10457454932E-01  0.41743658942E-03  0.19093250776E-01  0.17130000138E+03  0.17130000000E+03 0.  1.
      622    1    1    2    0    0 -0.54641826710E-01  0.35637782105E-01  0.37335936969E+01  0.37461950930E+01  0.30000000000E+00 0. -1.
</event>
<event>
 5   0  0.5137000E+05  0.9118800E+02  0.7818608E-02  0.1180000E+00
       11   -1    0    0    0    0  0.00000000000E+00  0.00000000000E+00  0.39999999673E+01  0.40000000000E+01  0.51109989000E-03 0. -1.
     -623   -1    0    0    0    0  0.00000000000E+00  0.00000000000E+00  0.12525980253E-10  0.17130000000E+03  0.17130000000E+03 0. -1.
       11    1    1    2    0    0  0.17817231542E-02  0.84172912988E-02  0.31278741036E+00  0.31290613710E+00  0.51109989000E-03 0. -1.
     -623    1    1    2    0    0  0.20639361906E-01 -0.37544395250E-03  0.12422592402E-01  0.17130000169E+03  0.17130000000E+03 0. -1.
      622    1    1    2    0    0 -0.22421085060E-01 -0.80418473463E-02  0.36747899646E+01  0.36870921687E+01  0.30000000000E+00 0. -1.
</event>
<event>
 5   0  0.5137000E+05  0.9118800E+02  0.7818608E-02  0.1180000E+00
       11   -1    0    0    0    0  0.00000000000E+00  0.00000000000E+00  0.39999999673E+01  0.40000000000E+01  0.51109989000E-03 0. -1.
     -623   -1    0    0    0    0  0.00000000000E+00  0.00000000000E+00  0.12525980253E-10  0.17130000000E+03  0.17130000000E+03 0. -1.
       11    1    1    2    0    0 -0.72789011256E-01 -0.23878059612E-01  0.33891658596E+00  0.34746671114E+00  0.51109989000E-03 0. -1.
     -623    1    1    2    0    0 -0.63596055431E-01  0.29218401036E-01  0.23466876365E-01  0.17130001590E+03  0.17130000000E+03 0. -1.
      622    1    1    2    0    0  0.13638506669E+00 -0.53403414239E-02  0.36376165050E+01  0.36525173844E+01  0.30000000000E+00 0. -1.
</event>
<event>
 5   0  0.5137000E+05  0.9118800E+02  0.7818608E-02  0.1180000E+00
       11   -1    0    0    0    0  0.00000000000E+00  0.00000000000E+00  0.39999999673E+01  0.40000000000E+01  0.51109989000E-03 0.  1.
     -623   -1    0    0    0    0  0.00000000000E+00  0.00000000000E+00  0.12525980253E-10  0.17130000000E+03  0.17130000000E+03 0. -1.
       11    1    1    2    0    0 -0.31077979951E-01  0.17385133525E-01  0.91231721673E+00  0.91301207488E+00  0.51109989000E-03 0.  1.
     -623    1    1    2    0    0 -0.27194475531E-01 -0.73131777229E-01  0.16383915022E-01  0.17130001855E+03  0.17130000000E+03 0. -1.
      622    1    1    2    0    0  0.58272455482E-01  0.55746643704E-01  0.30712988356E+01  0.30869693722E+01  0.30000000000E+00 0. -1.
</event>
<event>
 5   0  0.5137000E+05  0.9118800E+02  0.7818608E-02  0.1180000E+00
       11   -1    0    0    0    0  0.00000000000E+00  0.00000000000E+00  0.39999999673E+01  0.40000000000E+01  0.51109989000E-03 0.  1.
     -623   -1    0    0    0    0  0.00000000000E+00  0.00000000000E+00  0.12525980253E-10  0.17130000000E+03  0.17130000000E+03 0.  1.
       11    1    1    2    0    0 -0.23976371808E-01  0.63813056651E-02  0.36359675793E-01  0.44021298413E-01  0.51109989000E-03 0.  1.
     -623    1    1    2    0    0 -0.67976525103E-02 -0.27910848413E-01  0.19235479275E-01  0.17130000349E+03  0.17130000000E+03 0.  1.
      622    1    1    2    0    0  0.30774024318E-01  0.21529542748E-01  0.39444048123E+01  0.39559752129E+01  0.30000000000E+00 0.  1.
</event>
<event>
 5   0  0.5137000E+05  0.9118800E+02  0.7818608E-02  0.1180000E+00
       11   -1    0    0    0    0  0.00000000000E+00  0.00000000000E+00  0.39999999673E+01  0.40000000000E+01  0.51109989000E-03 0. -1.
     -623   -1    0    0    0    0  0.00000000000E+00  0.00000000000E+00  0.12525980253E-10  0.17130000000E+03  0.17130000000E+03 0. -1.
       11    1    1    2    0    0 -0.12720068010E-01 -0.97987724914E-02  0.42989109267E+00  0.43019115386E+00  0.51109989000E-03 0. -1.
     -623    1    1    2    0    0  0.16462063493E-04 -0.70580438672E-02  0.12991346571E-01  0.17130000064E+03  0.17130000000E+03 0. -1.
      622    1    1    2    0    0  0.12703605946E-01  0.16856816359E-01  0.35571175281E+01  0.35698082081E+01  0.30000000000E+00 0. -1.
</event>
<event>
 5   0  0.5137000E+05  0.9118800E+02  0.7818608E-02  0.1180000E+00
       11   -1    0    0    0    0  0.00000000000E+00  0.00000000000E+00  0.39999999673E+01  0.40000000000E+01  0.51109989000E-03 0.  1.
     -623   -1    0    0    0    0  0.00000000000E+00  0.00000000000E+00  0.12525980253E-10  0.17130000000E+03  0.17130000000E+03 0.  1.
       11    1    1    2    0    0 -0.10469021130E+00 -0.42240611700E-01  0.77612484269E+00  0.78429225566E+00  0.51109989000E-03 0.  1.
     -623    1    1    2    0    0  0.26319496593E-01  0.73413976509E-01  0.23322335040E-01  0.17130001934E+03  0.17130000000E+03 0.  1.
      622    1    1    2    0    0  0.78370714704E-01 -0.31173364809E-01  0.32005527896E+01  0.32156884032E+01  0.30000000000E+00 0.  1.
</event>
<event>
 5   0  0.5137000E+05  0.9118800E+02  0.7818608E-02  0.1180000E+00
       11   -1    0    0    0    0  0.00000000000E+00  0.00000000000E+00  0.39999999673E+01  0.40000000000E+01  0.51109989000E-03 0.  1.
     -623   -1    0    0    0    0  0.00000000000E+00  0.00000000000E+00  0.12525980253E-10  0.17130000000E+03  0.17130000000E+03 0. -1.
       11    1    1    2    0    0  0.90925861916E-02 -0.51302052814E-02  0.18825219089E+00  0.18854215107E+00  0.51109989000E-03 0.  1.
     -623    1    1    2    0    0 -0.66365192737E-02 -0.13421650227E-01  0.12161950173E-01  0.17130000109E+03  0.17130000000E+03 0. -1.
      622    1    1    2    0    0 -0.24560669179E-02  0.18551855508E-01  0.37995858263E+01  0.38114567628E+01  0.30000000000E+00 0.  1.
</event>
<event>
 5   0  0.5137000E+05  0.9118800E+02  0.7818608E-02  0.1180000E+00
       11   -1    0    0    0    0  0.00000000000E+00  0.00000000000E+00  0.39999999673E+01  0.40000000000E+01  0.51109989000E-03 0. -1.
     -623   -1    0    0    0    0  0.00000000000E+00  0.00000000000E+00  0.12525980253E-10  0.17130000000E+03  0.17130000000E+03 0.  1.
       11    1    1    2    0    0 -0.80352689767E-02 -0.10250041389E-01  0.46078262327E-01  0.47886285892E-01  0.51109989000E-03 0. -1.
     -623    1    1    2    0    0  0.95364689883E-02  0.29030931487E-01  0.13259040550E-01  0.17130000324E+03  0.17130000000E+03 0.  1.
      622    1    1    2    0    0 -0.15012000116E-02 -0.18780890098E-01  0.39406626645E+01  0.39521104755E+01  0.30000000000E+00 0. -1.
</event>
<event>
 5   0  0.5137000E+05  0.9118800E+02  0.7818608E-02  0.1180000E+00
       11   -1    0    0    0    0  0.00000000000E+00  0.00000000000E+00  0.39999999673E+01  0.40000000000E+01  0.51109989000E-03 0.  1.
     -623   -1    0    0    0    0  0.00000000000E+00  0.00000000000E+00  0.12525980253E-10  0.17130000000E+03  0.17130000000E+03 0.  1.
       11    1    1    2    0    0  0.35361527903E-01 -0.31176866862E-02  0.28073582068E-01  0.45260853495E-01  0.51109989000E-03 0.  1.
     -623    1    1    2    0    0  0.20742791541E-01  0.59352082998E-01  0.29396676517E-01  0.17130001406E+03  0.17130000000E+03 0.  1.
      622    1    1    2    0    0 -0.56104319443E-01 -0.56234396312E-01  0.39425297088E+01  0.39547250861E+01  0.30000000000E+00 0.  1.
</event>
<event>
 5   0  0.5137000E+05  0.9118800E+02  0.7818608E-02  0.1180000E+00
       11   -1    0    0    0    0  0.00000000000E+00  0.00000000000E+00  0.39999999673E+01  0.40000000000E+01  0.51109989000E-03 0.  1.
     -623   -1    0    0    0    0  0.00000000000E+00  0.00000000000E+00  0.12525980253E-10  0.17130000000E+03  0.17130000000E+03 0. -1.
       11    1    1    2    0    0 -0.46413674567E-01  0.37625886814E-01  0.11398915581E+00  0.12870013756E+00  0.51109989000E-03 0.  1.
     -623    1    1    2    0    0  0.28408489644E-01  0.30817131467E-03  0.26585306152E-01  0.17130000442E+03  0.17130000000E+03 0. -1.
      622    1    1    2    0    0  0.18005184923E-01 -0.37934058129E-01  0.38594255054E+01  0.38712954435E+01  0.30000000000E+00 0.  1.
</event>
<event>
 5   0  0.5137000E+05  0.9118800E+02  0.7818608E-02  0.1180000E+00
       11   -1    0    0    0    0  0.00000000000E+00  0.00000000000E+00  0.39999999673E+01  0.40000000000E+01  0.51109989000E-03 0.  1.
     -623   -1    0    0    0    0  0.00000000000E+00  0.00000000000E+00  0.12525980253E-10  0.17130000000E+03  0.17130000000E+03 0.  1.
       11    1    1    2    0    0  0.13917625188E-02 -0.20261031418E-01  0.30548652873E-01  0.36686888836E-01  0.51109989000E-03 0.  1.
     -623    1    1    2    0    0 -0.38357055327E-01  0.29091163182E-01  0.17699102531E-01  0.17130000768E+03  0.17130000000E+03 0.  1.
      622    1    1    2    0    0  0.36965292809E-01 -0.88301317638E-02  0.39517522120E+01  0.39633054322E+01  0.30000000000E+00 0.  1.
</event>
<event>
 5   0  0.5137000E+05  0.9118800E+02  0.7818608E-02  0.1180000E+00
       11   -1    0    0    0    0  0.00000000000E+00  0.00000000000E+00  0.39999999673E+01  0.40000000000E+01  0.51109989000E-03 0. -1.
     -623   -1    0    0    0    0  0.00000000000E+00  0.00000000000E+00  0.12525980253E-10  0.17130000000E+03  0.17130000000E+03 0. -1.
       11    1    1    2    0    0  0.33569321680E-02 -0.59869381983E-02  0.36265077034E-01  0.36912456669E-01  0.51109989000E-03 0. -1.
     -623    1    1    2    0    0  0.12517937565E-01  0.56949379553E-02  0.12051319531E-01  0.17130000098E+03  0.17130000000E+03 0. -1.
      622    1    1    2    0    0 -0.15874869733E-01  0.29200024296E-03  0.39516835708E+01  0.39630865674E+01  0.30000000000E+00 0. -1.
</event>
<event>
 5   0  0.5137000E+05  0.9118800E+02  0.7818608E-02  0.1180000E+00
       11   -1    0    0    0    0  0.00000000000E+00  0.00000000000E+00  0.39999999673E+01  0.40000000000E+01  0.51109989000E-03 0.  1.
     -623   -1    0    0    0    0  0.00000000000E+00  0.00000000000E+00  0.12525980253E-10  0.17130000000E+03  0.17130000000E+03 0.  1.
       11    1    1    2    0    0  0.11787815439E+00  0.22625092026E-01  0.85972854438E+00  0.86806715485E+00  0.51109989000E-03 0.  1.
     -623    1    1    2    0    0 -0.21486374359E-01  0.19851991256E-01  0.24524156870E-01  0.17130000425E+03  0.17130000000E+03 0.  1.
      622    1    1    2    0    0 -0.96391780035E-01 -0.42477083283E-01  0.31157472661E+01  0.31319285918E+01  0.30000000000E+00 0.  1.
</event>
<event>
 5   0  0.5137000E+05  0.9118800E+02  0.7818608E-02  0.1180000E+00
       11   -1    0    0    0    0  0.00000000000E+00  0.00000000000E+00  0.39999999673E+01  0.40000000000E+01  0.51109989000E-03 0. -1.
     -623   -1    0    0    0    0  0.00000000000E+00  0.00000000000E+00  0.12525980253E-10  0.17130000000E+03  0.17130000000E+03 0.  1.
       11    1    1    2    0    0 -0.20246230771E-01 -0.14852001248E-01  0.84757063593E-01  0.88399733334E-01  0.51109989000E-03 0. -1.
     -623    1    1    2    0    0  0.25340437050E-01 -0.13119412896E-01  0.15270547836E-01  0.17130000306E+03  0.17130000000E+03 0.  1.
      622    1    1    2    0    0 -0.50942062783E-02  0.27971414143E-01  0.38999723559E+01  0.39115972093E+01  0.30000000000E+00 0. -1.
</event>
<event>
 5   0  0.5137000E+05  0.9118800E+02  0.7818608E-02  0.1180000E+00
       11   -1    0    0    0    0  0.00000000000E+00  0.00000000000E+00  0.39999999673E+01  0.40000000000E+01  0.51109989000E-03 0.  1.
     -623   -1    0    0    0    0  0.00000000000E+00  0.00000000000E+00  0.12525980253E-10  0.17130000000E+03  0.17130000000E+03 0. -1.
       11    1    1    2    0    0  0.60347341172E-02  0.10538616586E-01  0.39551988561E-01  0.41377547949E-01  0.51109989000E-03 0.  1.
     -623    1    1    2    0    0  0.67395176876E-02 -0.17295909192E-01  0.13237462097E-01  0.17130000152E+03  0.17130000000E+03 0. -1.
      622    1    1    2    0    0 -0.12774251805E-01  0.67572926066E-02  0.39472105167E+01  0.39586209348E+01  0.30000000000E+00 0.  1.
</event>
<event>
 5   0  0.5137000E+05  0.9118800E+02  0.7818608E-02  0.1180000E+00
       11   -1    0    0    0    0  0.00000000000E+00  0.00000000000E+00  0.39999999673E+01  0.40000000000E+01  0.51109989000E-03 0.  1.
     -623   -1    0    0    0    0  0.00000000000E+00  0.00000000000E+00  0.12525980253E-10  0.17130000000E+03  0.17130000000E+03 0. -1.
       11    1    1    2    0    0 -0.10788874763E-01  0.41056727834E-02  0.22894000443E-01  0.25644743024E-01  0.51109989000E-03 0.  1.
     -623    1    1    2    0    0  0.10275428757E-01  0.16728658011E-01  0.14145988509E-01  0.17130000171E+03  0.17130000000E+03 0. -1.
      622    1    1    2    0    0  0.51344600535E-03 -0.20834330794E-01  0.39629599784E+01  0.39743535479E+01  0.30000000000E+00 0.  1.
</event>
<event>
 5   0  0.5137000E+05  0.9118800E+02  0.7818608E-02  0.1180000E+00
       11   -1    0    0    0    0  0.00000000000E+00  0.00000000000E+00  0.39999999673E+01  0.40000000000E+01  0.51109989000E-03 0.  1.
     -623   -1    0    0    0    0  0.00000000000E+00  0.00000000000E+00  0.12525980253E-10  0.17130000000E+03  0.17130000000E+03 0. -1.
       11    1    1    2    0    0 -0.68571102553E-01  0.50601600061E-01  0.98358890018E-01  0.13014319230E+00  0.51109989000E-03 0.  1.
     -623    1    1    2    0    0  0.79849537521E-01  0.67715157008E-01  0.45299330276E-01  0.17130003798E+03  0.17130000000E+03 0. -1.
      622    1    1    2    0    0 -0.11278434968E-01 -0.11831675707E+00  0.38563417471E+01  0.38698188237E+01  0.30000000000E+00 0.  1.
</event>
<event>
 5   0  0.5137000E+05  0.9118800E+02  0.7818608E-02  0.1180000E+00
       11   -1    0    0    0    0  0.00000000000E+00  0.00000000000E+00  0.39999999673E+01  0.40000000000E+01  0.51109989000E-03 0. -1.
     -623   -1    0    0    0    0  0.00000000000E+00  0.00000000000E+00  0.12525980253E-10  0.17130000000E+03  0.17130000000E+03 0. -1.
       11    1    1    2    0    0 -0.72623963748E-03 -0.42772860333E-02  0.78369821696E-03  0.44382434755E-02  0.51109989000E-03 0. -1.
     -623    1    1    2    0    0 -0.93013738019E-02  0.24196891187E-01  0.14997966220E-01  0.17130000262E+03  0.17130000000E+03 0. -1.
      622    1    1    2    0    0  0.10027613439E-01 -0.19919605154E-01  0.39842183029E+01  0.39955591385E+01  0.30000000000E+00 0. -1.
</event>
<event>
 5   0  0.5137000E+05  0.9118800E+02  0.7818608E-02  0.1180000E+00
       11   -1    0    0    0    0  0.00000000000E+00  0.00000000000E+00  0.39999999673E+01  0.40000000000E+01  0.51109989000E-03 0.  1.
     -623   -1    0    0    0    0  0.00000000000E+00  0.00000000000E+00  0.12525980253E-10  0.17130000000E+03  0.17130000000E+03 0. -1.
       11    1    1    2    0    0  0.11206366704E-01 -0.64701253802E-02  0.50064137558E-01  0.51711935457E-01  0.51109989000E-03 0.  1.
     -623    1    1    2    0    0 -0.12311540604E-01  0.61211342861E-01  0.13454305393E-01  0.17130001191E+03  0.17130000000E+03 0. -1.
      622    1    1    2    0    0  0.11051739000E-02 -0.54741217481E-01  0.39364815244E+01  0.39482761573E+01  0.30000000000E+00 0.  1.
</event>
<event>
 5   0  0.5137000E+05  0.9118800E+02  0.7818608E-02  0.1180000E+00
       11   -1    0    0    0    0  0.00000000000E+00  0.00000000000E+00  0.39999999673E+01  0.40000000000E+01  0.51109989000E-03 0. -1.
     -623   -1    0    0    0    0  0.00000000000E+00  0.00000000000E+00  0.12525980253E-10  0.17130000000E+03  0.17130000000E+03 0.  1.
       11    1    1    2    0    0  0.12800958838E-01  0.23559047185E-01  0.37320239402E-02  0.27075495881E-01  0.51109989000E-03 0. -1.
     -623    1    1    2    0    0  0.30059468394E-01  0.10529878389E-01  0.35071408373E-01  0.17130000655E+03  0.17130000000E+03 0.  1.
      622    1    1    2    0    0 -0.42860427231E-01 -0.34088925573E-01  0.39611965351E+01  0.39729179529E+01  0.30000000000E+00 0. -1.
</event>
<event>
 5   0  0.5137000E+05  0.9118800E+02  0.7818608E-02  0.1180000E+00
       11   -1    0    0    0    0  0.00000000000E+00  0.00000000000E+00  0.39999999673E+01  0.40000000000E+01  0.51109989000E-03 0.  1.
     -623   -1    0    0    0    0  0.00000000000E+00  0.00000000000E+00  0.12525980253E-10  0.17130000000E+03  0.17130000000E+03 0.  1.
       11    1    1    2    0    0  0.12518349962E+00  0.60335285764E-01  0.15966803966E+00  0.21167285937E+00  0.51109989000E-03 0.  1.
     -623    1    1    2    0    0  0.10361010055E+00  0.90757756835E-01  0.73940228186E-01  0.17130007133E+03  0.17130000000E+03 0.  1.
      622    1    1    2    0    0 -0.22879360016E+00 -0.15109304260E+00  0.37663916995E+01  0.37882558062E+01  0.30000000000E+00 0.  1.
</event>
<event>
 5   0  0.5137000E+05  0.9118800E+02  0.7818608E-02  0.1180000E+00
       11   -1    0    0    0    0  0.00000000000E+00  0.00000000000E+00  0.39999999673E+01  0.40000000000E+01  0.51109989000E-03 0.  1.
     -623   -1    0    0    0    0  0.00000000000E+00  0.00000000000E+00  0.12525980253E-10  0.17130000000E+03  0.17130000000E+03 0. -1.
       11    1    1    2    0    0  0.21135189852E-01  0.98124477818E-02 -0.49082433873E-02  0.23818741734E-01  0.51109989000E-03 0.  1.
     -623    1    1    2    0    0 -0.12037602240E-01  0.54071170174E-02  0.40105363133E-01  0.17130000520E+03  0.17130000000E+03 0. -1.
      622    1    1    2    0    0 -0.90975876119E-02 -0.15219564799E-01  0.39648028476E+01  0.39761760552E+01  0.30000000000E+00 0.  1.
</event>
<event>
 5   0  0.5137000E+05  0.9118800E+02  0.7818608E-02  0.1180000E+00
       11   -1    0    0    0    0  0.00000000000E+00  0.00000000000E+00  0.39999999673E+01  0.40000000000E+01  0.51109989000E-03 0. -1.
     -623   -1    0    0    0    0  0.00000000000E+00  0.00000000000E+00  0.12525980253E-10  0.17130000000E+03  0.17130000000E+03 0. -1.
       11    1    1    2    0    0 -0.78800784148E-02  0.59985343020E-02  0.41189586482E-01  0.42366511613E-01  0.51109989000E-03 0. -1.
     -623    1    1    2    0    0 -0.30574759323E-01  0.13723683572E-02  0.12761176896E-01  0.17130000321E+03  0.17130000000E+03 0. -1.
      622    1    1    2    0    0  0.38454837738E-01 -0.73709026592E-02  0.39460492040E+01  0.39576302790E+01  0.30000000000E+00 0. -1.
</event>
<event>
 5   0  0.5137000E+05  0.9118800E+02  0.7818608E-02  0.1180000E+00
       11   -1    0    0    0    0  0.00000000000E+00  0.00000000000E+00  0.39999999673E+01  0.40000000000E+01  0.51109989000E-03 0. -1.
     -623   -1    0    0    0    0  0.00000000000E+00  0.00000000000E+00  0.12525980253E-10  0.17130000000E+03  0.17130000000E+03 0.  1.
       11    1    1    2    0    0 -0.59871066157E-02  0.41472932661E-01  0.88698258122E-01  0.98099397582E-01  0.51109989000E-03 0. -1.
     -623    1    1    2    0    0 -0.16052962596E-01 -0.40620666488E-01  0.21020446822E-01  0.17130000686E+03  0.17130000000E+03 0.  1.
      622    1    1    2    0    0  0.22040069212E-01 -0.85226617273E-03  0.38902812624E+01  0.39018937443E+01  0.30000000000E+00 0. -1.
</event>
<event>
 5   0  0.5137000E+05  0.9118800E+02  0.7818608E-02  0.1180000E+00
       11   -1    0    0    0    0  0.00000000000E+00  0.00000000000E+00  0.39999999673E+01  0.40000000000E+01  0.51109989000E-03 0.  1.
     -623   -1    0    0    0    0  0.00000000000E+00  0.00000000000E+00  0.12525980253E-10  0.17130000000E+03  0.17130000000E+03 0.  1.
       11    1    1    2    0    0 -0.21243024971E-01 -0.24553831342E-01  0.15981717249E+00  0.16308263730E+00  0.51109989000E-03 0.  1.
     -623    1    1    2    0    0  0.46775918269E-03  0.36676421081E-01  0.15091809955E-01  0.17130000459E+03  0.17130000000E+03 0.  1.
      622    1    1    2    0    0  0.20775265788E-01 -0.12122589740E-01  0.38250909849E+01  0.38369127709E+01  0.30000000000E+00 0.  1.
</event>
<event>
 5   0  0.5137000E+05  0.9118800E+02  0.7818608E-02  0.1180000E+00
       11   -1    0    0    0    0  0.00000000000E+00  0.00000000000E+00  0.39999999673E+01  0.40000000000E+01  0.51109989000E-03 0. -1.
     -623   -1    0    0    0    0  0.00000000000E+00  0.00000000000E+00  0.12525980253E-10  0.17130000000E+03  0.17130000000E+03 0.  1.
       11    1    1    2    0    0 -0.25245713596E-02  0.74733689101E-02  0.24608079909E-01  0.25846537883E-01  0.51109989000E-03 0. -1.
     -623    1    1    2    0    0 -0.35381047935E-02 -0.11581862028E-01  0.12585428951E-01  0.17130000089E+03  0.17130000000E+03 0.  1.
      622    1    1    2    0    0  0.60626761531E-02  0.41084931175E-02  0.39628064585E+01  0.39741525717E+01  0.30000000000E+00 0. -1.
</event>
<event>
 5   0  0.5137000E+05  0.9118800E+02  0.7818608E-02  0.1180000E+00
       11   -1    0    0    0    0  0.00000000000E+00  0.00000000000E+00  0.39999999673E+01  0.40000000000E+01  0.51109989000E-03 0.  1.
     -623   -1    0    0    0    0  0.00000000000E+00  0.00000000000E+00  0.12525980253E-10  0.17130000000E+03  0.17130000000E+03 0.  1.
       11    1    1    2    0    0  0.57039085891E-01 -0.42289742853E-02  0.21284457439E+00  0.22039604264E+00  0.51109989000E-03 0.  1.
     -623    1    1    2    0    0 -0.93466294291E-01 -0.48080141073E-01  0.20049041462E-01  0.17130003342E+03  0.17130000000E+03 0.  1.
      622    1    1    2    0    0  0.36427208400E-01  0.52309115359E-01  0.37671063515E+01  0.37795705376E+01  0.30000000000E+00 0.  1.
</event>
<event>
 5   0  0.5137000E+05  0.9118800E+02  0.7818608E-02  0.1180000E+00
       11   -1    0    0    0    0  0.00000000000E+00  0.00000000000E+00  0.39999999673E+01  0.40000000000E+01  0.51109989000E-03 0. -1.
     -623   -1    0    0    0    0  0.00000000000E+00  0.00000000000E+00  0.12525980253E-10  0.17130000000E+03  0.17130000000E+03 0.  1.
       11    1    1    2    0    0  0.86543500867E-02  0.57477819570E-01  0.40788866488E+00  0.41200973493E+00  0.51109989000E-03 0. -1.
     -623    1    1    2    0    0 -0.45087866499E-01 -0.55382908201E-01  0.16886896509E-01  0.17130001572E+03  0.17130000000E+03 0.  1.
      622    1    1    2    0    0  0.36433516413E-01 -0.20949113682E-02  0.35752244060E+01  0.35879745460E+01  0.30000000000E+00 0. -1.
</event>
<event>
 5   0  0.5137000E+05  0.9118800E+02  0.7818608E-02  0.1180000E+00
       11   -1    0    0    0    0  0.00000000000E+00  0.00000000000E+00  0.39999999673E+01  0.40000000000E+01  0.51109989000E-03 0. -1.
     -623   -1    0    0    0    0  0.00000000000E+00  0.00000000000E+00  0.12525980253E-10  0.17130000000E+03  0.17130000000E+03 0. -1.
       11    1    1    2    0    0 -0.75217562102E-02 -0.17105876946E-01  0.53627093013E-02  0.19447563242E-01  0.51109989000E-03 0. -1.
     -623    1    1    2    0    0  0.36072112753E-01 -0.13896635606E-02  0.25557385522E-01  0.17130000571E+03  0.17130000000E+03 0. -1.
      622    1    1    2    0    0 -0.28550356543E-01  0.18495540506E-01  0.39690798725E+01  0.39805467266E+01  0.30000000000E+00 0. -1.
</event>
<event>
 5   0  0.5137000E+05  0.9118800E+02  0.7818608E-02  0.1180000E+00
       11   -1    0    0    0    0  0.00000000000E+00  0.00000000000E+00  0.39999999673E+01  0.40000000000E+01  0.51109989000E-03 0.  1.
     -623   -1    0    0    0    0  0.00000000000E+00  0.00000000000E+00  0.12525980253E-10  0.17130000000E+03  0.17130000000E+03 0.  1.
       11    1    1    2    0    0  0.55051785353E-01  0.12647282365E-01  0.16136800893E+00  0.17096943689E+00  0.51109989000E-03 0.  1.
     -623    1    1    2    0    0 -0.24049972775E-01 -0.10777134642E-01  0.21501546156E-01  0.17130000338E+03  0.17130000000E+03 0.  1.
      622    1    1    2    0    0 -0.31001812578E-01 -0.18701477236E-02  0.38171304123E+01  0.38290271864E+01  0.30000000000E+00 0.  0.
</event>
<event>
 5   0  0.5137000E+05  0.9118800E+02  0.7818608E-02  0.1180000E+00
       11   -1    0    0    0    0  0.00000000000E+00  0.00000000000E+00  0.39999999673E+01  0.40000000000E+01  0.51109989000E-03 0.  1.
     -623   -1    0    0    0    0  0.00000000000E+00  0.00000000000E+00  0.12525980253E-10  0.17130000000E+03  0.17130000000E+03 0.  1.
       11    1    1    2    0    0 -0.54079519259E-03 -0.10285462299E-01 -0.23752268841E-02  0.10582349455E-01  0.51109989000E-03 0.  1.
     -623    1    1    2    0    0 -0.91392995309E-02  0.10354456880E-01  0.24267437513E-01  0.17130000228E+03  0.17130000000E+03 0.  1.
      622    1    1    2    0    0  0.96800947235E-02 -0.68994580880E-04  0.39781077567E+01  0.39894153749E+01  0.30000000000E+00 0.  1.
</event>
<event>
 5   0  0.5137000E+05  0.9118800E+02  0.7818608E-02  0.1180000E+00
       11   -1    0    0    0    0  0.00000000000E+00  0.00000000000E+00  0.39999999673E+01  0.40000000000E+01  0.51109989000E-03 0.  1.
     -623   -1    0    0    0    0  0.00000000000E+00  0.00000000000E+00  0.12525980253E-10  0.17130000000E+03  0.17130000000E+03 0. -1.
       11    1    1    2    0    0 -0.76405203970E-01  0.20340118941E-01  0.39156322843E+00  0.39946651764E+00  0.51109989000E-03 0.  1.
     -623    1    1    2    0    0 -0.27285587072E-02 -0.25202234538E-01  0.21302434204E-01  0.17130000320E+03  0.17130000000E+03 0. -1.
      622    1    1    2    0    0  0.79133762677E-01  0.48621155971E-02  0.35871343047E+01  0.36005302822E+01  0.30000000000E+00 0.  1.
</event>
<event>
 5   0  0.5137000E+05  0.9118800E+02  0.7818608E-02  0.1180000E+00
       11   -1    0    0    0    0  0.00000000000E+00  0.00000000000E+00  0.39999999673E+01  0.40000000000E+01  0.51109989000E-03 0.  1.
     -623   -1    0    0    0    0  0.00000000000E+00  0.00000000000E+00  0.12525980253E-10  0.17130000000E+03  0.17130000000E+03 0.  1.
       11    1    1    2    0    0  0.12779048911E-01 -0.28016014624E-02  0.74333694885E-02  0.15055539382E-01  0.51109989000E-03 0.  1.
     -623    1    1    2    0    0 -0.39753471071E-01  0.11905429370E-01  0.19038774607E-01  0.17130000608E+03  0.17130000000E+03 0.  1.
      622    1    1    2    0    0  0.26974422159E-01 -0.91038279079E-02  0.39735278233E+01  0.39849383761E+01  0.30000000000E+00 0.  1.
</event>
<event>
 5   0  0.5137000E+05  0.9118800E+02  0.7818608E-02  0.1180000E+00
       11   -1    0    0    0    0  0.00000000000E+00  0.00000000000E+00  0.39999999673E+01  0.40000000000E+01  0.51109989000E-03 0. -1.
     -623   -1    0    0    0    0  0.00000000000E+00  0.00000000000E+00  0.12525980253E-10  0.17130000000E+03  0.17130000000E+03 0. -1.
       11    1    1    2    0    0  0.28825584287E-01  0.45050827179E-01  0.15026152994E+00  0.15949695904E+00  0.51109989000E-03 0. -1.
     -623    1    1    2    0    0 -0.72987192825E-01 -0.76861279344E-01  0.21391625036E-01  0.17130003413E+03  0.17130000000E+03 0. -1.
      622    1    1    2    0    0  0.44161608537E-01  0.31810452165E-01  0.38283468124E+01  0.38404689126E+01  0.30000000000E+00 0. -1.
</event>
<event>
 5   0  0.5137000E+05  0.9118800E+02  0.7818608E-02  0.1180000E+00
       11   -1    0    0    0    0  0.00000000000E+00  0.00000000000E+00  0.39999999673E+01  0.40000000000E+01  0.51109989000E-03 0. -1.
     -623   -1    0    0    0    0  0.00000000000E+00  0.00000000000E+00  0.12525980253E-10  0.17130000000E+03  0.17130000000E+03 0. -1.
       11    1    1    2    0    0  0.17505069683E-01 -0.10896901710E-01  0.46045351628E-01  0.50453994501E-01  0.51109989000E-03 0. -1.
     -623    1    1    2    0    0 -0.19172569416E-01  0.74181396223E-02  0.15822666325E-01  0.17130000196E+03  0.17130000000E+03 0. -1.
      622    1    1    2    0    0  0.16674997332E-02  0.34787620873E-02  0.39381319494E+01  0.39495440412E+01  0.30000000000E+00 0. -1.
</event>
<event>
 5   0  0.5137000E+05  0.9118800E+02  0.7818608E-02  0.1180000E+00
       11   -1    0    0    0    0  0.00000000000E+00  0.00000000000E+00  0.39999999673E+01  0.40000000000E+01  0.51109989000E-03 0. -1.
     -623   -1    0    0    0    0  0.00000000000E+00  0.00000000000E+00  0.12525980253E-10  0.17130000000E+03  0.17130000000E+03 0. -1.
       11    1    1    2    0    0  0.73663030453E-02 -0.12165849885E-01  0.64278339710E-02  0.15615652296E-01  0.51109989000E-03 0. -1.
     -623    1    1    2    0    0 -0.15906227634E-02  0.53093856457E-02  0.20509364907E-01  0.17130000132E+03  0.17130000000E+03 0. -1.
      622    1    1    2    0    0 -0.57756802819E-02  0.68564642395E-02  0.39730627685E+01  0.39843830303E+01  0.30000000000E+00 0. -1.
</event>
<event>
 5   0  0.5137000E+05  0.9118800E+02  0.7818608E-02  0.1180000E+00
       11   -1    0    0    0    0  0.00000000000E+00  0.00000000000E+00  0.39999999673E+01  0.40000000000E+01  0.51109989000E-03 0. -1.
     -623   -1    0    0    0    0  0.00000000000E+00  0.00000000000E+00  0.12525980253E-10  0.17130000000E+03  0.17130000000E+03 0. -1.
       11    1    1    2    0    0 -0.12933570185E-01  0.48407000196E-02  0.71402592518E-02  0.15554875035E-01  0.51109989000E-03 0. -1.
     -623    1    1    2    0    0  0.11904969978E-01 -0.97874858797E-02  0.19729601226E-01  0.17130000183E+03  0.17130000000E+03 0. -1.
      622    1    1    2    0    0  0.10286002078E-02  0.49467858601E-02  0.39731301069E+01  0.39844432955E+01  0.30000000000E+00 0. -1.
</event>
<event>
 5   0  0.5137000E+05  0.9118800E+02  0.7818608E-02  0.1180000E+00
       11   -1    0    0    0    0  0.00000000000E+00  0.00000000000E+00  0.39999999673E+01  0.40000000000E+01  0.51109989000E-03 0. -1.
     -623   -1    0    0    0    0  0.00000000000E+00  0.00000000000E+00  0.12525980253E-10  0.17130000000E+03  0.17130000000E+03 0.  1.
       11    1    1    2    0    0  0.66319888637E-01 -0.22310895231E-01  0.22978747319E+00  0.24020542820E+00  0.51109989000E-03 0. -1.
     -623    1    1    2    0    0 -0.40100277937E-01 -0.35233445812E-01  0.22949185751E-01  0.17130000985E+03  0.17130000000E+03 0.  1.
      622    1    1    2    0    0 -0.26219610700E-01  0.57544341043E-01  0.37472633084E+01  0.37597847175E+01  0.30000000000E+00 0. -1.
</event>
<event>
 5   0  0.5137000E+05  0.9118800E+02  0.7818608E-02  0.1180000E+00
       11   -1    0    0    0    0  0.00000000000E+00  0.00000000000E+00  0.39999999673E+01  0.40000000000E+01  0.51109989000E-03 0.  1.
     -623   -1    0    0    0    0  0.00000000000E+00  0.00000000000E+00  0.12525980253E-10  0.17130000000E+03  0.17130000000E+03 0. -1.
       11    1    1    2    0    0 -0.62459692187E-02 -0.22678299522E-02 -0.71642449194E-02  0.97848256262E-02  0.51109989000E-03 0.  1.
     -623    1    1    2    0    0 -0.15458140860E-01 -0.12135622463E-01  0.28331353735E-01  0.17130000347E+03  0.17130000000E+03 0. -1.
      622    1    1    2    0    0  0.21704110078E-01  0.14403452415E-01  0.39788328585E+01  0.39902117042E+01  0.30000000000E+00 0.  1.
</event>
<event>
 5   0  0.5137000E+05  0.9118800E+02  0.7818608E-02  0.1180000E+00
       11   -1    0    0    0    0  0.00000000000E+00  0.00000000000E+00  0.39999999673E+01  0.40000000000E+01  0.51109989000E-03 0.  1.
     -623   -1    0    0    0    0  0.00000000000E+00  0.00000000000E+00  0.12525980253E-10  0.17130000000E+03  0.17130000000E+03 0.  1.
       11    1    1    2    0    0 -0.87959381453E-03 -0.59530415738E-02  0.12387473688E+00  0.12402186923E+00  0.51109989000E-03 0.  1.
     -623    1    1    2    0    0 -0.34866120264E-01  0.42989270135E-03  0.11947767085E-01  0.17130000397E+03  0.17130000000E+03 0.  1.
      622    1    1    2    0    0  0.35745714078E-01  0.55231488724E-02  0.38641774634E+01  0.38759741653E+01  0.30000000000E+00 0.  1.
</event>
<event>
 5   0  0.5137000E+05  0.9118800E+02  0.7818608E-02  0.1180000E+00
       11   -1    0    0    0    0  0.00000000000E+00  0.00000000000E+00  0.39999999673E+01  0.40000000000E+01  0.51109989000E-03 0. -1.
     -623   -1    0    0    0    0  0.00000000000E+00  0.00000000000E+00  0.12525980253E-10  0.17130000000E+03  0.17130000000E+03 0.  1.
       11    1    1    2    0    0 -0.51290952762E-01  0.21434205218E-01  0.45214705124E+00  0.45555175794E+00  0.51109989000E-03 0. -1.
     -623    1    1    2    0    0  0.21817287211E-01 -0.56149735877E-02  0.16284085206E-01  0.17130000226E+03  0.17130000000E+03 0.  1.
      622    1    1    2    0    0  0.29473665550E-01 -0.15819231630E-01  0.35315688309E+01  0.35444459867E+01  0.30000000000E+00 0. -1.
</event>
<event>
 5   0  0.5137000E+05  0.9118800E+02  0.7818608E-02  0.1180000E+00
       11   -1    0    0    0    0  0.00000000000E+00  0.00000000000E+00  0.39999999673E+01  0.40000000000E+01  0.51109989000E-03 0.  1.
     -623   -1    0    0    0    0  0.00000000000E+00  0.00000000000E+00  0.12525980253E-10  0.17130000000E+03  0.17130000000E+03 0. -1.
       11    1    1    2    0    0  0.91593326764E-03  0.81117161718E-03  0.15453242514E-02  0.20362174300E-02  0.51109989000E-03 0.  1.
     -623    1    1    2    0    0  0.16216081553E-01 -0.18679743171E-01  0.11841536554E-01  0.17130000220E+03  0.17130000000E+03 0. -1.
      622    1    1    2    0    0 -0.17132014820E-01  0.17868571554E-01  0.39866131066E+01  0.39979615873E+01  0.30000000000E+00 0.  1.
</event>
<event>
 5   0  0.5137000E+05  0.9118800E+02  0.7818608E-02  0.1180000E+00
       11   -1    0    0    0    0  0.00000000000E+00  0.00000000000E+00  0.39999999673E+01  0.40000000000E+01  0.51109989000E-03 0. -1.
     -623   -1    0    0    0    0  0.00000000000E+00  0.00000000000E+00  0.12525980253E-10  0.17130000000E+03  0.17130000000E+03 0. -1.
       11    1    1    2    0    0  0.13634772462E-01 -0.73828217386E-01  0.11092897312E+00  0.13394779208E+00  0.51109989000E-03 0. -1.
     -623    1    1    2    0    0 -0.34668716677E-01  0.28468723768E-01  0.35009930366E-01  0.17130000945E+03  0.17130000000E+03 0. -1.
      622    1    1    2    0    0  0.21033944216E-01  0.45359493618E-01  0.38540610639E+01  0.38660427564E+01  0.30000000000E+00 0. -1.
</event>
<event>
 5   0  0.5137000E+05  0.9118800E+02  0.7818608E-02  0.1180000E+00
       11   -1    0    0    0    0  0.00000000000E+00  0.00000000000E+00  0.39999999673E+01  0.40000000000E+01  0.51109989000E-03 0.  1.
     -623   -1    0    0    0    0  0.00000000000E+00  0.00000000000E+00  0.12525980253E-10  0.17130000000E+03  0.17130000000E+03 0.  1.
       11    1    1    2    0    0 -0.73514168032E-02 -0.15238410852E-01  0.29222420985E-01  0.33770750708E-01  0.51109989000E-03 0.  1.
     -623    1    1    2    0    0  0.34876844648E-01  0.22875583365E-01  0.16019366600E-01  0.17130000583E+03  0.17130000000E+03 0.  1.
      622    1    1    2    0    0 -0.27525427845E-01 -0.76371725127E-02  0.39547581798E+01  0.39662234224E+01  0.30000000000E+00 0.  1.
</event>
<event>
 5   0  0.5137000E+05  0.9118800E+02  0.7818608E-02  0.1180000E+00
       11   -1    0    0    0    0  0.00000000000E+00  0.00000000000E+00  0.39999999673E+01  0.40000000000E+01  0.51109989000E-03 0.  1.
     -623   -1    0    0    0    0  0.00000000000E+00  0.00000000000E+00  0.12525980253E-10  0.17130000000E+03  0.17130000000E+03 0.  1.
       11    1    1    2    0    0 -0.47942530397E-02 -0.10481683330E-01  0.79636627164E-01  0.80468031875E-01  0.51109989000E-03 0.  1.
     -623    1    1    2    0    0 -0.10903865248E-01  0.62618222133E-02  0.12363916495E-01  0.17130000091E+03  0.17130000000E+03 0.  1.
      622    1    1    2    0    0  0.15698118287E-01  0.42198611164E-02  0.39079994237E+01  0.39195310604E+01  0.30000000000E+00 0.  1.
</event>
<event>
 5   0  0.5137000E+05  0.9118800E+02  0.7818608E-02  0.1180000E+00
       11   -1    0    0    0    0  0.00000000000E+00  0.00000000000E+00  0.39999999673E+01  0.40000000000E+01  0.51109989000E-03 0.  1.
     -623   -1    0    0    0    0  0.00000000000E+00  0.00000000000E+00  0.12525980253E-10  0.17130000000E+03  0.17130000000E+03 0. -1.
       11    1    1    2    0    0  0.17908115366E-02 -0.60029398204E-02 -0.23786640419E-02  0.67202349787E-02  0.51109989000E-03 0.  1.
     -623    1    1    2    0    0 -0.11283848710E-01  0.16029249858E-01  0.20410026752E-01  0.17130000234E+03  0.17130000000E+03 0. -1.
      622    1    1    2    0    0  0.94930371734E-02 -0.10026310037E-01  0.39819686047E+01  0.39932774275E+01  0.30000000000E+00 0.  1.
</event>
<event>
 5   0  0.5137000E+05  0.9118800E+02  0.7818608E-02  0.1180000E+00
       11   -1    0    0    0    0  0.00000000000E+00  0.00000000000E+00  0.39999999673E+01  0.40000000000E+01  0.51109989000E-03 0.  1.
     -623   -1    0    0    0    0  0.00000000000E+00  0.00000000000E+00  0.12525980253E-10  0.17130000000E+03  0.17130000000E+03 0. -1.
       11    1    1    2    0    0 -0.15989246819E-01 -0.40328982079E-01  0.39425195704E-01  0.58623289638E-01  0.51109989000E-03 0.  1.
     -623    1    1    2    0    0 -0.13151252597E-01  0.85522186354E-02  0.30872002973E-01  0.17130000350E+03  0.17130000000E+03 0. -1.
      622    1    1    2    0    0  0.29140499416E-01  0.31776763444E-01  0.39297027687E+01  0.39413732101E+01  0.30000000000E+00 0.  1.
</event>
<event>
 5   0  0.5137000E+05  0.9118800E+02  0.7818608E-02  0.1180000E+00
       11   -1    0    0    0    0  0.00000000000E+00  0.00000000000E+00  0.39999999673E+01  0.40000000000E+01  0.51109989000E-03 0. -1.
     -623   -1    0    0    0    0  0.00000000000E+00  0.00000000000E+00  0.12525980253E-10  0.17130000000E+03  0.17130000000E+03 0.  1.
       11    1    1    2    0    0  0.29953663015E-01 -0.38362754409E-01  0.11623994534E+01  0.11634180992E+01  0.51109989000E-03 0. -1.
     -623    1    1    2    0    0 -0.86322116561E-02  0.25211146761E-01  0.17041572291E-01  0.17130000292E+03  0.17130000000E+03 0.  1.
      622    1    1    2    0    0 -0.21321451359E-01  0.13151607648E-01  0.28205589416E+01  0.28365789804E+01  0.30000000000E+00 0.  0.
</event>
<event>
 5   0  0.5137000E+05  0.9118800E+02  0.7818608E-02  0.1180000E+00
       11   -1    0    0    0    0  0.00000000000E+00  0.00000000000E+00  0.39999999673E+01  0.40000000000E+01  0.51109989000E-03 0.  1.
     -623   -1    0    0    0    0  0.00000000000E+00  0.00000000000E+00  0.12525980253E-10  0.17130000000E+03  0.17130000000E+03 0. -1.
       11    1    1    2    0    0 -0.97971798966E-02  0.40260424838E-02 -0.33488293158E-02  0.11120684911E-01  0.51109989000E-03 0.  1.
     -623    1    1    2    0    0  0.12653594812E-01  0.17499442311E-01  0.25829432791E-01  0.17130000331E+03  0.17130000000E+03 0. -1.
      622    1    1    2    0    0 -0.28564149154E-02 -0.21525484795E-01  0.39775193639E+01  0.39888760066E+01  0.30000000000E+00 0.  1.
</event>
<event>
 5   0  0.5137000E+05  0.9118800E+02  0.7818608E-02  0.1180000E+00
       11   -1    0    0    0    0  0.00000000000E+00  0.00000000000E+00  0.39999999673E+01  0.40000000000E+01  0.51109989000E-03 0.  1.
     -623   -1    0    0    0    0  0.00000000000E+00  0.00000000000E+00  0.12525980253E-10  0.17130000000E+03  0.17130000000E+03 0.  1.
       11    1    1    2    0    0 -0.13671293158E-01  0.77428053252E-02  0.10825902871E+00  0.10939439570E+00  0.51109989000E-03 0.  1.
     -623    1    1    2    0    0 -0.14001728503E-01 -0.71665472917E-02  0.12818860459E-01  0.17130000120E+03  0.17130000000E+03 0.  1.
      622    1    1    2    0    0  0.27673021661E-01 -0.57625803348E-03  0.38789220782E+01  0.38906044025E+01  0.30000000000E+00 0.  1.
</event>
<event>
 5   0  0.5137000E+05  0.9118800E+02  0.7818608E-02  0.1180000E+00
       11   -1    0    0    0    0  0.00000000000E+00  0.00000000000E+00  0.39999999673E+01  0.40000000000E+01  0.51109989000E-03 0. -1.
     -623   -1    0    0    0    0  0.00000000000E+00  0.00000000000E+00  0.12525980253E-10  0.17130000000E+03  0.17130000000E+03 0. -1.
       11    1    1    2    0    0  0.29803384788E-01  0.26637441737E-01  0.14247535962E+00  0.14797731032E+00  0.51109989000E-03 0. -1.
     -623    1    1    2    0    0 -0.51748454740E-02  0.24040145603E-01  0.17617910799E-01  0.17130000267E+03  0.17130000000E+03 0. -1.
      622    1    1    2    0    0 -0.24628539314E-01 -0.50677587340E-01  0.38399066969E+01  0.38520200186E+01  0.30000000000E+00 0. -1.
</event>
<event>
 5   0  0.5137000E+05  0.9118800E+02  0.7818608E-02  0.1180000E+00
       11   -1    0    0    0    0  0.00000000000E+00  0.00000000000E+00  0.39999999673E+01  0.40000000000E+01  0.51109989000E-03 0. -1.
     -623   -1    0    0    0    0  0.00000000000E+00  0.00000000000E+00  0.12525980253E-10  0.17130000000E+03  0.17130000000E+03 0. -1.
       11    1    1    2    0    0 -0.21766606642E-01  0.19811731262E-01  0.60018522728E-01  0.66848890433E-01  0.51109989000E-03 0. -1.
     -623    1    1    2    0    0  0.23634745456E-01  0.41513611423E-02  0.18364563062E-01  0.17130000267E+03  0.17130000000E+03 0. -1.
      622    1    1    2    0    0 -0.18681388141E-02 -0.23963092404E-01  0.39216168816E+01  0.39331484444E+01  0.30000000000E+00 0. -1.
</event>
<event>
 5   0  0.5137000E+05  0.9118800E+02  0.7818608E-02  0.1180000E+00
       11   -1    0    0    0    0  0.00000000000E+00  0.00000000000E+00  0.39999999673E+01  0.40000000000E+01  0.51109989000E-03 0. -1.
     -623   -1    0    0    0    0  0.00000000000E+00  0.00000000000E+00  0.12525980253E-10  0.17130000000E+03  0.17130000000E+03 0.  1.
       11    1    1    2    0    0 -0.12370854975E+00 -0.73279458131E-01  0.45887227799E+00  0.48087182595E+00  0.51109989000E-03 0. -1.
     -623    1    1    2    0    0  0.43956947181E-01  0.11054692188E-01  0.36279387212E-01  0.17130000984E+03  0.17130000000E+03 0.  1.
      622    1    1    2    0    0  0.79751602566E-01  0.62224765944E-01  0.35048483022E+01  0.35191183357E+01  0.30000000000E+00 0.  0.
</event>
<event>
 5   0  0.5137000E+05  0.9118800E+02  0.7818608E-02  0.1180000E+00
       11   -1    0    0    0    0  0.00000000000E+00  0.00000000000E+00  0.39999999673E+01  0.40000000000E+01  0.51109989000E-03 0.  1.
     -623   -1    0    0    0    0  0.00000000000E+00  0.00000000000E+00  0.12525980253E-10  0.17130000000E+03  0.17130000000E+03 0.  1.
       11    1    1    2    0    0  0.81796254647E-02 -0.14099374715E-01  0.11023964804E+00  0.11143939996E+00  0.51109989000E-03 0.  1.
     -623    1    1    2    0    0  0.16559755402E-02  0.66795856982E-02  0.12809591232E-01  0.17130000062E+03  0.17130000000E+03 0.  1.
      622    1    1    2    0    0 -0.98356010049E-02  0.74197890166E-02  0.38769507281E+01  0.38885599829E+01  0.30000000000E+00 0.  1.
</event>
<event>
 5   0  0.5137000E+05  0.9118800E+02  0.7818608E-02  0.1180000E+00
       11   -1    0    0    0    0  0.00000000000E+00  0.00000000000E+00  0.39999999673E+01  0.40000000000E+01  0.51109989000E-03 0.  1.
     -623   -1    0    0    0    0  0.00000000000E+00  0.00000000000E+00  0.12525980253E-10  0.17130000000E+03  0.17130000000E+03 0. -1.
       11    1    1    2    0    0  0.85137929420E-01  0.22478800396E-01  0.24659603008E+00  0.26184657104E+00  0.51109989000E-03 0.  1.
     -623    1    1    2    0    0  0.19322920583E-01 -0.49208359667E-01  0.28879091006E-01  0.17130001059E+03  0.17130000000E+03 0. -1.
      622    1    1    2    0    0 -0.10446085000E+00  0.26729559271E-01  0.37245248463E+01  0.37381428369E+01  0.30000000000E+00 0.  1.
</event>
<event>
 5   0  0.5137000E+05  0.9118800E+02  0.7818608E-02  0.1180000E+00
       11   -1    0    0    0    0  0.00000000000E+00  0.00000000000E+00  0.39999999673E+01  0.40000000000E+01  0.51109989000E-03 0.  1.
     -623   -1    0    0    0    0  0.00000000000E+00  0.00000000000E+00  0.12525980253E-10  0.17130000000E+03  0.17130000000E+03 0.  1.
       11    1    1    2    0    0  0.62622210222E-02 -0.32647886889E-01  0.51652321276E-01  0.61427383526E-01  0.51109989000E-03 0.  1.
     -623    1    1    2    0    0  0.91961455561E-02  0.40023928874E-01  0.21260720739E-01  0.17130000624E+03  0.17130000000E+03 0.  1.
      622    1    1    2    0    0 -0.15458366578E-01 -0.73760419852E-02  0.39270869254E+01  0.39385663745E+01  0.30000000000E+00 0.  1.
</event>
<event>
 5   0  0.5137000E+05  0.9118800E+02  0.7818608E-02  0.1180000E+00
       11   -1    0    0    0    0  0.00000000000E+00  0.00000000000E+00  0.39999999673E+01  0.40000000000E+01  0.51109989000E-03 0.  1.
     -623   -1    0    0    0    0  0.00000000000E+00  0.00000000000E+00  0.12525980253E-10  0.17130000000E+03  0.17130000000E+03 0.  1.
       11    1    1    2    0    0 -0.41185935760E-01  0.10810603450E-01  0.12495160299E+00  0.13200876775E+00  0.51109989000E-03 0.  1.
     -623    1    1    2    0    0 -0.41359167100E-01  0.44482464251E-01  0.20000658009E-01  0.17130001194E+03  0.17130000000E+03 0.  1.
      622    1    1    2    0    0  0.82545102860E-01 -0.55293067701E-01  0.38550477064E+01  0.38679792962E+01  0.30000000000E+00 0.  1.
</event>
<event>
 5   0  0.5137000E+05  0.9118800E+02  0.7818608E-02  0.1180000E+00
       11   -1    0    0    0    0  0.00000000000E+00  0.00000000000E+00  0.39999999673E+01  0.40000000000E+01  0.51109989000E-03 0.  1.
     -623   -1    0    0    0    0  0.00000000000E+00  0.00000000000E+00  0.12525980253E-10  0.17130000000E+03  0.17130000000E+03 0.  1.
       11    1    1    2    0    0 -0.99426712953E-02 -0.11742166301E-01  0.24004203690E-02  0.15580706712E-01  0.51109989000E-03 0.  1.
     -623    1    1    2    0    0  0.10191535023E-01  0.90451015527E-02  0.24493520801E-01  0.17130000229E+03  0.17130000000E+03 0.  1.
      622    1    1    2    0    0 -0.24886372725E-03  0.26970647479E-02  0.39731060262E+01  0.39844170002E+01  0.30000000000E+00 0.  1.
</event>
<event>
 5   0  0.5137000E+05  0.9118800E+02  0.7818608E-02  0.1180000E+00
       11   -1    0    0    0    0  0.00000000000E+00  0.00000000000E+00  0.39999999673E+01  0.40000000000E+01  0.51109989000E-03 0. -1.
     -623   -1    0    0    0    0  0.00000000000E+00  0.00000000000E+00  0.12525980253E-10  0.17130000000E+03  0.17130000000E+03 0.  1.
       11    1    1    2    0    0 -0.79468998843E-02  0.27217646069E-01  0.33005978897E+00  0.33127583521E+00  0.51109989000E-03 0. -1.
     -623    1    1    2    0    0 -0.22768432748E-01 -0.33049857846E-01  0.13641357257E-01  0.17130000524E+03  0.17130000000E+03 0.  1.
      622    1    1    2    0    0  0.30715332632E-01  0.58322117774E-02  0.36562988211E+01  0.36687189203E+01  0.30000000000E+00 0. -1.
</event>
<event>
 5   0  0.5137000E+05  0.9118800E+02  0.7818608E-02  0.1180000E+00
       11   -1    0    0    0    0  0.00000000000E+00  0.00000000000E+00  0.39999999673E+01  0.40000000000E+01  0.51109989000E-03 0.  1.
     -623   -1    0    0    0    0  0.00000000000E+00  0.00000000000E+00  0.12525980253E-10  0.17130000000E+03  0.17130000000E+03 0. -1.
       11    1    1    2    0    0  0.70922953654E-02  0.31308593591E-01  0.15735888339E+00  0.16060077238E+00  0.51109989000E-03 0.  1.
     -623    1    1    2    0    0 -0.42377469228E-01 -0.10032038328E-01  0.15208393117E-01  0.17130000621E+03  0.17130000000E+03 0. -1.
      622    1    1    2    0    0  0.35285173863E-01 -0.21276555263E-01  0.38274326909E+01  0.38393930169E+01  0.30000000000E+00 0.  1.
</event>
<event>
 5   0  0.5137000E+05  0.9118800E+02  0.7818608E-02  0.1180000E+00
       11   -1    0    0    0    0  0.00000000000E+00  0.00000000000E+00  0.39999999673E+01  0.40000000000E+01  0.51109989000E-03 0. -1.
     -623   -1    0    0    0    0  0.00000000000E+00  0.00000000000E+00  0.12525980253E-10  0.17130000000E+03  0.17130000000E+03 0. -1.
       11    1    1    2    0    0  0.50320990636E-02  0.13809231301E-01  0.46938030028E-01  0.49187973883E-01  0.51109989000E-03 0. -1.
     -623    1    1    2    0    0 -0.24643096532E-01 -0.26784190282E-01  0.13731051945E-01  0.17130000442E+03  0.17130000000E+03 0. -1.
      622    1    1    2    0    0  0.19610997469E-01  0.12974958981E-01  0.39393308854E+01  0.39508076093E+01  0.30000000000E+00 0. -1.
</event>
<event>
 5   0  0.5137000E+05  0.9118800E+02  0.7818608E-02  0.1180000E+00
       11   -1    0    0    0    0  0.00000000000E+00  0.00000000000E+00  0.39999999673E+01  0.40000000000E+01  0.51109989000E-03 0.  1.
     -623   -1    0    0    0    0  0.00000000000E+00  0.00000000000E+00  0.12525980253E-10  0.17130000000E+03  0.17130000000E+03 0. -1.
       11    1    1    2    0    0  0.12788966267E+00  0.22642867266E-01  0.38337148966E+00  0.40477453670E+00  0.51109989000E-03 0.  1.
     -623    1    1    2    0    0 -0.21231421365E+00  0.11637041844E+00  0.37811122564E-01  0.17130017527E+03  0.17130000000E+03 0. -1.
      622    1    1    2    0    0  0.84424550973E-01 -0.13901328571E+00  0.35788173551E+01  0.35950501888E+01  0.30000000000E+00 0.  1.
</event>
<event>
 5   0  0.5137000E+05  0.9118800E+02  0.7818608E-02  0.1180000E+00
       11   -1    0    0    0    0  0.00000000000E+00  0.00000000000E+00  0.39999999673E+01  0.40000000000E+01  0.51109989000E-03 0. -1.
     -623   -1    0    0    0    0  0.00000000000E+00  0.00000000000E+00  0.12525980253E-10  0.17130000000E+03  0.17130000000E+03 0. -1.
       11    1    1    2    0    0 -0.29271923451E-01 -0.18802912030E-01  0.36037765512E+00  0.36205346364E+00  0.51109989000E-03 0. -1.
     -623    1    1    2    0    0 -0.18177136433E-01 -0.92822825708E-02  0.14487624305E-01  0.17130000183E+03  0.17130000000E+03 0. -1.
      622    1    1    2    0    0  0.47449059884E-01  0.28085194601E-01  0.36251346879E+01  0.36379447078E+01  0.30000000000E+00 0. -1.
</event>
<event>
 5   0  0.5137000E+05  0.9118800E+02  0.7818608E-02  0.1180000E+00
       11   -1    0    0    0    0  0.00000000000E+00  0.00000000000E+00  0.39999999673E+01  0.40000000000E+01  0.51109989000E-03 0.  1.
     -623   -1    0    0    0    0  0.00000000000E+00  0.00000000000E+00  0.12525980253E-10  0.17130000000E+03  0.17130000000E+03 0.  1.
       11    1    1    2    0    0 -0.26355974507E-01 -0.22993918764E+00  0.85794466568E+00  0.88861463976E+00  0.51109989000E-03 0.  1.
     -623    1    1    2    0    0 -0.16211852603E-02  0.11864507850E+00  0.47341530313E-01  0.17130004764E+03  0.17130000000E+03 0.  1.
      622    1    1    2    0    0  0.27977159768E-01  0.11129410914E+00  0.30947137714E+01  0.31113377230E+01  0.30000000000E+00 0.  0.
</event>
<event>
 5   0  0.5137000E+05  0.9118800E+02  0.7818608E-02  0.1180000E+00
       11   -1    0    0    0    0  0.00000000000E+00  0.00000000000E+00  0.39999999673E+01  0.40000000000E+01  0.51109989000E-03 0. -1.
     -623   -1    0    0    0    0  0.00000000000E+00  0.00000000000E+00  0.12525980253E-10  0.17130000000E+03  0.17130000000E+03 0.  1.
       11    1    1    2    0    0 -0.79052893003E-02  0.39513872149E-01  0.36253396586E-01  0.54207099888E-01  0.51109989000E-03 0. -1.
     -623    1    1    2    0    0  0.30227618749E-01 -0.74970674253E-01  0.29619549767E-01  0.17130002163E+03  0.17130000000E+03 0.  1.
      622    1    1    2    0    0 -0.22322329448E-01  0.35456802104E-01  0.39341270210E+01  0.39457712666E+01  0.30000000000E+00 0. -1.
</event>
<event>
 5   0  0.5137000E+05  0.9118800E+02  0.7818608E-02  0.1180000E+00
       11   -1    0    0    0    0  0.00000000000E+00  0.00000000000E+00  0.39999999673E+01  0.40000000000E+01  0.51109989000E-03 0.  1.
     -623   -1    0    0    0    0  0.00000000000E+00  0.00000000000E+00  0.12525980253E-10  0.17130000000E+03  0.17130000000E+03 0. -1.
       11    1    1    2    0    0  0.12416044395E-01  0.69771239347E-02  0.88439367035E-01  0.89580250500E-01  0.51109989000E-03 0.  1.
     -623    1    1    2    0    0 -0.25267029680E-01  0.19457851139E-01  0.12779801594E-01  0.17130000345E+03  0.17130000000E+03 0. -1.
      622    1    1    2    0    0  0.12850985285E-01 -0.26434975074E-01  0.38987807987E+01  0.39104163042E+01  0.30000000000E+00 0.  1.
</event>
<event>
 5   0  0.5137000E+05  0.9118800E+02  0.7818608E-02  0.1180000E+00
       11   -1    0    0    0    0  0.00000000000E+00  0.00000000000E+00  0.39999999673E+01  0.40000000000E+01  0.51109989000E-03 0.  1.
     -623   -1    0    0    0    0  0.00000000000E+00  0.00000000000E+00  0.12525980253E-10  0.17130000000E+03  0.17130000000E+03 0.  1.
       11    1    1    2    0    0  0.15498753417E-01 -0.41359990340E-02  0.45971884976E-01  0.48692846259E-01  0.51109989000E-03 0.  1.
     -623    1    1    2    0    0 -0.49048073816E-02 -0.77067520612E-02  0.14158897809E-01  0.17130000083E+03  0.17130000000E+03 0.  1.
      622    1    1    2    0    0 -0.10593946036E-01  0.11842751095E-01  0.39398691846E+01  0.39513063250E+01  0.30000000000E+00 0.  1.
</event>
<event>
 5   0  0.5137000E+05  0.9118800E+02  0.7818608E-02  0.1180000E+00
       11   -1    0    0    0    0  0.00000000000E+00  0.00000000000E+00  0.39999999673E+01  0.40000000000E+01  0.51109989000E-03 0.  1.
     -623   -1    0    0    0    0  0.00000000000E+00  0.00000000000E+00  0.12525980253E-10  0.17130000000E+03  0.17130000000E+03 0.  1.
       11    1    1    2    0    0  0.80221616504E-02 -0.19860223796E-01  0.56685065708E-01  0.60599021973E-01  0.51109989000E-03 0.  1.
     -623    1    1    2    0    0  0.65727299347E-02  0.14779304399E-01  0.15385449805E-01  0.17130000145E+03  0.17130000000E+03 0.  1.
      622    1    1    2    0    0 -0.14594891585E-01  0.50809193966E-02  0.39279294519E+01  0.39393995234E+01  0.30000000000E+00 0.  1.
</event>
<event>
 5   0  0.5137000E+05  0.9118800E+02  0.7818608E-02  0.1180000E+00
       11   -1    0    0    0    0  0.00000000000E+00  0.00000000000E+00  0.39999999673E+01  0.40000000000E+01  0.51109989000E-03 0.  1.
     -623   -1    0    0    0    0  0.00000000000E+00  0.00000000000E+00  0.12525980253E-10  0.17130000000E+03  0.17130000000E+03 0.  1.
       11    1    1    2    0    0  0.29737906773E-01  0.13490429782E-01  0.72735189704E-01  0.79730821136E-01  0.51109989000E-03 0.  1.
     -623    1    1    2    0    0 -0.11918342107E-01  0.25902929734E-01  0.18733797437E-01  0.17130000340E+03  0.17130000000E+03 0.  1.
      622    1    1    2    0    0 -0.17819564665E-01 -0.39393359516E-01  0.39085309802E+01  0.39202657814E+01  0.30000000000E+00 0.  1.
</event>
<event>
 5   0  0.5137000E+05  0.9118800E+02  0.7818608E-02  0.1180000E+00
       11   -1    0    0    0    0  0.00000000000E+00  0.00000000000E+00  0.39999999673E+01  0.40000000000E+01  0.51109989000E-03 0. -1.
     -623   -1    0    0    0    0  0.00000000000E+00  0.00000000000E+00  0.12525980253E-10  0.17130000000E+03  0.17130000000E+03 0.  1.
       11    1    1    2    0    0 -0.56083276706E-02 -0.29900191503E-02  0.33030737489E-01  0.33640517160E-01  0.51109989000E-03 0. -1.
     -623    1    1    2    0    0  0.26821444250E-01  0.69825838630E-01  0.12609952766E-01  0.17130001680E+03  0.17130000000E+03 0.  1.
      622    1    1    2    0    0 -0.21213116580E-01 -0.66835819480E-01  0.39543592771E+01  0.39663426876E+01  0.30000000000E+00 0. -1.
</event>
<event>
 5   0  0.5137000E+05  0.9118800E+02  0.7818608E-02  0.1180000E+00
       11   -1    0    0    0    0  0.00000000000E+00  0.00000000000E+00  0.39999999673E+01  0.40000000000E+01  0.51109989000E-03 0.  1.
     -623   -1    0    0    0    0  0.00000000000E+00  0.00000000000E+00  0.12525980253E-10  0.17130000000E+03  0.17130000000E+03 0.  1.
       11    1    1    2    0    0 -0.60937261358E-02 -0.13685965858E-01 -0.26211290873E-01  0.30194902749E-01  0.51109989000E-03 0.  1.
     -623    1    1    2    0    0  0.10206601691E-01 -0.20603591261E-01  0.67923667605E-01  0.17130001501E+03  0.17130000000E+03 0.  1.
      622    1    1    2    0    0 -0.41128755556E-02  0.34289557119E-01  0.39582875906E+01  0.39697900876E+01  0.30000000000E+00 0.  1.
</event>
<event>
 5   0  0.5137000E+05  0.9118800E+02  0.7818608E-02  0.1180000E+00
       11   -1    0    0    0    0  0.00000000000E+00  0.00000000000E+00  0.39999999673E+01  0.40000000000E+01  0.51109989000E-03 0.  1.
     -623   -1    0    0    0    0  0.00000000000E+00  0.00000000000E+00  0.12525980253E-10  0.17130000000E+03  0.17130000000E+03 0.  1.
       11    1    1    2    0    0  0.12969595635E-01 -0.32544467043E-02  0.95280899248E-02  0.16427037317E-01  0.51109989000E-03 0.  1.
     -623    1    1    2    0    0 -0.14213054030E-01  0.11411100420E-02  0.18213691712E-01  0.17130000156E+03  0.17130000000E+03 0.  1.
      622    1    1    2    0    0  0.12434583949E-02  0.21133366623E-02  0.39722581857E+01  0.39835714009E+01  0.30000000000E+00 0.  1.
</event>
<event>
 5   0  0.5137000E+05  0.9118800E+02  0.7818608E-02  0.1180000E+00
       11   -1    0    0    0    0  0.00000000000E+00  0.00000000000E+00  0.39999999673E+01  0.40000000000E+01  0.51109989000E-03 0.  1.
     -623   -1    0    0    0    0  0.00000000000E+00  0.00000000000E+00  0.12525980253E-10  0.17130000000E+03  0.17130000000E+03 0.  1.
       11    1    1    2    0    0 -0.18881215023E-01 -0.16097613936E-01  0.13303330563E-01  0.28158005627E-01  0.51109989000E-03 0.  1.
     -623    1    1    2    0    0  0.61991313879E-02  0.71153376604E-02  0.26233369687E-01  0.17130000227E+03  0.17130000000E+03 0.  1.
      622    1    1    2    0    0  0.12682083635E-01  0.89822762760E-02  0.39604632671E+01  0.39718397257E+01  0.30000000000E+00 0.  0.
</event>
<event>
 5   0  0.5137000E+05  0.9118800E+02  0.7818608E-02  0.1180000E+00
       11   -1    0    0    0    0  0.00000000000E+00  0.00000000000E+00  0.39999999673E+01  0.40000000000E+01  0.51109989000E-03 0. -1.
     -623   -1    0    0    0    0  0.00000000000E+00  0.00000000000E+00  0.12525980253E-10  0.17130000000E+03  0.17130000000E+03 0. -1.
       11    1    1    2    0    0  0.12185838750E-02  0.30355125023E-01  0.22509984252E+00  0.22714118712E+00  0.51109989000E-03 0. -1.
     -623    1    1    2    0    0  0.95298740787E-02 -0.13404602695E-01  0.14042447192E-01  0.17130000137E+03  0.17130000000E+03 0. -1.
      622    1    1    2    0    0 -0.10748457954E-01 -0.16950522329E-01  0.37608576776E+01  0.37728574477E+01  0.30000000000E+00 0. -1.
</event>
<event>
 5   0  0.5137000E+05  0.9118800E+02  0.7818608E-02  0.1180000E+00
       11   -1    0    0    0    0  0.00000000000E+00  0.00000000000E+00  0.39999999673E+01  0.40000000000E+01  0.51109989000E-03 0.  1.
     -623   -1    0    0    0    0  0.00000000000E+00  0.00000000000E+00  0.12525980253E-10  0.17130000000E+03  0.17130000000E+03 0.  1.
       11    1    1    2    0    0 -0.82396043823E-02  0.66837729826E-02  0.49169297227E-01  0.50303527854E-01  0.51109989000E-03 0.  1.
     -623    1    1    2    0    0  0.31726174998E-02  0.66624358435E-02  0.12570454317E-01  0.17130000062E+03  0.17130000000E+03 0.  1.
      622    1    1    2    0    0  0.50669868825E-02 -0.13346208826E-01  0.39382602159E+01  0.39496958520E+01  0.30000000000E+00 0.  1.
</event>
<event>
 5   0  0.5137000E+05  0.9118800E+02  0.7818608E-02  0.1180000E+00
       11   -1    0    0    0    0  0.00000000000E+00  0.00000000000E+00  0.39999999673E+01  0.40000000000E+01  0.51109989000E-03 0. -1.
     -623   -1    0    0    0    0  0.00000000000E+00  0.00000000000E+00  0.12525980253E-10  0.17130000000E+03  0.17130000000E+03 0.  1.
       11    1    1    2    0    0  0.21504807203E-01  0.17313982883E-01 -0.13528747424E-01  0.30749292123E-01  0.51109989000E-03 0. -1.
     -623    1    1    2    0    0 -0.35322884275E-01  0.27676745658E-01  0.55926291242E-01  0.17130001501E+03  0.17130000000E+03 0.  1.
      622    1    1    2    0    0  0.13818077072E-01 -0.44990728542E-01  0.39576024235E+01  0.39692357007E+01  0.30000000000E+00 0. -1.
</event>
<event>
 5   0  0.5137000E+05  0.9118800E+02  0.7818608E-02  0.1180000E+00
       11   -1    0    0    0    0  0.00000000000E+00  0.00000000000E+00  0.39999999673E+01  0.40000000000E+01  0.51109989000E-03 0.  1.
     -623   -1    0    0    0    0  0.00000000000E+00  0.00000000000E+00  0.12525980253E-10  0.17130000000E+03  0.17130000000E+03 0.  1.
       11    1    1    2    0    0 -0.46339864721E-02  0.15247300898E-01  0.12557336863E+00  0.12658153952E+00  0.51109989000E-03 0.  1.
     -623    1    1    2    0    0  0.42116396062E-01 -0.47452638874E-01  0.12971740085E-01  0.17130001224E+03  0.17130000000E+03 0.  1.
      622    1    1    2    0    0 -0.37482409590E-01  0.32205337976E-01  0.38614548586E+01  0.38734062194E+01  0.30000000000E+00 0.  1.
</event>
<event>
 5   0  0.5137000E+05  0.9118800E+02  0.7818608E-02  0.1180000E+00
       11   -1    0    0    0    0  0.00000000000E+00  0.00000000000E+00  0.39999999673E+01  0.40000000000E+01  0.51109989000E-03 0. -1.
     -623   -1    0    0    0    0  0.00000000000E+00  0.00000000000E+00  0.12525980253E-10  0.17130000000E+03  0.17130000000E+03 0. -1.
       11    1    1    2    0    0  0.92156644034E-02 -0.59781013899E-02 -0.27105872243E-01  0.29251593087E-01  0.51109989000E-03 0. -1.
     -623    1    1    2    0    0 -0.30278183948E-01  0.12623110937E-01  0.67784726846E-01  0.17130001655E+03  0.17130000000E+03 0. -1.
      622    1    1    2    0    0  0.21062519544E-01 -0.66450095475E-02  0.39593211128E+01  0.39707318544E+01  0.30000000000E+00 0. -1.
</event>
<event>
 5   0  0.5137000E+05  0.9118800E+02  0.7818608E-02  0.1180000E+00
       11   -1    0    0    0    0  0.00000000000E+00  0.00000000000E+00  0.39999999673E+01  0.40000000000E+01  0.51109989000E-03 0.  1.
     -623   -1    0    0    0    0  0.00000000000E+00  0.00000000000E+00  0.12525980253E-10  0.17130000000E+03  0.17130000000E+03 0.  1.
       11    1    1    2    0    0  0.45991786175E-01  0.13218249693E-01  0.14683180303E+00  0.15443382441E+00  0.51109989000E-03 0.  1.
     -623    1    1    2    0    0 -0.97149358230E-03 -0.45312824553E-01  0.19727481279E-01  0.17130000713E+03  0.17130000000E+03 0.  1.
      622    1    1    2    0    0 -0.45020292593E-01  0.32094574860E-01  0.38334406831E+01  0.38455590437E+01  0.30000000000E+00 0.  1.
</event>
<event>
 5   0  0.5137000E+05  0.9118800E+02  0.7818608E-02  0.1180000E+00
       11   -1    0    0    0    0  0.00000000000E+00  0.00000000000E+00  0.39999999673E+01  0.40000000000E+01  0.51109989000E-03 0. -1.
     -623   -1    0    0    0    0  0.00000000000E+00  0.00000000000E+00  0.12525980253E-10  0.17130000000E+03  0.17130000000E+03 0. -1.
       11    1    1    2    0    0  0.36974883595E-02 -0.64721118495E-02  0.20172366283E+00  0.20186197517E+00  0.51109989000E-03 0. -1.
     -623    1    1    2    0    0 -0.13766641351E-01  0.20898976036E-01  0.12047860719E-01  0.17130000225E+03  0.17130000000E+03 0. -1.
      622    1    1    2    0    0  0.10069152991E-01 -0.14426864187E-01  0.37862284438E+01  0.37981357731E+01  0.30000000000E+00 0. -1.
</event>
<event>
 5   0  0.5137000E+05  0.9118800E+02  0.7818608E-02  0.1180000E+00
       11   -1    0    0    0    0  0.00000000000E+00  0.00000000000E+00  0.39999999673E+01  0.40000000000E+01  0.51109989000E-03 0.  1.
     -623   -1    0    0    0    0  0.00000000000E+00  0.00000000000E+00  0.12525980253E-10  0.17130000000E+03  0.17130000000E+03 0. -1.
       11    1    1    2    0    0 -0.12856093263E-01  0.73834404615E-01  0.99900424929E+00  0.10018116339E+01  0.51109989000E-03 0.  1.
     -623    1    1    2    0    0  0.69270078970E-01  0.10955215423E-01  0.19608650284E-01  0.17130001548E+03  0.17130000000E+03 0. -1.
      622    1    1    2    0    0 -0.56413985707E-01 -0.84789620038E-01  0.29813870678E+01  0.29981728878E+01  0.30000000000E+00 0.  1.
</event>
<event>
 5   0  0.5137000E+05  0.9118800E+02  0.7818608E-02  0.1180000E+00
       11   -1    0    0    0    0  0.00000000000E+00  0.00000000000E+00  0.39999999673E+01  0.40000000000E+01  0.51109989000E-03 0.  1.
     -623   -1    0    0    0    0  0.00000000000E+00  0.00000000000E+00  0.12525980253E-10  0.17130000000E+03  0.17130000000E+03 0. -1.
       11    1    1    2    0    0 -0.36439850399E-01 -0.77126316087E-01  0.37397079147E+00  0.38357625764E+00  0.51109989000E-03 0.  1.
     -623    1    1    2    0    0 -0.14018953512E+00  0.16137728990E+00  0.27523398218E-01  0.17130013559E+03  0.17130000000E+03 0. -1.
      622    1    1    2    0    0  0.17662938552E+00 -0.84250973816E-01  0.35985057777E+01  0.36162881520E+01  0.30000000000E+00 0.  1.
</event>
<event>
 5   0  0.5137000E+05  0.9118800E+02  0.7818608E-02  0.1180000E+00
       11   -1    0    0    0    0  0.00000000000E+00  0.00000000000E+00  0.39999999673E+01  0.40000000000E+01  0.51109989000E-03 0.  1.
     -623   -1    0    0    0    0  0.00000000000E+00  0.00000000000E+00  0.12525980253E-10  0.17130000000E+03  0.17130000000E+03 0.  1.
       11    1    1    2    0    0 -0.19842939562E-01  0.21875606374E-01  0.26177875640E-01  0.39469314674E-01  0.51109989000E-03 0.  1.
     -623    1    1    2    0    0  0.12769906361E+00 -0.25759545573E-01  0.26196596667E-01  0.17130005154E+03  0.17130000000E+03 0.  1.
      622    1    1    2    0    0 -0.10785612405E+00  0.38839391990E-02  0.39476254950E+01  0.39604791475E+01  0.30000000000E+00 0.  1.
</event>
<event>
 5   0  0.5137000E+05  0.9118800E+02  0.7818608E-02  0.1180000E+00
       11   -1    0    0    0    0  0.00000000000E+00  0.00000000000E+00  0.39999999673E+01  0.40000000000E+01  0.51109989000E-03 0.  1.
     -623   -1    0    0    0    0  0.00000000000E+00  0.00000000000E+00  0.12525980253E-10  0.17130000000E+03  0.17130000000E+03 0.  1.
       11    1    1    2    0    0  0.58723919734E-02 -0.72291595836E-02  0.68841020951E+00  0.68847340074E+00  0.51109989000E-03 0.  1.
     -623    1    1    2    0    0  0.39818206546E-01 -0.10206307945E-01  0.14048202057E-01  0.17130000551E+03  0.17130000000E+03 0.  1.
      622    1    1    2    0    0 -0.45690598520E-01  0.17435467529E-01  0.32975415558E+01  0.33115210914E+01  0.30000000000E+00 0.  1.
</event>
<event>
 5   0  0.5137000E+05  0.9118800E+02  0.7818608E-02  0.1180000E+00
       11   -1    0    0    0    0  0.00000000000E+00  0.00000000000E+00  0.39999999673E+01  0.40000000000E+01  0.51109989000E-03 0.  1.
     -623   -1    0    0    0    0  0.00000000000E+00  0.00000000000E+00  0.12525980253E-10  0.17130000000E+03  0.17130000000E+03 0.  1.
       11    1    1    2    0    0  0.31563865526E-01 -0.59895643896E-01  0.15738245501E+00  0.17132794323E+00  0.51109989000E-03 0.  1.
     -623    1    1    2    0    0  0.32392642948E-01  0.33494529011E-01  0.26352556155E-01  0.17130000836E+03  0.17130000000E+03 0.  1.
      622    1    1    2    0    0 -0.63956508474E-01  0.26401114885E-01  0.38162649562E+01  0.38286636924E+01  0.30000000000E+00 0.  1.
</event>
<event>
 5   0  0.5137000E+05  0.9118800E+02  0.7818608E-02  0.1180000E+00
       11   -1    0    0    0    0  0.00000000000E+00  0.00000000000E+00  0.39999999673E+01  0.40000000000E+01  0.51109989000E-03 0. -1.
     -623   -1    0    0    0    0  0.00000000000E+00  0.00000000000E+00  0.12525980253E-10  0.17130000000E+03  0.17130000000E+03 0.  1.
       11    1    1    2    0    0 -0.52304722974E-02 -0.70437461215E-01  0.34135772185E+00  0.34858879682E+00  0.51109989000E-03 0. -1.
     -623    1    1    2    0    0 -0.33753037572E-01  0.35330243995E-01  0.19962243328E-01  0.17130000813E+03  0.17130000000E+03 0.  1.
      622    1    1    2    0    0  0.38983509869E-01  0.35107217219E-01  0.36386800022E+01  0.36514030713E+01  0.30000000000E+00 0. -1.
</event>
<event>
 5   0  0.5137000E+05  0.9118800E+02  0.7818608E-02  0.1180000E+00
       11   -1    0    0    0    0  0.00000000000E+00  0.00000000000E+00  0.39999999673E+01  0.40000000000E+01  0.51109989000E-03 0.  1.
     -623   -1    0    0    0    0  0.00000000000E+00  0.00000000000E+00  0.12525980253E-10  0.17130000000E+03  0.17130000000E+03 0. -1.
       11    1    1    2    0    0 -0.10801179575E+00  0.22247514743E-01  0.23551540048E+00  0.26005627280E+00  0.51109989000E-03 0.  1.
     -623    1    1    2    0    0 -0.29771349600E-01 -0.53506558124E-01  0.39286289469E-01  0.17130001545E+03  0.17130000000E+03 0. -1.
      622    1    1    2    0    0  0.13778314535E+00  0.31259043381E-01  0.37251982774E+01  0.37399282786E+01  0.30000000000E+00 0.  1.
</event>
<event>
 5   0  0.5137000E+05  0.9118800E+02  0.7818608E-02  0.1180000E+00
       11   -1    0    0    0    0  0.00000000000E+00  0.00000000000E+00  0.39999999673E+01  0.40000000000E+01  0.51109989000E-03 0. -1.
     -623   -1    0    0    0    0  0.00000000000E+00  0.00000000000E+00  0.12525980253E-10  0.17130000000E+03  0.17130000000E+03 0. -1.
       11    1    1    2    0    0 -0.15088169203E-01  0.30445965715E-01  0.27482012860E+00  0.27691329687E+00  0.51109989000E-03 0. -1.
     -623    1    1    2    0    0  0.49449996336E-02  0.23268609857E-01  0.14604475729E-01  0.17130000227E+03  0.17130000000E+03 0. -1.
      622    1    1    2    0    0  0.10143169569E-01 -0.53714575573E-01  0.37105753630E+01  0.37230844288E+01  0.30000000000E+00 0.  1.
</event>
<event>
 5   0  0.5137000E+05  0.9118800E+02  0.7818608E-02  0.1180000E+00
       11   -1    0    0    0    0  0.00000000000E+00  0.00000000000E+00  0.39999999673E+01  0.40000000000E+01  0.51109989000E-03 0. -1.
     -623   -1    0    0    0    0  0.00000000000E+00  0.00000000000E+00  0.12525980253E-10  0.17130000000E+03  0.17130000000E+03 0.  1.
       11    1    1    2    0    0 -0.21085144605E-01 -0.53515154739E-02  0.31257752836E+00  0.31333399831E+00  0.51109989000E-03 0. -1.
     -623    1    1    2    0    0  0.26585686625E-01 -0.86326524570E-01  0.14155340041E-01  0.17130002440E+03  0.17130000000E+03 0.  1.
      622    1    1    2    0    0 -0.55005420207E-02  0.91678040044E-01  0.36732670990E+01  0.36866416017E+01  0.30000000000E+00 0. -1.
</event>
<event>
 5   0  0.5137000E+05  0.9118800E+02  0.7818608E-02  0.1180000E+00
       11   -1    0    0    0    0  0.00000000000E+00  0.00000000000E+00  0.39999999673E+01  0.40000000000E+01  0.51109989000E-03 0. -1.
     -623   -1    0    0    0    0  0.00000000000E+00  0.00000000000E+00  0.12525980253E-10  0.17130000000E+03  0.17130000000E+03 0. -1.
       11    1    1    2    0    0 -0.39703740540E-01 -0.15820932565E-01  0.28113861070E+00  0.28436924688E+00  0.51109989000E-03 0. -1.
     -623    1    1    2    0    0  0.26543597310E-01  0.13336720614E-01  0.15388897534E-01  0.17130000327E+03  0.17130000000E+03 0. -1.
      622    1    1    2    0    0  0.13160143230E-01  0.24842119500E-02  0.37034724591E+01  0.37156274862E+01  0.30000000000E+00 0. -1.
</event>
<event>
 5   0  0.5137000E+05  0.9118800E+02  0.7818608E-02  0.1180000E+00
       11   -1    0    0    0    0  0.00000000000E+00  0.00000000000E+00  0.39999999673E+01  0.40000000000E+01  0.51109989000E-03 0. -1.
     -623   -1    0    0    0    0  0.00000000000E+00  0.00000000000E+00  0.12525980253E-10  0.17130000000E+03  0.17130000000E+03 0. -1.
       11    1    1    2    0    0 -0.57553506410E-01 -0.36391358495E-01  0.16283528239E+00  0.17650021951E+00  0.51109989000E-03 0. -1.
     -623    1    1    2    0    0  0.39730649561E-02  0.49171446012E-01  0.25859510670E-01  0.17130000906E+03  0.17130000000E+03 0. -1.
      622    1    1    2    0    0  0.53580441454E-01 -0.12780087516E-01  0.38113051743E+01  0.38234907252E+01  0.30000000000E+00 0. -1.
</event>
<event>
 5   0  0.5137000E+05  0.9118800E+02  0.7818608E-02  0.1180000E+00
       11   -1    0    0    0    0  0.00000000000E+00  0.00000000000E+00  0.39999999673E+01  0.40000000000E+01  0.51109989000E-03 0.  1.
     -623   -1    0    0    0    0  0.00000000000E+00  0.00000000000E+00  0.12525980253E-10  0.17130000000E+03  0.17130000000E+03 0. -1.
       11    1    1    2    0    0  0.32429329907E-02 -0.10802040164E-01  0.11315651848E-01  0.15984551477E-01  0.51109989000E-03 0.  1.
     -623    1    1    2    0    0  0.16150904126E-01  0.11668718973E-01  0.16029408187E-01  0.17130000191E+03  0.17130000000E+03 0. -1.
      622    1    1    2    0    0 -0.19393837116E-01 -0.86667880872E-03  0.39726549073E+01  0.39840135397E+01  0.30000000000E+00 0.  1.
</event>
<event>
 5   0  0.5137000E+05  0.9118800E+02  0.7818608E-02  0.1180000E+00
       11   -1    0    0    0    0  0.00000000000E+00  0.00000000000E+00  0.39999999673E+01  0.40000000000E+01  0.51109989000E-03 0. -1.
     -623   -1    0    0    0    0  0.00000000000E+00  0.00000000000E+00  0.12525980253E-10  0.17130000000E+03  0.17130000000E+03 0.  1.
       11    1    1    2    0    0 -0.26239662595E-01 -0.31291999059E-01  0.97227265860E-01  0.10545668091E+00  0.51109989000E-03 0. -1.
     -623    1    1    2    0    0  0.87823071511E-01  0.56393732887E-01  0.20403846149E-01  0.17130003301E+03  0.17130000000E+03 0.  1.
      622    1    1    2    0    0 -0.61583408916E-01 -0.25101733828E-01  0.38823688553E+01  0.38945103084E+01  0.30000000000E+00 0. -1.
</event>
<event>
 5   0  0.5137000E+05  0.9118800E+02  0.7818608E-02  0.1180000E+00
       11   -1    0    0    0    0  0.00000000000E+00  0.00000000000E+00  0.39999999673E+01  0.40000000000E+01  0.51109989000E-03 0. -1.
     -623   -1    0    0    0    0  0.00000000000E+00  0.00000000000E+00  0.12525980253E-10  0.17130000000E+03  0.17130000000E+03 0. -1.
       11    1    1    2    0    0  0.15562454354E-01  0.21588994905E-01  0.47953728740E-01  0.54846112062E-01  0.51109989000E-03 0. -1.
     -623    1    1    2    0    0 -0.96606857157E-02 -0.28453274081E-01  0.18329329887E-01  0.17130000362E+03  0.17130000000E+03 0. -1.
      622    1    1    2    0    0 -0.59017686381E-02  0.68642791757E-02  0.39337169087E+01  0.39451502718E+01  0.30000000000E+00 0. -1.
</event>
<event>
 5   0  0.5137000E+05  0.9118800E+02  0.7818608E-02  0.1180000E+00
       11   -1    0    0    0    0  0.00000000000E+00  0.00000000000E+00  0.39999999673E+01  0.40000000000E+01  0.51109989000E-03 0. -1.
     -623   -1    0    0    0    0  0.00000000000E+00  0.00000000000E+00  0.12525980253E-10  0.17130000000E+03  0.17130000000E+03 0. -1.
       11    1    1    2    0    0 -0.33199580783E-01  0.19961579879E-01  0.47387184717E-01  0.61208523370E-01  0.51109989000E-03 0. -1.
     -623    1    1    2    0    0  0.13178244596E-01  0.33280920154E-02  0.25385265872E-01  0.17130000242E+03  0.17130000000E+03 0. -1.
      622    1    1    2    0    0  0.20021336187E-01 -0.23289671895E-01  0.39272275168E+01  0.39387890564E+01  0.30000000000E+00 0. -1.
</event>
<event>
 5   0  0.5137000E+05  0.9118800E+02  0.7818608E-02  0.1180000E+00
       11   -1    0    0    0    0  0.00000000000E+00  0.00000000000E+00  0.39999999673E+01  0.40000000000E+01  0.51109989000E-03 0. -1.
     -623   -1    0    0    0    0  0.00000000000E+00  0.00000000000E+00  0.12525980253E-10  0.17130000000E+03  0.17130000000E+03 0.  1.
       11    1    1    2    0    0 -0.39458652813E-02 -0.11897461598E-01  0.58023509407E-01  0.59364200584E-01  0.51109989000E-03 0. -1.
     -623    1    1    2    0    0  0.20198359373E-01  0.20449693034E-01  0.12822550075E-01  0.17130000289E+03  0.17130000000E+03 0.  1.
      622    1    1    2    0    0 -0.16252494092E-01 -0.85522314367E-02  0.39291539079E+01  0.39406329081E+01  0.30000000000E+00 0. -1.
</event>
<event>
 5   0  0.5137000E+05  0.9118800E+02  0.7818608E-02  0.1180000E+00
       11   -1    0    0    0    0  0.00000000000E+00  0.00000000000E+00  0.39999999673E+01  0.40000000000E+01  0.51109989000E-03 0. -1.
     -623   -1    0    0    0    0  0.00000000000E+00  0.00000000000E+00  0.12525980253E-10  0.17130000000E+03  0.17130000000E+03 0.  1.
       11    1    1    2    0    0 -0.30224744191E-01  0.26868983534E-02  0.79529066873E-01  0.85122783583E-01  0.51109989000E-03 0. -1.
     -623    1    1    2    0    0  0.40365990853E-02 -0.11111621135E-01  0.17203440166E-01  0.17130000127E+03  0.17130000000E+03 0.  1.
      622    1    1    2    0    0  0.26188145105E-01  0.84247227815E-02  0.39032674603E+01  0.39148759446E+01  0.30000000000E+00 0. -1.
</event>
<event>
 5   0  0.5137000E+05  0.9118800E+02  0.7818608E-02  0.1180000E+00
       11   -1    0    0    0    0  0.00000000000E+00  0.00000000000E+00  0.39999999673E+01  0.40000000000E+01  0.51109989000E-03 0. -1.
     -623   -1    0    0    0    0  0.00000000000E+00  0.00000000000E+00  0.12525980253E-10  0.17130000000E+03  0.17130000000E+03 0. -1.
       11    1    1    2    0    0 -0.11348326670E-01  0.93639527131E-02 -0.31963260674E-02  0.15064722103E-01  0.51109989000E-03 0. -1.
     -623    1    1    2    0    0  0.58411324111E-02  0.19206185485E-02  0.29592104831E-01  0.17130000267E+03  0.17130000000E+03 0. -1.
      622    1    1    2    0    0  0.55071942584E-02 -0.11284571262E-01  0.39736041886E+01  0.39849326115E+01  0.30000000000E+00 0. -1.
</event>
<event>
 5   0  0.5137000E+05  0.9118800E+02  0.7818608E-02  0.1180000E+00
       11   -1    0    0    0    0  0.00000000000E+00  0.00000000000E+00  0.39999999673E+01  0.40000000000E+01  0.51109989000E-03 0. -1.
     -623   -1    0    0    0    0  0.00000000000E+00  0.00000000000E+00  0.12525980253E-10  0.17130000000E+03  0.17130000000E+03 0.  1.
       11    1    1    2    0    0  0.26946228994E-01  0.46756883529E-02  0.55684215901E-01  0.62039942313E-01  0.51109989000E-03 0. -1.
     -623    1    1    2    0    0 -0.26826233858E-01  0.47248540588E-02  0.17813914035E-01  0.17130000309E+03  0.17130000000E+03 0.  1.
      622    1    1    2    0    0 -0.11999513637E-03 -0.94005424117E-02  0.39265018374E+01  0.39379569657E+01  0.30000000000E+00 0. -1.
</event>
<event>
 5   0  0.5137000E+05  0.9118800E+02  0.7818608E-02  0.1180000E+00
       11   -1    0    0    0    0  0.00000000000E+00  0.00000000000E+00  0.39999999673E+01  0.40000000000E+01  0.51109989000E-03 0.  1.
     -623   -1    0    0    0    0  0.00000000000E+00  0.00000000000E+00  0.12525980253E-10  0.17130000000E+03  0.17130000000E+03 0.  1.
       11    1    1    2    0    0  0.88880568523E-02 -0.75140777923E-02  0.18356840927E+00  0.18393770963E+00  0.51109989000E-03 0.  1.
     -623    1    1    2    0    0 -0.11528422561E-02  0.67745349264E-02  0.12188313747E-01  0.17130000057E+03  0.17130000000E+03 0.  1.
      622    1    1    2    0    0 -0.77352145961E-02  0.73954286587E-03  0.38042432443E+01  0.38160617189E+01  0.30000000000E+00 0.  1.
</event>
<event>
 5   0  0.5137000E+05  0.9118800E+02  0.7818608E-02  0.1180000E+00
       11   -1    0    0    0    0  0.00000000000E+00  0.00000000000E+00  0.39999999673E+01  0.40000000000E+01  0.51109989000E-03 0.  1.
     -623   -1    0    0    0    0  0.00000000000E+00  0.00000000000E+00  0.12525980253E-10  0.17130000000E+03  0.17130000000E+03 0.  1.
       11    1    1    2    0    0  0.20634741271E+00  0.17923540569E-01  0.10266228150E+01  0.10473085379E+01  0.51109989000E-03 0.  1.
     -623    1    1    2    0    0 -0.98070501574E-01  0.14423552822E+00  0.42539071374E-01  0.17130009408E+03  0.17130000000E+03 0.  1.
      622    1    1    2    0    0 -0.10827691113E+00 -0.16215906879E+00  0.29308380810E+01  0.29525973837E+01  0.30000000000E+00 0.  1.
</event>
<event>
 5   0  0.5137000E+05  0.9118800E+02  0.7818608E-02  0.1180000E+00
       11   -1    0    0    0    0  0.00000000000E+00  0.00000000000E+00  0.39999999673E+01  0.40000000000E+01  0.51109989000E-03 0.  1.
     -623   -1    0    0    0    0  0.00000000000E+00  0.00000000000E+00  0.12525980253E-10  0.17130000000E+03  0.17130000000E+03 0.  1.
       11    1    1    2    0    0 -0.90917009283E-02  0.58830353358E-01  0.21412038607E+00  0.22224191876E+00  0.51109989000E-03 0.  1.
     -623    1    1    2    0    0  0.21441585875E-01  0.10792953982E-01  0.20719024169E-01  0.17130000293E+03  0.17130000000E+03 0.  1.
      622    1    1    2    0    0 -0.12349884947E-01 -0.69623307340E-01  0.37651605571E+01  0.37777551463E+01  0.30000000000E+00 0.  1.
</event>
<event>
 5   0  0.5137000E+05  0.9118800E+02  0.7818608E-02  0.1180000E+00
       11   -1    0    0    0    0  0.00000000000E+00  0.00000000000E+00  0.39999999673E+01  0.40000000000E+01  0.51109989000E-03 0. -1.
     -623   -1    0    0    0    0  0.00000000000E+00  0.00000000000E+00  0.12525980253E-10  0.17130000000E+03  0.17130000000E+03 0.  1.
       11    1    1    2    0    0  0.39888923660E-02 -0.22488976667E-01  0.49759478754E-01  0.54753376908E-01  0.51109989000E-03 0. -1.
     -623    1    1    2    0    0  0.32943610239E-01  0.12951537898E-01  0.16605943447E-01  0.17130000446E+03  0.17130000000E+03 0.  1.
      622    1    1    2    0    0 -0.36932502605E-01  0.95374387693E-02  0.39336345452E+01  0.39452421608E+01  0.30000000000E+00 0. -1.
</event>
<event>
 5   0  0.5137000E+05  0.9118800E+02  0.7818608E-02  0.1180000E+00
       11   -1    0    0    0    0  0.00000000000E+00  0.00000000000E+00  0.39999999673E+01  0.40000000000E+01  0.51109989000E-03 0. -1.
     -623   -1    0    0    0    0  0.00000000000E+00  0.00000000000E+00  0.12525980253E-10  0.17130000000E+03  0.17130000000E+03 0. -1.
       11    1    1    2    0    0 -0.19155068667E+00  0.16407968084E+00  0.11498821148E+01  0.11772183087E+01  0.51109989000E-03 0. -1.
     -623    1    1    2    0    0  0.19769817629E+00 -0.11469943705E+00  0.43923336775E-01  0.17130015811E+03  0.17130000000E+03 0. -1.
      622    1    1    2    0    0 -0.61474896176E-02 -0.49380243791E-01  0.28061945158E+01  0.28226235775E+01  0.30000000000E+00 0.  1.
</event>
<event>
 5   0  0.5137000E+05  0.9118800E+02  0.7818608E-02  0.1180000E+00
       11   -1    0    0    0    0  0.00000000000E+00  0.00000000000E+00  0.39999999673E+01  0.40000000000E+01  0.51109989000E-03 0.  1.
     -623   -1    0    0    0    0  0.00000000000E+00  0.00000000000E+00  0.12525980253E-10  0.17130000000E+03  0.17130000000E+03 0. -1.
       11    1    1    2    0    0  0.26447047632E-02  0.13385792231E-01  0.18764601592E+00  0.18814213353E+00  0.51109989000E-03 0.  1.
     -623    1    1    2    0    0 -0.51814700776E-01  0.50763640592E-02  0.12691077681E-01  0.17130000838E+03  0.17130000000E+03 0. -1.
      622    1    1    2    0    0  0.49169996013E-01 -0.18462156291E-01  0.37996628738E+01  0.38118494847E+01  0.30000000000E+00 0.  1.
</event>
<event>
 5   0  0.5137000E+05  0.9118800E+02  0.7818608E-02  0.1180000E+00
       11   -1    0    0    0    0  0.00000000000E+00  0.00000000000E+00  0.39999999673E+01  0.40000000000E+01  0.51109989000E-03 0.  1.
     -623   -1    0    0    0    0  0.00000000000E+00  0.00000000000E+00  0.12525980253E-10  0.17130000000E+03  0.17130000000E+03 0.  1.
       11    1    1    2    0    0  0.11740496502E-01  0.68819178372E-02  0.15025346939E-01  0.20278617432E-01  0.51109989000E-03 0.  1.
     -623    1    1    2    0    0  0.17692240337E-02 -0.14576228331E-01  0.16608564912E-01  0.17130000143E+03  0.17130000000E+03 0.  1.
      622    1    1    2    0    0 -0.13509720536E-01  0.76943104935E-02  0.39683660555E+01  0.39797199481E+01  0.30000000000E+00 0.  1.
</event>
<event>
 5   0  0.5137000E+05  0.9118800E+02  0.7818608E-02  0.1180000E+00
       11   -1    0    0    0    0  0.00000000000E+00  0.00000000000E+00  0.39999999673E+01  0.40000000000E+01  0.51109989000E-03 0.  1.
     -623   -1    0    0    0    0  0.00000000000E+00  0.00000000000E+00  0.12525980253E-10  0.17130000000E+03  0.17130000000E+03 0.  1.
       11    1    1    2    0    0  0.30699732798E-01 -0.60297480372E-01  0.48527627605E+00  0.48997100429E+00  0.51109989000E-03 0.  1.
     -623    1    1    2    0    0  0.13546753658E-01  0.37817839685E-01  0.17896438430E-01  0.17130000565E+03  0.17130000000E+03 0.  1.
      622    1    1    2    0    0 -0.44246486456E-01  0.22479640687E-01  0.34968272529E+01  0.35100233507E+01  0.30000000000E+00 0.  1.
</event>
<event>
 5   0  0.5137000E+05  0.9118800E+02  0.7818608E-02  0.1180000E+00
       11   -1    0    0    0    0  0.00000000000E+00  0.00000000000E+00  0.39999999673E+01  0.40000000000E+01  0.51109989000E-03 0. -1.
     -623   -1    0    0    0    0  0.00000000000E+00  0.00000000000E+00  0.12525980253E-10  0.17130000000E+03  0.17130000000E+03 0. -1.
       11    1    1    2    0    0 -0.94471517379E-02  0.11345310659E-02  0.21580050783E-01  0.23590160058E-01  0.51109989000E-03 0. -1.
     -623    1    1    2    0    0  0.80862219655E-02 -0.60981839529E-02  0.13347129250E-01  0.17130000082E+03  0.17130000000E+03 0. -1.
      622    1    1    2    0    0  0.13609297724E-02  0.49636528871E-02  0.39650727873E+01  0.39764090206E+01  0.30000000000E+00 0. -1.
</event>
<event>
 5   0  0.5137000E+05  0.9118800E+02  0.7818608E-02  0.1180000E+00
       11   -1    0    0    0    0  0.00000000000E+00  0.00000000000E+00  0.39999999673E+01  0.40000000000E+01  0.51109989000E-03 0. -1.
     -623   -1    0    0    0    0  0.00000000000E+00  0.00000000000E+00  0.12525980253E-10  0.17130000000E+03  0.17130000000E+03 0. -1.
       11    1    1    2    0    0  0.19980737604E-01 -0.24949528107E-02  0.40310618100E-01  0.45062865193E-01  0.51109989000E-03 0. -1.
     -623    1    1    2    0    0 -0.11747461062E-01 -0.12724288919E-02  0.16158379603E-01  0.17130000117E+03  0.17130000000E+03 0. -1.
      622    1    1    2    0    0 -0.82332765427E-02  0.37673817027E-02  0.39435309697E+01  0.39549359652E+01  0.30000000000E+00 0. -1.
</event>
<event>
 5   0  0.5137000E+05  0.9118800E+02  0.7818608E-02  0.1180000E+00
       11   -1    0    0    0    0  0.00000000000E+00  0.00000000000E+00  0.39999999673E+01  0.40000000000E+01  0.51109989000E-03 0. -1.
     -623   -1    0    0    0    0  0.00000000000E+00  0.00000000000E+00  0.12525980253E-10  0.17130000000E+03  0.17130000000E+03 0. -1.
       11    1    1    2    0    0  0.32955037448E-01  0.13245200330E-01  0.70489344649E+00  0.70578785903E+00  0.51109989000E-03 0. -1.
     -623    1    1    2    0    0  0.37902717057E-01  0.51247109379E-01  0.15995284812E-01  0.17130001261E+03  0.17130000000E+03 0. -1.
      622    1    1    2    0    0 -0.70857754506E-01 -0.64492309709E-01  0.32791112361E+01  0.32941995352E+01  0.30000000000E+00 0.  0.
</event>
<event>
 5   0  0.5137000E+05  0.9118800E+02  0.7818608E-02  0.1180000E+00
       11   -1    0    0    0    0  0.00000000000E+00  0.00000000000E+00  0.39999999673E+01  0.40000000000E+01  0.51109989000E-03 0.  1.
     -623   -1    0    0    0    0  0.00000000000E+00  0.00000000000E+00  0.12525980253E-10  0.17130000000E+03  0.17130000000E+03 0.  1.
       11    1    1    2    0    0  0.12138713217E+00 -0.95124028617E-01  0.77526489186E+00  0.79045514133E+00  0.51109989000E-03 0.  1.
     -623    1    1    2    0    0 -0.18970377310E-01  0.42610951436E-01  0.31324322362E-01  0.17130000921E+03  0.17130000000E+03 0.  1.
      622    1    1    2    0    0 -0.10241675486E+00  0.52513077181E-01  0.31934107532E+01  0.32095356445E+01  0.30000000000E+00 0.  1.
</event>
<event>
 5   0  0.5137000E+05  0.9118800E+02  0.7818608E-02  0.1180000E+00
       11   -1    0    0    0    0  0.00000000000E+00  0.00000000000E+00  0.39999999673E+01  0.40000000000E+01  0.51109989000E-03 0.  1.
     -623   -1    0    0    0    0  0.00000000000E+00  0.00000000000E+00  0.12525980253E-10  0.17130000000E+03  0.17130000000E+03 0.  1.
       11    1    1    2    0    0  0.78079933655E-02  0.12316315093E-01 -0.16768761625E-01  0.22228561944E-01  0.51109989000E-03 0.  1.
     -623    1    1    2    0    0 -0.34876035671E-01 -0.74926308417E-02  0.50432755264E-01  0.17130001114E+03  0.17130000000E+03 0.  1.
      622    1    1    2    0    0  0.27068042305E-01 -0.48236842516E-02  0.39663359737E+01  0.39777602999E+01  0.30000000000E+00 0.  1.
</event>
<event>
 5   0  0.5137000E+05  0.9118800E+02  0.7818608E-02  0.1180000E+00
       11   -1    0    0    0    0  0.00000000000E+00  0.00000000000E+00  0.39999999673E+01  0.40000000000E+01  0.51109989000E-03 0.  1.
     -623   -1    0    0    0    0  0.00000000000E+00  0.00000000000E+00  0.12525980253E-10  0.17130000000E+03  0.17130000000E+03 0.  1.
       11    1    1    2    0    0 -0.11124368519E-01 -0.56299283579E-01  0.81161350287E-01  0.99402147405E-01  0.51109989000E-03 0.  1.
     -623    1    1    2    0    0  0.69306994875E-01  0.57055309049E-01  0.30256166990E-01  0.17130002619E+03  0.17130000000E+03 0.  1.
      622    1    1    2    0    0 -0.58182626356E-01 -0.75602547000E-03  0.38885824501E+01  0.39005716582E+01  0.30000000000E+00 0.  1.
</event>
<event>
 5   0  0.5137000E+05  0.9118800E+02  0.7818608E-02  0.1180000E+00
       11   -1    0    0    0    0  0.00000000000E+00  0.00000000000E+00  0.39999999673E+01  0.40000000000E+01  0.51109989000E-03 0.  1.
     -623   -1    0    0    0    0  0.00000000000E+00  0.00000000000E+00  0.12525980253E-10  0.17130000000E+03  0.17130000000E+03 0. -1.
       11    1    1    2    0    0 -0.58355914066E-01  0.10811272149E-01  0.22602838607E+00  0.23369079751E+00  0.51109989000E-03 0.  1.
     -623    1    1    2    0    0  0.10050949398E-01  0.10276735948E-01  0.20001203653E-01  0.17130000177E+03  0.17130000000E+03 0. -1.
      622    1    1    2    0    0  0.48304964668E-01 -0.21088008097E-01  0.37539703776E+01  0.37663074317E+01  0.30000000000E+00 0.  1.
</event>
<event>
 5   0  0.5137000E+05  0.9118800E+02  0.7818608E-02  0.1180000E+00
       11   -1    0    0    0    0  0.00000000000E+00  0.00000000000E+00  0.39999999673E+01  0.40000000000E+01  0.51109989000E-03 0. -1.
     -623   -1    0    0    0    0  0.00000000000E+00  0.00000000000E+00  0.12525980253E-10  0.17130000000E+03  0.17130000000E+03 0. -1.
       11    1    1    2    0    0  0.34612735761E-02 -0.26424170826E-01  0.36760820299E+00  0.36857328898E+00  0.51109989000E-03 0. -1.
     -623    1    1    2    0    0 -0.10354481868E-01 -0.11848268975E-02  0.13490822991E-01  0.17130000085E+03  0.17130000000E+03 0. -1.
      622    1    1    2    0    0  0.68932082918E-02  0.27608997724E-01  0.36189009414E+01  0.36314258628E+01  0.30000000000E+00 0. -1.
</event>
<event>
 5   0  0.5137000E+05  0.9118800E+02  0.7818608E-02  0.1180000E+00
       11   -1    0    0    0    0  0.00000000000E+00  0.00000000000E+00  0.39999999673E+01  0.40000000000E+01  0.51109989000E-03 0.  1.
     -623   -1    0    0    0    0  0.00000000000E+00  0.00000000000E+00  0.12525980253E-10  0.17130000000E+03  0.17130000000E+03 0.  1.
       11    1    1    2    0    0  0.15111693932E-01 -0.54239547981E-01  0.48270611245E+00  0.48597916013E+00  0.51109989000E-03 0.  1.
     -623    1    1    2    0    0  0.67684538463E-02  0.42040777922E-01  0.16197978838E-01  0.17130000606E+03  0.17130000000E+03 0.  1.
      622    1    1    2    0    0 -0.21880147778E-01  0.12198770060E-01  0.35010958761E+01  0.35140147815E+01  0.30000000000E+00 0.  1.
</event>
<event>
 5   0  0.5137000E+05  0.9118800E+02  0.7818608E-02  0.1180000E+00
       11   -1    0    0    0    0  0.00000000000E+00  0.00000000000E+00  0.39999999673E+01  0.40000000000E+01  0.51109989000E-03 0. -1.
     -623   -1    0    0    0    0  0.00000000000E+00  0.00000000000E+00  0.12525980253E-10  0.17130000000E+03  0.17130000000E+03 0.  1.
       11    1    1    2    0    0  0.77019860215E-02  0.53565478880E-02  0.18671621407E-01  0.20902245406E-01  0.51109989000E-03 0. -1.
     -623    1    1    2    0    0 -0.10989947255E-01 -0.40030349457E-02  0.13558336233E-01  0.17130000094E+03  0.17130000000E+03 0.  1.
      622    1    1    2    0    0  0.32879612333E-02 -0.13535129423E-02  0.39677700097E+01  0.39790968187E+01  0.30000000000E+00 0. -1.
</event>
<event>
 5   0  0.5137000E+05  0.9118800E+02  0.7818608E-02  0.1180000E+00
       11   -1    0    0    0    0  0.00000000000E+00  0.00000000000E+00  0.39999999673E+01  0.40000000000E+01  0.51109989000E-03 0.  1.
     -623   -1    0    0    0    0  0.00000000000E+00  0.00000000000E+00  0.12525980253E-10  0.17130000000E+03  0.17130000000E+03 0.  1.
       11    1    1    2    0    0  0.18683357577E-01 -0.17058479249E-01  0.17249803439E+00  0.17434417872E+00  0.51109989000E-03 0.  1.
     -623    1    1    2    0    0 -0.64494974126E-03  0.14669092400E-01  0.13671525063E-01  0.17130000117E+03  0.17130000000E+03 0.  1.
      622    1    1    2    0    0 -0.18038407836E-01  0.23893868489E-02  0.38138304079E+01  0.38256546464E+01  0.30000000000E+00 0.  1.
</event>
<event>
 5   0  0.5137000E+05  0.9118800E+02  0.7818608E-02  0.1180000E+00
       11   -1    0    0    0    0  0.00000000000E+00  0.00000000000E+00  0.39999999673E+01  0.40000000000E+01  0.51109989000E-03 0. -1.
     -623   -1    0    0    0    0  0.00000000000E+00  0.00000000000E+00  0.12525980253E-10  0.17130000000E+03  0.17130000000E+03 0. -1.
       11    1    1    2    0    0  0.56529345608E-02 -0.78027861258E-02  0.15901141795E-01  0.18599641714E-01  0.51109989000E-03 0. -1.
     -623    1    1    2    0    0 -0.14301828569E-01 -0.84445704233E-02  0.14061165017E-01  0.17130000138E+03  0.17130000000E+03 0. -1.
      622    1    1    2    0    0  0.86488940079E-02  0.16247356549E-01  0.39700376605E+01  0.39813989760E+01  0.30000000000E+00 0. -1.
</event>
<event>
 5   0  0.5137000E+05  0.9118800E+02  0.7818608E-02  0.1180000E+00
       11   -1    0    0    0    0  0.00000000000E+00  0.00000000000E+00  0.39999999673E+01  0.40000000000E+01  0.51109989000E-03 0.  1.
     -623   -1    0    0    0    0  0.00000000000E+00  0.00000000000E+00  0.12525980253E-10  0.17130000000E+03  0.17130000000E+03 0.  1.
       11    1    1    2    0    0 -0.35202564512E-02 -0.11769855637E-03  0.15892346267E-02  0.38978132624E-02  0.51109989000E-03 0.  1.
     -623    1    1    2    0    0  0.42792314799E-02  0.43664576633E-02  0.13588418064E-01  0.17130000065E+03  0.17130000000E+03 0.  1.
      622    1    1    2    0    0 -0.75897502870E-03 -0.42487591069E-02  0.39848223147E+01  0.39961015387E+01  0.30000000000E+00 0.  1.
</event>
<event>
 5   0  0.5137000E+05  0.9118800E+02  0.7818608E-02  0.1180000E+00
       11   -1    0    0    0    0  0.00000000000E+00  0.00000000000E+00  0.39999999673E+01  0.40000000000E+01  0.51109989000E-03 0. -1.
     -623   -1    0    0    0    0  0.00000000000E+00  0.00000000000E+00  0.12525980253E-10  0.17130000000E+03  0.17130000000E+03 0. -1.
       11    1    1    2    0    0 -0.11614423633E-01  0.69540656032E-02  0.98274300031E-02  0.16735993165E-01  0.51109989000E-03 0. -1.
     -623    1    1    2    0    0  0.10600023415E-01 -0.19122515307E-01  0.18243007086E-01  0.17130000237E+03  0.17130000000E+03 0. -1.
      622    1    1    2    0    0  0.10144002184E-02  0.12168449703E-01  0.39719295303E+01  0.39832616401E+01  0.30000000000E+00 0. -1.
</event>
<event>
 5   0  0.5137000E+05  0.9118800E+02  0.7818608E-02  0.1180000E+00
       11   -1    0    0    0    0  0.00000000000E+00  0.00000000000E+00  0.39999999673E+01  0.40000000000E+01  0.51109989000E-03 0.  1.
     -623   -1    0    0    0    0  0.00000000000E+00  0.00000000000E+00  0.12525980253E-10  0.17130000000E+03  0.17130000000E+03 0.  1.
       11    1    1    2    0    0 -0.29647294158E-01 -0.80365830493E-02  0.92232944385E-01  0.97214844388E-01  0.51109989000E-03 0.  1.
     -623    1    1    2    0    0  0.21571582760E-01  0.14605414348E-01  0.16545890097E-01  0.17130000278E+03  0.17130000000E+03 0.  1.
      622    1    1    2    0    0  0.80757113986E-02 -0.65688312983E-02  0.38912211329E+01  0.39027823756E+01  0.30000000000E+00 0.  1.
</event>
<event>
 5   0  0.5137000E+05  0.9118800E+02  0.7818608E-02  0.1180000E+00
       11   -1    0    0    0    0  0.00000000000E+00  0.00000000000E+00  0.39999999673E+01  0.40000000000E+01  0.51109989000E-03 0. -1.
     -623   -1    0    0    0    0  0.00000000000E+00  0.00000000000E+00  0.12525980253E-10  0.17130000000E+03  0.17130000000E+03 0. -1.
       11    1    1    2    0    0 -0.28560060090E-02 -0.73793144962E-01  0.46644642140E+00  0.47225640311E+00  0.51109989000E-03 0. -1.
     -623    1    1    2    0    0 -0.17349941042E-01  0.95544403204E-02  0.19236500763E-01  0.17130000223E+03  0.17130000000E+03 0. -1.
      622    1    1    2    0    0  0.20205947051E-01  0.64238704642E-01  0.35143170452E+01  0.35277413717E+01  0.30000000000E+00 0. -1.
</event>
<event>
 5   0  0.5137000E+05  0.9118800E+02  0.7818608E-02  0.1180000E+00
       11   -1    0    0    0    0  0.00000000000E+00  0.00000000000E+00  0.39999999673E+01  0.40000000000E+01  0.51109989000E-03 0.  1.
     -623   -1    0    0    0    0  0.00000000000E+00  0.00000000000E+00  0.12525980253E-10  0.17130000000E+03  0.17130000000E+03 0.  1.
       11    1    1    2    0    0  0.54214068968E-02 -0.36731818942E-02  0.37748703443E-01  0.38315920320E-01  0.51109989000E-03 0.  1.
     -623    1    1    2    0    0  0.42270198439E-03  0.20132472608E-01  0.11982540558E-01  0.17130000160E+03  0.17130000000E+03 0.  1.
      622    1    1    2    0    0 -0.58441088811E-02 -0.16459290714E-01  0.39502687234E+01  0.39616824770E+01  0.30000000000E+00 0.  1.
</event>
<event>
 5   0  0.5137000E+05  0.9118800E+02  0.7818608E-02  0.1180000E+00
       11   -1    0    0    0    0  0.00000000000E+00  0.00000000000E+00  0.39999999673E+01  0.40000000000E+01  0.51109989000E-03 0.  1.
     -623   -1    0    0    0    0  0.00000000000E+00  0.00000000000E+00  0.12525980253E-10  0.17130000000E+03  0.17130000000E+03 0. -1.
       11    1    1    2    0    0 -0.80848393533E-02  0.16763843538E+00  0.97064605885E+00  0.98504925889E+00  0.51109989000E-03 0.  1.
     -623    1    1    2    0    0  0.19474689544E-01  0.22289338443E-01  0.35411993070E-01  0.17130000622E+03  0.17130000000E+03 0. -1.
      622    1    1    2    0    0 -0.11389850191E-01 -0.18992777382E+00  0.29939419154E+01  0.30149445237E+01  0.30000000000E+00 0.  1.
</event>
<event>
 5   0  0.5137000E+05  0.9118800E+02  0.7818608E-02  0.1180000E+00
       11   -1    0    0    0    0  0.00000000000E+00  0.00000000000E+00  0.39999999673E+01  0.40000000000E+01  0.51109989000E-03 0. -1.
     -623   -1    0    0    0    0  0.00000000000E+00  0.00000000000E+00  0.12525980253E-10  0.17130000000E+03  0.17130000000E+03 0.  1.
       11    1    1    2    0    0 -0.15681778786E-01  0.41878199339E-01  0.58494185360E-01  0.73631058052E-01  0.51109989000E-03 0. -1.
     -623    1    1    2    0    0  0.31127431981E-01 -0.25968868775E-02  0.26847100227E-01  0.17130000495E+03  0.17130000000E+03 0.  1.
      622    1    1    2    0    0 -0.15445653195E-01 -0.39281312461E-01  0.39146586818E+01  0.39263639903E+01  0.30000000000E+00 0. -1.
</event>
<event>
 5   0  0.5137000E+05  0.9118800E+02  0.7818608E-02  0.1180000E+00
       11   -1    0    0    0    0  0.00000000000E+00  0.00000000000E+00  0.39999999673E+01  0.40000000000E+01  0.51109989000E-03 0.  1.
     -623   -1    0    0    0    0  0.00000000000E+00  0.00000000000E+00  0.12525980253E-10  0.17130000000E+03  0.17130000000E+03 0.  1.
       11    1    1    2    0    0 -0.12808163991E-02  0.71488000339E-03  0.18060964886E-01  0.18127636891E-01  0.51109989000E-03 0.  1.
     -623    1    1    2    0    0  0.94588380175E-02  0.10714108310E-01  0.11409788364E-01  0.17130000098E+03  0.17130000000E+03 0.  1.
      622    1    1    2    0    0 -0.81780216183E-02 -0.11428988313E-01  0.39705292141E+01  0.39818713869E+01  0.30000000000E+00 0.  1.
</event>
<event>
 5   0  0.5137000E+05  0.9118800E+02  0.7818608E-02  0.1180000E+00
       11   -1    0    0    0    0  0.00000000000E+00  0.00000000000E+00  0.39999999673E+01  0.40000000000E+01  0.51109989000E-03 0.  1.
     -623   -1    0    0    0    0  0.00000000000E+00  0.00000000000E+00  0.12525980253E-10  0.17130000000E+03  0.17130000000E+03 0. -1.
       11    1    1    2    0    0  0.18765588070E-02  0.10294233293E-02  0.23180344986E+00  0.23181389470E+00  0.51109989000E-03 0.  1.
     -623    1    1    2    0    0  0.20237227016E-01 -0.53273840290E-02  0.12040742017E-01  0.17130000170E+03  0.17130000000E+03 0. -1.
      622    1    1    2    0    0 -0.22113785823E-01  0.42979606997E-02  0.37561557755E+01  0.37681844039E+01  0.30000000000E+00 0.  1.
</event>
<event>
 5   0  0.5137000E+05  0.9118800E+02  0.7818608E-02  0.1180000E+00
       11   -1    0    0    0    0  0.00000000000E+00  0.00000000000E+00  0.39999999673E+01  0.40000000000E+01  0.51109989000E-03 0.  1.
     -623   -1    0    0    0    0  0.00000000000E+00  0.00000000000E+00  0.12525980253E-10  0.17130000000E+03  0.17130000000E+03 0. -1.
       11    1    1    2    0    0  0.27378291078E-01 -0.11449878123E-01  0.11560686053E+00  0.11935609727E+00  0.51109989000E-03 0.  1.
     -623    1    1    2    0    0  0.23366757477E-01  0.12953282961E-01  0.15698491542E-01  0.17130000280E+03  0.17130000000E+03 0. -1.
      622    1    1    2    0    0 -0.50745048555E-01 -0.15034048380E-02  0.38686946153E+01  0.38806411000E+01  0.30000000000E+00 0.  1.
</event>
<event>
 5   0  0.5137000E+05  0.9118800E+02  0.7818608E-02  0.1180000E+00
       11   -1    0    0    0    0  0.00000000000E+00  0.00000000000E+00  0.39999999673E+01  0.40000000000E+01  0.51109989000E-03 0.  1.
     -623   -1    0    0    0    0  0.00000000000E+00  0.00000000000E+00  0.12525980253E-10  0.17130000000E+03  0.17130000000E+03 0. -1.
       11    1    1    2    0    0 -0.15285526593E-01 -0.89382264207E-02  0.13607375779E-01  0.22337437462E-01  0.51109989000E-03 0.  1.
     -623    1    1    2    0    0  0.27618925750E-01  0.15256080282E-01  0.20087642831E-01  0.17130000408E+03  0.17130000000E+03 0. -1.
      622    1    1    2    0    0 -0.12333399157E-01 -0.63178538617E-02  0.39663049487E+01  0.39776584789E+01  0.30000000000E+00 0.  1.
</event>
<event>
 5   0  0.5137000E+05  0.9118800E+02  0.7818608E-02  0.1180000E+00
       11   -1    0    0    0    0  0.00000000000E+00  0.00000000000E+00  0.39999999673E+01  0.40000000000E+01  0.51109989000E-03 0. -1.
     -623   -1    0    0    0    0  0.00000000000E+00  0.00000000000E+00  0.12525980253E-10  0.17130000000E+03  0.17130000000E+03 0. -1.
       11    1    1    2    0    0 -0.16865585727E+00  0.49809582348E-01  0.18632395711E+00  0.25620825690E+00  0.51109989000E-03 0. -1.
     -623    1    1    2    0    0 -0.11549639256E+00 -0.55190738639E-01  0.92834881969E-01  0.17130007298E+03  0.17130000000E+03 0. -1.
      622    1    1    2    0    0  0.28415224983E+00  0.53811562914E-02  0.37208411283E+01  0.37437187608E+01  0.30000000000E+00 0. -1.
</event>
<event>
 5   0  0.5137000E+05  0.9118800E+02  0.7818608E-02  0.1180000E+00
       11   -1    0    0    0    0  0.00000000000E+00  0.00000000000E+00  0.39999999673E+01  0.40000000000E+01  0.51109989000E-03 0. -1.
     -623   -1    0    0    0    0  0.00000000000E+00  0.00000000000E+00  0.12525980253E-10  0.17130000000E+03  0.17130000000E+03 0.  1.
       11    1    1    2    0    0  0.28252000740E+00 -0.37038581214E-01  0.44188694078E+00  0.52578868449E+00  0.51109989000E-03 0. -1.
     -623    1    1    2    0    0 -0.14301462745E+00  0.12207471047E+00  0.10087019883E+00  0.17130013290E+03  0.17130000000E+03 0.  1.
      622    1    1    2    0    0 -0.13950537995E+00 -0.85036129255E-01  0.34572428277E+01  0.34740784194E+01  0.30000000000E+00 0. -1.
</event>
<event>
 5   0  0.5137000E+05  0.9118800E+02  0.7818608E-02  0.1180000E+00
       11   -1    0    0    0    0  0.00000000000E+00  0.00000000000E+00  0.39999999673E+01  0.40000000000E+01  0.51109989000E-03 0.  1.
     -623   -1    0    0    0    0  0.00000000000E+00  0.00000000000E+00  0.12525980253E-10  0.17130000000E+03  0.17130000000E+03 0. -1.
       11    1    1    2    0    0  0.29783827462E-01 -0.22704137987E-01  0.17848542292E+00  0.18237286442E+00  0.51109989000E-03 0.  1.
     -623    1    1    2    0    0  0.36226488134E-02 -0.34667057758E-04  0.15908420873E-01  0.17130000078E+03  0.17130000000E+03 0. -1.
      622    1    1    2    0    0 -0.33406476275E-01  0.22738805045E-01  0.38056061236E+01  0.38176263586E+01  0.30000000000E+00 0.  1.
</event>
<event>
 5   0  0.5137000E+05  0.9118800E+02  0.7818608E-02  0.1180000E+00
       11   -1    0    0    0    0  0.00000000000E+00  0.00000000000E+00  0.39999999673E+01  0.40000000000E+01  0.51109989000E-03 0.  1.
     -623   -1    0    0    0    0  0.00000000000E+00  0.00000000000E+00  0.12525980253E-10  0.17130000000E+03  0.17130000000E+03 0.  1.
       11    1    1    2    0    0  0.79630152067E-02  0.24894045049E-01  0.11096672907E+00  0.11400438268E+00  0.51109989000E-03 0.  1.
     -623    1    1    2    0    0  0.38670193150E-01 -0.16056280427E-01  0.14931491267E-01  0.17130000577E+03  0.17130000000E+03 0.  1.
      622    1    1    2    0    0 -0.46633208357E-01 -0.88377646223E-02  0.38741017470E+01  0.38859898493E+01  0.30000000000E+00 0.  1.
</event>
<event>
 5   0  0.5137000E+05  0.9118800E+02  0.7818608E-02  0.1180000E+00
       11   -1    0    0    0    0  0.00000000000E+00  0.00000000000E+00  0.39999999673E+01  0.40000000000E+01  0.51109989000E-03 0.  1.
     -623   -1    0    0    0    0  0.00000000000E+00  0.00000000000E+00  0.12525980253E-10  0.17130000000E+03  0.17130000000E+03 0.  1.
       11    1    1    2    0    0  0.75584320571E-02 -0.13398532071E-01  0.75439750112E+00  0.75455450531E+00  0.51109989000E-03 0.  1.
     -623    1    1    2    0    0  0.18533740704E-01 -0.14518170671E-01  0.14280453460E-01  0.17130000221E+03  0.17130000000E+03 0.  1.
      622    1    1    2    0    0 -0.26092172761E-01  0.27916702742E-01  0.32313220128E+01  0.32454432816E+01  0.30000000000E+00 0.  1.
</event>
<event>
 5   0  0.5137000E+05  0.9118800E+02  0.7818608E-02  0.1180000E+00
       11   -1    0    0    0    0  0.00000000000E+00  0.00000000000E+00  0.39999999673E+01  0.40000000000E+01  0.51109989000E-03 0. -1.
     -623   -1    0    0    0    0  0.00000000000E+00  0.00000000000E+00  0.12525980253E-10  0.17130000000E+03  0.17130000000E+03 0.  1.
       11    1    1    2    0    0  0.75176259168E-02  0.25474814331E-02  0.36135683713E+00  0.36144436546E+00  0.51109989000E-03 0. -1.
     -623    1    1    2    0    0 -0.46850848611E-02 -0.13870987608E-01  0.12496002666E-01  0.17130000108E+03  0.17130000000E+03 0.  1.
      622    1    1    2    0    0 -0.28325410557E-02  0.11323506175E-01  0.36261471276E+01  0.36385545531E+01  0.30000000000E+00 0. -1.
</event>
<event>
 5   0  0.5137000E+05  0.9118800E+02  0.7818608E-02  0.1180000E+00
       11   -1    0    0    0    0  0.00000000000E+00  0.00000000000E+00  0.39999999673E+01  0.40000000000E+01  0.51109989000E-03 0.  1.
     -623   -1    0    0    0    0  0.00000000000E+00  0.00000000000E+00  0.12525980253E-10  0.17130000000E+03  0.17130000000E+03 0.  1.
       11    1    1    2    0    0  0.42828819131E-01 -0.85216655253E-01  0.22194690766E+00  0.24157168113E+00  0.51109989000E-03 0.  1.
     -623    1    1    2    0    0  0.19316924993E-01  0.31532047170E-01  0.32524247069E-01  0.17130000708E+03  0.17130000000E+03 0.  1.
      622    1    1    2    0    0 -0.62145744124E-01  0.53684608083E-01  0.37455288126E+01  0.37584212399E+01  0.30000000000E+00 0.  1.
</event>
<event>
 5   0  0.5137000E+05  0.9118800E+02  0.7818608E-02  0.1180000E+00
       11   -1    0    0    0    0  0.00000000000E+00  0.00000000000E+00  0.39999999673E+01  0.40000000000E+01  0.51109989000E-03 0. -1.
     -623   -1    0    0    0    0  0.00000000000E+00  0.00000000000E+00  0.12525980253E-10  0.17130000000E+03  0.17130000000E+03 0.  1.
       11    1    1    2    0    0 -0.51187003845E-02 -0.31095071134E-01  0.11969268805E+00  0.12377279725E+00  0.51109989000E-03 0. -1.
     -623    1    1    2    0    0 -0.72327490457E-02  0.20435005147E-01  0.15743281841E-01  0.17130000210E+03  0.17130000000E+03 0.  1.
      622    1    1    2    0    0  0.12351449430E-01  0.10660065988E-01  0.38645639974E+01  0.38762251077E+01  0.30000000000E+00 0. -1.
</event>
<event>
 5   0  0.5137000E+05  0.9118800E+02  0.7818608E-02  0.1180000E+00
       11   -1    0    0    0    0  0.00000000000E+00  0.00000000000E+00  0.39999999673E+01  0.40000000000E+01  0.51109989000E-03 0. -1.
     -623   -1    0    0    0    0  0.00000000000E+00  0.00000000000E+00  0.12525980253E-10  0.17130000000E+03  0.17130000000E+03 0.  1.
       11    1    1    2    0    0 -0.24316810120E-01 -0.30346774269E-01  0.68863768594E-01  0.79086748626E-01  0.51109989000E-03 0. -1.
     -623    1    1    2    0    0  0.54972896114E-01 -0.19571484746E-01  0.22167036634E-01  0.17130001137E+03  0.17130000000E+03 0.  1.
      622    1    1    2    0    0 -0.30656085994E-01  0.49918259015E-01  0.39089691621E+01  0.39209018782E+01  0.30000000000E+00 0. -1.
</event>
<event>
 5   0  0.5137000E+05  0.9118800E+02  0.7818608E-02  0.1180000E+00
       11   -1    0    0    0    0  0.00000000000E+00  0.00000000000E+00  0.39999999673E+01  0.40000000000E+01  0.51109989000E-03 0. -1.
     -623   -1    0    0    0    0  0.00000000000E+00  0.00000000000E+00  0.12525980253E-10  0.17130000000E+03  0.17130000000E+03 0.  1.
       11    1    1    2    0    0  0.53474673158E-01 -0.14820747378E-01  0.15930889220E+00  0.16869730163E+00  0.51109989000E-03 0. -1.
     -623    1    1    2    0    0 -0.60033715652E-01 -0.60857528607E-01  0.21930026846E-01  0.17130002273E+03  0.17130000000E+03 0.  1.
      622    1    1    2    0    0  0.65590424940E-02  0.75678275985E-01  0.38187610483E+01  0.38312799645E+01  0.30000000000E+00 0. -1.
</event>
<event>
 5   0  0.5137000E+05  0.9118800E+02  0.7818608E-02  0.1180000E+00
       11   -1    0    0    0    0  0.00000000000E+00  0.00000000000E+00  0.39999999673E+01  0.40000000000E+01  0.51109989000E-03 0. -1.
     -623   -1    0    0    0    0  0.00000000000E+00  0.00000000000E+00  0.12525980253E-10  0.17130000000E+03  0.17130000000E+03 0.  1.
       11    1    1    2    0    0 -0.89524320270E-02 -0.17119740532E-02  0.91043569419E-01  0.91500107377E-01  0.51109989000E-03 0. -1.
     -623    1    1    2    0    0  0.15414367368E-01 -0.45595381885E-02  0.11998463636E-01  0.17130000117E+03  0.17130000000E+03 0.  1.
      622    1    1    2    0    0 -0.64619353408E-02  0.62715122417E-02  0.38969579343E+01  0.39084987182E+01  0.30000000000E+00 0. -1.
</event>
<event>
 5   0  0.5137000E+05  0.9118800E+02  0.7818608E-02  0.1180000E+00
       11   -1    0    0    0    0  0.00000000000E+00  0.00000000000E+00  0.39999999673E+01  0.40000000000E+01  0.51109989000E-03 0.  1.
     -623   -1    0    0    0    0  0.00000000000E+00  0.00000000000E+00  0.12525980253E-10  0.17130000000E+03  0.17130000000E+03 0. -1.
       11    1    1    2    0    0 -0.32397991280E-01  0.26582382058E-01  0.41985957855E-01  0.59323981273E-01  0.51109989000E-03 0.  1.
     -623    1    1    2    0    0 -0.20237549115E-01 -0.20739123222E-01  0.29135798593E-01  0.17130000493E+03  0.17130000000E+03 0. -1.
      622    1    1    2    0    0  0.52635540395E-01 -0.58432588356E-02  0.39288782109E+01  0.39406710901E+01  0.30000000000E+00 0.  1.
</event>
<event>
 5   0  0.5137000E+05  0.9118800E+02  0.7818608E-02  0.1180000E+00
       11   -1    0    0    0    0  0.00000000000E+00  0.00000000000E+00  0.39999999673E+01  0.40000000000E+01  0.51109989000E-03 0.  1.
     -623   -1    0    0    0    0  0.00000000000E+00  0.00000000000E+00  0.12525980253E-10  0.17130000000E+03  0.17130000000E+03 0.  1.
       11    1    1    2    0    0  0.18659502330E-01  0.18019801075E-01  0.22473866047E+00  0.22623133512E+00  0.51109989000E-03 0.  1.
     -623    1    1    2    0    0  0.66530344229E-02 -0.97778235032E-02  0.13531097736E-01  0.17130000094E+03  0.17130000000E+03 0.  1.
      622    1    1    2    0    0 -0.25312536753E-01 -0.82419775716E-02  0.37617302092E+01  0.37737677222E+01  0.30000000000E+00 0.  1.
</event>
<event>
 5   0  0.5137000E+05  0.9118800E+02  0.7818608E-02  0.1180000E+00
       11   -1    0    0    0    0  0.00000000000E+00  0.00000000000E+00  0.39999999673E+01  0.40000000000E+01  0.51109989000E-03 0.  1.
     -623   -1    0    0    0    0  0.00000000000E+00  0.00000000000E+00  0.12525980253E-10  0.17130000000E+03  0.17130000000E+03 0. -1.
       11    1    1    2    0    0  0.28056587320E-01 -0.29871646405E-01  0.28527359452E+00  0.28820265839E+00  0.51109989000E-03 0.  1.
     -623    1    1    2    0    0  0.66702817064E-02  0.16321069957E-01  0.15261796914E-01  0.17130000159E+03  0.17130000000E+03 0. -1.
      622    1    1    2    0    0 -0.34726869027E-01  0.13550576448E-01  0.36994645759E+01  0.37117957544E+01  0.30000000000E+00 0.  1.
</event>
<event>
 5   0  0.5137000E+05  0.9118800E+02  0.7818608E-02  0.1180000E+00
       11   -1    0    0    0    0  0.00000000000E+00  0.00000000000E+00  0.39999999673E+01  0.40000000000E+01  0.51109989000E-03 0. -1.
     -623   -1    0    0    0    0  0.00000000000E+00  0.00000000000E+00  0.12525980253E-10  0.17130000000E+03  0.17130000000E+03 0. -1.
       11    1    1    2    0    0 -0.21255825378E-01  0.40654782678E-02  0.79924568587E-02  0.23075502503E-01  0.51109989000E-03 0. -1.
     -623    1    1    2    0    0  0.43782633330E-01  0.15361483634E-01  0.26534365062E-01  0.17130000834E+03  0.17130000000E+03 0. -1.
      622    1    1    2    0    0 -0.22526807952E-01 -0.19426961902E-01  0.39654731454E+01  0.39769161584E+01  0.30000000000E+00 0. -1.
</event>
<event>
 5   0  0.5137000E+05  0.9118800E+02  0.7818608E-02  0.1180000E+00
       11   -1    0    0    0    0  0.00000000000E+00  0.00000000000E+00  0.39999999673E+01  0.40000000000E+01  0.51109989000E-03 0.  1.
     -623   -1    0    0    0    0  0.00000000000E+00  0.00000000000E+00  0.12525980253E-10  0.17130000000E+03  0.17130000000E+03 0. -1.
       11    1    1    2    0    0  0.13092189990E-01  0.21340751907E-02  0.74131009157E-01  0.75310208188E-01  0.51109989000E-03 0.  1.
     -623    1    1    2    0    0 -0.13271014064E-01 -0.42440160718E-02  0.12663449131E-01  0.17130000103E+03  0.17130000000E+03 0. -1.
      622    1    1    2    0    0  0.17882407390E-03  0.21099408811E-02  0.39132055091E+01  0.39246887571E+01  0.30000000000E+00 0.  1.
</event>
<event>
 5   0  0.5137000E+05  0.9118800E+02  0.7818608E-02  0.1180000E+00
       11   -1    0    0    0    0  0.00000000000E+00  0.00000000000E+00  0.39999999673E+01  0.40000000000E+01  0.51109989000E-03 0.  1.
     -623   -1    0    0    0    0  0.00000000000E+00  0.00000000000E+00  0.12525980253E-10  0.17130000000E+03  0.17130000000E+03 0.  1.
       11    1    1    2    0    0  0.14373979411E-01 -0.61493741486E-01  0.94578482229E+00  0.94789096569E+00  0.51109989000E-03 0.  1.
     -623    1    1    2    0    0 -0.20936529838E-01  0.95272142374E-01  0.17109489851E-01  0.17130002863E+03  0.17130000000E+03 0.  1.
      622    1    1    2    0    0  0.65625504271E-02 -0.33778400888E-01  0.30371056552E+01  0.30520804066E+01  0.30000000000E+00 0.  1.
</event>
<event>
 5   0  0.5137000E+05  0.9118800E+02  0.7818608E-02  0.1180000E+00
       11   -1    0    0    0    0  0.00000000000E+00  0.00000000000E+00  0.39999999673E+01  0.40000000000E+01  0.51109989000E-03 0. -1.
     -623   -1    0    0    0    0  0.00000000000E+00  0.00000000000E+00  0.12525980253E-10  0.17130000000E+03  0.17130000000E+03 0. -1.
       11    1    1    2    0    0  0.22165634426E-01 -0.65415529039E-02  0.26294269042E-01  0.35010813596E-01  0.51109989000E-03 0. -1.
     -623    1    1    2    0    0 -0.41443528302E-02  0.14798263508E-01  0.20133710953E-01  0.17130000187E+03  0.17130000000E+03 0. -1.
      622    1    1    2    0    0 -0.18021281596E-01 -0.82567106041E-02  0.39535719874E+01  0.39649873139E+01  0.30000000000E+00 0. -1.
</event>
<event>
 5   0  0.5137000E+05  0.9118800E+02  0.7818608E-02  0.1180000E+00
       11   -1    0    0    0    0  0.00000000000E+00  0.00000000000E+00  0.39999999673E+01  0.40000000000E+01  0.51109989000E-03 0.  1.
     -623   -1    0    0    0    0  0.00000000000E+00  0.00000000000E+00  0.12525980253E-10  0.17130000000E+03  0.17130000000E+03 0. -1.
       11    1    1    2    0    0 -0.35915520461E-02  0.19692501862E-01  0.80922150579E-01  0.83362758778E-01  0.51109989000E-03 0.  1.
     -623    1    1    2    0    0  0.17228040522E-01  0.36040711118E-01  0.14373740236E-01  0.17130000526E+03  0.17130000000E+03 0. -1.
      622    1    1    2    0    0 -0.13636488476E-01 -0.55733212981E-01  0.39047040765E+01  0.39166319804E+01  0.30000000000E+00 0.  1.
</event>
<event>
 5   0  0.5137000E+05  0.9118800E+02  0.7818608E-02  0.1180000E+00
       11   -1    0    0    0    0  0.00000000000E+00  0.00000000000E+00  0.39999999673E+01  0.40000000000E+01  0.51109989000E-03 0.  1.
     -623   -1    0    0    0    0  0.00000000000E+00  0.00000000000E+00  0.12525980253E-10  0.17130000000E+03  0.17130000000E+03 0. -1.
       11    1    1    2    0    0  0.83939556316E-02 -0.23161932340E-02  0.60019760550E-02  0.10588115125E-01  0.51109989000E-03 0.  1.
     -623    1    1    2    0    0 -0.25606904707E-01  0.21771893791E-02  0.15921873757E-01  0.17130000267E+03  0.17130000000E+03 0. -1.
      622    1    1    2    0    0  0.17212949075E-01  0.13900385486E-03  0.39780761176E+01  0.39894092172E+01  0.30000000000E+00 0.  1.
</event>
<event>
 5   0  0.5137000E+05  0.9118800E+02  0.7818608E-02  0.1180000E+00
       11   -1    0    0    0    0  0.00000000000E+00  0.00000000000E+00  0.39999999673E+01  0.40000000000E+01  0.51109989000E-03 0. -1.
     -623   -1    0    0    0    0  0.00000000000E+00  0.00000000000E+00  0.12525980253E-10  0.17130000000E+03  0.17130000000E+03 0. -1.
       11    1    1    2    0    0  0.14873419732E-01  0.56795951941E-02  0.34570455475E-01  0.38063815227E-01  0.51109989000E-03 0. -1.
     -623    1    1    2    0    0  0.82506328304E-02 -0.79867368938E-02  0.14937127722E-01  0.17130000104E+03  0.17130000000E+03 0. -1.
      622    1    1    2    0    0 -0.23124052562E-01  0.23071416998E-02  0.39504923842E+01  0.39619351486E+01  0.30000000000E+00 0. -1.
</event>
<event>
 5   0  0.5137000E+05  0.9118800E+02  0.7818608E-02  0.1180000E+00
       11   -1    0    0    0    0  0.00000000000E+00  0.00000000000E+00  0.39999999673E+01  0.40000000000E+01  0.51109989000E-03 0. -1.
     -623   -1    0    0    0    0  0.00000000000E+00  0.00000000000E+00  0.12525980253E-10  0.17130000000E+03  0.17130000000E+03 0.  1.
       11    1    1    2    0    0  0.69854951451E-02 -0.57010415528E-02  0.21370636258E-01  0.23200524442E-01  0.51109989000E-03 0. -1.
     -623    1    1    2    0    0 -0.62221456718E-02 -0.62064573789E-02  0.13180318503E-01  0.17130000073E+03  0.17130000000E+03 0.  1.
      622    1    1    2    0    0 -0.76334947328E-03  0.11907498932E-01  0.39654490126E+01  0.39767987431E+01  0.30000000000E+00 0. -1.
</event>
<event>
 5   0  0.5137000E+05  0.9118800E+02  0.7818608E-02  0.1180000E+00
       11   -1    0    0    0    0  0.00000000000E+00  0.00000000000E+00  0.39999999673E+01  0.40000000000E+01  0.51109989000E-03 0. -1.
     -623   -1    0    0    0    0  0.00000000000E+00  0.00000000000E+00  0.12525980253E-10  0.17130000000E+03  0.17130000000E+03 0. -1.
       11    1    1    2    0    0 -0.93867570003E-02  0.78676542095E-01  0.70808231883E+00  0.71250188838E+00  0.51109989000E-03 0. -1.
     -623    1    1    2    0    0 -0.38707244198E-01 -0.66289432003E-01  0.18531376832E-01  0.17130001820E+03  0.17130000000E+03 0. -1.
      622    1    1    2    0    0  0.48094001198E-01 -0.12387110092E-01  0.32733862717E+01  0.32874799098E+01  0.30000000000E+00 0. -1.
</event>
<event>
 5   0  0.5137000E+05  0.9118800E+02  0.7818608E-02  0.1180000E+00
       11   -1    0    0    0    0  0.00000000000E+00  0.00000000000E+00  0.39999999673E+01  0.40000000000E+01  0.51109989000E-03 0.  1.
     -623   -1    0    0    0    0  0.00000000000E+00  0.00000000000E+00  0.12525980253E-10  0.17130000000E+03  0.17130000000E+03 0. -1.
       11    1    1    2    0    0 -0.30429278410E-02 -0.19713616619E-01  0.16057189044E-01  0.25612118873E-01  0.51109989000E-03 0.  1.
     -623    1    1    2    0    0 -0.49403124841E-02  0.85158895908E-02  0.20918995067E-01  0.17130000156E+03  0.17130000000E+03 0. -1.
      622    1    1    2    0    0  0.79832403251E-02  0.11197727029E-01  0.39630237832E+01  0.39743863209E+01  0.30000000000E+00 0.  1.
</event>
<event>
 5   0  0.5137000E+05  0.9118800E+02  0.7818608E-02  0.1180000E+00
       11   -1    0    0    0    0  0.00000000000E+00  0.00000000000E+00  0.39999999673E+01  0.40000000000E+01  0.51109989000E-03 0.  1.
     -623   -1    0    0    0    0  0.00000000000E+00  0.00000000000E+00  0.12525980253E-10  0.17130000000E+03  0.17130000000E+03 0. -1.
       11    1    1    2    0    0  0.43511243421E-02 -0.13493687058E-01  0.79870063037E-02  0.16280828149E-01  0.51109989000E-03 0.  1.
     -623    1    1    2    0    0  0.50189639109E-02  0.27890525970E-01  0.19646447220E-01  0.17130000347E+03  0.17130000000E+03 0. -1.
      622    1    1    2    0    0 -0.93700882530E-02 -0.14396838912E-01  0.39723665138E+01  0.39837157012E+01  0.30000000000E+00 0.  1.
</event>
<event>
 5   0  0.5137000E+05  0.9118800E+02  0.7818608E-02  0.1180000E+00
       11   -1    0    0    0    0  0.00000000000E+00  0.00000000000E+00  0.39999999673E+01  0.40000000000E+01  0.51109989000E-03 0.  1.
     -623   -1    0    0    0    0  0.00000000000E+00  0.00000000000E+00  0.12525980253E-10  0.17130000000E+03  0.17130000000E+03 0. -1.
       11    1    1    2    0    0 -0.20904152920E-02  0.51625947993E-02  0.14272245627E-02  0.57723837541E-02  0.51109989000E-03 0.  1.
     -623    1    1    2    0    0 -0.18772338922E-01 -0.68452328650E-02  0.15684203161E-01  0.17130000188E+03  0.17130000000E+03 0. -1.
      622    1    1    2    0    0  0.20862754215E-01  0.16826380657E-02  0.39828885397E+01  0.39942257329E+01  0.30000000000E+00 0.  1.
</event>
<event>
 5   0  0.5137000E+05  0.9118800E+02  0.7818608E-02  0.1180000E+00
       11   -1    0    0    0    0  0.00000000000E+00  0.00000000000E+00  0.39999999673E+01  0.40000000000E+01  0.51109989000E-03 0.  1.
     -623   -1    0    0    0    0  0.00000000000E+00  0.00000000000E+00  0.12525980253E-10  0.17130000000E+03  0.17130000000E+03 0. -1.
       11    1    1    2    0    0  0.17994772469E-01 -0.40985873085E-02  0.11446619076E-01  0.21723180372E-01  0.51109989000E-03 0.  1.
     -623    1    1    2    0    0 -0.30451579919E-01 -0.19641197276E-01  0.21699900850E-01  0.17130000521E+03  0.17130000000E+03 0. -1.
      622    1    1    2    0    0  0.12456807450E-01  0.23739784584E-01  0.39668534474E+01  0.39782716125E+01  0.30000000000E+00 0.  1.
</event>
<event>
 5   0  0.5137000E+05  0.9118800E+02  0.7818608E-02  0.1180000E+00
       11   -1    0    0    0    0  0.00000000000E+00  0.00000000000E+00  0.39999999673E+01  0.40000000000E+01  0.51109989000E-03 0. -1.
     -623   -1    0    0    0    0  0.00000000000E+00  0.00000000000E+00  0.12525980253E-10  0.17130000000E+03  0.17130000000E+03 0. -1.
       11    1    1    2    0    0 -0.44282855160E-02  0.41656658921E-01  0.29628560531E+00  0.29923286598E+00  0.51109989000E-03 0. -1.
     -623    1    1    2    0    0  0.53340256198E-01 -0.59308361879E-01  0.15512800427E-01  0.17130001927E+03  0.17130000000E+03 0. -1.
      622    1    1    2    0    0 -0.48911970682E-01  0.17651702959E-01  0.36882015616E+01  0.37007478599E+01  0.30000000000E+00 0. -1.
</event>
<event>
 5   0  0.5137000E+05  0.9118800E+02  0.7818608E-02  0.1180000E+00
       11   -1    0    0    0    0  0.00000000000E+00  0.00000000000E+00  0.39999999673E+01  0.40000000000E+01  0.51109989000E-03 0.  1.
     -623   -1    0    0    0    0  0.00000000000E+00  0.00000000000E+00  0.12525980253E-10  0.17130000000E+03  0.17130000000E+03 0. -1.
       11    1    1    2    0    0 -0.93332448861E-01 -0.12615295148E-01  0.51167975830E+00  0.52027543470E+00  0.51109989000E-03 0.  1.
     -623    1    1    2    0    0  0.38038629390E-01  0.28129600455E-01  0.22035509201E-01  0.17130000795E+03  0.17130000000E+03 0. -1.
      622    1    1    2    0    0  0.55293819470E-01 -0.15514305307E-01  0.34662846999E+01  0.34797166150E+01  0.30000000000E+00 0.  1.
</event>
<event>
 5   0  0.5137000E+05  0.9118800E+02  0.7818608E-02  0.1180000E+00
       11   -1    0    0    0    0  0.00000000000E+00  0.00000000000E+00  0.39999999673E+01  0.40000000000E+01  0.51109989000E-03 0.  1.
     -623   -1    0    0    0    0  0.00000000000E+00  0.00000000000E+00  0.12525980253E-10  0.17130000000E+03  0.17130000000E+03 0.  1.
       11    1    1    2    0    0  0.86145343450E-02 -0.11386672468E-01  0.57842443306E-01  0.59580835696E-01  0.51109989000E-03 0.  1.
     -623    1    1    2    0    0  0.13029932202E-01  0.10630615994E-01  0.13236094341E-01  0.17130000134E+03  0.17130000000E+03 0.  1.
      622    1    1    2    0    0 -0.21644466547E-01  0.75605647410E-03  0.39289214297E+01  0.39404178275E+01  0.30000000000E+00 0.  1.
</event>
<event>
 5   0  0.5137000E+05  0.9118800E+02  0.7818608E-02  0.1180000E+00
       11   -1    0    0    0    0  0.00000000000E+00  0.00000000000E+00  0.39999999673E+01  0.40000000000E+01  0.51109989000E-03 0.  1.
     -623   -1    0    0    0    0  0.00000000000E+00  0.00000000000E+00  0.12525980253E-10  0.17130000000E+03  0.17130000000E+03 0.  1.
       11    1    1    2    0    0 -0.70421670179E-02 -0.67522209150E-02  0.60711303659E-02  0.11502367174E-01  0.51109989000E-03 0.  1.
     -623    1    1    2    0    0  0.77927256220E-02  0.44622277923E-01  0.16916865175E-01  0.17130000682E+03  0.17130000000E+03 0.  1.
      622    1    1    2    0    0 -0.75055860421E-03 -0.37870057008E-01  0.39770119718E+01  0.39884908084E+01  0.30000000000E+00 0.  1.
</event>
<event>
 5   0  0.5137000E+05  0.9118800E+02  0.7818608E-02  0.1180000E+00
       11   -1    0    0    0    0  0.00000000000E+00  0.00000000000E+00  0.39999999673E+01  0.40000000000E+01  0.51109989000E-03 0.  1.
     -623   -1    0    0    0    0  0.00000000000E+00  0.00000000000E+00  0.12525980253E-10  0.17130000000E+03  0.17130000000E+03 0.  1.
       11    1    1    2    0    0 -0.71008315832E-01 -0.55828330358E-01  0.46501987637E+00  0.47371165283E+00  0.51109989000E-03 0.  1.
     -623    1    1    2    0    0  0.16374109640E-01 -0.17737158823E-01  0.22674558942E-01  0.17130000320E+03  0.17130000000E+03 0.  1.
      622    1    1    2    0    0  0.54634206193E-01  0.73565489181E-01  0.35123055321E+01  0.35262851456E+01  0.30000000000E+00 0.  1.
</event>
<event>
 5   0  0.5137000E+05  0.9118800E+02  0.7818608E-02  0.1180000E+00
       11   -1    0    0    0    0  0.00000000000E+00  0.00000000000E+00  0.39999999673E+01  0.40000000000E+01  0.51109989000E-03 0. -1.
     -623   -1    0    0    0    0  0.00000000000E+00  0.00000000000E+00  0.12525980253E-10  0.17130000000E+03  0.17130000000E+03 0.  1.
       11    1    1    2    0    0 -0.70965923431E-01 -0.88346562172E-01  0.76337701465E+00  0.77174218820E+00  0.51109989000E-03 0. -1.
     -623    1    1    2    0    0  0.22156488216E+00  0.14708121053E+00  0.26611651223E-01  0.17130020850E+03  0.17130000000E+03 0.  1.
      622    1    1    2    0    0 -0.15059895873E+00 -0.58734648361E-01  0.32100113015E+01  0.32280493120E+01  0.30000000000E+00 0.  0.
</event>
<event>
 5   0  0.5137000E+05  0.9118800E+02  0.7818608E-02  0.1180000E+00
       11   -1    0    0    0    0  0.00000000000E+00  0.00000000000E+00  0.39999999673E+01  0.40000000000E+01  0.51109989000E-03 0. -1.
     -623   -1    0    0    0    0  0.00000000000E+00  0.00000000000E+00  0.12525980253E-10  0.17130000000E+03  0.17130000000E+03 0. -1.
       11    1    1    2    0    0  0.32375517373E-01 -0.11522590962E+00  0.23305270882E+00  0.26199047823E+00  0.51109989000E-03 0. -1.
     -623    1    1    2    0    0 -0.77877203034E-01  0.61758688593E-01  0.41691222219E-01  0.17130003391E+03  0.17130000000E+03 0. -1.
      622    1    1    2    0    0  0.45501685661E-01  0.53467221024E-01  0.37252560363E+01  0.37379756130E+01  0.30000000000E+00 0. -1.
</event>
<event>
 5   0  0.5137000E+05  0.9118800E+02  0.7818608E-02  0.1180000E+00
       11   -1    0    0    0    0  0.00000000000E+00  0.00000000000E+00  0.39999999673E+01  0.40000000000E+01  0.51109989000E-03 0.  1.
     -623   -1    0    0    0    0  0.00000000000E+00  0.00000000000E+00  0.12525980253E-10  0.17130000000E+03  0.17130000000E+03 0. -1.
       11    1    1    2    0    0  0.95155176666E-02  0.11810290370E-01  0.23813719505E+00  0.23862022740E+00  0.51109989000E-03 0.  1.
     -623    1    1    2    0    0  0.72131244247E-01 -0.39011875159E-01  0.13473781715E-01  0.17130002016E+03  0.17130000000E+03 0. -1.
      622    1    1    2    0    0 -0.81646761913E-01  0.27201584788E-01  0.37483889906E+01  0.37613596138E+01  0.30000000000E+00 0.  0.
</event>
<event>
 5   0  0.5137000E+05  0.9118800E+02  0.7818608E-02  0.1180000E+00
       11   -1    0    0    0    0  0.00000000000E+00  0.00000000000E+00  0.39999999673E+01  0.40000000000E+01  0.51109989000E-03 0. -1.
     -623   -1    0    0    0    0  0.00000000000E+00  0.00000000000E+00  0.12525980253E-10  0.17130000000E+03  0.17130000000E+03 0. -1.
       11    1    1    2    0    0 -0.12398692602E-02 -0.65383506710E-02  0.16527751757E+00  0.16541223154E+00  0.51109989000E-03 0. -1.
     -623    1    1    2    0    0 -0.14485509932E-01 -0.74649089350E-02  0.11947170547E-01  0.17130000119E+03  0.17130000000E+03 0. -1.
      622    1    1    2    0    0  0.15725379192E-01  0.14003259606E-01  0.38227752792E+01  0.38345865767E+01  0.30000000000E+00 0. -1.
</event>
<event>
 5   0  0.5137000E+05  0.9118800E+02  0.7818608E-02  0.1180000E+00
       11   -1    0    0    0    0  0.00000000000E+00  0.00000000000E+00  0.39999999673E+01  0.40000000000E+01  0.51109989000E-03 0.  1.
     -623   -1    0    0    0    0  0.00000000000E+00  0.00000000000E+00  0.12525980253E-10  0.17130000000E+03  0.17130000000E+03 0. -1.
       11    1    1    2    0    0  0.49313774507E-02 -0.28906064616E-02  0.13324800036E-01  0.14508122127E-01  0.51109989000E-03 0.  1.
     -623    1    1    2    0    0 -0.47791650368E-02 -0.11508695101E-03  0.12491944464E-01  0.17130000052E+03  0.17130000000E+03 0. -1.
      622    1    1    2    0    0 -0.15221241390E-03  0.30056934126E-02  0.39741832229E+01  0.39854913557E+01  0.30000000000E+00 0.  1.
</event>
<event>
 5   0  0.5137000E+05  0.9118800E+02  0.7818608E-02  0.1180000E+00
       11   -1    0    0    0    0  0.00000000000E+00  0.00000000000E+00  0.39999999673E+01  0.40000000000E+01  0.51109989000E-03 0. -1.
     -623   -1    0    0    0    0  0.00000000000E+00  0.00000000000E+00  0.12525980253E-10  0.17130000000E+03  0.17130000000E+03 0. -1.
       11    1    1    2    0    0  0.52478025141E-02  0.40424017199E-02 -0.72070213167E-02  0.98021845652E-02  0.51109989000E-03 0. -1.
     -623    1    1    2    0    0  0.97811618537E-02  0.48238143973E-01  0.28684161707E-01  0.17130000947E+03  0.17130000000E+03 0. -1.
      622    1    1    2    0    0 -0.15028964368E-01 -0.52280545692E-01  0.39785228270E+01  0.39901883427E+01  0.30000000000E+00 0. -1.
</event>
<event>
 5   0  0.5137000E+05  0.9118800E+02  0.7818608E-02  0.1180000E+00
       11   -1    0    0    0    0  0.00000000000E+00  0.00000000000E+00  0.39999999673E+01  0.40000000000E+01  0.51109989000E-03 0. -1.
     -623   -1    0    0    0    0  0.00000000000E+00  0.00000000000E+00  0.12525980253E-10  0.17130000000E+03  0.17130000000E+03 0.  1.
       11    1    1    2    0    0  0.87229475952E-02 -0.20342726320E-01  0.49062442619E-01  0.53826581052E-01  0.51109989000E-03 0. -1.
     -623    1    1    2    0    0  0.62865949698E-01  0.51003892588E-01  0.16974895727E-01  0.17130001997E+03  0.17130000000E+03 0.  1.
      622    1    1    2    0    0 -0.71588897293E-01 -0.30661166267E-01  0.39339626290E+01  0.39461534491E+01  0.30000000000E+00 0. -1.
</event>
<event>
 5   0  0.5137000E+05  0.9118800E+02  0.7818608E-02  0.1180000E+00
       11   -1    0    0    0    0  0.00000000000E+00  0.00000000000E+00  0.39999999673E+01  0.40000000000E+01  0.51109989000E-03 0.  1.
     -623   -1    0    0    0    0  0.00000000000E+00  0.00000000000E+00  0.12525980253E-10  0.17130000000E+03  0.17130000000E+03 0. -1.
       11    1    1    2    0    0  0.34182372944E-01 -0.12159737907E-01  0.13175283623E+00  0.13665783887E+00  0.51109989000E-03 0.  1.
     -623    1    1    2    0    0 -0.23153506884E-01 -0.31588482654E-01  0.16840099798E-01  0.17130000531E+03  0.17130000000E+03 0. -1.
      622    1    1    2    0    0 -0.11028866060E-01  0.43748220561E-01  0.38514070313E+01  0.38633368561E+01  0.30000000000E+00 0.  1.
</event>
<event>
 5   0  0.5137000E+05  0.9118800E+02  0.7818608E-02  0.1180000E+00
       11   -1    0    0    0    0  0.00000000000E+00  0.00000000000E+00  0.39999999673E+01  0.40000000000E+01  0.51109989000E-03 0. -1.
     -623   -1    0    0    0    0  0.00000000000E+00  0.00000000000E+00  0.12525980253E-10  0.17130000000E+03  0.17130000000E+03 0. -1.
       11    1    1    2    0    0  0.14854105419E-02 -0.16184753161E-01  0.28185565906E-01  0.32539822166E-01  0.51109989000E-03 0. -1.
     -623    1    1    2    0    0 -0.22705920714E-01  0.12417907941E-01  0.15774147837E-01  0.17130000268E+03  0.17130000000E+03 0. -1.
      622    1    1    2    0    0  0.21220510172E-01  0.37668452202E-02  0.39560402536E+01  0.39674574966E+01  0.30000000000E+00 0. -1.
</event>
<event>
 5   0  0.5137000E+05  0.9118800E+02  0.7818608E-02  0.1180000E+00
       11   -1    0    0    0    0  0.00000000000E+00  0.00000000000E+00  0.39999999673E+01  0.40000000000E+01  0.51109989000E-03 0. -1.
     -623   -1    0    0    0    0  0.00000000000E+00  0.00000000000E+00  0.12525980253E-10  0.17130000000E+03  0.17130000000E+03 0. -1.
       11    1    1    2    0    0 -0.78287386615E-01  0.34284781179E-01  0.64355706161E+00  0.64920745058E+00  0.51109989000E-03 0. -1.
     -623    1    1    2    0    0  0.72169551159E-02 -0.21596754745E-01  0.19890667966E-01  0.17130000267E+03  0.17130000000E+03 0. -1.
      622    1    1    2    0    0  0.71070431499E-01 -0.12688026434E-01  0.33365522378E+01  0.33507898812E+01  0.30000000000E+00 0. -1.
</event>
<event>
 5   0  0.5137000E+05  0.9118800E+02  0.7818608E-02  0.1180000E+00
       11   -1    0    0    0    0  0.00000000000E+00  0.00000000000E+00  0.39999999673E+01  0.40000000000E+01  0.51109989000E-03 0.  1.
     -623   -1    0    0    0    0  0.00000000000E+00  0.00000000000E+00  0.12525980253E-10  0.17130000000E+03  0.17130000000E+03 0. -1.
       11    1    1    2    0    0 -0.25888971297E-01 -0.18888837689E-01  0.35240432695E-01  0.47635872446E-01  0.51109989000E-03 0.  1.
     -623    1    1    2    0    0  0.15884114936E-01  0.13578164925E-01  0.23816660995E-01  0.17130000293E+03  0.17130000000E+03 0. -1.
      622    1    1    2    0    0  0.10004856361E-01  0.53106727644E-02  0.39409428737E+01  0.39523611973E+01  0.30000000000E+00 0.  1.
</event>
<event>
 5   0  0.5137000E+05  0.9118800E+02  0.7818608E-02  0.1180000E+00
       11   -1    0    0    0    0  0.00000000000E+00  0.00000000000E+00  0.39999999673E+01  0.40000000000E+01  0.51109989000E-03 0. -1.
     -623   -1    0    0    0    0  0.00000000000E+00  0.00000000000E+00  0.12525980253E-10  0.17130000000E+03  0.17130000000E+03 0.  1.
       11    1    1    2    0    0 -0.50408361955E-01 -0.22380650588E-01  0.34983440461E+00  0.35415571201E+00  0.51109989000E-03 0. -1.
     -623    1    1    2    0    0 -0.97792080419E-03  0.17457467916E-01  0.17053523731E-01  0.17130000174E+03  0.17130000000E+03 0.  1.
      622    1    1    2    0    0  0.51386282760E-01  0.49231826718E-02  0.36331120390E+01  0.36458425468E+01  0.30000000000E+00 0. -1.
</event>
<event>
 5   0  0.5137000E+05  0.9118800E+02  0.7818608E-02  0.1180000E+00
       11   -1    0    0    0    0  0.00000000000E+00  0.00000000000E+00  0.39999999673E+01  0.40000000000E+01  0.51109989000E-03 0.  1.
     -623   -1    0    0    0    0  0.00000000000E+00  0.00000000000E+00  0.12525980253E-10  0.17130000000E+03  0.17130000000E+03 0. -1.
       11    1    1    2    0    0  0.25034197875E-02  0.84444178706E-02  0.19962483818E+00  0.19981970009E+00  0.51109989000E-03 0.  1.
     -623    1    1    2    0    0 -0.41693152843E-02 -0.26285642357E-01  0.12099760905E-01  0.17130000249E+03  0.17130000000E+03 0. -1.
      622    1    1    2    0    0  0.16658954968E-02  0.17841224487E-01  0.37882753683E+01  0.38001778051E+01  0.30000000000E+00 0.  1.
</event>
<event>
 5   0  0.5137000E+05  0.9118800E+02  0.7818608E-02  0.1180000E+00
       11   -1    0    0    0    0  0.00000000000E+00  0.00000000000E+00  0.39999999673E+01  0.40000000000E+01  0.51109989000E-03 0.  1.
     -623   -1    0    0    0    0  0.00000000000E+00  0.00000000000E+00  0.12525980253E-10  0.17130000000E+03  0.17130000000E+03 0. -1.
       11    1    1    2    0    0  0.44322653079E-01  0.17325487573E-01  0.54947698188E+00  0.55153411947E+00  0.51109989000E-03 0.  1.
     -623    1    1    2    0    0 -0.28508545777E-01 -0.98405095371E-02  0.15179062480E-01  0.17130000333E+03  0.17130000000E+03 0. -1.
      622    1    1    2    0    0 -0.15814107302E-01 -0.74849780356E-02  0.34353439230E+01  0.34484625531E+01  0.30000000000E+00 0.  1.
</event>
<event>
 5   0  0.5137000E+05  0.9118800E+02  0.7818608E-02  0.1180000E+00
       11   -1    0    0    0    0  0.00000000000E+00  0.00000000000E+00  0.39999999673E+01  0.40000000000E+01  0.51109989000E-03 0.  1.
     -623   -1    0    0    0    0  0.00000000000E+00  0.00000000000E+00  0.12525980253E-10  0.17130000000E+03  0.17130000000E+03 0. -1.
       11    1    1    2    0    0 -0.24178781251E-03  0.19037543425E-01  0.24388108140E-01  0.30943942254E-01  0.51109989000E-03 0.  1.
     -623    1    1    2    0    0  0.21719162417E-01 -0.50042992008E-01  0.18099151847E-01  0.17130000964E+03  0.17130000000E+03 0. -1.
      622    1    1    2    0    0 -0.21477374605E-01  0.31005448583E-01  0.39575127074E+01  0.39690464150E+01  0.30000000000E+00 0.  1.
</event>
<event>
 5   0  0.5137000E+05  0.9118800E+02  0.7818608E-02  0.1180000E+00
       11   -1    0    0    0    0  0.00000000000E+00  0.00000000000E+00  0.39999999673E+01  0.40000000000E+01  0.51109989000E-03 0. -1.
     -623   -1    0    0    0    0  0.00000000000E+00  0.00000000000E+00  0.12525980253E-10  0.17130000000E+03  0.17130000000E+03 0. -1.
       11    1    1    2    0    0 -0.37679307194E-02 -0.13420157963E-03  0.74904563565E-02  0.84013969086E-02  0.51109989000E-03 0. -1.
     -623    1    1    2    0    0  0.88907881615E-02 -0.10741786100E-01  0.12219714098E-01  0.17130000100E+03  0.17130000000E+03 0. -1.
      622    1    1    2    0    0 -0.51228574422E-02  0.10875987680E-01  0.39802897969E+01  0.39915975997E+01  0.30000000000E+00 0. -1.
</event>
<event>
 5   0  0.5137000E+05  0.9118800E+02  0.7818608E-02  0.1180000E+00
       11   -1    0    0    0    0  0.00000000000E+00  0.00000000000E+00  0.39999999673E+01  0.40000000000E+01  0.51109989000E-03 0. -1.
     -623   -1    0    0    0    0  0.00000000000E+00  0.00000000000E+00  0.12525980253E-10  0.17130000000E+03  0.17130000000E+03 0.  1.
       11    1    1    2    0    0  0.18986865243E-03 -0.25189784827E-01 -0.15353945721E-01  0.29505358531E-01  0.51109989000E-03 0. -1.
     -623    1    1    2    0    0  0.31500715225E-01  0.90201285330E-02  0.56381397422E-01  0.17130001241E+03  0.17130000000E+03 0.  1.
      622    1    1    2    0    0 -0.31690583877E-01  0.16169656294E-01  0.39589725157E+01  0.39704822290E+01  0.30000000000E+00 0. -1.
</event>
<event>
 5   0  0.5137000E+05  0.9118800E+02  0.7818608E-02  0.1180000E+00
       11   -1    0    0    0    0  0.00000000000E+00  0.00000000000E+00  0.39999999673E+01  0.40000000000E+01  0.51109989000E-03 0. -1.
     -623   -1    0    0    0    0  0.00000000000E+00  0.00000000000E+00  0.12525980253E-10  0.17130000000E+03  0.17130000000E+03 0. -1.
       11    1    1    2    0    0  0.21023360921E-01  0.41291307441E-01  0.37084063946E-01  0.59350170989E-01  0.51109989000E-03 0. -1.
     -623    1    1    2    0    0 -0.36860788668E-01  0.96763648814E-02  0.34072252848E-01  0.17130000763E+03  0.17130000000E+03 0. -1.
      622    1    1    2    0    0  0.15837427747E-01 -0.50967672322E-01  0.39288436506E+01  0.39406422013E+01  0.30000000000E+00 0. -1.
</event>
<event>
 5   0  0.5137000E+05  0.9118800E+02  0.7818608E-02  0.1180000E+00
       11   -1    0    0    0    0  0.00000000000E+00  0.00000000000E+00  0.39999999673E+01  0.40000000000E+01  0.51109989000E-03 0. -1.
     -623   -1    0    0    0    0  0.00000000000E+00  0.00000000000E+00  0.12525980253E-10  0.17130000000E+03  0.17130000000E+03 0. -1.
       11    1    1    2    0    0  0.42425830159E-01 -0.19968939406E-01  0.15488734412E+00  0.16183034387E+00  0.51109989000E-03 0. -1.
     -623    1    1    2    0    0 -0.43167976913E-01  0.17103073371E-01  0.18693748104E-01  0.17130000731E+03  0.17130000000E+03 0. -1.
      622    1    1    2    0    0  0.74214675427E-03  0.28658660350E-02  0.38264188751E+01  0.38381623431E+01  0.30000000000E+00 0. -1.
</event>
<event>
 5   0  0.5137000E+05  0.9118800E+02  0.7818608E-02  0.1180000E+00
       11   -1    0    0    0    0  0.00000000000E+00  0.00000000000E+00  0.39999999673E+01  0.40000000000E+01  0.51109989000E-03 0.  1.
     -623   -1    0    0    0    0  0.00000000000E+00  0.00000000000E+00  0.12525980253E-10  0.17130000000E+03  0.17130000000E+03 0.  1.
       11    1    1    2    0    0 -0.93672965971E-01 -0.12946713997E-01  0.63377407223E+00  0.64079019797E+00  0.51109989000E-03 0.  1.
     -623    1    1    2    0    0 -0.10866007105E-01  0.56768540672E-01  0.22370871562E-01  0.17130001121E+03  0.17130000000E+03 0.  1.
      622    1    1    2    0    0  0.10453897308E+00 -0.43821826675E-01  0.33438550236E+01  0.33591985901E+01  0.30000000000E+00 0.  1.
</event>
<event>
 5   0  0.5137000E+05  0.9118800E+02  0.7818608E-02  0.1180000E+00
       11   -1    0    0    0    0  0.00000000000E+00  0.00000000000E+00  0.39999999673E+01  0.40000000000E+01  0.51109989000E-03 0.  1.
     -623   -1    0    0    0    0  0.00000000000E+00  0.00000000000E+00  0.12525980253E-10  0.17130000000E+03  0.17130000000E+03 0. -1.
       11    1    1    2    0    0 -0.76511362584E-02 -0.15928308305E-02  0.12066419497E-01  0.14385294528E-01  0.51109989000E-03 0.  1.
     -623    1    1    2    0    0  0.10126767256E-01  0.42733583624E-02  0.13628057046E-01  0.17130000089E+03  0.17130000000E+03 0. -1.
      622    1    1    2    0    0 -0.24756309971E-02 -0.26805275319E-02  0.39743054908E+01  0.39856138107E+01  0.30000000000E+00 0.  1.
</event>
<event>
 5   0  0.5137000E+05  0.9118800E+02  0.7818608E-02  0.1180000E+00
       11   -1    0    0    0    0  0.00000000000E+00  0.00000000000E+00  0.39999999673E+01  0.40000000000E+01  0.51109989000E-03 0.  1.
     -623   -1    0    0    0    0  0.00000000000E+00  0.00000000000E+00  0.12525980253E-10  0.17130000000E+03  0.17130000000E+03 0. -1.
       11    1    1    2    0    0  0.20623555568E-02  0.54002662636E-03  0.68153326829E-01  0.68188577636E-01  0.51109989000E-03 0.  1.
     -623    1    1    2    0    0  0.11261662724E-01 -0.13358701419E-01  0.11541914052E-01  0.17130000128E+03  0.17130000000E+03 0. -1.
      622    1    1    2    0    0 -0.13324018281E-01  0.12818674793E-01  0.39203047265E+01  0.39318101425E+01  0.30000000000E+00 0.  1.
</event>
<event>
 5   0  0.5137000E+05  0.9118800E+02  0.7818608E-02  0.1180000E+00
       11   -1    0    0    0    0  0.00000000000E+00  0.00000000000E+00  0.39999999673E+01  0.40000000000E+01  0.51109989000E-03 0.  1.
     -623   -1    0    0    0    0  0.00000000000E+00  0.00000000000E+00  0.12525980253E-10  0.17130000000E+03  0.17130000000E+03 0.  1.
       11    1    1    2    0    0  0.58427014711E-02  0.69796035520E-02 -0.13014303812E-02  0.92090698835E-02  0.51109989000E-03 0.  1.
     -623    1    1    2    0    0 -0.10787352162E-01 -0.98339226502E-02  0.21808514614E-01  0.17130000201E+03  0.17130000000E+03 0.  1.
      622    1    1    2    0    0  0.49446506907E-02  0.28543190982E-02  0.39794928831E+01  0.39907889199E+01  0.30000000000E+00 0.  1.
</event>
<event>
 5   0  0.5137000E+05  0.9118800E+02  0.7818608E-02  0.1180000E+00
       11   -1    0    0    0    0  0.00000000000E+00  0.00000000000E+00  0.39999999673E+01  0.40000000000E+01  0.51109989000E-03 0. -1.
     -623   -1    0    0    0    0  0.00000000000E+00  0.00000000000E+00  0.12525980253E-10  0.17130000000E+03  0.17130000000E+03 0. -1.
       11    1    1    2    0    0  0.23406966517E-01 -0.13628594159E-01  0.42021926737E-01  0.49997282027E-01  0.51109989000E-03 0. -1.
     -623    1    1    2    0    0 -0.22369727164E-01  0.12144300766E-01  0.19387609267E-01  0.17130000299E+03  0.17130000000E+03 0. -1.
      622    1    1    2    0    0 -0.10372393531E-02  0.14842933932E-02  0.39385904313E+01  0.39499997297E+01  0.30000000000E+00 0. -1.
</event>
<event>
 5   0  0.5137000E+05  0.9118800E+02  0.7818608E-02  0.1180000E+00
       11   -1    0    0    0    0  0.00000000000E+00  0.00000000000E+00  0.39999999673E+01  0.40000000000E+01  0.51109989000E-03 0.  1.
     -623   -1    0    0    0    0  0.00000000000E+00  0.00000000000E+00  0.12525980253E-10  0.17130000000E+03  0.17130000000E+03 0. -1.
       11    1    1    2    0    0  0.33180362960E-01  0.42485912395E-01  0.20199223433E+00  0.20906246241E+00  0.51109989000E-03 0.  1.
     -623    1    1    2    0    0  0.25712564856E-01 -0.54554638843E-01  0.19449209498E-01  0.17130001172E+03  0.17130000000E+03 0. -1.
      622    1    1    2    0    0 -0.58892927817E-01  0.12068726448E-01  0.37785585235E+01  0.37909258166E+01  0.30000000000E+00 0.  1.
</event>
<event>
 5   0  0.5137000E+05  0.9118800E+02  0.7818608E-02  0.1180000E+00
       11   -1    0    0    0    0  0.00000000000E+00  0.00000000000E+00  0.39999999673E+01  0.40000000000E+01  0.51109989000E-03 0. -1.
     -623   -1    0    0    0    0  0.00000000000E+00  0.00000000000E+00  0.12525980253E-10  0.17130000000E+03  0.17130000000E+03 0. -1.
       11    1    1    2    0    0  0.11528607513E-01  0.19411867239E-01  0.20944175875E+00  0.21065574027E+00  0.51109989000E-03 0. -1.
     -623    1    1    2    0    0  0.12405609840E-01  0.60653980964E-02  0.13270839768E-01  0.17130000107E+03  0.17130000000E+03 0. -1.
      622    1    1    2    0    0 -0.23934217352E-01 -0.25477265335E-01  0.37772873688E+01  0.37893431891E+01  0.30000000000E+00 0. -1.
</event>
<event>
 5   0  0.5137000E+05  0.9118800E+02  0.7818608E-02  0.1180000E+00
       11   -1    0    0    0    0  0.00000000000E+00  0.00000000000E+00  0.39999999673E+01  0.40000000000E+01  0.51109989000E-03 0.  1.
     -623   -1    0    0    0    0  0.00000000000E+00  0.00000000000E+00  0.12525980253E-10  0.17130000000E+03  0.17130000000E+03 0. -1.
       11    1    1    2    0    0  0.14886663072E-01  0.44295813565E-02  0.90367473463E-02  0.17976594619E-01  0.51109989000E-03 0.  1.
     -623    1    1    2    0    0 -0.70840998351E-02  0.30634437473E-02  0.20272796788E-01  0.17130000137E+03  0.17130000000E+03 0. -1.
      622    1    1    2    0    0 -0.78025632367E-02 -0.74930251039E-02  0.39706904232E+01  0.39820220319E+01  0.30000000000E+00 0.  1.
</event>
<event>
 5   0  0.5137000E+05  0.9118800E+02  0.7818608E-02  0.1180000E+00
       11   -1    0    0    0    0  0.00000000000E+00  0.00000000000E+00  0.39999999673E+01  0.40000000000E+01  0.51109989000E-03 0.  1.
     -623   -1    0    0    0    0  0.00000000000E+00  0.00000000000E+00  0.12525980253E-10  0.17130000000E+03  0.17130000000E+03 0. -1.
       11    1    1    2    0    0 -0.73108997415E-02  0.60347447345E-02  0.12176503095E+00  0.12213456260E+00  0.51109989000E-03 0.  1.
     -623    1    1    2    0    0 -0.70240011603E-02 -0.14494454404E-01  0.12028249433E-01  0.17130000118E+03  0.17130000000E+03 0. -1.
      622    1    1    2    0    0  0.14334900902E-01  0.84597096699E-02  0.38662066870E+01  0.38778642579E+01  0.30000000000E+00 0.  1.
</event>
<event>
 5   0  0.5137000E+05  0.9118800E+02  0.7818608E-02  0.1180000E+00
       11   -1    0    0    0    0  0.00000000000E+00  0.00000000000E+00  0.39999999673E+01  0.40000000000E+01  0.51109989000E-03 0.  1.
     -623   -1    0    0    0    0  0.00000000000E+00  0.00000000000E+00  0.12525980253E-10  0.17130000000E+03  0.17130000000E+03 0.  1.
       11    1    1    2    0    0 -0.29271509756E-02 -0.10023990857E-01 -0.87120684927E-02  0.13609186826E-01  0.51109989000E-03 0.  1.
     -623    1    1    2    0    0  0.45529917359E-01  0.17113256488E-01  0.33870566255E-01  0.17130001025E+03  0.17130000000E+03 0.  1.
      622    1    1    2    0    0 -0.42602766384E-01 -0.70892656308E-02  0.39748414696E+01  0.39863805591E+01  0.30000000000E+00 0.  1.
</event>
<event>
 5   0  0.5137000E+05  0.9118800E+02  0.7818608E-02  0.1180000E+00
       11   -1    0    0    0    0  0.00000000000E+00  0.00000000000E+00  0.39999999673E+01  0.40000000000E+01  0.51109989000E-03 0. -1.
     -623   -1    0    0    0    0  0.00000000000E+00  0.00000000000E+00  0.12525980253E-10  0.17130000000E+03  0.17130000000E+03 0.  1.
       11    1    1    2    0    0  0.15054350009E-01 -0.18149570443E-01 -0.54042004850E-02  0.24197251237E-01  0.51109989000E-03 0. -1.
     -623    1    1    2    0    0 -0.84376570029E-02  0.33720250111E-01  0.40980596999E-01  0.17130000843E+03  0.17130000000E+03 0.  1.
      622    1    1    2    0    0 -0.66166930059E-02 -0.15570679668E-01  0.39644235709E+01  0.39757943201E+01  0.30000000000E+00 0. -1.
</event>
<event>
 5   0  0.5137000E+05  0.9118800E+02  0.7818608E-02  0.1180000E+00
       11   -1    0    0    0    0  0.00000000000E+00  0.00000000000E+00  0.39999999673E+01  0.40000000000E+01  0.51109989000E-03 0. -1.
     -623   -1    0    0    0    0  0.00000000000E+00  0.00000000000E+00  0.12525980253E-10  0.17130000000E+03  0.17130000000E+03 0. -1.
       11    1    1    2    0    0  0.12442906160E-01 -0.35990013382E-02  0.68752118759E-02  0.14673393773E-01  0.51109989000E-03 0. -1.
     -623    1    1    2    0    0 -0.12518148655E-01 -0.43532007242E-02  0.19115152118E-01  0.17130000158E+03  0.17130000000E+03 0. -1.
      622    1    1    2    0    0  0.75242495506E-04  0.79522020624E-02  0.39740096034E+01  0.39853250270E+01  0.30000000000E+00 0. -1.
</event>
<event>
 5   0  0.5137000E+05  0.9118800E+02  0.7818608E-02  0.1180000E+00
       11   -1    0    0    0    0  0.00000000000E+00  0.00000000000E+00  0.39999999673E+01  0.40000000000E+01  0.51109989000E-03 0. -1.
     -623   -1    0    0    0    0  0.00000000000E+00  0.00000000000E+00  0.12525980253E-10  0.17130000000E+03  0.17130000000E+03 0.  1.
       11    1    1    2    0    0  0.36966043180E-01  0.12521429142E-01  0.21531503542E+00  0.21882435934E+00  0.51109989000E-03 0. -1.
     -623    1    1    2    0    0 -0.64783472975E-01  0.31300236847E-01  0.15802431699E-01  0.17130001584E+03  0.17130000000E+03 0.  1.
      622    1    1    2    0    0  0.27817429795E-01 -0.43821665988E-01  0.37688825002E+01  0.37811598020E+01  0.30000000000E+00 0. -1.
</event>
<event>
 5   0  0.5137000E+05  0.9118800E+02  0.7818608E-02  0.1180000E+00
       11   -1    0    0    0    0  0.00000000000E+00  0.00000000000E+00  0.39999999673E+01  0.40000000000E+01  0.51109989000E-03 0.  1.
     -623   -1    0    0    0    0  0.00000000000E+00  0.00000000000E+00  0.12525980253E-10  0.17130000000E+03  0.17130000000E+03 0.  1.
       11    1    1    2    0    0 -0.31261584630E-02  0.94786030151E-03  0.41863488675E-01  0.41993859223E-01  0.51109989000E-03 0.  1.
     -623    1    1    2    0    0  0.29876576983E-02 -0.90156254608E-02  0.11524976512E-01  0.17130000065E+03  0.17130000000E+03 0.  1.
      622    1    1    2    0    0  0.13850076476E-03  0.80677651593E-02  0.39466115022E+01  0.39580054898E+01  0.30000000000E+00 0.  1.
</event>
<event>
 5   0  0.5137000E+05  0.9118800E+02  0.7818608E-02  0.1180000E+00
       11   -1    0    0    0    0  0.00000000000E+00  0.00000000000E+00  0.39999999673E+01  0.40000000000E+01  0.51109989000E-03 0. -1.
     -623   -1    0    0    0    0  0.00000000000E+00  0.00000000000E+00  0.12525980253E-10  0.17130000000E+03  0.17130000000E+03 0.  1.
       11    1    1    2    0    0  0.12870246592E-01 -0.11977869717E-01  0.15972028419E-01  0.23758777855E-01  0.51109989000E-03 0. -1.
     -623    1    1    2    0    0  0.27953655127E-01  0.10698230998E-01  0.19334185761E-01  0.17130000371E+03  0.17130000000E+03 0.  1.
      622    1    1    2    0    0 -0.40823901719E-01  0.12796387182E-02  0.39646937532E+01  0.39762375162E+01  0.30000000000E+00 0. -1.
</event>
<event>
 5   0  0.5137000E+05  0.9118800E+02  0.7818608E-02  0.1180000E+00
       11   -1    0    0    0    0  0.00000000000E+00  0.00000000000E+00  0.39999999673E+01  0.40000000000E+01  0.51109989000E-03 0. -1.
     -623   -1    0    0    0    0  0.00000000000E+00  0.00000000000E+00  0.12525980253E-10  0.17130000000E+03  0.17130000000E+03 0.  1.
       11    1    1    2    0    0  0.36087416894E-04 -0.12966976180E-02 -0.31282156594E-02  0.34248625262E-02  0.51109989000E-03 0. -1.
     -623    1    1    2    0    0 -0.30685946849E-01  0.73611290537E-02  0.17954926596E-01  0.17130000385E+03  0.17130000000E+03 0.  1.
      622    1    1    2    0    0  0.30649859432E-01 -0.60644314358E-02  0.39851732564E+01  0.39965712899E+01  0.30000000000E+00 0. -1.
</event>
<event>
 5   0  0.5137000E+05  0.9118800E+02  0.7818608E-02  0.1180000E+00
       11   -1    0    0    0    0  0.00000000000E+00  0.00000000000E+00  0.39999999673E+01  0.40000000000E+01  0.51109989000E-03 0. -1.
     -623   -1    0    0    0    0  0.00000000000E+00  0.00000000000E+00  0.12525980253E-10  0.17130000000E+03  0.17130000000E+03 0.  1.
       11    1    1    2    0    0  0.39847443555E-01 -0.16303501199E-01  0.37644227275E-01  0.57192411885E-01  0.51109989000E-03 0. -1.
     -623    1    1    2    0    0  0.25474322249E-01  0.58777808533E-01  0.31765072480E-01  0.17130001492E+03  0.17130000000E+03 0.  1.
      622    1    1    2    0    0 -0.65321765803E-01 -0.42474307334E-01  0.39305906676E+01  0.39427926646E+01  0.30000000000E+00 0. -1.
</event>
<event>
 5   0  0.5137000E+05  0.9118800E+02  0.7818608E-02  0.1180000E+00
       11   -1    0    0    0    0  0.00000000000E+00  0.00000000000E+00  0.39999999673E+01  0.40000000000E+01  0.51109989000E-03 0. -1.
     -623   -1    0    0    0    0  0.00000000000E+00  0.00000000000E+00  0.12525980253E-10  0.17130000000E+03  0.17130000000E+03 0. -1.
       11    1    1    2    0    0 -0.14397158220E+00  0.82112733372E-03  0.68889648289E+00  0.70378058804E+00  0.51109989000E-03 0. -1.
     -623    1    1    2    0    0  0.10010866697E-01 -0.19181271731E-01  0.31354726104E-01  0.17130000424E+03  0.17130000000E+03 0. -1.
      622    1    1    2    0    0  0.13396071550E+00  0.18360144397E-01  0.32797487584E+01  0.32962151760E+01  0.30000000000E+00 0. -1.
</event>
<event>
 5   0  0.5137000E+05  0.9118800E+02  0.7818608E-02  0.1180000E+00
       11   -1    0    0    0    0  0.00000000000E+00  0.00000000000E+00  0.39999999673E+01  0.40000000000E+01  0.51109989000E-03 0.  1.
     -623   -1    0    0    0    0  0.00000000000E+00  0.00000000000E+00  0.12525980253E-10  0.17130000000E+03  0.17130000000E+03 0.  1.
       11    1    1    2    0    0 -0.11641191838E-02  0.18302279415E-01  0.96269184232E-01  0.98001763561E-01  0.51109989000E-03 0.  1.
     -623    1    1    2    0    0 -0.88480646465E-03 -0.87745198619E-01  0.13925658589E-01  0.17130002304E+03  0.17130000000E+03 0.  1.
      622    1    1    2    0    0  0.20489256485E-02  0.69442919204E-01  0.38898051245E+01  0.39019751952E+01  0.30000000000E+00 0.  1.
</event>
<event>
 5   0  0.5137000E+05  0.9118800E+02  0.7818608E-02  0.1180000E+00
       11   -1    0    0    0    0  0.00000000000E+00  0.00000000000E+00  0.39999999673E+01  0.40000000000E+01  0.51109989000E-03 0.  1.
     -623   -1    0    0    0    0  0.00000000000E+00  0.00000000000E+00  0.12525980253E-10  0.17130000000E+03  0.17130000000E+03 0.  1.
       11    1    1    2    0    0  0.58707849096E-02  0.15788443487E-01  0.24443033025E-01  0.29689461902E-01  0.51109989000E-03 0.  1.
     -623    1    1    2    0    0 -0.17545650899E-01 -0.64571376839E-02  0.16626790450E-01  0.17130000183E+03  0.17130000000E+03 0.  1.
      622    1    1    2    0    0  0.11674865989E-01 -0.93313058028E-02  0.39589301439E+01  0.39703087109E+01  0.30000000000E+00 0.  1.
</event>
<event>
 5   0  0.5137000E+05  0.9118800E+02  0.7818608E-02  0.1180000E+00
       11   -1    0    0    0    0  0.00000000000E+00  0.00000000000E+00  0.39999999673E+01  0.40000000000E+01  0.51109989000E-03 0.  1.
     -623   -1    0    0    0    0  0.00000000000E+00  0.00000000000E+00  0.12525980253E-10  0.17130000000E+03  0.17130000000E+03 0.  1.
       11    1    1    2    0    0  0.59236868925E-02 -0.14072004136E-01  0.50042359608E-01  0.52322178308E-01  0.51109989000E-03 0.  1.
     -623    1    1    2    0    0 -0.21563222937E-01  0.33048553173E-02  0.13743139834E-01  0.17130000194E+03  0.17130000000E+03 0.  1.
      622    1    1    2    0    0  0.15639536045E-01  0.10767148819E-01  0.39362144679E+01  0.39476758813E+01  0.30000000000E+00 0.  1.
</event>
<event>
 5   0  0.5137000E+05  0.9118800E+02  0.7818608E-02  0.1180000E+00
       11   -1    0    0    0    0  0.00000000000E+00  0.00000000000E+00  0.39999999673E+01  0.40000000000E+01  0.51109989000E-03 0. -1.
     -623   -1    0    0    0    0  0.00000000000E+00  0.00000000000E+00  0.12525980253E-10  0.17130000000E+03  0.17130000000E+03 0. -1.
       11    1    1    2    0    0 -0.20706865487E-01 -0.10265743779E+00  0.78628783465E+00  0.79323145673E+00  0.51109989000E-03 0. -1.
     -623    1    1    2    0    0 -0.18919930904E-01 -0.51187207414E-02  0.23075621462E-01  0.17130000268E+03  0.17130000000E+03 0. -1.
      622    1    1    2    0    0  0.39626796390E-01  0.10777615853E+00  0.31906365113E+01  0.32067658677E+01  0.30000000000E+00 0. -1.
</event>
<event>
 5   0  0.5137000E+05  0.9118800E+02  0.7818608E-02  0.1180000E+00
       11   -1    0    0    0    0  0.00000000000E+00  0.00000000000E+00  0.39999999673E+01  0.40000000000E+01  0.51109989000E-03 0.  1.
     -623   -1    0    0    0    0  0.00000000000E+00  0.00000000000E+00  0.12525980253E-10  0.17130000000E+03  0.17130000000E+03 0. -1.
       11    1    1    2    0    0  0.12853101533E-01  0.24984330387E-01  0.79507841444E-01  0.84327795287E-01  0.51109989000E-03 0.  1.
     -623    1    1    2    0    0  0.13238742806E-01 -0.27001698657E-01  0.16420261166E-01  0.17130000343E+03  0.17130000000E+03 0. -1.
      622    1    1    2    0    0 -0.26091844338E-01  0.20173682694E-02  0.39040718647E+01  0.39156687780E+01  0.30000000000E+00 0.  1.
</event>
<event>
 5   0  0.5137000E+05  0.9118800E+02  0.7818608E-02  0.1180000E+00
       11   -1    0    0    0    0  0.00000000000E+00  0.00000000000E+00  0.39999999673E+01  0.40000000000E+01  0.51109989000E-03 0. -1.
     -623   -1    0    0    0    0  0.00000000000E+00  0.00000000000E+00  0.12525980253E-10  0.17130000000E+03  0.17130000000E+03 0.  1.
       11    1    1    2    0    0  0.24243461784E-01  0.30237558406E-02  0.65676548158E-01  0.70075378984E-01  0.51109989000E-03 0. -1.
     -623    1    1    2    0    0 -0.30024207226E-01  0.15332458086E-01  0.15917458552E-01  0.17130000406E+03  0.17130000000E+03 0.  1.
      622    1    1    2    0    0  0.57807454416E-02 -0.18356213927E-01  0.39184059607E+01  0.39299205641E+01  0.30000000000E+00 0. -1.
</event>
<event>
 5   0  0.5137000E+05  0.9118800E+02  0.7818608E-02  0.1180000E+00
       11   -1    0    0    0    0  0.00000000000E+00  0.00000000000E+00  0.39999999673E+01  0.40000000000E+01  0.51109989000E-03 0.  1.
     -623   -1    0    0    0    0  0.00000000000E+00  0.00000000000E+00  0.12525980253E-10  0.17130000000E+03  0.17130000000E+03 0.  1.
       11    1    1    2    0    0 -0.19347521339E-01 -0.36538792145E-01  0.50790099452E-01  0.65492788449E-01  0.51109989000E-03 0.  1.
     -623    1    1    2    0    0  0.19279926970E-01  0.33081476481E-01  0.26164412864E-01  0.17130000628E+03  0.17130000000E+03 0.  1.
      622    1    1    2    0    0  0.67594368764E-04  0.34573156635E-02  0.39230454551E+01  0.39345009340E+01  0.30000000000E+00 0.  1.
</event>
<event>
 5   0  0.5137000E+05  0.9118800E+02  0.7818608E-02  0.1180000E+00
       11   -1    0    0    0    0  0.00000000000E+00  0.00000000000E+00  0.39999999673E+01  0.40000000000E+01  0.51109989000E-03 0. -1.
     -623   -1    0    0    0    0  0.00000000000E+00  0.00000000000E+00  0.12525980253E-10  0.17130000000E+03  0.17130000000E+03 0.  1.
       11    1    1    2    0    0  0.77504134787E-02  0.18854946603E-01  0.45968776584E-02  0.20903837634E-01  0.51109989000E-03 0. -1.
     -623    1    1    2    0    0 -0.50741385525E-01 -0.87543228969E-02  0.27887951724E-01  0.17130001001E+03  0.17130000000E+03 0.  1.
      622    1    1    2    0    0  0.42990972046E-01 -0.10100623707E-01  0.39675151380E+01  0.39790861534E+01  0.30000000000E+00 0. -1.
</event>
<event>
 5   0  0.5137000E+05  0.9118800E+02  0.7818608E-02  0.1180000E+00
       11   -1    0    0    0    0  0.00000000000E+00  0.00000000000E+00  0.39999999673E+01  0.40000000000E+01  0.51109989000E-03 0.  1.
     -623   -1    0    0    0    0  0.00000000000E+00  0.00000000000E+00  0.12525980253E-10  0.17130000000E+03  0.17130000000E+03 0.  1.
       11    1    1    2    0    0  0.28044824660E-01 -0.20658121024E-02  0.28814185365E+00  0.28951125853E+00  0.51109989000E-03 0.  1.
     -623    1    1    2    0    0 -0.13305154444E-01  0.15694766832E-01  0.13573304037E-01  0.17130000177E+03  0.17130000000E+03 0.  1.
      622    1    1    2    0    0 -0.14739670215E-01 -0.13628954730E-01  0.36982848097E+01  0.37104869680E+01  0.30000000000E+00 0.  1.
</event>
<event>
 5   0  0.5137000E+05  0.9118800E+02  0.7818608E-02  0.1180000E+00
       11   -1    0    0    0    0  0.00000000000E+00  0.00000000000E+00  0.39999999673E+01  0.40000000000E+01  0.51109989000E-03 0. -1.
     -623   -1    0    0    0    0  0.00000000000E+00  0.00000000000E+00  0.12525980253E-10  0.17130000000E+03  0.17130000000E+03 0.  1.
       11    1    1    2    0    0 -0.35026514954E-01  0.44721625668E-01  0.29676276061E+00  0.30215108449E+00  0.51109989000E-03 0. -1.
     -623    1    1    2    0    0 -0.52639598575E-01 -0.75259905459E-01  0.18772662835E-01  0.17130002565E+03  0.17130000000E+03 0.  1.
      622    1    1    2    0    0  0.87666113528E-01  0.30538279790E-01  0.36844645439E+01  0.36978232664E+01  0.30000000000E+00 0. -1.
</event>
<event>
 5   0  0.5137000E+05  0.9118800E+02  0.7818608E-02  0.1180000E+00
       11   -1    0    0    0    0  0.00000000000E+00  0.00000000000E+00  0.39999999673E+01  0.40000000000E+01  0.51109989000E-03 0. -1.
     -623   -1    0    0    0    0  0.00000000000E+00  0.00000000000E+00  0.12525980253E-10  0.17130000000E+03  0.17130000000E+03 0.  1.
       11    1    1    2    0    0  0.81843122379E-02  0.33419616394E-02  0.36126700275E+00  0.36137551130E+00  0.51109989000E-03 0. -1.
     -623    1    1    2    0    0 -0.23814483470E-01 -0.24094839508E-02  0.12532819593E-01  0.17130000213E+03  0.17130000000E+03 0.  1.
      622    1    1    2    0    0  0.15630171232E-01 -0.93247768857E-03  0.36262001450E+01  0.36386223579E+01  0.30000000000E+00 0. -1.
</event>
<event>
 5   0  0.5137000E+05  0.9118800E+02  0.7818608E-02  0.1180000E+00
       11   -1    0    0    0    0  0.00000000000E+00  0.00000000000E+00  0.39999999673E+01  0.40000000000E+01  0.51109989000E-03 0. -1.
     -623   -1    0    0    0    0  0.00000000000E+00  0.00000000000E+00  0.12525980253E-10  0.17130000000E+03  0.17130000000E+03 0.  1.
       11    1    1    2    0    0  0.85857094958E-01  0.94954759236E-03  0.74154270094E+00  0.74649727457E+00  0.51109989000E-03 0. -1.
     -623    1    1    2    0    0 -0.17684599619E-01 -0.39972593665E-02  0.19536193845E-01  0.17130000207E+03  0.17130000000E+03 0.  1.
      622    1    1    2    0    0 -0.68172495339E-01  0.30477117742E-02  0.32389210726E+01  0.32535006519E+01  0.30000000000E+00 0.  0.
</event>
<event>
 5   0  0.5137000E+05  0.9118800E+02  0.7818608E-02  0.1180000E+00
       11   -1    0    0    0    0  0.00000000000E+00  0.00000000000E+00  0.39999999673E+01  0.40000000000E+01  0.51109989000E-03 0.  1.
     -623   -1    0    0    0    0  0.00000000000E+00  0.00000000000E+00  0.12525980253E-10  0.17130000000E+03  0.17130000000E+03 0.  1.
       11    1    1    2    0    0  0.56979019547E-02  0.16834413742E-01  0.62212771658E-01  0.64703583774E-01  0.51109989000E-03 0.  1.
     -623    1    1    2    0    0 -0.55495691613E-02 -0.21661500652E-01  0.13947417521E-01  0.17130000203E+03  0.17130000000E+03 0.  1.
      622    1    1    2    0    0 -0.14833279342E-03  0.48270869093E-02  0.39238397782E+01  0.39352943889E+01  0.30000000000E+00 0.  1.
</event>
<event>
 5   0  0.5137000E+05  0.9118800E+02  0.7818608E-02  0.1180000E+00
       11   -1    0    0    0    0  0.00000000000E+00  0.00000000000E+00  0.39999999673E+01  0.40000000000E+01  0.51109989000E-03 0. -1.
     -623   -1    0    0    0    0  0.00000000000E+00  0.00000000000E+00  0.12525980253E-10  0.17130000000E+03  0.17130000000E+03 0.  1.
       11    1    1    2    0    0 -0.85973834217E-02  0.47500490632E-01  0.18159443965E+00  0.18790160549E+00  0.51109989000E-03 0. -1.
     -623    1    1    2    0    0  0.54282364214E-02 -0.16546455934E-01  0.18259240301E-01  0.17130000186E+03  0.17130000000E+03 0.  1.
      622    1    1    2    0    0  0.31691470003E-02 -0.30954034698E-01  0.38001462874E+01  0.38120965362E+01  0.30000000000E+00 0.  0.
</event>
<event>
 5   0  0.5137000E+05  0.9118800E+02  0.7818608E-02  0.1180000E+00
       11   -1    0    0    0    0  0.00000000000E+00  0.00000000000E+00  0.39999999673E+01  0.40000000000E+01  0.51109989000E-03 0.  1.
     -623   -1    0    0    0    0  0.00000000000E+00  0.00000000000E+00  0.12525980253E-10  0.17130000000E+03  0.17130000000E+03 0. -1.
       11    1    1    2    0    0  0.43339656886E-01 -0.46499161895E-01  0.34891120007E+00  0.35465445813E+00  0.51109989000E-03 0.  1.
     -623    1    1    2    0    0 -0.12363208049E-01 -0.85180903334E-03  0.18550828971E-01  0.17130000145E+03  0.17130000000E+03 0. -1.
      622    1    1    2    0    0 -0.30976448837E-01  0.47350970928E-01  0.36325379383E+01  0.36453440892E+01  0.30000000000E+00 0.  1.
</event>
<event>
 5   0  0.5137000E+05  0.9118800E+02  0.7818608E-02  0.1180000E+00
       11   -1    0    0    0    0  0.00000000000E+00  0.00000000000E+00  0.39999999673E+01  0.40000000000E+01  0.51109989000E-03 0.  1.
     -623   -1    0    0    0    0  0.00000000000E+00  0.00000000000E+00  0.12525980253E-10  0.17130000000E+03  0.17130000000E+03 0. -1.
       11    1    1    2    0    0 -0.19800047455E-01 -0.73267413336E-01  0.29041273980E+00  0.30016658108E+00  0.51109989000E-03 0.  1.
     -623    1    1    2    0    0  0.20983720183E-01  0.18098940964E-01  0.22353170839E-01  0.17130000370E+03  0.17130000000E+03 0. -1.
      622    1    1    2    0    0 -0.11836727278E-02  0.55168472371E-01  0.36872340567E+01  0.36998297191E+01  0.30000000000E+00 0.  1.
</event>
<event>
 5   0  0.5137000E+05  0.9118800E+02  0.7818608E-02  0.1180000E+00
       11   -1    0    0    0    0  0.00000000000E+00  0.00000000000E+00  0.39999999673E+01  0.40000000000E+01  0.51109989000E-03 0. -1.
     -623   -1    0    0    0    0  0.00000000000E+00  0.00000000000E+00  0.12525980253E-10  0.17130000000E+03  0.17130000000E+03 0.  1.
       11    1    1    2    0    0  0.25055772462E-01 -0.82927913897E-02  0.18561398074E-01  0.32269937159E-01  0.51109989000E-03 0. -1.
     -623    1    1    2    0    0  0.39333620103E-01 -0.29392331022E-01  0.25778769564E-01  0.17130000898E+03  0.17130000000E+03 0.  1.
      622    1    1    2    0    0 -0.64389392565E-01  0.37685122412E-01  0.39556597997E+01  0.39677210856E+01  0.30000000000E+00 0. -1.
</event>
<event>
 5   0  0.5137000E+05  0.9118800E+02  0.7818608E-02  0.1180000E+00
       11   -1    0    0    0    0  0.00000000000E+00  0.00000000000E+00  0.39999999673E+01  0.40000000000E+01  0.51109989000E-03 0.  1.
     -623   -1    0    0    0    0  0.00000000000E+00  0.00000000000E+00  0.12525980253E-10  0.17130000000E+03  0.17130000000E+03 0.  1.
       11    1    1    2    0    0 -0.23894994880E-01  0.19055304140E-01  0.87106675885E-01  0.92314189608E-01  0.51109989000E-03 0.  1.
     -623    1    1    2    0    0  0.58628853175E-02  0.66638867650E-02  0.16867948743E-01  0.17130000106E+03  0.17130000000E+03 0.  1.
      622    1    1    2    0    0  0.18032109562E-01 -0.25719190905E-01  0.38960253427E+01  0.39076847499E+01  0.30000000000E+00 0.  1.
</event>
<event>
 5   0  0.5137000E+05  0.9118800E+02  0.7818608E-02  0.1180000E+00
       11   -1    0    0    0    0  0.00000000000E+00  0.00000000000E+00  0.39999999673E+01  0.40000000000E+01  0.51109989000E-03 0. -1.
     -623   -1    0    0    0    0  0.00000000000E+00  0.00000000000E+00  0.12525980253E-10  0.17130000000E+03  0.17130000000E+03 0.  1.
       11    1    1    2    0    0 -0.17768050963E-01  0.16796244515E-01  0.31715487016E+00  0.31809635388E+00  0.51109989000E-03 0. -1.
     -623    1    1    2    0    0  0.61813806426E-01  0.52771030462E-01  0.14127534797E-01  0.17130001986E+03  0.17130000000E+03 0.  1.
      622    1    1    2    0    0 -0.44045755463E-01 -0.69567274977E-01  0.36687175624E+01  0.36818837824E+01  0.30000000000E+00 0. -1.
</event>
<event>
 5   0  0.5137000E+05  0.9118800E+02  0.7818608E-02  0.1180000E+00
       11   -1    0    0    0    0  0.00000000000E+00  0.00000000000E+00  0.39999999673E+01  0.40000000000E+01  0.51109989000E-03 0. -1.
     -623   -1    0    0    0    0  0.00000000000E+00  0.00000000000E+00  0.12525980253E-10  0.17130000000E+03  0.17130000000E+03 0. -1.
       11    1    1    2    0    0 -0.59052058569E-02  0.16351078935E-01  0.11517641976E+00  0.11648217945E+00  0.51109989000E-03 0. -1.
     -623    1    1    2    0    0 -0.47654119408E-02 -0.25514878340E-01  0.12938508472E-01  0.17130000246E+03  0.17130000000E+03 0. -1.
      622    1    1    2    0    0  0.10670617798E-01  0.91637994059E-02  0.38718850392E+01  0.38835153655E+01  0.30000000000E+00 0. -1.
</event>
<event>
 5   0  0.5137000E+05  0.9118800E+02  0.7818608E-02  0.1180000E+00
       11   -1    0    0    0    0  0.00000000000E+00  0.00000000000E+00  0.39999999673E+01  0.40000000000E+01  0.51109989000E-03 0. -1.
     -623   -1    0    0    0    0  0.00000000000E+00  0.00000000000E+00  0.12525980253E-10  0.17130000000E+03  0.17130000000E+03 0.  1.
       11    1    1    2    0    0  0.16200373699E-01 -0.99353308429E-02  0.40350366859E-01  0.44604666049E-01  0.51109989000E-03 0. -1.
     -623    1    1    2    0    0 -0.20787149052E-01 -0.65355385752E-02  0.15686710959E-01  0.17130000210E+03  0.17130000000E+03 0.  1.
      622    1    1    2    0    0  0.45867753533E-02  0.16470869418E-01  0.39439628895E+01  0.39553932298E+01  0.30000000000E+00 0. -1.
</event>
<event>
 5   0  0.5137000E+05  0.9118800E+02  0.7818608E-02  0.1180000E+00
       11   -1    0    0    0    0  0.00000000000E+00  0.00000000000E+00  0.39999999673E+01  0.40000000000E+01  0.51109989000E-03 0.  1.
     -623   -1    0    0    0    0  0.00000000000E+00  0.00000000000E+00  0.12525980253E-10  0.17130000000E+03  0.17130000000E+03 0.  1.
       11    1    1    2    0    0 -0.17758630617E-01 -0.22897414107E-01  0.14421406126E+00  0.14709730529E+00  0.51109989000E-03 0.  1.
     -623    1    1    2    0    0  0.17211045573E-01  0.34865326179E-01  0.14604207306E-01  0.17130000504E+03  0.17130000000E+03 0.  1.
      622    1    1    2    0    0  0.54758504350E-03 -0.11967912072E-01  0.38411816988E+01  0.38528976594E+01  0.30000000000E+00 0.  1.
</event>
<event>
 5   0  0.5137000E+05  0.9118800E+02  0.7818608E-02  0.1180000E+00
       11   -1    0    0    0    0  0.00000000000E+00  0.00000000000E+00  0.39999999673E+01  0.40000000000E+01  0.51109989000E-03 0. -1.
     -623   -1    0    0    0    0  0.00000000000E+00  0.00000000000E+00  0.12525980253E-10  0.17130000000E+03  0.17130000000E+03 0.  1.
       11    1    1    2    0    0 -0.23808599537E-01 -0.18116678891E-01  0.40900907973E+00  0.41010212385E+00  0.51109989000E-03 0. -1.
     -623    1    1    2    0    0 -0.12283280154E-01 -0.28688909249E-01  0.14141887100E-01  0.17130000343E+03  0.17130000000E+03 0.  1.
      622    1    1    2    0    0  0.36091879691E-01  0.46805588140E-01  0.35768490005E+01  0.35898944496E+01  0.30000000000E+00 0. -1.
</event>
<event>
 5   0  0.5137000E+05  0.9118800E+02  0.7818608E-02  0.1180000E+00
       11   -1    0    0    0    0  0.00000000000E+00  0.00000000000E+00  0.39999999673E+01  0.40000000000E+01  0.51109989000E-03 0. -1.
     -623   -1    0    0    0    0  0.00000000000E+00  0.00000000000E+00  0.12525980253E-10  0.17130000000E+03  0.17130000000E+03 0. -1.
       11    1    1    2    0    0  0.29467407824E-02 -0.71967231718E-02  0.20288289422E+00  0.20303252472E+00  0.51109989000E-03 0. -1.
     -623    1    1    2    0    0 -0.80076567373E-02  0.13003897706E-01  0.12028659972E-01  0.17130000110E+03  0.17130000000E+03 0. -1.
      622    1    1    2    0    0  0.50609159550E-02 -0.58071745339E-02  0.37850884132E+01  0.37969663722E+01  0.30000000000E+00 0. -1.
</event>
<event>
 5   0  0.5137000E+05  0.9118800E+02  0.7818608E-02  0.1180000E+00
       11   -1    0    0    0    0  0.00000000000E+00  0.00000000000E+00  0.39999999673E+01  0.40000000000E+01  0.51109989000E-03 0.  1.
     -623   -1    0    0    0    0  0.00000000000E+00  0.00000000000E+00  0.12525980253E-10  0.17130000000E+03  0.17130000000E+03 0. -1.
       11    1    1    2    0    0  0.38648203595E-01  0.71552390433E-02  0.16034801754E+00  0.16509581775E+00  0.51109989000E-03 0.  1.
     -623    1    1    2    0    0 -0.14309913121E-02  0.12479478678E-01  0.16732954672E-01  0.17130000128E+03  0.17130000000E+03 0. -1.
      622    1    1    2    0    0 -0.37217212283E-01 -0.19634717722E-01  0.38229189952E+01  0.38349029045E+01  0.30000000000E+00 0.  1.
</event>
<event>
 5   0  0.5137000E+05  0.9118800E+02  0.7818608E-02  0.1180000E+00
       11   -1    0    0    0    0  0.00000000000E+00  0.00000000000E+00  0.39999999673E+01  0.40000000000E+01  0.51109989000E-03 0.  1.
     -623   -1    0    0    0    0  0.00000000000E+00  0.00000000000E+00  0.12525980253E-10  0.17130000000E+03  0.17130000000E+03 0. -1.
       11    1    1    2    0    0 -0.49009355495E-01  0.37574338601E-02  0.25144892770E+00  0.25620862533E+00  0.51109989000E-03 0.  1.
     -623    1    1    2    0    0 -0.22152128731E-01  0.48021855388E-01  0.17845915935E-01  0.17130000909E+03  0.17130000000E+03 0. -1.
      622    1    1    2    0    0  0.71161484226E-01 -0.51779289249E-01  0.37307051237E+01  0.37437822816E+01  0.30000000000E+00 0.  1.
</event>
<event>
 5   0  0.5137000E+05  0.9118800E+02  0.7818608E-02  0.1180000E+00
       11   -1    0    0    0    0  0.00000000000E+00  0.00000000000E+00  0.39999999673E+01  0.40000000000E+01  0.51109989000E-03 0.  1.
     -623   -1    0    0    0    0  0.00000000000E+00  0.00000000000E+00  0.12525980253E-10  0.17130000000E+03  0.17130000000E+03 0. -1.
       11    1    1    2    0    0  0.11725383644E+00  0.21918426292E+00  0.66361113709E+00  0.70863968684E+00  0.51109989000E-03 0.  1.
     -623    1    1    2    0    0 -0.56054754879E-01  0.21016306018E-01  0.68139604709E-01  0.17130002401E+03  0.17130000000E+03 0. -1.
      622    1    1    2    0    0 -0.61199081559E-01 -0.24020056894E+00  0.32682492256E+01  0.32913363002E+01  0.30000000000E+00 0.  1.
</event>
<event>
 5   0  0.5137000E+05  0.9118800E+02  0.7818608E-02  0.1180000E+00
       11   -1    0    0    0    0  0.00000000000E+00  0.00000000000E+00  0.39999999673E+01  0.40000000000E+01  0.51109989000E-03 0. -1.
     -623   -1    0    0    0    0  0.00000000000E+00  0.00000000000E+00  0.12525980253E-10  0.17130000000E+03  0.17130000000E+03 0.  1.
       11    1    1    2    0    0  0.27427842362E-01  0.47743002592E-02  0.37903611708E-01  0.47032174952E-01  0.51109989000E-03 0. -1.
     -623    1    1    2    0    0 -0.46398484647E-02 -0.20814633394E-01  0.20629912152E-01  0.17130000257E+03  0.17130000000E+03 0.  1.
      622    1    1    2    0    0 -0.22787993897E-01  0.16040333135E-01  0.39414664435E+01  0.39529652554E+01  0.30000000000E+00 0. -1.
</event>
<event>
 5   0  0.5137000E+05  0.9118800E+02  0.7818608E-02  0.1180000E+00
       11   -1    0    0    0    0  0.00000000000E+00  0.00000000000E+00  0.39999999673E+01  0.40000000000E+01  0.51109989000E-03 0.  1.
     -623   -1    0    0    0    0  0.00000000000E+00  0.00000000000E+00  0.12525980253E-10  0.17130000000E+03  0.17130000000E+03 0. -1.
       11    1    1    2    0    0 -0.29127104337E-01 -0.17815933041E-01  0.22836734095E+00  0.23090625655E+00  0.51109989000E-03 0.  1.
     -623    1    1    2    0    0  0.60394540851E-02  0.18696210508E-01  0.14569855036E-01  0.17130000175E+03  0.17130000000E+03 0. -1.
      622    1    1    2    0    0  0.23087650252E-01 -0.88027746755E-03  0.37570627714E+01  0.37690919971E+01  0.30000000000E+00 0.  1.
</event>
<event>
 5   0  0.5137000E+05  0.9118800E+02  0.7818608E-02  0.1180000E+00
       11   -1    0    0    0    0  0.00000000000E+00  0.00000000000E+00  0.39999999673E+01  0.40000000000E+01  0.51109989000E-03 0. -1.
     -623   -1    0    0    0    0  0.00000000000E+00  0.00000000000E+00  0.12525980253E-10  0.17130000000E+03  0.17130000000E+03 0.  1.
       11    1    1    2    0    0 -0.90409058217E-02  0.77087547458E-02  0.65340877570E-02  0.13569023615E-01  0.51109989000E-03 0. -1.
     -623    1    1    2    0    0  0.21784248097E-01 -0.20613124823E-01  0.18384217945E-01  0.17130000361E+03  0.17130000000E+03 0.  1.
      622    1    1    2    0    0 -0.12743342275E-01  0.12904370077E-01  0.39750816617E+01  0.39864273645E+01  0.30000000000E+00 0. -1.
</event>
<event>
 5   0  0.5137000E+05  0.9118800E+02  0.7818608E-02  0.1180000E+00
       11   -1    0    0    0    0  0.00000000000E+00  0.00000000000E+00  0.39999999673E+01  0.40000000000E+01  0.51109989000E-03 0.  1.
     -623   -1    0    0    0    0  0.00000000000E+00  0.00000000000E+00  0.12525980253E-10  0.17130000000E+03  0.17130000000E+03 0. -1.
       11    1    1    2    0    0  0.47197085764E-02  0.12982106668E-02  0.16733357188E-01  0.17442117586E-01  0.51109989000E-03 0.  1.
     -623    1    1    2    0    0 -0.13479579424E-01  0.54485158627E-02  0.12040508812E-01  0.17130000104E+03  0.17130000000E+03 0. -1.
      622    1    1    2    0    0  0.87598708480E-02 -0.67467265294E-02  0.39712261014E+01  0.39825568422E+01  0.30000000000E+00 0.  1.
</event>
<event>
 5   0  0.5137000E+05  0.9118800E+02  0.7818608E-02  0.1180000E+00
       11   -1    0    0    0    0  0.00000000000E+00  0.00000000000E+00  0.39999999673E+01  0.40000000000E+01  0.51109989000E-03 0.  1.
     -623   -1    0    0    0    0  0.00000000000E+00  0.00000000000E+00  0.12525980253E-10  0.17130000000E+03  0.17130000000E+03 0. -1.
       11    1    1    2    0    0  0.14620679741E-01 -0.85862707011E-02  0.13406053732E-01  0.21621096652E-01  0.51109989000E-03 0.  1.
     -623    1    1    2    0    0 -0.21983723368E-02  0.17321369812E-01  0.19573355970E-01  0.17130000201E+03  0.17130000000E+03 0. -1.
      622    1    1    2    0    0 -0.12422307405E-01 -0.87350991105E-02  0.39670205577E+01  0.39783768952E+01  0.30000000000E+00 0.  1.
</event>
<event>
 5   0  0.5137000E+05  0.9118800E+02  0.7818608E-02  0.1180000E+00
       11   -1    0    0    0    0  0.00000000000E+00  0.00000000000E+00  0.39999999673E+01  0.40000000000E+01  0.51109989000E-03 0. -1.
     -623   -1    0    0    0    0  0.00000000000E+00  0.00000000000E+00  0.12525980253E-10  0.17130000000E+03  0.17130000000E+03 0. -1.
       11    1    1    2    0    0 -0.47909360589E-01 -0.77482312309E-01  0.92930889973E-01  0.13013541827E+00  0.51109989000E-03 0. -1.
     -623    1    1    2    0    0 -0.46863963454E-01 -0.32962762991E-01  0.51613534895E-01  0.17130001736E+03  0.17130000000E+03 0. -1.
      622    1    1    2    0    0  0.94773324043E-01  0.11044507530E+00  0.38554555425E+01  0.38698472241E+01  0.30000000000E+00 0. -1.
</event>
<event>
 5   0  0.5137000E+05  0.9118800E+02  0.7818608E-02  0.1180000E+00
       11   -1    0    0    0    0  0.00000000000E+00  0.00000000000E+00  0.39999999673E+01  0.40000000000E+01  0.51109989000E-03 0. -1.
     -623   -1    0    0    0    0  0.00000000000E+00  0.00000000000E+00  0.12525980253E-10  0.17130000000E+03  0.17130000000E+03 0.  1.
       11    1    1    2    0    0  0.95949950110E-02 -0.31950050928E-02  0.23956869742E+00  0.23978259736E+00  0.51109989000E-03 0. -1.
     -623    1    1    2    0    0  0.14427168306E-01  0.50210069980E-01  0.12580679054E-01  0.17130000843E+03  0.17130000000E+03 0.  1.
      622    1    1    2    0    0 -0.24022163317E-01 -0.47015064887E-01  0.37478505909E+01  0.37602089745E+01  0.30000000000E+00 0. -1.
</event>
<event>
 5   0  0.5137000E+05  0.9118800E+02  0.7818608E-02  0.1180000E+00
       11   -1    0    0    0    0  0.00000000000E+00  0.00000000000E+00  0.39999999673E+01  0.40000000000E+01  0.51109989000E-03 0.  1.
     -623   -1    0    0    0    0  0.00000000000E+00  0.00000000000E+00  0.12525980253E-10  0.17130000000E+03  0.17130000000E+03 0.  1.
       11    1    1    2    0    0 -0.23001771930E-01 -0.62147486661E-02  0.13827128105E+00  0.14031006022E+00  0.51109989000E-03 0.  1.
     -623    1    1    2    0    0 -0.10274772783E-01  0.11323176268E-01  0.13863900691E-01  0.17130000124E+03  0.17130000000E+03 0.  1.
      622    1    1    2    0    0  0.33276544714E-01 -0.51084276017E-02  0.38478647857E+01  0.38596886964E+01  0.30000000000E+00 0.  0.
</event>
<event>
 5   0  0.5137000E+05  0.9118800E+02  0.7818608E-02  0.1180000E+00
       11   -1    0    0    0    0  0.00000000000E+00  0.00000000000E+00  0.39999999673E+01  0.40000000000E+01  0.51109989000E-03 0.  1.
     -623   -1    0    0    0    0  0.00000000000E+00  0.00000000000E+00  0.12525980253E-10  0.17130000000E+03  0.17130000000E+03 0.  1.
       11    1    1    2    0    0  0.15832940119E-02  0.74155882373E-02  0.50016364048E-01  0.50590470081E-01  0.51109989000E-03 0.  1.
     -623    1    1    2    0    0  0.34005496045E-01 -0.95739524970E-02  0.12150158784E-01  0.17130000407E+03  0.17130000000E+03 0.  1.
      622    1    1    2    0    0 -0.35588790057E-01  0.21583642597E-02  0.39378334445E+01  0.39494054562E+01  0.30000000000E+00 0.  1.
</event>
<event>
 5   0  0.5137000E+05  0.9118800E+02  0.7818608E-02  0.1180000E+00
       11   -1    0    0    0    0  0.00000000000E+00  0.00000000000E+00  0.39999999673E+01  0.40000000000E+01  0.51109989000E-03 0. -1.
     -623   -1    0    0    0    0  0.00000000000E+00  0.00000000000E+00  0.12525980253E-10  0.17130000000E+03  0.17130000000E+03 0.  1.
       11    1    1    2    0    0  0.77789212073E-01 -0.32813519153E-01  0.21425295002E+00  0.23028781203E+00  0.51109989000E-03 0. -1.
     -623    1    1    2    0    0 -0.25655500088E-01 -0.69481302995E-01  0.29764109248E-01  0.17130001860E+03  0.17130000000E+03 0.  1.
      622    1    1    2    0    0 -0.52133711985E-01  0.10229482215E+00  0.37559829081E+01  0.37696935897E+01  0.30000000000E+00 0. -1.
</event>
<event>
 5   0  0.5137000E+05  0.9118800E+02  0.7818608E-02  0.1180000E+00
       11   -1    0    0    0    0  0.00000000000E+00  0.00000000000E+00  0.39999999673E+01  0.40000000000E+01  0.51109989000E-03 0.  1.
     -623   -1    0    0    0    0  0.00000000000E+00  0.00000000000E+00  0.12525980253E-10  0.17130000000E+03  0.17130000000E+03 0. -1.
       11    1    1    2    0    0 -0.31757037970E-01  0.94640570308E-02  0.23877552136E+00  0.24106449067E+00  0.51109989000E-03 0.  1.
     -623    1    1    2    0    0  0.48116231447E-01 -0.32629455313E-01  0.14397362995E-01  0.17130001047E+03  0.17130000000E+03 0. -1.
      622    1    1    2    0    0 -0.16359193477E-01  0.23165398282E-01  0.37468270830E+01  0.37589250390E+01  0.30000000000E+00 0.  1.
</event>
<event>
 5   0  0.5137000E+05  0.9118800E+02  0.7818608E-02  0.1180000E+00
       11   -1    0    0    0    0  0.00000000000E+00  0.00000000000E+00  0.39999999673E+01  0.40000000000E+01  0.51109989000E-03 0.  1.
     -623   -1    0    0    0    0  0.00000000000E+00  0.00000000000E+00  0.12525980253E-10  0.17130000000E+03  0.17130000000E+03 0. -1.
       11    1    1    2    0    0  0.42184214328E-01  0.10744900769E-01  0.27852556433E+00  0.28190727560E+00  0.51109989000E-03 0.  1.
     -623    1    1    2    0    0  0.16003505064E-01  0.51955918074E-02  0.15997119626E-01  0.17130000157E+03  0.17130000000E+03 0. -1.
      622    1    1    2    0    0 -0.58187719391E-01 -0.15940492576E-01  0.37054772834E+01  0.37180911511E+01  0.30000000000E+00 0.  1.
</event>
<event>
 5   0  0.5137000E+05  0.9118800E+02  0.7818608E-02  0.1180000E+00
       11   -1    0    0    0    0  0.00000000000E+00  0.00000000000E+00  0.39999999673E+01  0.40000000000E+01  0.51109989000E-03 0.  1.
     -623   -1    0    0    0    0  0.00000000000E+00  0.00000000000E+00  0.12525980253E-10  0.17130000000E+03  0.17130000000E+03 0.  1.
       11    1    1    2    0    0  0.28236175364E-01 -0.27926290102E-01  0.18092480589E-02  0.39757941090E-01  0.51109989000E-03 0.  1.
     -623    1    1    2    0    0 -0.23726486596E-01 -0.10790724831E-01  0.49529503156E-01  0.17130000914E+03  0.17130000000E+03 0.  1.
      622    1    1    2    0    0 -0.45096887681E-02  0.38717014933E-01  0.39486612162E+01  0.39602329154E+01  0.30000000000E+00 0.  1.
</event>
<event>
 5   0  0.5137000E+05  0.9118800E+02  0.7818608E-02  0.1180000E+00
       11   -1    0    0    0    0  0.00000000000E+00  0.00000000000E+00  0.39999999673E+01  0.40000000000E+01  0.51109989000E-03 0. -1.
     -623   -1    0    0    0    0  0.00000000000E+00  0.00000000000E+00  0.12525980253E-10  0.17130000000E+03  0.17130000000E+03 0.  1.
       11    1    1    2    0    0 -0.42411825598E-01 -0.36422317337E-01  0.31046407393E+00  0.31545768428E+00  0.51109989000E-03 0. -1.
     -623    1    1    2    0    0  0.29115278332E-01  0.59457702399E-02  0.17381081006E-01  0.17130000346E+03  0.17130000000E+03 0.  1.
      622    1    1    2    0    0  0.13296547266E-01  0.30476547097E-01  0.36721548124E+01  0.36845388564E+01  0.30000000000E+00 0. -1.
</event>
<event>
 5   0  0.5137000E+05  0.9118800E+02  0.7818608E-02  0.1180000E+00
       11   -1    0    0    0    0  0.00000000000E+00  0.00000000000E+00  0.39999999673E+01  0.40000000000E+01  0.51109989000E-03 0.  1.
     -623   -1    0    0    0    0  0.00000000000E+00  0.00000000000E+00  0.12525980253E-10  0.17130000000E+03  0.17130000000E+03 0.  1.
       11    1    1    2    0    0 -0.24066641957E-02  0.15525228205E-01  0.39644504614E-01  0.42647071559E-01  0.51109989000E-03 0.  1.
     -623    1    1    2    0    0  0.21277591902E-01 -0.82559337219E-02  0.14444111461E-01  0.17130000213E+03  0.17130000000E+03 0.  1.
      622    1    1    2    0    0 -0.18870927707E-01 -0.72692944832E-02  0.39459113513E+01  0.39573507991E+01  0.30000000000E+00 0.  1.
</event>
<event>
 5   0  0.5137000E+05  0.9118800E+02  0.7818608E-02  0.1180000E+00
       11   -1    0    0    0    0  0.00000000000E+00  0.00000000000E+00  0.39999999673E+01  0.40000000000E+01  0.51109989000E-03 0.  1.
     -623   -1    0    0    0    0  0.00000000000E+00  0.00000000000E+00  0.12525980253E-10  0.17130000000E+03  0.17130000000E+03 0. -1.
       11    1    1    2    0    0 -0.90326240620E-02 -0.76541267409E-02  0.15098755106E-01  0.19193946506E-01  0.51109989000E-03 0.  1.
     -623    1    1    2    0    0 -0.21689842557E-02  0.30810821992E-01  0.15502344402E-01  0.17130000349E+03  0.17130000000E+03 0. -1.
      622    1    1    2    0    0  0.11201608318E-01 -0.23156695252E-01  0.39693988679E+01  0.39808025674E+01  0.30000000000E+00 0.  1.
</event>
<event>
 5   0  0.5137000E+05  0.9118800E+02  0.7818608E-02  0.1180000E+00
       11   -1    0    0    0    0  0.00000000000E+00  0.00000000000E+00  0.39999999673E+01  0.40000000000E+01  0.51109989000E-03 0. -1.
     -623   -1    0    0    0    0  0.00000000000E+00  0.00000000000E+00  0.12525980253E-10  0.17130000000E+03  0.17130000000E+03 0. -1.
       11    1    1    2    0    0  0.43312806939E-01 -0.47347711841E-02  0.68338733911E+00  0.68477509723E+00  0.51109989000E-03 0. -1.
     -623    1    1    2    0    0 -0.13128042825E-03  0.97353380713E-02  0.15276511620E-01  0.17130000096E+03  0.17130000000E+03 0. -1.
      622    1    1    2    0    0 -0.43181526511E-01 -0.50005668872E-02  0.33013361166E+01  0.33152239449E+01  0.30000000000E+00 0. -1.
</event>
<event>
 5   0  0.5137000E+05  0.9118800E+02  0.7818608E-02  0.1180000E+00
       11   -1    0    0    0    0  0.00000000000E+00  0.00000000000E+00  0.39999999673E+01  0.40000000000E+01  0.51109989000E-03 0. -1.
     -623   -1    0    0    0    0  0.00000000000E+00  0.00000000000E+00  0.12525980253E-10  0.17130000000E+03  0.17130000000E+03 0. -1.
       11    1    1    2    0    0 -0.14445999367E-01  0.48766261645E-01  0.10805770027E+00  0.11943015943E+00  0.51109989000E-03 0. -1.
     -623    1    1    2    0    0  0.14627939419E-01  0.23050875034E-01  0.23656472126E-01  0.17130000381E+03  0.17130000000E+03 0. -1.
      622    1    1    2    0    0 -0.18194005216E-03 -0.71817136679E-01  0.38682857950E+01  0.38805660316E+01  0.30000000000E+00 0. -1.
</event>
<event>
 5   0  0.5137000E+05  0.9118800E+02  0.7818608E-02  0.1180000E+00
       11   -1    0    0    0    0  0.00000000000E+00  0.00000000000E+00  0.39999999673E+01  0.40000000000E+01  0.51109989000E-03 0. -1.
     -623   -1    0    0    0    0  0.00000000000E+00  0.00000000000E+00  0.12525980253E-10  0.17130000000E+03  0.17130000000E+03 0.  1.
       11    1    1    2    0    0  0.30119348725E-01  0.29536722727E-01  0.50619881519E+00  0.50795383144E+00  0.51109989000E-03 0. -1.
     -623    1    1    2    0    0 -0.23221007727E-02  0.69414144171E-02  0.14968382080E-01  0.17130000081E+03  0.17130000000E+03 0.  1.
      622    1    1    2    0    0 -0.27797247953E-01 -0.36478137144E-01  0.34788327701E+01  0.34920453582E+01  0.30000000000E+00 0. -1.
</event>
<event>
 5   0  0.5137000E+05  0.9118800E+02  0.7818608E-02  0.1180000E+00
       11   -1    0    0    0    0  0.00000000000E+00  0.00000000000E+00  0.39999999673E+01  0.40000000000E+01  0.51109989000E-03 0. -1.
     -623   -1    0    0    0    0  0.00000000000E+00  0.00000000000E+00  0.12525980253E-10  0.17130000000E+03  0.17130000000E+03 0. -1.
       11    1    1    2    0    0  0.17356528461E-01 -0.50453664797E-01  0.73783980007E+00  0.73976662074E+00  0.51109989000E-03 0. -1.
     -623    1    1    2    0    0 -0.11188804664E-01  0.65661117220E-02  0.16062600142E-01  0.17130000124E+03  0.17130000000E+03 0. -1.
      622    1    1    2    0    0 -0.61677237968E-02  0.43887553075E-01  0.32460975672E+01  0.32602321350E+01  0.30000000000E+00 0. -1.
</event>
<event>
 5   0  0.5137000E+05  0.9118800E+02  0.7818608E-02  0.1180000E+00
       11   -1    0    0    0    0  0.00000000000E+00  0.00000000000E+00  0.39999999673E+01  0.40000000000E+01  0.51109989000E-03 0.  1.
     -623   -1    0    0    0    0  0.00000000000E+00  0.00000000000E+00  0.12525980253E-10  0.17130000000E+03  0.17130000000E+03 0. -1.
       11    1    1    2    0    0 -0.37640041059E-01  0.27020122422E-01  0.19298715804E+00  0.19847207384E+00  0.51109989000E-03 0.  1.
     -623    1    1    2    0    0  0.21859249307E-01  0.12303173541E-01  0.17580345716E-01  0.17130000274E+03  0.17130000000E+03 0. -1.
      622    1    1    2    0    0  0.15780791752E-01 -0.39323295963E-01  0.37894324636E+01  0.38015251875E+01  0.30000000000E+00 0.  1.
</event>
<event>
 5   0  0.5137000E+05  0.9118800E+02  0.7818608E-02  0.1180000E+00
       11   -1    0    0    0    0  0.00000000000E+00  0.00000000000E+00  0.39999999673E+01  0.40000000000E+01  0.51109989000E-03 0.  1.
     -623   -1    0    0    0    0  0.00000000000E+00  0.00000000000E+00  0.12525980253E-10  0.17130000000E+03  0.17130000000E+03 0.  1.
       11    1    1    2    0    0  0.62087467883E-02  0.71600947083E-02 -0.72970615940E-02  0.11971792697E-01  0.51109989000E-03 0.  1.
     -623    1    1    2    0    0  0.15326451023E-01 -0.28916476794E-01  0.30692320046E-01  0.17130000588E+03  0.17130000000E+03 0.  1.
      622    1    1    2    0    0 -0.21535197811E-01  0.21756382085E-01  0.39766047089E+01  0.39880223314E+01  0.30000000000E+00 0.  1.
</event>
<event>
 5   0  0.5137000E+05  0.9118800E+02  0.7818608E-02  0.1180000E+00
       11   -1    0    0    0    0  0.00000000000E+00  0.00000000000E+00  0.39999999673E+01  0.40000000000E+01  0.51109989000E-03 0.  1.
     -623   -1    0    0    0    0  0.00000000000E+00  0.00000000000E+00  0.12525980253E-10  0.17130000000E+03  0.17130000000E+03 0. -1.
       11    1    1    2    0    0 -0.85195958864E-02 -0.43702261279E-02  0.11190810907E+00  0.11231815743E+00  0.51109989000E-03 0.  1.
     -623    1    1    2    0    0  0.87487066086E-02  0.15114061883E-01  0.12018532504E-01  0.17130000131E+03  0.17130000000E+03 0. -1.
      622    1    1    2    0    0 -0.22911072231E-03 -0.10743835755E-01  0.38760733258E+01  0.38876805308E+01  0.30000000000E+00 0.  1.
</event>
<event>
 5   0  0.5137000E+05  0.9118800E+02  0.7818608E-02  0.1180000E+00
       11   -1    0    0    0    0  0.00000000000E+00  0.00000000000E+00  0.39999999673E+01  0.40000000000E+01  0.51109989000E-03 0.  1.
     -623   -1    0    0    0    0  0.00000000000E+00  0.00000000000E+00  0.12525980253E-10  0.17130000000E+03  0.17130000000E+03 0. -1.
       11    1    1    2    0    0  0.22933573295E-01 -0.30535420878E-03  0.45342669081E-01  0.50815951106E-01  0.51109989000E-03 0.  1.
     -623    1    1    2    0    0 -0.44780286145E-01 -0.41841685147E-01  0.17182523464E-01  0.17130001182E+03  0.17130000000E+03 0. -1.
      622    1    1    2    0    0  0.21846712851E-01  0.42147039356E-01  0.39374747748E+01  0.39491722239E+01  0.30000000000E+00 0.  1.
</event>
<event>
 5   0  0.5137000E+05  0.9118800E+02  0.7818608E-02  0.1180000E+00
       11   -1    0    0    0    0  0.00000000000E+00  0.00000000000E+00  0.39999999673E+01  0.40000000000E+01  0.51109989000E-03 0.  1.
     -623   -1    0    0    0    0  0.00000000000E+00  0.00000000000E+00  0.12525980253E-10  0.17130000000E+03  0.17130000000E+03 0.  1.
       11    1    1    2    0    0  0.16135251968E-01  0.28219386008E-01  0.18378111029E-01  0.37345632822E-01  0.51109989000E-03 0.  1.
     -623    1    1    2    0    0 -0.13990550368E-01  0.16697159335E-01  0.30599849272E-01  0.17130000412E+03  0.17130000000E+03 0.  1.
      622    1    1    2    0    0 -0.21447015998E-02 -0.44916545343E-01  0.39510220071E+01  0.39626502490E+01  0.30000000000E+00 0.  0.
</event>
<event>
 5   0  0.5137000E+05  0.9118800E+02  0.7818608E-02  0.1180000E+00
       11   -1    0    0    0    0  0.00000000000E+00  0.00000000000E+00  0.39999999673E+01  0.40000000000E+01  0.51109989000E-03 0.  1.
     -623   -1    0    0    0    0  0.00000000000E+00  0.00000000000E+00  0.12525980253E-10  0.17130000000E+03  0.17130000000E+03 0.  1.
       11    1    1    2    0    0 -0.59559396363E-02 -0.54467474650E-02  0.82685598864E-01  0.83080140560E-01  0.51109989000E-03 0.  1.
     -623    1    1    2    0    0  0.21275490528E-02 -0.13247568785E-01  0.11947590478E-01  0.17130000094E+03  0.17130000000E+03 0.  1.
      622    1    1    2    0    0  0.38283905836E-02  0.18694316250E-01  0.39053667780E+01  0.39169189173E+01  0.30000000000E+00 0.  1.
</event>
<event>
 5   0  0.5137000E+05  0.9118800E+02  0.7818608E-02  0.1180000E+00
       11   -1    0    0    0    0  0.00000000000E+00  0.00000000000E+00  0.39999999673E+01  0.40000000000E+01  0.51109989000E-03 0. -1.
     -623   -1    0    0    0    0  0.00000000000E+00  0.00000000000E+00  0.12525980253E-10  0.17130000000E+03  0.17130000000E+03 0.  1.
       11    1    1    2    0    0  0.38798883736E-02  0.35009146840E-01  0.63375309936E-01  0.72507827362E-01  0.51109989000E-03 0. -1.
     -623    1    1    2    0    0  0.16555901420E-01 -0.38290758247E-01  0.20667982301E-01  0.17130000633E+03  0.17130000000E+03 0.  1.
      622    1    1    2    0    0 -0.20435789794E-01  0.32816114075E-02  0.39159566751E+01  0.39274858462E+01  0.30000000000E+00 0. -1.
</event>
<event>
 5   0  0.5137000E+05  0.9118800E+02  0.7818608E-02  0.1180000E+00
       11   -1    0    0    0    0  0.00000000000E+00  0.00000000000E+00  0.39999999673E+01  0.40000000000E+01  0.51109989000E-03 0.  1.
     -623   -1    0    0    0    0  0.00000000000E+00  0.00000000000E+00  0.12525980253E-10  0.17130000000E+03  0.17130000000E+03 0. -1.
       11    1    1    2    0    0 -0.21018299518E-02  0.70437299905E-03  0.10176852255E-01  0.10428009080E-01  0.51109989000E-03 0.  1.
     -623    1    1    2    0    0  0.21634309415E-01 -0.14675420604E-01  0.11621398159E-01  0.17130000239E+03  0.17130000000E+03 0. -1.
      622    1    1    2    0    0 -0.19532479463E-01  0.13971047605E-01  0.39782017169E+01  0.39895696019E+01  0.30000000000E+00 0.  1.
</event>
<event>
 5   0  0.5137000E+05  0.9118800E+02  0.7818608E-02  0.1180000E+00
       11   -1    0    0    0    0  0.00000000000E+00  0.00000000000E+00  0.39999999673E+01  0.40000000000E+01  0.51109989000E-03 0. -1.
     -623   -1    0    0    0    0  0.00000000000E+00  0.00000000000E+00  0.12525980253E-10  0.17130000000E+03  0.17130000000E+03 0. -1.
       11    1    1    2    0    0 -0.40455346499E-02 -0.50013424611E-01  0.32865199428E+00  0.33246067972E+00  0.51109989000E-03 0. -1.
     -623    1    1    2    0    0 -0.23808052074E-01  0.50361750660E-01  0.16215054174E-01  0.17130000983E+03  0.17130000000E+03 0. -1.
      622    1    1    2    0    0  0.27853586725E-01 -0.34832604866E-03  0.36551329189E+01  0.36675294953E+01  0.30000000000E+00 0. -1.
</event>
<event>
 5   0  0.5137000E+05  0.9118800E+02  0.7818608E-02  0.1180000E+00
       11   -1    0    0    0    0  0.00000000000E+00  0.00000000000E+00  0.39999999673E+01  0.40000000000E+01  0.51109989000E-03 0.  1.
     -623   -1    0    0    0    0  0.00000000000E+00  0.00000000000E+00  0.12525980253E-10  0.17130000000E+03  0.17130000000E+03 0.  1.
       11    1    1    2    0    0  0.10134553037E+00 -0.31243154313E-01  0.11832286608E+01  0.11879719593E+01  0.51109989000E-03 0.  1.
     -623    1    1    2    0    0  0.11802398060E-01  0.41974965557E-01  0.23109891993E-01  0.17130000711E+03  0.17130000000E+03 0.  1.
      622    1    1    2    0    0 -0.11314792843E+00 -0.10731811244E-01  0.27936614146E+01  0.28120209325E+01  0.30000000000E+00 0.  1.
</event>
<event>
 5   0  0.5137000E+05  0.9118800E+02  0.7818608E-02  0.1180000E+00
       11   -1    0    0    0    0  0.00000000000E+00  0.00000000000E+00  0.39999999673E+01  0.40000000000E+01  0.51109989000E-03 0.  1.
     -623   -1    0    0    0    0  0.00000000000E+00  0.00000000000E+00  0.12525980253E-10  0.17130000000E+03  0.17130000000E+03 0. -1.
       11    1    1    2    0    0 -0.45366129687E-01 -0.24247682606E-02  0.49265380867E+00  0.49474438010E+00  0.51109989000E-03 0.  1.
     -623    1    1    2    0    0  0.12600834575E-02 -0.20080671739E-01  0.15304915263E-01  0.17130000187E+03  0.17130000000E+03 0. -1.
      622    1    1    2    0    0  0.44106046229E-01  0.22505439999E-01  0.34920412434E+01  0.35052537546E+01  0.30000000000E+00 0.  1.
</event>
<event>
 5   0  0.5137000E+05  0.9118800E+02  0.7818608E-02  0.1180000E+00
       11   -1    0    0    0    0  0.00000000000E+00  0.00000000000E+00  0.39999999673E+01  0.40000000000E+01  0.51109989000E-03 0. -1.
     -623   -1    0    0    0    0  0.00000000000E+00  0.00000000000E+00  0.12525980253E-10  0.17130000000E+03  0.17130000000E+03 0.  1.
       11    1    1    2    0    0  0.34650249780E-02  0.19921165434E-01  0.23061914970E-01  0.30675273032E-01  0.51109989000E-03 0. -1.
     -623    1    1    2    0    0  0.17100051244E-01  0.28604521093E-01  0.19321757506E-01  0.17130000433E+03  0.17130000000E+03 0.  1.
      622    1    1    2    0    0 -0.20565076222E-01 -0.48525686528E-01  0.39576162949E+01  0.39693203955E+01  0.30000000000E+00 0. -1.
</event>
<event>
 5   0  0.5137000E+05  0.9118800E+02  0.7818608E-02  0.1180000E+00
       11   -1    0    0    0    0  0.00000000000E+00  0.00000000000E+00  0.39999999673E+01  0.40000000000E+01  0.51109989000E-03 0.  1.
     -623   -1    0    0    0    0  0.00000000000E+00  0.00000000000E+00  0.12525980253E-10  0.17130000000E+03  0.17130000000E+03 0. -1.
       11    1    1    2    0    0  0.20074850921E-01  0.17432936159E-01  0.61654415157E+00  0.61711737859E+00  0.51109989000E-03 0.  1.
     -623    1    1    2    0    0 -0.12959439633E-01 -0.88193435779E-02  0.13921526446E-01  0.17130000128E+03  0.17130000000E+03 0. -1.
      622    1    1    2    0    0 -0.71154112884E-02 -0.86135925810E-02  0.33695342894E+01  0.33828813385E+01  0.30000000000E+00 0.  1.
</event>
<event>
 5   0  0.5137000E+05  0.9118800E+02  0.7818608E-02  0.1180000E+00
       11   -1    0    0    0    0  0.00000000000E+00  0.00000000000E+00  0.39999999673E+01  0.40000000000E+01  0.51109989000E-03 0. -1.
     -623   -1    0    0    0    0  0.00000000000E+00  0.00000000000E+00  0.12525980253E-10  0.17130000000E+03  0.17130000000E+03 0. -1.
       11    1    1    2    0    0 -0.85891984800E-02 -0.35572560736E-01  0.68456755035E+00  0.68554516526E+00  0.51109989000E-03 0. -1.
     -623    1    1    2    0    0 -0.24065671568E-02  0.11438231375E-01  0.14689976308E-01  0.17130000103E+03  0.17130000000E+03 0. -1.
      622    1    1    2    0    0  0.10995765637E-01  0.24134329361E-01  0.33007424407E+01  0.33144538061E+01  0.30000000000E+00 0. -1.
</event>
<event>
 5   0  0.5137000E+05  0.9118800E+02  0.7818608E-02  0.1180000E+00
       11   -1    0    0    0    0  0.00000000000E+00  0.00000000000E+00  0.39999999673E+01  0.40000000000E+01  0.51109989000E-03 0. -1.
     -623   -1    0    0    0    0  0.00000000000E+00  0.00000000000E+00  0.12525980253E-10  0.17130000000E+03  0.17130000000E+03 0.  1.
       11    1    1    2    0    0 -0.43105189185E-01 -0.12456917799E-01  0.32225645654E-01  0.55244778909E-01  0.51109989000E-03 0. -1.
     -623    1    1    2    0    0  0.53974723569E-01 -0.10632332348E-01  0.34538334286E-01  0.17130001232E+03  0.17130000000E+03 0.  1.
      622    1    1    2    0    0 -0.10869534384E-01  0.23089250147E-01  0.39332359874E+01  0.39447429058E+01  0.30000000000E+00 0. -1.
</event>
<event>
 5   0  0.5137000E+05  0.9118800E+02  0.7818608E-02  0.1180000E+00
       11   -1    0    0    0    0  0.00000000000E+00  0.00000000000E+00  0.39999999673E+01  0.40000000000E+01  0.51109989000E-03 0.  1.
     -623   -1    0    0    0    0  0.00000000000E+00  0.00000000000E+00  0.12525980253E-10  0.17130000000E+03  0.17130000000E+03 0.  1.
       11    1    1    2    0    0 -0.60280112126E-02 -0.75255547047E-02  0.76887283376E-01  0.77491202455E-01  0.51109989000E-03 0.  1.
     -623    1    1    2    0    0 -0.28082009408E-02  0.12772584489E-01  0.12107393272E-01  0.17130000093E+03  0.17130000000E+03 0.  1.
      622    1    1    2    0    0  0.88362121534E-02 -0.52470297846E-02  0.39110052907E+01  0.39225078705E+01  0.30000000000E+00 0.  1.
</event>
<event>
 5   0  0.5137000E+05  0.9118800E+02  0.7818608E-02  0.1180000E+00
       11   -1    0    0    0    0  0.00000000000E+00  0.00000000000E+00  0.39999999673E+01  0.40000000000E+01  0.51109989000E-03 0. -1.
     -623   -1    0    0    0    0  0.00000000000E+00  0.00000000000E+00  0.12525980253E-10  0.17130000000E+03  0.17130000000E+03 0.  1.
       11    1    1    2    0    0 -0.18164287140E-01  0.58955378206E-02  0.14716510279E-01  0.24115049009E-01  0.51109989000E-03 0. -1.
     -623    1    1    2    0    0  0.28856295129E-01 -0.51612515233E-02  0.20751158582E-01  0.17130000377E+03  0.17130000000E+03 0.  1.
      622    1    1    2    0    0 -0.10692007989E-01 -0.73428629732E-03  0.39645322985E+01  0.39758811859E+01  0.30000000000E+00 0. -1.
</event>
<event>
 5   0  0.5137000E+05  0.9118800E+02  0.7818608E-02  0.1180000E+00
       11   -1    0    0    0    0  0.00000000000E+00  0.00000000000E+00  0.39999999673E+01  0.40000000000E+01  0.51109989000E-03 0.  1.
     -623   -1    0    0    0    0  0.00000000000E+00  0.00000000000E+00  0.12525980253E-10  0.17130000000E+03  0.17130000000E+03 0.  1.
       11    1    1    2    0    0  0.24257857609E-01 -0.67459837213E-01  0.52411313938E+00  0.52899349466E+00  0.51109989000E-03 0.  1.
     -623    1    1    2    0    0  0.67920746807E-02  0.40999732335E-01  0.18115829363E-01  0.17130000600E+03  0.17130000000E+03 0.  1.
      622    1    1    2    0    0 -0.31049932290E-01  0.26460104878E-01  0.34577709986E+01  0.34710005062E+01  0.30000000000E+00 0.  1.
</event>
<event>
 5   0  0.5137000E+05  0.9118800E+02  0.7818608E-02  0.1180000E+00
       11   -1    0    0    0    0  0.00000000000E+00  0.00000000000E+00  0.39999999673E+01  0.40000000000E+01  0.51109989000E-03 0. -1.
     -623   -1    0    0    0    0  0.00000000000E+00  0.00000000000E+00  0.12525980253E-10  0.17130000000E+03  0.17130000000E+03 0.  1.
       11    1    1    2    0    0  0.70087792770E-01  0.68751884944E-01  0.21281651806E+00  0.23437203750E+00  0.51109989000E-03 0. -1.
     -623    1    1    2    0    0  0.26529514288E-01 -0.16087281710E-01  0.35144380292E-01  0.17130000641E+03  0.17130000000E+03 0.  1.
      622    1    1    2    0    0 -0.96617307058E-01 -0.52664603235E-01  0.37520390690E+01  0.37656215476E+01  0.30000000000E+00 0. -1.
</event>
<event>
 5   0  0.5137000E+05  0.9118800E+02  0.7818608E-02  0.1180000E+00
       11   -1    0    0    0    0  0.00000000000E+00  0.00000000000E+00  0.39999999673E+01  0.40000000000E+01  0.51109989000E-03 0.  1.
     -623   -1    0    0    0    0  0.00000000000E+00  0.00000000000E+00  0.12525980253E-10  0.17130000000E+03  0.17130000000E+03 0. -1.
       11    1    1    2    0    0 -0.22228480342E-01  0.18082163455E-01  0.46867226871E-01  0.54935126751E-01  0.51109989000E-03 0.  1.
     -623    1    1    2    0    0  0.33009486610E-01 -0.12545467987E-01  0.19514497715E-01  0.17130000475E+03  0.17130000000E+03 0. -1.
      622    1    1    2    0    0 -0.10781006268E-01 -0.55366954677E-02  0.39336182428E+01  0.39450601218E+01  0.30000000000E+00 0.  1.
</event>
<event>
 5   0  0.5137000E+05  0.9118800E+02  0.7818608E-02  0.1180000E+00
       11   -1    0    0    0    0  0.00000000000E+00  0.00000000000E+00  0.39999999673E+01  0.40000000000E+01  0.51109989000E-03 0.  1.
     -623   -1    0    0    0    0  0.00000000000E+00  0.00000000000E+00  0.12525980253E-10  0.17130000000E+03  0.17130000000E+03 0.  1.
       11    1    1    2    0    0 -0.14180590327E-01  0.33915439464E-02  0.10196520007E-01  0.17799493131E-01  0.51109989000E-03 0.  1.
     -623    1    1    2    0    0  0.44861612932E-01 -0.23975869727E-01  0.19099831176E-01  0.17130000862E+03  0.17130000000E+03 0.  1.
      622    1    1    2    0    0 -0.30681022605E-01  0.20584325781E-01  0.39707036162E+01  0.39821918898E+01  0.30000000000E+00 0.  1.
</event>
<event>
 5   0  0.5137000E+05  0.9118800E+02  0.7818608E-02  0.1180000E+00
       11   -1    0    0    0    0  0.00000000000E+00  0.00000000000E+00  0.39999999673E+01  0.40000000000E+01  0.51109989000E-03 0.  1.
     -623   -1    0    0    0    0  0.00000000000E+00  0.00000000000E+00  0.12525980253E-10  0.17130000000E+03  0.17130000000E+03 0. -1.
       11    1    1    2    0    0 -0.17058991352E-01 -0.72643870573E-01  0.26378091488E+00  0.27413276600E+00  0.51109989000E-03 0.  1.
     -623    1    1    2    0    0  0.91795429898E-01  0.67635146284E-02  0.23812247891E-01  0.17130002638E+03  0.17130000000E+03 0. -1.
      622    1    1    2    0    0 -0.74736438546E-01  0.65880355945E-01  0.37124068046E+01  0.37258408500E+01  0.30000000000E+00 0.  1.
</event>
<event>
 5   0  0.5137000E+05  0.9118800E+02  0.7818608E-02  0.1180000E+00
       11   -1    0    0    0    0  0.00000000000E+00  0.00000000000E+00  0.39999999673E+01  0.40000000000E+01  0.51109989000E-03 0. -1.
     -623   -1    0    0    0    0  0.00000000000E+00  0.00000000000E+00  0.12525980253E-10  0.17130000000E+03  0.17130000000E+03 0. -1.
       11    1    1    2    0    0 -0.44662012485E-01  0.72455543924E-01  0.21540899972E+00  0.23161562898E+00  0.51109989000E-03 0. -1.
     -623    1    1    2    0    0 -0.13442477151E-01 -0.14184926742E-01  0.29072071849E-01  0.17130000358E+03  0.17130000000E+03 0. -1.
      622    1    1    2    0    0  0.58104489636E-01 -0.58270617182E-01  0.37555188958E+01  0.37683807893E+01  0.30000000000E+00 0. -1.
</event>
<event>
 5   0  0.5137000E+05  0.9118800E+02  0.7818608E-02  0.1180000E+00
       11   -1    0    0    0    0  0.00000000000E+00  0.00000000000E+00  0.39999999673E+01  0.40000000000E+01  0.51109989000E-03 0.  1.
     -623   -1    0    0    0    0  0.00000000000E+00  0.00000000000E+00  0.12525980253E-10  0.17130000000E+03  0.17130000000E+03 0. -1.
       11    1    1    2    0    0 -0.70531071862E-02  0.35861523116E-01  0.54920796959E+00  0.55042297394E+00  0.51109989000E-03 0.  1.
     -623    1    1    2    0    0  0.27552305525E-01 -0.19192442532E-01  0.14390288358E-01  0.17130000390E+03  0.17130000000E+03 0. -1.
      622    1    1    2    0    0 -0.20499198338E-01 -0.16669080584E-01  0.34364017094E+01  0.34495731307E+01  0.30000000000E+00 0.  1.
</event>
<event>
 5   0  0.5137000E+05  0.9118800E+02  0.7818608E-02  0.1180000E+00
       11   -1    0    0    0    0  0.00000000000E+00  0.00000000000E+00  0.39999999673E+01  0.40000000000E+01  0.51109989000E-03 0. -1.
     -623   -1    0    0    0    0  0.00000000000E+00  0.00000000000E+00  0.12525980253E-10  0.17130000000E+03  0.17130000000E+03 0.  1.
       11    1    1    2    0    0  0.55214175719E-02 -0.35277669609E-02 -0.26777877713E-03  0.65775466783E-02  0.51109989000E-03 0. -1.
     -623    1    1    2    0    0  0.24632080559E-01 -0.74304772967E-02  0.18261923969E-01  0.17130000291E+03  0.17130000000E+03 0.  1.
      622    1    1    2    0    0 -0.30153498131E-01  0.10958244258E-01  0.39820058222E+01  0.39934195478E+01  0.30000000000E+00 0. -1.
</event>
<event>
 5   0  0.5137000E+05  0.9118800E+02  0.7818608E-02  0.1180000E+00
       11   -1    0    0    0    0  0.00000000000E+00  0.00000000000E+00  0.39999999673E+01  0.40000000000E+01  0.51109989000E-03 0. -1.
     -623   -1    0    0    0    0  0.00000000000E+00  0.00000000000E+00  0.12525980253E-10  0.17130000000E+03  0.17130000000E+03 0.  1.
       11    1    1    2    0    0 -0.65652196090E-01 -0.52676967526E-01  0.35662314406E+00  0.36642243635E+00  0.51109989000E-03 0. -1.
     -623    1    1    2    0    0  0.93017752667E-02  0.43140490996E-01  0.22663165823E-01  0.17130000718E+03  0.17130000000E+03 0.  1.
      622    1    1    2    0    0  0.56350420823E-01  0.95364765301E-02  0.36207136575E+01  0.36335703796E+01  0.30000000000E+00 0. -1.
</event>
<event>
 5   0  0.5137000E+05  0.9118800E+02  0.7818608E-02  0.1180000E+00
       11   -1    0    0    0    0  0.00000000000E+00  0.00000000000E+00  0.39999999673E+01  0.40000000000E+01  0.51109989000E-03 0.  1.
     -623   -1    0    0    0    0  0.00000000000E+00  0.00000000000E+00  0.12525980253E-10  0.17130000000E+03  0.17130000000E+03 0.  1.
       11    1    1    2    0    0  0.11440554039E-01  0.74066092611E-03  0.55131849853E-02  0.12731507653E-01  0.51109989000E-03 0.  1.
     -623    1    1    2    0    0 -0.38033291857E-01  0.83774290171E-01  0.19533427820E-01  0.17130002582E+03  0.17130000000E+03 0.  1.
      622    1    1    2    0    0  0.26592737818E-01 -0.84514951097E-01  0.39749533545E+01  0.39872426715E+01  0.30000000000E+00 0.  1.
</event>
<event>
 5   0  0.5137000E+05  0.9118800E+02  0.7818608E-02  0.1180000E+00
       11   -1    0    0    0    0  0.00000000000E+00  0.00000000000E+00  0.39999999673E+01  0.40000000000E+01  0.51109989000E-03 0. -1.
     -623   -1    0    0    0    0  0.00000000000E+00  0.00000000000E+00  0.12525980253E-10  0.17130000000E+03  0.17130000000E+03 0.  1.
       11    1    1    2    0    0  0.18353294043E-01 -0.21021596542E-01  0.51493036530E-01  0.58570854154E-01  0.51109989000E-03 0. -1.
     -623    1    1    2    0    0 -0.55779942728E-02  0.68225476291E-02  0.18559198573E-01  0.17130000123E+03  0.17130000000E+03 0.  1.
      622    1    1    2    0    0 -0.12775299770E-01  0.14199048913E-01  0.39299477323E+01  0.39414279138E+01  0.30000000000E+00 0. -1.
</event>
<event>
 5   0  0.5137000E+05  0.9118800E+02  0.7818608E-02  0.1180000E+00
       11   -1    0    0    0    0  0.00000000000E+00  0.00000000000E+00  0.39999999673E+01  0.40000000000E+01  0.51109989000E-03 0. -1.
     -623   -1    0    0    0    0  0.00000000000E+00  0.00000000000E+00  0.12525980253E-10  0.17130000000E+03  0.17130000000E+03 0. -1.
       11    1    1    2    0    0  0.17263784245E-01 -0.89830656304E-03  0.35573017805E-01  0.39554342619E-01  0.51109989000E-03 0. -1.
     -623    1    1    2    0    0 -0.39859602756E-02 -0.35301946912E-01  0.15552644929E-01  0.17130000439E+03  0.17130000000E+03 0. -1.
      622    1    1    2    0    0 -0.13277823970E-01  0.36200253475E-01  0.39488743046E+01  0.39604412674E+01  0.30000000000E+00 0. -1.
</event>
<event>
 5   0  0.5137000E+05  0.9118800E+02  0.7818608E-02  0.1180000E+00
       11   -1    0    0    0    0  0.00000000000E+00  0.00000000000E+00  0.39999999673E+01  0.40000000000E+01  0.51109989000E-03 0.  1.
     -623   -1    0    0    0    0  0.00000000000E+00  0.00000000000E+00  0.12525980253E-10  0.17130000000E+03  0.17130000000E+03 0. -1.
       11    1    1    2    0    0 -0.96686254447E-02  0.18072354206E-01 -0.18620306189E-01  0.27696016504E-01  0.51109989000E-03 0.  1.
     -623    1    1    2    0    0  0.66685893183E-01 -0.30715272281E-01  0.58117173917E-01  0.17130002559E+03  0.17130000000E+03 0. -1.
      622    1    1    2    0    0 -0.57017267738E-01  0.12642918075E-01  0.39605030996E+01  0.39722783908E+01  0.30000000000E+00 0.  1.
</event>
<event>
 5   0  0.5137000E+05  0.9118800E+02  0.7818608E-02  0.1180000E+00
       11   -1    0    0    0    0  0.00000000000E+00  0.00000000000E+00  0.39999999673E+01  0.40000000000E+01  0.51109989000E-03 0.  1.
     -623   -1    0    0    0    0  0.00000000000E+00  0.00000000000E+00  0.12525980253E-10  0.17130000000E+03  0.17130000000E+03 0. -1.
       11    1    1    2    0    0 -0.53909744087E-03  0.13919246502E-01 -0.14268132035E-01  0.19946850912E-01  0.51109989000E-03 0.  1.
     -623    1    1    2    0    0  0.46346749905E-02 -0.42743359627E-01  0.45655736444E-01  0.17130001148E+03  0.17130000000E+03 0. -1.
      622    1    1    2    0    0 -0.40955775497E-02  0.28824113125E-01  0.39686123630E+01  0.39800416695E+01  0.30000000000E+00 0.  1.
</event>
<event>
 5   0  0.5137000E+05  0.9118800E+02  0.7818608E-02  0.1180000E+00
       11   -1    0    0    0    0  0.00000000000E+00  0.00000000000E+00  0.39999999673E+01  0.40000000000E+01  0.51109989000E-03 0.  1.
     -623   -1    0    0    0    0  0.00000000000E+00  0.00000000000E+00  0.12525980253E-10  0.17130000000E+03  0.17130000000E+03 0. -1.
       11    1    1    2    0    0  0.50140063794E-02  0.99100239386E-02  0.88539385903E-02  0.14212750828E-01  0.51109989000E-03 0.  1.
     -623    1    1    2    0    0  0.43664722283E-02 -0.15431703867E-01  0.16681403940E-01  0.17130000156E+03  0.17130000000E+03 0. -1.
      622    1    1    2    0    0 -0.93804786077E-02  0.55216799284E-02  0.39744646248E+01  0.39857856862E+01  0.30000000000E+00 0.  1.
</event>
<event>
 5   0  0.5137000E+05  0.9118800E+02  0.7818608E-02  0.1180000E+00
       11   -1    0    0    0    0  0.00000000000E+00  0.00000000000E+00  0.39999999673E+01  0.40000000000E+01  0.51109989000E-03 0. -1.
     -623   -1    0    0    0    0  0.00000000000E+00  0.00000000000E+00  0.12525980253E-10  0.17130000000E+03  0.17130000000E+03 0. -1.
       11    1    1    2    0    0  0.31682203961E-01 -0.53004264306E-01  0.32173629603E+00  0.32760909555E+00  0.51109989000E-03 0. -1.
     -623    1    1    2    0    0 -0.30677044359E-01  0.21534558182E-01  0.18287398764E-01  0.17130000508E+03  0.17130000000E+03 0. -1.
      622    1    1    2    0    0 -0.10051596023E-02  0.31469706124E-01  0.36599762726E+01  0.36723858278E+01  0.30000000000E+00 0.  0.
</event>
<event>
 5   0  0.5137000E+05  0.9118800E+02  0.7818608E-02  0.1180000E+00
       11   -1    0    0    0    0  0.00000000000E+00  0.00000000000E+00  0.39999999673E+01  0.40000000000E+01  0.51109989000E-03 0. -1.
     -623   -1    0    0    0    0  0.00000000000E+00  0.00000000000E+00  0.12525980253E-10  0.17130000000E+03  0.17130000000E+03 0.  1.
       11    1    1    2    0    0  0.35720621566E-01  0.28264154116E-02  0.82526667719E+00  0.82604436995E+00  0.51109989000E-03 0. -1.
     -623    1    1    2    0    0  0.32907990257E-01  0.12674462358E-01  0.15775150972E-01  0.17130000436E+03  0.17130000000E+03 0.  1.
      622    1    1    2    0    0 -0.68628611823E-01 -0.15500877769E-01  0.31589581392E+01  0.31739512739E+01  0.30000000000E+00 0. -1.
</event>
<event>
 5   0  0.5137000E+05  0.9118800E+02  0.7818608E-02  0.1180000E+00
       11   -1    0    0    0    0  0.00000000000E+00  0.00000000000E+00  0.39999999673E+01  0.40000000000E+01  0.51109989000E-03 0. -1.
     -623   -1    0    0    0    0  0.00000000000E+00  0.00000000000E+00  0.12525980253E-10  0.17130000000E+03  0.17130000000E+03 0. -1.
       11    1    1    2    0    0 -0.94592718795E-02  0.22442437892E-02 -0.94920623153E-02  0.13596871874E-01  0.51109989000E-03 0. -1.
     -623    1    1    2    0    0  0.32165603207E-02 -0.90614387471E-02  0.34407785062E-01  0.17130000373E+03  0.17130000000E+03 0. -1.
      622    1    1    2    0    0  0.62427115588E-02  0.68171949579E-02  0.39750842446E+01  0.39863994026E+01  0.30000000000E+00 0. -1.
</event>
<event>
 5   0  0.5137000E+05  0.9118800E+02  0.7818608E-02  0.1180000E+00
       11   -1    0    0    0    0  0.00000000000E+00  0.00000000000E+00  0.39999999673E+01  0.40000000000E+01  0.51109989000E-03 0.  1.
     -623   -1    0    0    0    0  0.00000000000E+00  0.00000000000E+00  0.12525980253E-10  0.17130000000E+03  0.17130000000E+03 0. -1.
       11    1    1    2    0    0 -0.73829627185E-03  0.92375751785E-02  0.41667184185E-01  0.42688327848E-01  0.51109989000E-03 0.  1.
     -623    1    1    2    0    0  0.83607208436E-02 -0.20116936654E-02  0.12423498623E-01  0.17130000067E+03  0.17130000000E+03 0. -1.
      622    1    1    2    0    0 -0.76224245717E-02 -0.72258815130E-02  0.39459092846E+01  0.39573110058E+01  0.30000000000E+00 0.  1.
</event>
<event>
 5   0  0.5137000E+05  0.9118800E+02  0.7818608E-02  0.1180000E+00
       11   -1    0    0    0    0  0.00000000000E+00  0.00000000000E+00  0.39999999673E+01  0.40000000000E+01  0.51109989000E-03 0.  1.
     -623   -1    0    0    0    0  0.00000000000E+00  0.00000000000E+00  0.12525980253E-10  0.17130000000E+03  0.17130000000E+03 0.  1.
       11    1    1    2    0    0 -0.54119755946E-01 -0.22586660780E-01  0.90264450330E-01  0.10764310216E+00  0.51109989000E-03 0.  1.
     -623    1    1    2    0    0  0.35083438027E-02  0.28563199554E-01  0.29296538538E-01  0.17130000492E+03  0.17130000000E+03 0.  1.
      622    1    1    2    0    0  0.50611412143E-01 -0.59765387744E-02  0.38804389785E+01  0.38923519753E+01  0.30000000000E+00 0.  1.
</event>
<event>
 5   0  0.5137000E+05  0.9118800E+02  0.7818608E-02  0.1180000E+00
       11   -1    0    0    0    0  0.00000000000E+00  0.00000000000E+00  0.39999999673E+01  0.40000000000E+01  0.51109989000E-03 0. -1.
     -623   -1    0    0    0    0  0.00000000000E+00  0.00000000000E+00  0.12525980253E-10  0.17130000000E+03  0.17130000000E+03 0.  1.
       11    1    1    2    0    0 -0.68285940416E-02  0.14720989460E-01  0.86924483780E+00  0.86939644955E+00  0.51109989000E-03 0. -1.
     -623    1    1    2    0    0 -0.15685542619E-02 -0.23567170876E-01  0.14585086065E-01  0.17130000225E+03  0.17130000000E+03 0.  1.
      622    1    1    2    0    0  0.83971483035E-02  0.88461814165E-02  0.31161700435E+01  0.31306013012E+01  0.30000000000E+00 0. -1.
</event>
<event>
 5   0  0.5137000E+05  0.9118800E+02  0.7818608E-02  0.1180000E+00
       11   -1    0    0    0    0  0.00000000000E+00  0.00000000000E+00  0.39999999673E+01  0.40000000000E+01  0.51109989000E-03 0. -1.
     -623   -1    0    0    0    0  0.00000000000E+00  0.00000000000E+00  0.12525980253E-10  0.17130000000E+03  0.17130000000E+03 0. -1.
       11    1    1    2    0    0  0.20141881869E-01  0.30747401703E-01  0.93343360911E-01  0.10032119600E+00  0.51109989000E-03 0. -1.
     -623    1    1    2    0    0  0.11280128211E-01  0.18891462013E-03  0.18785795252E-01  0.17130000140E+03  0.17130000000E+03 0. -1.
      622    1    1    2    0    0 -0.31422010080E-01 -0.30936316323E-01  0.38878708112E+01  0.38996774024E+01  0.30000000000E+00 0. -1.
</event>
<event>
 5   0  0.5137000E+05  0.9118800E+02  0.7818608E-02  0.1180000E+00
       11   -1    0    0    0    0  0.00000000000E+00  0.00000000000E+00  0.39999999673E+01  0.40000000000E+01  0.51109989000E-03 0. -1.
     -623   -1    0    0    0    0  0.00000000000E+00  0.00000000000E+00  0.12525980253E-10  0.17130000000E+03  0.17130000000E+03 0.  1.
       11    1    1    2    0    0 -0.48720069247E-02 -0.19077583088E-01  0.50244541184E-01  0.53967265693E-01  0.51109989000E-03 0. -1.
     -623    1    1    2    0    0 -0.58247591693E-02  0.96837163502E-02  0.15169878516E-01  0.17130000104E+03  0.17130000000E+03 0.  1.
      622    1    1    2    0    0  0.10696766094E-01  0.93938667376E-02  0.39345855477E+01  0.39460316899E+01  0.30000000000E+00 0. -1.
</event>
<event>
 5   0  0.5137000E+05  0.9118800E+02  0.7818608E-02  0.1180000E+00
       11   -1    0    0    0    0  0.00000000000E+00  0.00000000000E+00  0.39999999673E+01  0.40000000000E+01  0.51109989000E-03 0.  1.
     -623   -1    0    0    0    0  0.00000000000E+00  0.00000000000E+00  0.12525980253E-10  0.17130000000E+03  0.17130000000E+03 0. -1.
       11    1    1    2    0    0 -0.17978134706E+00 -0.19205580022E+00  0.86152954697E+00  0.90079974726E+00  0.51109989000E-03 0.  1.
     -623    1    1    2    0    0  0.85744583565E-01 -0.41936007886E-01  0.64188756118E-01  0.17130003862E+03  0.17130000000E+03 0. -1.
      622    1    1    2    0    0  0.94036763491E-01  0.23399180811E+00  0.30742816643E+01  0.30991616335E+01  0.30000000000E+00 0.  1.
</event>
<event>
 5   0  0.5137000E+05  0.9118800E+02  0.7818608E-02  0.1180000E+00
       11   -1    0    0    0    0  0.00000000000E+00  0.00000000000E+00  0.39999999673E+01  0.40000000000E+01  0.51109989000E-03 0. -1.
     -623   -1    0    0    0    0  0.00000000000E+00  0.00000000000E+00  0.12525980253E-10  0.17130000000E+03  0.17130000000E+03 0. -1.
       11    1    1    2    0    0 -0.12768437130E-01 -0.24848409255E-01  0.96346688308E-01  0.10031660878E+00  0.51109989000E-03 0. -1.
     -623    1    1    2    0    0 -0.35243217371E-02  0.56735895451E-02  0.15608672547E-01  0.17130000084E+03  0.17130000000E+03 0. -1.
      622    1    1    2    0    0  0.16292758867E-01  0.19174819710E-01  0.38880446065E+01  0.38996825499E+01  0.30000000000E+00 0. -1.
</event>
<event>
 5   0  0.5137000E+05  0.9118800E+02  0.7818608E-02  0.1180000E+00
       11   -1    0    0    0    0  0.00000000000E+00  0.00000000000E+00  0.39999999673E+01  0.40000000000E+01  0.51109989000E-03 0.  1.
     -623   -1    0    0    0    0  0.00000000000E+00  0.00000000000E+00  0.12525980253E-10  0.17130000000E+03  0.17130000000E+03 0. -1.
       11    1    1    2    0    0  0.64050677138E-01 -0.77431731860E-01  0.36721338757E+00  0.38071524210E+00  0.51109989000E-03 0.  1.
     -623    1    1    2    0    0 -0.25069786998E-01  0.20640499581E-01  0.26619618470E-01  0.17130000515E+03  0.17130000000E+03 0. -1.
      622    1    1    2    0    0 -0.38980890140E-01  0.56791232279E-01  0.36061669613E+01  0.36192796116E+01  0.30000000000E+00 0.  0.
</event>
<event>
 5   0  0.5137000E+05  0.9118800E+02  0.7818608E-02  0.1180000E+00
       11   -1    0    0    0    0  0.00000000000E+00  0.00000000000E+00  0.39999999673E+01  0.40000000000E+01  0.51109989000E-03 0.  1.
     -623   -1    0    0    0    0  0.00000000000E+00  0.00000000000E+00  0.12525980253E-10  0.17130000000E+03  0.17130000000E+03 0. -1.
       11    1    1    2    0    0  0.92346879339E-02  0.20964600473E-01  0.46874182783E-01  0.52175129776E-01  0.51109989000E-03 0.  1.
     -623    1    1    2    0    0  0.10684690744E-01 -0.24656154273E-01  0.16771167289E-01  0.17130000293E+03  0.17130000000E+03 0. -1.
      622    1    1    2    0    0 -0.19919378678E-01  0.36915537991E-02  0.39363546173E+01  0.39478219416E+01  0.30000000000E+00 0.  1.
</event>
<event>
 5   0  0.5137000E+05  0.9118800E+02  0.7818608E-02  0.1180000E+00
       11   -1    0    0    0    0  0.00000000000E+00  0.00000000000E+00  0.39999999673E+01  0.40000000000E+01  0.51109989000E-03 0. -1.
     -623   -1    0    0    0    0  0.00000000000E+00  0.00000000000E+00  0.12525980253E-10  0.17130000000E+03  0.17130000000E+03 0.  1.
       11    1    1    2    0    0 -0.10301289897E+00 -0.92139207865E-01  0.31320128125E+00  0.34233988195E+00  0.51109989000E-03 0. -1.
     -623    1    1    2    0    0  0.67965649425E-02  0.43773583384E-01  0.43064444487E-01  0.17130001114E+03  0.17130000000E+03 0.  1.
      622    1    1    2    0    0  0.96216334026E-01  0.48365624482E-01  0.36437342416E+01  0.36576489772E+01  0.30000000000E+00 0. -1.
</event>
<event>
 5   0  0.5137000E+05  0.9118800E+02  0.7818608E-02  0.1180000E+00
       11   -1    0    0    0    0  0.00000000000E+00  0.00000000000E+00  0.39999999673E+01  0.40000000000E+01  0.51109989000E-03 0. -1.
     -623   -1    0    0    0    0  0.00000000000E+00  0.00000000000E+00  0.12525980253E-10  0.17130000000E+03  0.17130000000E+03 0. -1.
       11    1    1    2    0    0  0.39536995767E-01 -0.14187161523E-01  0.69198894912E-01  0.80951824355E-01  0.51109989000E-03 0. -1.
     -623    1    1    2    0    0 -0.25914815783E-01 -0.25954524120E-01  0.23487636478E-01  0.17130000554E+03  0.17130000000E+03 0. -1.
      622    1    1    2    0    0 -0.13622179984E-01  0.40141685643E-01  0.39073134360E+01  0.39190426389E+01  0.30000000000E+00 0. -1.
</event>
<event>
 5   0  0.5137000E+05  0.9118800E+02  0.7818608E-02  0.1180000E+00
       11   -1    0    0    0    0  0.00000000000E+00  0.00000000000E+00  0.39999999673E+01  0.40000000000E+01  0.51109989000E-03 0.  1.
     -623   -1    0    0    0    0  0.00000000000E+00  0.00000000000E+00  0.12525980253E-10  0.17130000000E+03  0.17130000000E+03 0.  1.
       11    1    1    2    0    0 -0.70625818978E-02 -0.10453218360E+00  0.62958883676E+00  0.63824699142E+00  0.51109989000E-03 0.  1.
     -623    1    1    2    0    0 -0.64029530463E-02  0.18418322066E-01  0.23208068257E-01  0.17130000268E+03  0.17130000000E+03 0.  1.
      622    1    1    2    0    0  0.13465534944E-01  0.86113861531E-01  0.33472030623E+01  0.33617503266E+01  0.30000000000E+00 0.  1.
</event>
<event>
 5   0  0.5137000E+05  0.9118800E+02  0.7818608E-02  0.1180000E+00
       11   -1    0    0    0    0  0.00000000000E+00  0.00000000000E+00  0.39999999673E+01  0.40000000000E+01  0.51109989000E-03 0. -1.
     -623   -1    0    0    0    0  0.00000000000E+00  0.00000000000E+00  0.12525980253E-10  0.17130000000E+03  0.17130000000E+03 0. -1.
       11    1    1    2    0    0 -0.11970236736E-01 -0.68818901844E-01  0.17532428948E+00  0.18872783452E+00  0.51109989000E-03 0. -1.
     -623    1    1    2    0    0  0.60142434777E-01 -0.32164098119E-01  0.26892402440E-01  0.17130001569E+03  0.17130000000E+03 0. -1.
      622    1    1    2    0    0 -0.48172198041E-01  0.10098299996E+00  0.37977832754E+01  0.38112564771E+01  0.30000000000E+00 0. -1.
</event>
<event>
 5   0  0.5137000E+05  0.9118800E+02  0.7818608E-02  0.1180000E+00
       11   -1    0    0    0    0  0.00000000000E+00  0.00000000000E+00  0.39999999673E+01  0.40000000000E+01  0.51109989000E-03 0.  1.
     -623   -1    0    0    0    0  0.00000000000E+00  0.00000000000E+00  0.12525980253E-10  0.17130000000E+03  0.17130000000E+03 0.  1.
       11    1    1    2    0    0  0.18363788043E-01 -0.35515075087E-02  0.23564294923E-01  0.30089518693E-01  0.51109989000E-03 0.  1.
     -623    1    1    2    0    0 -0.33335708320E-02 -0.18401300334E-01  0.17968063701E-01  0.17130000196E+03  0.17130000000E+03 0.  1.
      622    1    1    2    0    0 -0.15030217211E-01  0.21952807843E-01  0.39584676088E+01  0.39699085182E+01  0.30000000000E+00 0.  1.
</event>
<event>
 5   0  0.5137000E+05  0.9118800E+02  0.7818608E-02  0.1180000E+00
       11   -1    0    0    0    0  0.00000000000E+00  0.00000000000E+00  0.39999999673E+01  0.40000000000E+01  0.51109989000E-03 0.  1.
     -623   -1    0    0    0    0  0.00000000000E+00  0.00000000000E+00  0.12525980253E-10  0.17130000000E+03  0.17130000000E+03 0. -1.
       11    1    1    2    0    0  0.65867491274E-02 -0.34121786117E-01  0.13637743550E-01  0.37335382987E-01  0.51109989000E-03 0.  1.
     -623    1    1    2    0    0 -0.97417109725E-02  0.38386122670E-01  0.35081674808E-01  0.17130000817E+03  0.17130000000E+03 0. -1.
      622    1    1    2    0    0  0.31549618452E-02 -0.42643365534E-02  0.39512805490E+01  0.39626564468E+01  0.30000000000E+00 0.  1.
</event>
<event>
 5   0  0.5137000E+05  0.9118800E+02  0.7818608E-02  0.1180000E+00
       11   -1    0    0    0    0  0.00000000000E+00  0.00000000000E+00  0.39999999673E+01  0.40000000000E+01  0.51109989000E-03 0. -1.
     -623   -1    0    0    0    0  0.00000000000E+00  0.00000000000E+00  0.12525980253E-10  0.17130000000E+03  0.17130000000E+03 0.  1.
       11    1    1    2    0    0  0.17436305832E-01 -0.37867352018E-01  0.53811148999E+00  0.53972418696E+00  0.51109989000E-03 0. -1.
     -623    1    1    2    0    0 -0.19372086802E-01  0.10254534431E-01  0.14755119821E-01  0.17130000204E+03  0.17130000000E+03 0.  1.
      622    1    1    2    0    0  0.19357809703E-02  0.27612817587E-01  0.34471333576E+01  0.34602737753E+01  0.30000000000E+00 0. -1.
</event>
<event>
 5   0  0.5137000E+05  0.9118800E+02  0.7818608E-02  0.1180000E+00
       11   -1    0    0    0    0  0.00000000000E+00  0.00000000000E+00  0.39999999673E+01  0.40000000000E+01  0.51109989000E-03 0. -1.
     -623   -1    0    0    0    0  0.00000000000E+00  0.00000000000E+00  0.12525980253E-10  0.17130000000E+03  0.17130000000E+03 0. -1.
       11    1    1    2    0    0 -0.20413193874E-01  0.36369317865E-01  0.76157487097E+00  0.76271617990E+00  0.51109989000E-03 0. -1.
     -623    1    1    2    0    0  0.11232343797E+00  0.50452545510E-01  0.17597777853E-01  0.17130004516E+03  0.17130000000E+03 0. -1.
      622    1    1    2    0    0 -0.91910244094E-01 -0.86821863376E-01  0.32208273185E+01  0.32372386605E+01  0.30000000000E+00 0. -1.
</event>
<event>
 5   0  0.5137000E+05  0.9118800E+02  0.7818608E-02  0.1180000E+00
       11   -1    0    0    0    0  0.00000000000E+00  0.00000000000E+00  0.39999999673E+01  0.40000000000E+01  0.51109989000E-03 0.  1.
     -623   -1    0    0    0    0  0.00000000000E+00  0.00000000000E+00  0.12525980253E-10  0.17130000000E+03  0.17130000000E+03 0. -1.
       11    1    1    2    0    0  0.37421693574E-01  0.40622565359E-01  0.72404223499E-01  0.91067056447E-01  0.51109989000E-03 0.  1.
     -623    1    1    2    0    0  0.90217647126E-01  0.95442729336E-03  0.32531378616E-01  0.17130002685E+03  0.17130000000E+03 0. -1.
      622    1    1    2    0    0 -0.12763934070E+00 -0.41576992652E-01  0.38950643653E+01  0.39089060947E+01  0.30000000000E+00 0.  1.
</event>
<event>
 5   0  0.5137000E+05  0.9118800E+02  0.7818608E-02  0.1180000E+00
       11   -1    0    0    0    0  0.00000000000E+00  0.00000000000E+00  0.39999999673E+01  0.40000000000E+01  0.51109989000E-03 0. -1.
     -623   -1    0    0    0    0  0.00000000000E+00  0.00000000000E+00  0.12525980253E-10  0.17130000000E+03  0.17130000000E+03 0.  1.
       11    1    1    2    0    0  0.15584120571E-01  0.41989336086E-02  0.19352108769E+00  0.19419363650E+00  0.51109989000E-03 0. -1.
     -623    1    1    2    0    0  0.46867296175E-02 -0.13632332280E-01  0.12581932455E-01  0.17130000107E+03  0.17130000000E+03 0.  1.
      622    1    1    2    0    0 -0.20270850188E-01  0.94333986712E-02  0.37938969472E+01  0.38058052949E+01  0.30000000000E+00 0. -1.
</event>
<event>
 5   0  0.5137000E+05  0.9118800E+02  0.7818608E-02  0.1180000E+00
       11   -1    0    0    0    0  0.00000000000E+00  0.00000000000E+00  0.39999999673E+01  0.40000000000E+01  0.51109989000E-03 0.  1.
     -623   -1    0    0    0    0  0.00000000000E+00  0.00000000000E+00  0.12525980253E-10  0.17130000000E+03  0.17130000000E+03 0.  1.
       11    1    1    2    0    0 -0.19644997942E+00 -0.51390603684E-01  0.11650578476E+01  0.11826215109E+01  0.51109989000E-03 0.  1.
     -623    1    1    2    0    0  0.15364721746E-01  0.70476352394E-01  0.39525487760E-01  0.17130001975E+03  0.17130000000E+03 0.  1.
      622    1    1    2    0    0  0.18108525767E+00 -0.19085748711E-01  0.27954166320E+01  0.28173587423E+01  0.30000000000E+00 0.  1.
</event>
<event>
 5   0  0.5137000E+05  0.9118800E+02  0.7818608E-02  0.1180000E+00
       11   -1    0    0    0    0  0.00000000000E+00  0.00000000000E+00  0.39999999673E+01  0.40000000000E+01  0.51109989000E-03 0.  1.
     -623   -1    0    0    0    0  0.00000000000E+00  0.00000000000E+00  0.12525980253E-10  0.17130000000E+03  0.17130000000E+03 0. -1.
       11    1    1    2    0    0 -0.23019175670E-01 -0.22476955840E-01  0.96486484631E+00  0.96540122688E+00  0.51109989000E-03 0.  1.
     -623    1    1    2    0    0 -0.67467944658E-03  0.33453307203E-01  0.15518632980E-01  0.17130000397E+03  0.17130000000E+03 0. -1.
      622    1    1    2    0    0  0.23693855117E-01 -0.10976351363E-01  0.30196164881E+01  0.30345948023E+01  0.30000000000E+00 0.  1.
</event>
<event>
 5   0  0.5137000E+05  0.9118800E+02  0.7818608E-02  0.1180000E+00
       11   -1    0    0    0    0  0.00000000000E+00  0.00000000000E+00  0.39999999673E+01  0.40000000000E+01  0.51109989000E-03 0.  1.
     -623   -1    0    0    0    0  0.00000000000E+00  0.00000000000E+00  0.12525980253E-10  0.17130000000E+03  0.17130000000E+03 0.  1.
       11    1    1    2    0    0  0.23547722628E-01  0.91360491840E-01  0.11080398998E+01  0.11120494213E+01  0.51109989000E-03 0.  1.
     -623    1    1    2    0    0  0.30674415634E-01  0.29702128058E-01  0.22705300372E-01  0.17130000683E+03  0.17130000000E+03 0.  1.
      622    1    1    2    0    0 -0.54222138262E-01 -0.12106261990E+00  0.28692547672E+01  0.28879437525E+01  0.30000000000E+00 0.  0.
</event>
<event>
 5   0  0.5137000E+05  0.9118800E+02  0.7818608E-02  0.1180000E+00
       11   -1    0    0    0    0  0.00000000000E+00  0.00000000000E+00  0.39999999673E+01  0.40000000000E+01  0.51109989000E-03 0.  1.
     -623   -1    0    0    0    0  0.00000000000E+00  0.00000000000E+00  0.12525980253E-10  0.17130000000E+03  0.17130000000E+03 0.  1.
       11    1    1    2    0    0  0.19152770177E-01  0.42845260335E-01  0.33168800331E+00  0.33499214573E+00  0.51109989000E-03 0.  1.
     -623    1    1    2    0    0 -0.25164692290E-01 -0.39296284352E-02  0.15817916164E-01  0.17130000262E+03  0.17130000000E+03 0.  1.
      622    1    1    2    0    0  0.60119221127E-02 -0.38915631900E-01  0.36524940479E+01  0.36650052305E+01  0.30000000000E+00 0.  1.
</event>
<event>
 5   0  0.5137000E+05  0.9118800E+02  0.7818608E-02  0.1180000E+00
       11   -1    0    0    0    0  0.00000000000E+00  0.00000000000E+00  0.39999999673E+01  0.40000000000E+01  0.51109989000E-03 0.  1.
     -623   -1    0    0    0    0  0.00000000000E+00  0.00000000000E+00  0.12525980253E-10  0.17130000000E+03  0.17130000000E+03 0.  1.
       11    1    1    2    0    0 -0.69708106311E-01  0.15277897826E-01  0.16254833640E+00  0.17752424380E+00  0.51109989000E-03 0.  1.
     -623    1    1    2    0    0 -0.17199949846E-01  0.56718591607E-01  0.28450718297E-01  0.17130001262E+03  0.17130000000E+03 0.  1.
      622    1    1    2    0    0  0.86908056156E-01 -0.71996489434E-01  0.38090009127E+01  0.38224631401E+01  0.30000000000E+00 0.  0.
</event>
<event>
 5   0  0.5137000E+05  0.9118800E+02  0.7818608E-02  0.1180000E+00
       11   -1    0    0    0    0  0.00000000000E+00  0.00000000000E+00  0.39999999673E+01  0.40000000000E+01  0.51109989000E-03 0. -1.
     -623   -1    0    0    0    0  0.00000000000E+00  0.00000000000E+00  0.12525980253E-10  0.17130000000E+03  0.17130000000E+03 0. -1.
       11    1    1    2    0    0 -0.34420529008E-02 -0.57722386446E-03  0.52610587734E-01  0.52728702599E-01  0.51109989000E-03 0. -1.
     -623    1    1    2    0    0  0.25941840454E-01  0.22383121314E-03  0.11601565246E-01  0.17130000236E+03  0.17130000000E+03 0. -1.
      622    1    1    2    0    0 -0.22499787553E-01  0.35339265131E-03  0.39357878144E+01  0.39472689401E+01  0.30000000000E+00 0. -1.
</event>
<event>
 5   0  0.5137000E+05  0.9118800E+02  0.7818608E-02  0.1180000E+00
       11   -1    0    0    0    0  0.00000000000E+00  0.00000000000E+00  0.39999999673E+01  0.40000000000E+01  0.51109989000E-03 0. -1.
     -623   -1    0    0    0    0  0.00000000000E+00  0.00000000000E+00  0.12525980253E-10  0.17130000000E+03  0.17130000000E+03 0.  1.
       11    1    1    2    0    0 -0.30763306318E-01 -0.52605273372E-01  0.10968504389E+00  0.12547814900E+00  0.51109989000E-03 0. -1.
     -623    1    1    2    0    0  0.81614342550E-01  0.71920725185E-01  0.27844798025E-01  0.17130003680E+03  0.17130000000E+03 0.  1.
      622    1    1    2    0    0 -0.50851036232E-01 -0.19315451813E-01  0.38624701254E+01  0.38744850477E+01  0.30000000000E+00 0. -1.
</event>
<event>
 5   0  0.5137000E+05  0.9118800E+02  0.7818608E-02  0.1180000E+00
       11   -1    0    0    0    0  0.00000000000E+00  0.00000000000E+00  0.39999999673E+01  0.40000000000E+01  0.51109989000E-03 0.  1.
     -623   -1    0    0    0    0  0.00000000000E+00  0.00000000000E+00  0.12525980253E-10  0.17130000000E+03  0.17130000000E+03 0.  1.
       11    1    1    2    0    0 -0.59470413603E-01 -0.10701548267E-01  0.86172709202E-01  0.10524851667E+00  0.51109989000E-03 0.  1.
     -623    1    1    2    0    0  0.38601216168E-01  0.41744882864E-01  0.30839390379E-01  0.17130001221E+03  0.17130000000E+03 0.  1.
      622    1    1    2    0    0  0.20869197435E-01 -0.31043334597E-01  0.38829878678E+01  0.38947392715E+01  0.30000000000E+00 0.  1.
</event>
<event>
 5   0  0.5137000E+05  0.9118800E+02  0.7818608E-02  0.1180000E+00
       11   -1    0    0    0    0  0.00000000000E+00  0.00000000000E+00  0.39999999673E+01  0.40000000000E+01  0.51109989000E-03 0.  1.
     -623   -1    0    0    0    0  0.00000000000E+00  0.00000000000E+00  0.12525980253E-10  0.17130000000E+03  0.17130000000E+03 0.  1.
       11    1    1    2    0    0 -0.21725744897E-01 -0.14252789449E-01  0.13812536311E-01  0.29431231385E-01  0.51109989000E-03 0.  1.
     -623    1    1    2    0    0  0.17806475990E-01  0.33952278689E-01  0.27025661563E-01  0.17130000642E+03  0.17130000000E+03 0.  1.
      622    1    1    2    0    0  0.39192689074E-02 -0.19699489240E-01  0.39591617695E+01  0.39705623465E+01  0.30000000000E+00 0.  1.
</event>
<event>
 5   0  0.5137000E+05  0.9118800E+02  0.7818608E-02  0.1180000E+00
       11   -1    0    0    0    0  0.00000000000E+00  0.00000000000E+00  0.39999999673E+01  0.40000000000E+01  0.51109989000E-03 0.  1.
     -623   -1    0    0    0    0  0.00000000000E+00  0.00000000000E+00  0.12525980253E-10  0.17130000000E+03  0.17130000000E+03 0.  1.
       11    1    1    2    0    0  0.69752515556E-01  0.36254280023E-03  0.22662082735E+00  0.23711348648E+00  0.51109989000E-03 0.  1.
     -623    1    1    2    0    0 -0.32726152342E-01 -0.45051761287E-01  0.22930210242E-01  0.17130001059E+03  0.17130000000E+03 0.  1.
      622    1    1    2    0    0 -0.37026363214E-01  0.44689218487E-01  0.37504489298E+01  0.37628759284E+01  0.30000000000E+00 0.  1.
</event>
<event>
 5   0  0.5137000E+05  0.9118800E+02  0.7818608E-02  0.1180000E+00
       11   -1    0    0    0    0  0.00000000000E+00  0.00000000000E+00  0.39999999673E+01  0.40000000000E+01  0.51109989000E-03 0. -1.
     -623   -1    0    0    0    0  0.00000000000E+00  0.00000000000E+00  0.12525980253E-10  0.17130000000E+03  0.17130000000E+03 0. -1.
       11    1    1    2    0    0  0.48981912780E-01 -0.17573302368E-01  0.35687673153E+00  0.36065123245E+00  0.51109989000E-03 0. -1.
     -623    1    1    2    0    0 -0.15837374546E-01  0.50170735584E-02  0.16335166490E-01  0.17130000158E+03  0.17130000000E+03 0. -1.
      622    1    1    2    0    0 -0.33144538234E-01  0.12556228810E-01  0.36267880693E+01  0.36393471831E+01  0.30000000000E+00 0. -1.
</event>
<event>
 5   0  0.5137000E+05  0.9118800E+02  0.7818608E-02  0.1180000E+00
       11   -1    0    0    0    0  0.00000000000E+00  0.00000000000E+00  0.39999999673E+01  0.40000000000E+01  0.51109989000E-03 0. -1.
     -623   -1    0    0    0    0  0.00000000000E+00  0.00000000000E+00  0.12525980253E-10  0.17130000000E+03  0.17130000000E+03 0.  1.
       11    1    1    2    0    0 -0.74794401240E-03  0.27515821955E-01 -0.34255359629E-02  0.27743024310E-01  0.51109989000E-03 0. -1.
     -623    1    1    2    0    0  0.30139447923E-01  0.28227414869E-01  0.43025038118E-01  0.17130001038E+03  0.17130000000E+03 0.  1.
      622    1    1    2    0    0 -0.29391503911E-01 -0.55743236824E-01  0.39604004652E+01  0.39722465953E+01  0.30000000000E+00 0. -1.
</event>
<event>
 5   0  0.5137000E+05  0.9118800E+02  0.7818608E-02  0.1180000E+00
       11   -1    0    0    0    0  0.00000000000E+00  0.00000000000E+00  0.39999999673E+01  0.40000000000E+01  0.51109989000E-03 0. -1.
     -623   -1    0    0    0    0  0.00000000000E+00  0.00000000000E+00  0.12525980253E-10  0.17130000000E+03  0.17130000000E+03 0.  1.
       11    1    1    2    0    0  0.44358930949E-01 -0.23958386557E-01  0.20389154756E+00  0.21003271990E+00  0.51109989000E-03 0. -1.
     -623    1    1    2    0    0 -0.41275249543E-01 -0.15312942557E-01  0.18245268210E-01  0.17130000663E+03  0.17130000000E+03 0.  1.
      622    1    1    2    0    0 -0.30836814055E-02  0.39271329113E-01  0.37778631516E+01  0.37899606513E+01  0.30000000000E+00 0. -1.
</event>
<event>
 5   0  0.5137000E+05  0.9118800E+02  0.7818608E-02  0.1180000E+00
       11   -1    0    0    0    0  0.00000000000E+00  0.00000000000E+00  0.39999999673E+01  0.40000000000E+01  0.51109989000E-03 0.  1.
     -623   -1    0    0    0    0  0.00000000000E+00  0.00000000000E+00  0.12525980253E-10  0.17130000000E+03  0.17130000000E+03 0. -1.
       11    1    1    2    0    0  0.87697929337E-02 -0.22233833928E-01  0.20690099092E-01  0.31616357499E-01  0.51109989000E-03 0.  1.
     -623    1    1    2    0    0 -0.28507584164E-01  0.22384271434E-01  0.22336638841E-01  0.17130000529E+03  0.17130000000E+03 0. -1.
      622    1    1    2    0    0  0.19737791230E-01 -0.15043750534E-03  0.39569732294E+01  0.39683783516E+01  0.30000000000E+00 0.  1.
</event>
<event>
 5   0  0.5137000E+05  0.9118800E+02  0.7818608E-02  0.1180000E+00
       11   -1    0    0    0    0  0.00000000000E+00  0.00000000000E+00  0.39999999673E+01  0.40000000000E+01  0.51109989000E-03 0. -1.
     -623   -1    0    0    0    0  0.00000000000E+00  0.00000000000E+00  0.12525980253E-10  0.17130000000E+03  0.17130000000E+03 0. -1.
       11    1    1    2    0    0 -0.17690062532E-02  0.21955666094E-01  0.14534682007E-01  0.26395053721E-01  0.51109989000E-03 0. -1.
     -623    1    1    2    0    0 -0.98364620843E-02  0.12889736848E-01  0.23373841632E-01  0.17130000236E+03  0.17130000000E+03 0. -1.
      622    1    1    2    0    0  0.11605468337E-01 -0.34845402942E-01  0.39620914437E+01  0.39736025842E+01  0.30000000000E+00 0. -1.
</event>
<event>
 5   0  0.5137000E+05  0.9118800E+02  0.7818608E-02  0.1180000E+00
       11   -1    0    0    0    0  0.00000000000E+00  0.00000000000E+00  0.39999999673E+01  0.40000000000E+01  0.51109989000E-03 0.  1.
     -623   -1    0    0    0    0  0.00000000000E+00  0.00000000000E+00  0.12525980253E-10  0.17130000000E+03  0.17130000000E+03 0. -1.
       11    1    1    2    0    0  0.17132206459E-01 -0.21242760418E-02  0.13653803501E-01  0.22016189952E-01  0.51109989000E-03 0.  1.
     -623    1    1    2    0    0  0.11317478483E-01  0.31616136490E-01  0.19906872884E-01  0.17130000445E+03  0.17130000000E+03 0. -1.
      622    1    1    2    0    0 -0.28449684942E-01 -0.29491860448E-01  0.39664392910E+01  0.39779793619E+01  0.30000000000E+00 0.  1.
</event>
<event>
 5   0  0.5137000E+05  0.9118800E+02  0.7818608E-02  0.1180000E+00
       11   -1    0    0    0    0  0.00000000000E+00  0.00000000000E+00  0.39999999673E+01  0.40000000000E+01  0.51109989000E-03 0.  1.
     -623   -1    0    0    0    0  0.00000000000E+00  0.00000000000E+00  0.12525980253E-10  0.17130000000E+03  0.17130000000E+03 0.  1.
       11    1    1    2    0    0  0.12123121783E-03  0.51755883487E-01  0.21345527903E+00  0.21964085125E+00  0.51109989000E-03 0.  1.
     -623    1    1    2    0    0 -0.20891800978E-01 -0.25790395073E-01  0.18258870893E-01  0.17130000419E+03  0.17130000000E+03 0.  1.
      622    1    1    2    0    0  0.20770569760E-01 -0.25965488414E-01  0.37682858174E+01  0.37803549602E+01  0.30000000000E+00 0.  1.
</event>
<event>
 5   0  0.5137000E+05  0.9118800E+02  0.7818608E-02  0.1180000E+00
       11   -1    0    0    0    0  0.00000000000E+00  0.00000000000E+00  0.39999999673E+01  0.40000000000E+01  0.51109989000E-03 0. -1.
     -623   -1    0    0    0    0  0.00000000000E+00  0.00000000000E+00  0.12525980253E-10  0.17130000000E+03  0.17130000000E+03 0.  1.
       11    1    1    2    0    0  0.45919956430E-01 -0.10786118097E-01  0.47520499708E-01  0.66958508467E-01  0.51109989000E-03 0. -1.
     -623    1    1    2    0    0 -0.20908319879E-01 -0.17498481318E-01  0.31082965966E-01  0.17130000499E+03  0.17130000000E+03 0.  1.
      622    1    1    2    0    0 -0.25011636551E-01  0.28284599415E-01  0.39213965017E+01  0.39330365017E+01  0.30000000000E+00 0. -1.
</event>
<event>
 5   0  0.5137000E+05  0.9118800E+02  0.7818608E-02  0.1180000E+00
       11   -1    0    0    0    0  0.00000000000E+00  0.00000000000E+00  0.39999999673E+01  0.40000000000E+01  0.51109989000E-03 0. -1.
     -623   -1    0    0    0    0  0.00000000000E+00  0.00000000000E+00  0.12525980253E-10  0.17130000000E+03  0.17130000000E+03 0. -1.
       11    1    1    2    0    0 -0.16441816525E-02 -0.19553703337E-01  0.89258496166E-01  0.91391416492E-01  0.51109989000E-03 0. -1.
     -623    1    1    2    0    0  0.64092579282E-02  0.20525142720E-01  0.13667877190E-01  0.17130000189E+03  0.17130000000E+03 0. -1.
      622    1    1    2    0    0 -0.47650762758E-02 -0.97143938352E-03  0.38970735940E+01  0.39086066887E+01  0.30000000000E+00 0. -1.
</event>
<event>
 5   0  0.5137000E+05  0.9118800E+02  0.7818608E-02  0.1180000E+00
       11   -1    0    0    0    0  0.00000000000E+00  0.00000000000E+00  0.39999999673E+01  0.40000000000E+01  0.51109989000E-03 0. -1.
     -623   -1    0    0    0    0  0.00000000000E+00  0.00000000000E+00  0.12525980253E-10  0.17130000000E+03  0.17130000000E+03 0.  1.
       11    1    1    2    0    0  0.68438208742E-01  0.42964039887E-01  0.50368621045E+00  0.51012719685E+00  0.51109989000E-03 0. -1.
     -623    1    1    2    0    0  0.23427072108E-01 -0.19928651938E-01  0.20653479982E-01  0.17130000401E+03  0.17130000000E+03 0.  1.
      622    1    1    2    0    0 -0.91865280850E-01 -0.23035387949E-01  0.34756602769E+01  0.34898687969E+01  0.30000000000E+00 0. -1.
</event>
<event>
 5   0  0.5137000E+05  0.9118800E+02  0.7818608E-02  0.1180000E+00
       11   -1    0    0    0    0  0.00000000000E+00  0.00000000000E+00  0.39999999673E+01  0.40000000000E+01  0.51109989000E-03 0. -1.
     -623   -1    0    0    0    0  0.00000000000E+00  0.00000000000E+00  0.12525980253E-10  0.17130000000E+03  0.17130000000E+03 0.  1.
       11    1    1    2    0    0  0.26962758313E-01 -0.13011204042E-01  0.97553751359E-01  0.10204546728E+00  0.51109989000E-03 0. -1.
     -623    1    1    2    0    0 -0.24687191132E-01 -0.49667778490E-02  0.16098209651E-01  0.17130000261E+03  0.17130000000E+03 0.  1.
      622    1    1    2    0    0 -0.22755671816E-02  0.17977981891E-01  0.38863480064E+01  0.38979519254E+01  0.30000000000E+00 0. -1.
</event>
<event>
 5   0  0.5137000E+05  0.9118800E+02  0.7818608E-02  0.1180000E+00
       11   -1    0    0    0    0  0.00000000000E+00  0.00000000000E+00  0.39999999673E+01  0.40000000000E+01  0.51109989000E-03 0.  1.
     -623   -1    0    0    0    0  0.00000000000E+00  0.00000000000E+00  0.12525980253E-10  0.17130000000E+03  0.17130000000E+03 0. -1.
       11    1    1    2    0    0  0.10423471626E-01 -0.11685746490E-01  0.14554852041E-01  0.21384816366E-01  0.51109989000E-03 0.  1.
     -623    1    1    2    0    0 -0.20419098091E-01  0.11736430848E-01  0.18171705058E-01  0.17130000258E+03  0.17130000000E+03 0. -1.
      622    1    1    2    0    0  0.99956264652E-02 -0.50684358568E-04  0.39672734103E+01  0.39786126008E+01  0.30000000000E+00 0.  1.
</event>
<event>
 5   0  0.5137000E+05  0.9118800E+02  0.7818608E-02  0.1180000E+00
       11   -1    0    0    0    0  0.00000000000E+00  0.00000000000E+00  0.39999999673E+01  0.40000000000E+01  0.51109989000E-03 0. -1.
     -623   -1    0    0    0    0  0.00000000000E+00  0.00000000000E+00  0.12525980253E-10  0.17130000000E+03  0.17130000000E+03 0.  1.
       11    1    1    2    0    0  0.18852020746E-01  0.11731721381E-01  0.98287032887E-01  0.10076524217E+00  0.51109989000E-03 0. -1.
     -623    1    1    2    0    0  0.14249411486E-01  0.44093824280E-02  0.14211706848E-01  0.17130000124E+03  0.17130000000E+03 0.  1.
      622    1    1    2    0    0 -0.33101432231E-01 -0.16141103809E-01  0.38875012276E+01  0.38992335189E+01  0.30000000000E+00 0. -1.
</event>
<event>
 5   0  0.5137000E+05  0.9118800E+02  0.7818608E-02  0.1180000E+00
       11   -1    0    0    0    0  0.00000000000E+00  0.00000000000E+00  0.39999999673E+01  0.40000000000E+01  0.51109989000E-03 0. -1.
     -623   -1    0    0    0    0  0.00000000000E+00  0.00000000000E+00  0.12525980253E-10  0.17130000000E+03  0.17130000000E+03 0. -1.
       11    1    1    2    0    0  0.10118290025E-01  0.10640056488E-02  0.18301885230E+00  0.18330213698E+00  0.51109989000E-03 0. -1.
     -623    1    1    2    0    0  0.16743842615E-01 -0.37783326917E-02  0.12188905099E-01  0.17130000129E+03  0.17130000000E+03 0. -1.
      622    1    1    2    0    0 -0.26862132640E-01  0.27143270429E-02  0.38047922100E+01  0.38166965694E+01  0.30000000000E+00 0. -1.
</event>
<event>
 5   0  0.5137000E+05  0.9118800E+02  0.7818608E-02  0.1180000E+00
       11   -1    0    0    0    0  0.00000000000E+00  0.00000000000E+00  0.39999999673E+01  0.40000000000E+01  0.51109989000E-03 0. -1.
     -623   -1    0    0    0    0  0.00000000000E+00  0.00000000000E+00  0.12525980253E-10  0.17130000000E+03  0.17130000000E+03 0.  1.
       11    1    1    2    0    0  0.27568605503E-01 -0.41298085614E-01  0.18251997727E+00  0.18915433701E+00  0.51109989000E-03 0. -1.
     -623    1    1    2    0    0 -0.17462463320E-01  0.30240166514E-01  0.18495189138E-01  0.17130000456E+03  0.17130000000E+03 0.  1.
      622    1    1    2    0    0 -0.10106142182E-01  0.11057919100E-01  0.37989848009E+01  0.38108411053E+01  0.30000000000E+00 0. -1.
</event>
<event>
 5   0  0.5137000E+05  0.9118800E+02  0.7818608E-02  0.1180000E+00
       11   -1    0    0    0    0  0.00000000000E+00  0.00000000000E+00  0.39999999673E+01  0.40000000000E+01  0.51109989000E-03 0. -1.
     -623   -1    0    0    0    0  0.00000000000E+00  0.00000000000E+00  0.12525980253E-10  0.17130000000E+03  0.17130000000E+03 0.  1.
       11    1    1    2    0    0 -0.25396769665E-01  0.27107750020E-03  0.98033930786E-01  0.10127182332E+00  0.51109989000E-03 0. -1.
     -623    1    1    2    0    0  0.45503760025E-01 -0.32368386253E-01  0.14991534371E-01  0.17130000976E+03  0.17130000000E+03 0.  1.
      622    1    1    2    0    0 -0.20106990360E-01  0.32097308752E-01  0.38869745022E+01  0.38987184188E+01  0.30000000000E+00 0. -1.
</event>
<event>
 5   0  0.5137000E+05  0.9118800E+02  0.7818608E-02  0.1180000E+00
       11   -1    0    0    0    0  0.00000000000E+00  0.00000000000E+00  0.39999999673E+01  0.40000000000E+01  0.51109989000E-03 0. -1.
     -623   -1    0    0    0    0  0.00000000000E+00  0.00000000000E+00  0.12525980253E-10  0.17130000000E+03  0.17130000000E+03 0.  1.
       11    1    1    2    0    0  0.22163134058E-01  0.19034407043E-01  0.72543872876E+00  0.72602694410E+00  0.51109989000E-03 0. -1.
     -623    1    1    2    0    0 -0.14499236457E-01 -0.34556357963E-01  0.14412608047E-01  0.17130000471E+03  0.17130000000E+03 0.  1.
      622    1    1    2    0    0 -0.76638976013E-02  0.15521950920E-01  0.32601486305E+01  0.32739683504E+01  0.30000000000E+00 0. -1.
</event>
<event>
 5   0  0.5137000E+05  0.9118800E+02  0.7818608E-02  0.1180000E+00
       11   -1    0    0    0    0  0.00000000000E+00  0.00000000000E+00  0.39999999673E+01  0.40000000000E+01  0.51109989000E-03 0.  1.
     -623   -1    0    0    0    0  0.00000000000E+00  0.00000000000E+00  0.12525980253E-10  0.17130000000E+03  0.17130000000E+03 0. -1.
       11    1    1    2    0    0 -0.39564225974E-01 -0.23758531369E-01  0.13467643101E+00  0.14236501706E+00  0.51109989000E-03 0.  1.
     -623    1    1    2    0    0  0.38542066586E-01 -0.19758214605E-01  0.19624381111E-01  0.17130000660E+03  0.17130000000E+03 0. -1.
      622    1    1    2    0    0  0.10221593885E-02  0.43516745974E-01  0.38456991552E+01  0.38576283834E+01  0.30000000000E+00 0.  1.
</event>
<event>
 5   0  0.5137000E+05  0.9118800E+02  0.7818608E-02  0.1180000E+00
       11   -1    0    0    0    0  0.00000000000E+00  0.00000000000E+00  0.39999999673E+01  0.40000000000E+01  0.51109989000E-03 0. -1.
     -623   -1    0    0    0    0  0.00000000000E+00  0.00000000000E+00  0.12525980253E-10  0.17130000000E+03  0.17130000000E+03 0.  1.
       11    1    1    2    0    0 -0.17354299830E-01 -0.17298595182E-01  0.10948417617E+00  0.11219384640E+00  0.51109989000E-03 0. -1.
     -623    1    1    2    0    0  0.80088332425E-03  0.13916968333E-01  0.14339561990E-01  0.17130000117E+03  0.17130000000E+03 0.  1.
      622    1    1    2    0    0  0.16553416506E-01  0.33816268496E-02  0.38761762292E+01  0.38878049862E+01  0.30000000000E+00 0. -1.
</event>
<event>
 5   0  0.5137000E+05  0.9118800E+02  0.7818608E-02  0.1180000E+00
       11   -1    0    0    0    0  0.00000000000E+00  0.00000000000E+00  0.39999999673E+01  0.40000000000E+01  0.51109989000E-03 0. -1.
     -623   -1    0    0    0    0  0.00000000000E+00  0.00000000000E+00  0.12525980253E-10  0.17130000000E+03  0.17130000000E+03 0.  1.
       11    1    1    2    0    0 -0.26474592154E-01  0.27834331432E-02  0.72255354956E-01  0.77004863941E-01  0.51109989000E-03 0. -1.
     -623    1    1    2    0    0  0.11932486395E-01 -0.17754229991E-01  0.16294922134E-01  0.17130000211E+03  0.17130000000E+03 0.  1.
      622    1    1    2    0    0  0.14542105759E-01  0.14970796848E-01  0.39114496903E+01  0.39229930254E+01  0.30000000000E+00 0. -1.
</event>
<event>
 5   0  0.5137000E+05  0.9118800E+02  0.7818608E-02  0.1180000E+00
       11   -1    0    0    0    0  0.00000000000E+00  0.00000000000E+00  0.39999999673E+01  0.40000000000E+01  0.51109989000E-03 0.  1.
     -623   -1    0    0    0    0  0.00000000000E+00  0.00000000000E+00  0.12525980253E-10  0.17130000000E+03  0.17130000000E+03 0.  1.
       11    1    1    2    0    0  0.29915425139E-01  0.84030376252E-02  0.11140858465E+00  0.11566191100E+00  0.51109989000E-03 0.  1.
     -623    1    1    2    0    0  0.76388268103E-02 -0.19820450791E-01  0.16056601320E-01  0.17130000207E+03  0.17130000000E+03 0.  1.
      622    1    1    2    0    0 -0.37554251949E-01  0.11417413166E-01  0.38725347814E+01  0.38843360195E+01  0.30000000000E+00 0.  1.
</event>
<event>
 5   0  0.5137000E+05  0.9118800E+02  0.7818608E-02  0.1180000E+00
       11   -1    0    0    0    0  0.00000000000E+00  0.00000000000E+00  0.39999999673E+01  0.40000000000E+01  0.51109989000E-03 0. -1.
     -623   -1    0    0    0    0  0.00000000000E+00  0.00000000000E+00  0.12525980253E-10  0.17130000000E+03  0.17130000000E+03 0. -1.
       11    1    1    2    0    0 -0.18011424676E-01 -0.41764186347E-01  0.25789189102E+00  0.26187238754E+00  0.51109989000E-03 0. -1.
     -623    1    1    2    0    0  0.34000816388E-01 -0.44034930096E-01  0.17070224585E-01  0.17130000988E+03  0.17130000000E+03 0. -1.
      622    1    1    2    0    0 -0.15989391712E-01  0.85799116444E-01  0.37250378517E+01  0.37381177277E+01  0.30000000000E+00 0.  0.
</event>
<event>
 5   0  0.5137000E+05  0.9118800E+02  0.7818608E-02  0.1180000E+00
       11   -1    0    0    0    0  0.00000000000E+00  0.00000000000E+00  0.39999999673E+01  0.40000000000E+01  0.51109989000E-03 0.  1.
     -623   -1    0    0    0    0  0.00000000000E+00  0.00000000000E+00  0.12525980253E-10  0.17130000000E+03  0.17130000000E+03 0. -1.
       11    1    1    2    0    0  0.47234291744E-03 -0.12272149257E-02 -0.99501339929E-03  0.17263948181E-02  0.51109989000E-03 0. -1.
     -623    1    1    2    0    0 -0.15224682315E-01  0.85082634948E-02  0.14027526154E-01  0.17130000146E+03  0.17130000000E+03 0. -1.
      622    1    1    2    0    0  0.14752339398E-01 -0.72810485692E-02  0.39869674546E+01  0.39982721430E+01  0.30000000000E+00 0.  1.
</event>
<event>
 5   0  0.5137000E+05  0.9118800E+02  0.7818608E-02  0.1180000E+00
       11   -1    0    0    0    0  0.00000000000E+00  0.00000000000E+00  0.39999999673E+01  0.40000000000E+01  0.51109989000E-03 0.  1.
     -623   -1    0    0    0    0  0.00000000000E+00  0.00000000000E+00  0.12525980253E-10  0.17130000000E+03  0.17130000000E+03 0. -1.
       11    1    1    2    0    0  0.52608093456E-01 -0.80397807736E-01  0.16403178224E+00  0.19010025195E+00  0.51109989000E-03 0.  1.
     -623    1    1    2    0    0  0.33840687480E-01 -0.22104161915E-01  0.40275411718E-01  0.17130000950E+03  0.17130000000E+03 0. -1.
      622    1    1    2    0    0 -0.86448780936E-01  0.10250196965E+00  0.37956927734E+01  0.38098902446E+01  0.30000000000E+00 0.  0.
</event>
<event>
 5   0  0.5137000E+05  0.9118800E+02  0.7818608E-02  0.1180000E+00
       11   -1    0    0    0    0  0.00000000000E+00  0.00000000000E+00  0.39999999673E+01  0.40000000000E+01  0.51109989000E-03 0. -1.
     -623   -1    0    0    0    0  0.00000000000E+00  0.00000000000E+00  0.12525980253E-10  0.17130000000E+03  0.17130000000E+03 0. -1.
       11    1    1    2    0    0 -0.89565748767E-02 -0.30174532815E-01  0.12052062606E+00  0.12456406060E+00  0.51109989000E-03 0. -1.
     -623    1    1    2    0    0  0.99771276365E-02  0.36007494201E-01  0.15681791305E-01  0.17130000479E+03  0.17130000000E+03 0. -1.
      622    1    1    2    0    0 -0.10205527598E-02 -0.58329613858E-02  0.38637975500E+01  0.38754311467E+01  0.30000000000E+00 0. -1.
</event>
<event>
 5   0  0.5137000E+05  0.9118800E+02  0.7818608E-02  0.1180000E+00
       11   -1    0    0    0    0  0.00000000000E+00  0.00000000000E+00  0.39999999673E+01  0.40000000000E+01  0.51109989000E-03 0.  1.
     -623   -1    0    0    0    0  0.00000000000E+00  0.00000000000E+00  0.12525980253E-10  0.17130000000E+03  0.17130000000E+03 0.  1.
       11    1    1    2    0    0  0.42604318346E-02  0.49418703786E-02 -0.68504770356E-02  0.94743665207E-02  0.51109989000E-03 0.  1.
     -623    1    1    2    0    0 -0.13734170214E-01  0.13587899327E-01  0.27675254785E-01  0.17130000333E+03  0.17130000000E+03 0.  1.
      622    1    1    2    0    0  0.94737383797E-02 -0.18529769705E-01  0.39791751896E+01  0.39905223084E+01  0.30000000000E+00 0.  1.
</event>
<event>
 5   0  0.5137000E+05  0.9118800E+02  0.7818608E-02  0.1180000E+00
       11   -1    0    0    0    0  0.00000000000E+00  0.00000000000E+00  0.39999999673E+01  0.40000000000E+01  0.51109989000E-03 0.  1.
     -623   -1    0    0    0    0  0.00000000000E+00  0.00000000000E+00  0.12525980253E-10  0.17130000000E+03  0.17130000000E+03 0.  1.
       11    1    1    2    0    0  0.40456012043E-03 -0.21118334017E-01  0.51722825727E-01  0.55871814203E-01  0.51109989000E-03 0.  1.
     -623    1    1    2    0    0  0.70776677058E-02  0.67917275762E-02  0.15609079700E-01  0.17130000099E+03  0.17130000000E+03 0.  1.
      622    1    1    2    0    0 -0.74822278262E-02  0.14326606441E-01  0.39326680619E+01  0.39441271938E+01  0.30000000000E+00 0.  1.
</event>
<event>
 5   0  0.5137000E+05  0.9118800E+02  0.7818608E-02  0.1180000E+00
       11   -1    0    0    0    0  0.00000000000E+00  0.00000000000E+00  0.39999999673E+01  0.40000000000E+01  0.51109989000E-03 0. -1.
     -623   -1    0    0    0    0  0.00000000000E+00  0.00000000000E+00  0.12525980253E-10  0.17130000000E+03  0.17130000000E+03 0. -1.
       11    1    1    2    0    0  0.29410607566E-01 -0.64168528309E-01  0.70941334108E+00  0.71291663860E+00  0.51109989000E-03 0. -1.
     -623    1    1    2    0    0  0.18854292867E-01  0.22869930825E-01  0.17841756340E-01  0.17130000349E+03  0.17130000000E+03 0. -1.
      622    1    1    2    0    0 -0.48264900433E-01  0.41298597484E-01  0.32727448699E+01  0.32870798680E+01  0.30000000000E+00 0. -1.
</event>
<event>
 5   0  0.5137000E+05  0.9118800E+02  0.7818608E-02  0.1180000E+00
       11   -1    0    0    0    0  0.00000000000E+00  0.00000000000E+00  0.39999999673E+01  0.40000000000E+01  0.51109989000E-03 0. -1.
     -623   -1    0    0    0    0  0.00000000000E+00  0.00000000000E+00  0.12525980253E-10  0.17130000000E+03  0.17130000000E+03 0. -1.
       11    1    1    2    0    0 -0.44310208591E-02  0.33687743274E-01  0.62670314180E-01  0.71290444614E-01  0.51109989000E-03 0. -1.
     -623    1    1    2    0    0 -0.15760215755E-01 -0.24760256645E-01  0.20156908843E-01  0.17130000370E+03  0.17130000000E+03 0. -1.
      622    1    1    2    0    0  0.20191236614E-01 -0.89274866290E-02  0.39171727443E+01  0.39287058550E+01  0.30000000000E+00 0. -1.
</event>
<event>
 5   0  0.5137000E+05  0.9118800E+02  0.7818608E-02  0.1180000E+00
       11   -1    0    0    0    0  0.00000000000E+00  0.00000000000E+00  0.39999999673E+01  0.40000000000E+01  0.51109989000E-03 0. -1.
     -623   -1    0    0    0    0  0.00000000000E+00  0.00000000000E+00  0.12525980253E-10  0.17130000000E+03  0.17130000000E+03 0. -1.
       11    1    1    2    0    0 -0.58320813199E-03  0.43760174169E-03 -0.18114575975E-01  0.18136447085E-01  0.51109989000E-03 0. -1.
     -623    1    1    2    0    0  0.51439483543E-01 -0.21046584616E-01  0.47963288582E-01  0.17130001573E+03  0.17130000000E+03 0. -1.
      622    1    1    2    0    0 -0.50856275411E-01  0.20608982874E-01  0.39701512548E+01  0.39818478219E+01  0.30000000000E+00 0. -1.
</event>
<event>
 5   0  0.5137000E+05  0.9118800E+02  0.7818608E-02  0.1180000E+00
       11   -1    0    0    0    0  0.00000000000E+00  0.00000000000E+00  0.39999999673E+01  0.40000000000E+01  0.51109989000E-03 0. -1.
     -623   -1    0    0    0    0  0.00000000000E+00  0.00000000000E+00  0.12525980253E-10  0.17130000000E+03  0.17130000000E+03 0.  1.
       11    1    1    2    0    0  0.41339945049E-01 -0.11266845403E+00  0.60810996696E+00  0.61983962823E+00  0.51109989000E-03 0. -1.
     -623    1    1    2    0    0 -0.32012546562E-01  0.56249014085E-01  0.25568799000E-01  0.17130001413E+03  0.17130000000E+03 0.  1.
      622    1    1    2    0    0 -0.93273984872E-02  0.56419439941E-01  0.33663212014E+01  0.33801462372E+01  0.30000000000E+00 0.  0.
</event>
<event>
 5   0  0.5137000E+05  0.9118800E+02  0.7818608E-02  0.1180000E+00
       11   -1    0    0    0    0  0.00000000000E+00  0.00000000000E+00  0.39999999673E+01  0.40000000000E+01  0.51109989000E-03 0.  1.
     -623   -1    0    0    0    0  0.00000000000E+00  0.00000000000E+00  0.12525980253E-10  0.17130000000E+03  0.17130000000E+03 0.  1.
       11    1    1    2    0    0  0.16081300833E-02  0.58164627119E-01  0.11151929604E+01  0.11167100385E+01  0.51109989000E-03 0.  1.
     -623    1    1    2    0    0  0.48325914711E-01 -0.29797707992E-01  0.17752184855E-01  0.17130001033E+03  0.17130000000E+03 0.  1.
      622    1    1    2    0    0 -0.49934044794E-01 -0.28366919127E-01  0.28670548221E+01  0.28832796333E+01  0.30000000000E+00 0. -1.
</event>
<event>
 5   0  0.5137000E+05  0.9118800E+02  0.7818608E-02  0.1180000E+00
       11   -1    0    0    0    0  0.00000000000E+00  0.00000000000E+00  0.39999999673E+01  0.40000000000E+01  0.51109989000E-03 0.  1.
     -623   -1    0    0    0    0  0.00000000000E+00  0.00000000000E+00  0.12525980253E-10  0.17130000000E+03  0.17130000000E+03 0.  1.
       11    1    1    2    0    0  0.53499234954E-01  0.22753196842E-01  0.43277074411E+00  0.43665850992E+00  0.51109989000E-03 0.  1.
     -623    1    1    2    0    0 -0.94248449851E-03 -0.32941151979E-01  0.16946417087E-01  0.17130000401E+03  0.17130000000E+03 0.  1.
      622    1    1    2    0    0 -0.52556750455E-01  0.10187955137E-01  0.35502828062E+01  0.35633374819E+01  0.30000000000E+00 0.  1.
</event>
<event>
 5   0  0.5137000E+05  0.9118800E+02  0.7818608E-02  0.1180000E+00
       11   -1    0    0    0    0  0.00000000000E+00  0.00000000000E+00  0.39999999673E+01  0.40000000000E+01  0.51109989000E-03 0.  1.
     -623   -1    0    0    0    0  0.00000000000E+00  0.00000000000E+00  0.12525980253E-10  0.17130000000E+03  0.17130000000E+03 0.  1.
       11    1    1    2    0    0  0.34456222131E-01  0.20748550645E-01  0.32750123518E+00  0.32996220066E+00  0.51109989000E-03 0.  1.
     -623    1    1    2    0    0  0.43624969799E-02 -0.70326255185E-01  0.15300183781E-01  0.17130001517E+03  0.17130000000E+03 0.  1.
      622    1    1    2    0    0 -0.38818719110E-01  0.49577704540E-01  0.36571985484E+01  0.36700226245E+01  0.30000000000E+00 0.  1.
</event>
<event>
 5   0  0.5137000E+05  0.9118800E+02  0.7818608E-02  0.1180000E+00
       11   -1    0    0    0    0  0.00000000000E+00  0.00000000000E+00  0.39999999673E+01  0.40000000000E+01  0.51109989000E-03 0.  1.
     -623   -1    0    0    0    0  0.00000000000E+00  0.00000000000E+00  0.12525980253E-10  0.17130000000E+03  0.17130000000E+03 0. -1.
       11    1    1    2    0    0  0.53305406959E-01  0.20337530514E-01  0.22865079629E+00  0.23566189642E+00  0.51109989000E-03 0.  1.
     -623    1    1    2    0    0 -0.14011069251E+00 -0.24815611467E-01  0.20051743641E-01  0.17130006027E+03  0.17130000000E+03 0. -1.
      622    1    1    2    0    0  0.86805285556E-01  0.44780809527E-02  0.37512974274E+01  0.37642778325E+01  0.30000000000E+00 0.  1.
</event>
<event>
 5   0  0.5137000E+05  0.9118800E+02  0.7818608E-02  0.1180000E+00
       11   -1    0    0    0    0  0.00000000000E+00  0.00000000000E+00  0.39999999673E+01  0.40000000000E+01  0.51109989000E-03 0.  1.
     -623   -1    0    0    0    0  0.00000000000E+00  0.00000000000E+00  0.12525980253E-10  0.17130000000E+03  0.17130000000E+03 0.  1.
       11    1    1    2    0    0 -0.45740996070E-01  0.23961118241E-02  0.25956016809E+00  0.26357109506E+00  0.51109989000E-03 0.  1.
     -623    1    1    2    0    0  0.25590482463E-01 -0.23663426366E-02  0.16131160695E-01  0.17130000269E+03  0.17130000000E+03 0.  1.
      622    1    1    2    0    0  0.20150513607E-01 -0.29769187562E-04  0.37243086386E+01  0.37364262176E+01  0.30000000000E+00 0.  1.
</event>
<event>
 5   0  0.5137000E+05  0.9118800E+02  0.7818608E-02  0.1180000E+00
       11   -1    0    0    0    0  0.00000000000E+00  0.00000000000E+00  0.39999999673E+01  0.40000000000E+01  0.51109989000E-03 0.  1.
     -623   -1    0    0    0    0  0.00000000000E+00  0.00000000000E+00  0.12525980253E-10  0.17130000000E+03  0.17130000000E+03 0. -1.
       11    1    1    2    0    0 -0.26866329742E-02 -0.49971574945E-05  0.87020669970E-03  0.28699310981E-02  0.51109989000E-03 0.  1.
     -623    1    1    2    0    0 -0.14071115448E-02 -0.16838491743E-01  0.13312714160E-01  0.17130000135E+03  0.17130000000E+03 0. -1.
      622    1    1    2    0    0  0.40937445190E-02  0.16843488901E-01  0.39858170465E+01  0.39971287183E+01  0.30000000000E+00 0.  1.
</event>
<event>
 5   0  0.5137000E+05  0.9118800E+02  0.7818608E-02  0.1180000E+00
       11   -1    0    0    0    0  0.00000000000E+00  0.00000000000E+00  0.39999999673E+01  0.40000000000E+01  0.51109989000E-03 0.  1.
     -623   -1    0    0    0    0  0.00000000000E+00  0.00000000000E+00  0.12525980253E-10  0.17130000000E+03  0.17130000000E+03 0.  1.
       11    1    1    2    0    0 -0.69542269884E-02  0.86618817288E-02  0.14429463182E-02  0.11213063153E-01  0.51109989000E-03 0.  1.
     -623    1    1    2    0    0  0.19472806727E-01  0.16776867818E-01  0.21172005554E-01  0.17130000324E+03  0.17130000000E+03 0.  1.
      622    1    1    2    0    0 -0.12518579739E-01 -0.25438749547E-01  0.39773850155E+01  0.39887837001E+01  0.30000000000E+00 0.  1.
</event>
<event>
 5   0  0.5137000E+05  0.9118800E+02  0.7818608E-02  0.1180000E+00
       11   -1    0    0    0    0  0.00000000000E+00  0.00000000000E+00  0.39999999673E+01  0.40000000000E+01  0.51109989000E-03 0.  1.
     -623   -1    0    0    0    0  0.00000000000E+00  0.00000000000E+00  0.12525980253E-10  0.17130000000E+03  0.17130000000E+03 0. -1.
       11    1    1    2    0    0 -0.12978279992E+00 -0.40801344958E-01  0.48484963264E+00  0.50357497198E+00  0.51109989000E-03 0.  1.
     -623    1    1    2    0    0  0.25449967177E-02  0.42910281285E-01  0.33953295624E-01  0.17130000876E+03  0.17130000000E+03 0. -1.
      622    1    1    2    0    0  0.12723780320E+00 -0.21089363273E-02  0.34811970391E+01  0.34964162697E+01  0.30000000000E+00 0.  1.
</event>
<event>
 5   0  0.5137000E+05  0.9118800E+02  0.7818608E-02  0.1180000E+00
       11   -1    0    0    0    0  0.00000000000E+00  0.00000000000E+00  0.39999999673E+01  0.40000000000E+01  0.51109989000E-03 0. -1.
     -623   -1    0    0    0    0  0.00000000000E+00  0.00000000000E+00  0.12525980253E-10  0.17130000000E+03  0.17130000000E+03 0.  1.
       11    1    1    2    0    0 -0.97497286920E-02  0.15227570434E-01  0.41909574622E-01  0.45646574668E-01  0.51109989000E-03 0. -1.
     -623    1    1    2    0    0  0.17764084757E-01 -0.83405390284E-02  0.15149210946E-01  0.17130000179E+03  0.17130000000E+03 0.  1.
      622    1    1    2    0    0 -0.80143560653E-02 -0.68870314055E-02  0.39429411818E+01  0.39543516313E+01  0.30000000000E+00 0. -1.
</event>
<event>
 5   0  0.5137000E+05  0.9118800E+02  0.7818608E-02  0.1180000E+00
       11   -1    0    0    0    0  0.00000000000E+00  0.00000000000E+00  0.39999999673E+01  0.40000000000E+01  0.51109989000E-03 0. -1.
     -623   -1    0    0    0    0  0.00000000000E+00  0.00000000000E+00  0.12525980253E-10  0.17130000000E+03  0.17130000000E+03 0. -1.
       11    1    1    2    0    0 -0.45764051174E-02  0.44969326790E-01  0.37669311821E+00  0.37939577009E+00  0.51109989000E-03 0. -1.
     -623    1    1    2    0    0  0.42319548640E-01  0.36343578323E-01  0.16276590664E-01  0.17130000986E+03  0.17130000000E+03 0. -1.
      622    1    1    2    0    0 -0.37743143523E-01 -0.81312905113E-01  0.36070302585E+01  0.36205943738E+01  0.30000000000E+00 0.  0.
</event>
<event>
 5   0  0.5137000E+05  0.9118800E+02  0.7818608E-02  0.1180000E+00
       11   -1    0    0    0    0  0.00000000000E+00  0.00000000000E+00  0.39999999673E+01  0.40000000000E+01  0.51109989000E-03 0.  1.
     -623   -1    0    0    0    0  0.00000000000E+00  0.00000000000E+00  0.12525980253E-10  0.17130000000E+03  0.17130000000E+03 0.  1.
       11    1    1    2    0    0  0.10270461157E-01  0.64819880863E-02  0.80784590707E-02  0.14595248062E-01  0.51109989000E-03 0.  1.
     -623    1    1    2    0    0  0.63986961329E-03 -0.13699106885E-01  0.17847008674E-01  0.17130000148E+03  0.17130000000E+03 0.  1.
      622    1    1    2    0    0 -0.10910330770E-01  0.72171187983E-02  0.39740744996E+01  0.39854032733E+01  0.30000000000E+00 0.  1.
</event>
<event>
 5   0  0.5137000E+05  0.9118800E+02  0.7818608E-02  0.1180000E+00
       11   -1    0    0    0    0  0.00000000000E+00  0.00000000000E+00  0.39999999673E+01  0.40000000000E+01  0.51109989000E-03 0. -1.
     -623   -1    0    0    0    0  0.00000000000E+00  0.00000000000E+00  0.12525980253E-10  0.17130000000E+03  0.17130000000E+03 0.  1.
       11    1    1    2    0    0 -0.78005337723E-02 -0.14315953938E-02  0.21321792814E+00  0.21336598580E+00  0.51109989000E-03 0. -1.
     -623    1    1    2    0    0  0.64066607898E-02  0.33836694801E-03  0.12051598641E-01  0.17130000054E+03  0.17130000000E+03 0.  1.
      622    1    1    2    0    0  0.13938729825E-02  0.10932284458E-02  0.37747304405E+01  0.37866334701E+01  0.30000000000E+00 0. -1.
</event>
<event>
 5   0  0.5137000E+05  0.9118800E+02  0.7818608E-02  0.1180000E+00
       11   -1    0    0    0    0  0.00000000000E+00  0.00000000000E+00  0.39999999673E+01  0.40000000000E+01  0.51109989000E-03 0. -1.
     -623   -1    0    0    0    0  0.00000000000E+00  0.00000000000E+00  0.12525980253E-10  0.17130000000E+03  0.17130000000E+03 0.  1.
       11    1    1    2    0    0 -0.15416982849E-01  0.38458159267E-02  0.38265122101E+00  0.38298132046E+00  0.51109989000E-03 0. -1.
     -623    1    1    2    0    0 -0.59975202802E-03  0.15989537746E-01  0.12884120365E-01  0.17130000123E+03  0.17130000000E+03 0.  1.
      622    1    1    2    0    0  0.16016734877E-01 -0.19835353673E-01  0.36044646260E+01  0.36170174477E+01  0.30000000000E+00 0. -1.
</event>
<event>
 5   0  0.5137000E+05  0.9118800E+02  0.7818608E-02  0.1180000E+00
       11   -1    0    0    0    0  0.00000000000E+00  0.00000000000E+00  0.39999999673E+01  0.40000000000E+01  0.51109989000E-03 0.  1.
     -623   -1    0    0    0    0  0.00000000000E+00  0.00000000000E+00  0.12525980253E-10  0.17130000000E+03  0.17130000000E+03 0. -1.
       11    1    1    2    0    0  0.89695040859E-02 -0.13826086200E-01  0.68859913144E-01  0.70806507642E-01  0.51109989000E-03 0.  1.
     -623    1    1    2    0    0 -0.11202282944E-01  0.20240837102E-01  0.13424015900E-01  0.17130000209E+03  0.17130000000E+03 0. -1.
      622    1    1    2    0    0  0.22327788582E-02 -0.64147509013E-02  0.39177160383E+01  0.39291914042E+01  0.30000000000E+00 0.  1.
</event>
<event>
 5   0  0.5137000E+05  0.9118800E+02  0.7818608E-02  0.1180000E+00
       11   -1    0    0    0    0  0.00000000000E+00  0.00000000000E+00  0.39999999673E+01  0.40000000000E+01  0.51109989000E-03 0. -1.
     -623   -1    0    0    0    0  0.00000000000E+00  0.00000000000E+00  0.12525980253E-10  0.17130000000E+03  0.17130000000E+03 0.  1.
       11    1    1    2    0    0 -0.13419934619E+00  0.19412618528E-01  0.53867326455E+00  0.55547768761E+00  0.51109989000E-03 0. -1.
     -623    1    1    2    0    0  0.38487324737E-01  0.26143915664E-01  0.31540377305E-01  0.17130000922E+03  0.17130000000E+03 0.  1.
      622    1    1    2    0    0  0.95712021452E-01 -0.45556534192E-01  0.34297863255E+01  0.34445130901E+01  0.30000000000E+00 0. -1.
</event>
<event>
 5   0  0.5137000E+05  0.9118800E+02  0.7818608E-02  0.1180000E+00
       11   -1    0    0    0    0  0.00000000000E+00  0.00000000000E+00  0.39999999673E+01  0.40000000000E+01  0.51109989000E-03 0.  1.
     -623   -1    0    0    0    0  0.00000000000E+00  0.00000000000E+00  0.12525980253E-10  0.17130000000E+03  0.17130000000E+03 0. -1.
       11    1    1    2    0    0 -0.37881084771E-02  0.20475285541E-01  0.88685103573E-01  0.91098276069E-01  0.51109989000E-03 0.  1.
     -623    1    1    2    0    0 -0.25423503700E-01 -0.31171331054E-01  0.14071796717E-01  0.17130000530E+03  0.17130000000E+03 0. -1.
      622    1    1    2    0    0  0.29211612177E-01  0.10696045513E-01  0.38972430671E+01  0.39088964232E+01  0.30000000000E+00 0.  1.
</event>
<event>
 5   0  0.5137000E+05  0.9118800E+02  0.7818608E-02  0.1180000E+00
       11   -1    0    0    0    0  0.00000000000E+00  0.00000000000E+00  0.39999999673E+01  0.40000000000E+01  0.51109989000E-03 0. -1.
     -623   -1    0    0    0    0  0.00000000000E+00  0.00000000000E+00  0.12525980253E-10  0.17130000000E+03  0.17130000000E+03 0. -1.
       11    1    1    2    0    0  0.78142443612E-02  0.50515350977E-02  0.45462517743E-02  0.10368705323E-01  0.51109989000E-03 0. -1.
     -623    1    1    2    0    0  0.18197415861E-03  0.15602412135E-01  0.17180874631E-01  0.17130000157E+03  0.17130000000E+03 0. -1.
      622    1    1    2    0    0 -0.79962185198E-02 -0.20653947233E-01  0.39782728410E+01  0.39896297224E+01  0.30000000000E+00 0. -1.
</event>
<event>
 5   0  0.5137000E+05  0.9118800E+02  0.7818608E-02  0.1180000E+00
       11   -1    0    0    0    0  0.00000000000E+00  0.00000000000E+00  0.39999999673E+01  0.40000000000E+01  0.51109989000E-03 0. -1.
     -623   -1    0    0    0    0  0.00000000000E+00  0.00000000000E+00  0.12525980253E-10  0.17130000000E+03  0.17130000000E+03 0.  1.
       11    1    1    2    0    0 -0.65526881458E-01 -0.11270791096E-02  0.11576566817E+00  0.13303004791E+00  0.51109989000E-03 0. -1.
     -623    1    1    2    0    0  0.80175100757E-01  0.22795977140E-01  0.29030460834E-01  0.17130002274E+03  0.17130000000E+03 0.  1.
      622    1    1    2    0    0 -0.14648219300E-01 -0.21668898030E-01  0.38552038384E+01  0.38669472128E+01  0.30000000000E+00 0.  0.
</event>
<event>
 5   0  0.5137000E+05  0.9118800E+02  0.7818608E-02  0.1180000E+00
       11   -1    0    0    0    0  0.00000000000E+00  0.00000000000E+00  0.39999999673E+01  0.40000000000E+01  0.51109989000E-03 0. -1.
     -623   -1    0    0    0    0  0.00000000000E+00  0.00000000000E+00  0.12525980253E-10  0.17130000000E+03  0.17130000000E+03 0. -1.
       11    1    1    2    0    0 -0.13047044899E-02  0.77950924388E-02  0.99450836751E-01  0.99765704892E-01  0.51109989000E-03 0. -1.
     -623    1    1    2    0    0  0.57216020514E-01 -0.31103561600E-01  0.12354413471E-01  0.17130001282E+03  0.17130000000E+03 0. -1.
      622    1    1    2    0    0 -0.55911316025E-01  0.23308469161E-01  0.38881947171E+01  0.39002214704E+01  0.30000000000E+00 0. -1.
</event>
<event>
 5   0  0.5137000E+05  0.9118800E+02  0.7818608E-02  0.1180000E+00
       11   -1    0    0    0    0  0.00000000000E+00  0.00000000000E+00  0.39999999673E+01  0.40000000000E+01  0.51109989000E-03 0.  1.
     -623   -1    0    0    0    0  0.00000000000E+00  0.00000000000E+00  0.12525980253E-10  0.17130000000E+03  0.17130000000E+03 0. -1.
       11    1    1    2    0    0  0.31701511424E-02  0.79673420756E-02 -0.22548000778E-02  0.88810891507E-02  0.51109989000E-03 0.  1.
     -623    1    1    2    0    0 -0.18884679061E-01  0.40410957480E-02  0.22478574072E-01  0.17130000256E+03  0.17130000000E+03 0. -1.
      622    1    1    2    0    0  0.15714527919E-01 -0.12008437824E-01  0.39797761934E+01  0.39911163474E+01  0.30000000000E+00 0.  1.
</event>
<event>
 5   0  0.5137000E+05  0.9118800E+02  0.7818608E-02  0.1180000E+00
       11   -1    0    0    0    0  0.00000000000E+00  0.00000000000E+00  0.39999999673E+01  0.40000000000E+01  0.51109989000E-03 0. -1.
     -623   -1    0    0    0    0  0.00000000000E+00  0.00000000000E+00  0.12525980253E-10  0.17130000000E+03  0.17130000000E+03 0.  1.
       11    1    1    2    0    0  0.44180642455E-02  0.40873919927E-01  0.12592375899E+00  0.13246603687E+00  0.51109989000E-03 0. -1.
     -623    1    1    2    0    0 -0.73534312177E-03 -0.26324285264E-01  0.18227333880E-01  0.17130000299E+03  0.17130000000E+03 0.  1.
      622    1    1    2    0    0 -0.36827211237E-02 -0.14549634663E-01  0.38558488745E+01  0.38675309691E+01  0.30000000000E+00 0. -1.
</event>
<event>
 5   0  0.5137000E+05  0.9118800E+02  0.7818608E-02  0.1180000E+00
       11   -1    0    0    0    0  0.00000000000E+00  0.00000000000E+00  0.39999999673E+01  0.40000000000E+01  0.51109989000E-03 0.  1.
     -623   -1    0    0    0    0  0.00000000000E+00  0.00000000000E+00  0.12525980253E-10  0.17130000000E+03  0.17130000000E+03 0. -1.
       11    1    1    2    0    0 -0.27409372872E-01  0.33050307878E-01  0.25937863364E+00  0.26290898307E+00  0.51109989000E-03 0.  1.
     -623    1    1    2    0    0  0.94162092613E-02 -0.24169076763E-03  0.15780163765E-01  0.17130000099E+03  0.17130000000E+03 0. -1.
      622    1    1    2    0    0  0.17993163610E-01 -0.32808617111E-01  0.37248411700E+01  0.37370900311E+01  0.30000000000E+00 0.  1.
</event>
<event>
 5   0  0.5137000E+05  0.9118800E+02  0.7818608E-02  0.1180000E+00
       11   -1    0    0    0    0  0.00000000000E+00  0.00000000000E+00  0.39999999673E+01  0.40000000000E+01  0.51109989000E-03 0.  1.
     -623   -1    0    0    0    0  0.00000000000E+00  0.00000000000E+00  0.12525980253E-10  0.17130000000E+03  0.17130000000E+03 0.  1.
       11    1    1    2    0    0  0.14502240620E-01 -0.29425409188E-01  0.25242930940E+00  0.25455252337E+00  0.51109989000E-03 0.  1.
     -623    1    1    2    0    0 -0.22483726559E-01  0.89470525874E-02  0.14224102146E-01  0.17130000230E+03  0.17130000000E+03 0.  1.
      622    1    1    2    0    0  0.79814859393E-02  0.20478356601E-01  0.37333465558E+01  0.37454451769E+01  0.30000000000E+00 0.  1.
</event>
<event>
 5   0  0.5137000E+05  0.9118800E+02  0.7818608E-02  0.1180000E+00
       11   -1    0    0    0    0  0.00000000000E+00  0.00000000000E+00  0.39999999673E+01  0.40000000000E+01  0.51109989000E-03 0.  1.
     -623   -1    0    0    0    0  0.00000000000E+00  0.00000000000E+00  0.12525980253E-10  0.17130000000E+03  0.17130000000E+03 0. -1.
       11    1    1    2    0    0 -0.17716989964E-01  0.14523795148E-01  0.43021640619E-01  0.48743770283E-01  0.51109989000E-03 0.  1.
     -623    1    1    2    0    0  0.81743721983E-03 -0.19921513003E-02  0.17184393375E-01  0.17130000088E+03  0.17130000000E+03 0. -1.
      622    1    1    2    0    0  0.16899552744E-01 -0.12531643847E-01  0.39397939334E+01  0.39512553542E+01  0.30000000000E+00 0.  1.
</event>
<event>
 5   0  0.5137000E+05  0.9118800E+02  0.7818608E-02  0.1180000E+00
       11   -1    0    0    0    0  0.00000000000E+00  0.00000000000E+00  0.39999999673E+01  0.40000000000E+01  0.51109989000E-03 0.  1.
     -623   -1    0    0    0    0  0.00000000000E+00  0.00000000000E+00  0.12525980253E-10  0.17130000000E+03  0.17130000000E+03 0. -1.
       11    1    1    2    0    0 -0.10086957881E-01 -0.21123676941E-01  0.36754301535E+00  0.36828804732E+00  0.51109989000E-03 0.  1.
     -623    1    1    2    0    0  0.25747203173E-01  0.21974580637E-01  0.13194906131E-01  0.17130000385E+03  0.17130000000E+03 0. -1.
      622    1    1    2    0    0 -0.15660245293E-01 -0.85090369577E-03  0.36192620459E+01  0.36317081001E+01  0.30000000000E+00 0.  1.
</event>
<event>
 5   0  0.5137000E+05  0.9118800E+02  0.7818608E-02  0.1180000E+00
       11   -1    0    0    0    0  0.00000000000E+00  0.00000000000E+00  0.39999999673E+01  0.40000000000E+01  0.51109989000E-03 0.  1.
     -623   -1    0    0    0    0  0.00000000000E+00  0.00000000000E+00  0.12525980253E-10  0.17130000000E+03  0.17130000000E+03 0. -1.
       11    1    1    2    0    0 -0.18677882865E-02 -0.16349678330E-02  0.85360597405E-02  0.89043410476E-02  0.51109989000E-03 0.  1.
     -623    1    1    2    0    0  0.41616477931E-02  0.96289848623E-02  0.11668729884E-01  0.17130000072E+03  0.17130000000E+03 0. -1.
      622    1    1    2    0    0 -0.22938595066E-02 -0.79940170293E-02  0.39797951777E+01  0.39910949403E+01  0.30000000000E+00 0.  1.
</event>
<event>
 5   0  0.5137000E+05  0.9118800E+02  0.7818608E-02  0.1180000E+00
       11   -1    0    0    0    0  0.00000000000E+00  0.00000000000E+00  0.39999999673E+01  0.40000000000E+01  0.51109989000E-03 0. -1.
     -623   -1    0    0    0    0  0.00000000000E+00  0.00000000000E+00  0.12525980253E-10  0.17130000000E+03  0.17130000000E+03 0.  1.
       11    1    1    2    0    0  0.35059127748E-01 -0.14404731510E-01  0.63544084584E-01  0.73991557877E-01  0.51109989000E-03 0. -1.
     -623    1    1    2    0    0 -0.28477501716E-01  0.48642567601E-02  0.21947257064E-01  0.17130000384E+03  0.17130000000E+03 0.  1.
      622    1    1    2    0    0 -0.65816260315E-02  0.95404747496E-02  0.39145086257E+01  0.39260046000E+01  0.30000000000E+00 0. -1.
</event>
<event>
 5   0  0.5137000E+05  0.9118800E+02  0.7818608E-02  0.1180000E+00
       11   -1    0    0    0    0  0.00000000000E+00  0.00000000000E+00  0.39999999673E+01  0.40000000000E+01  0.51109989000E-03 0.  1.
     -623   -1    0    0    0    0  0.00000000000E+00  0.00000000000E+00  0.12525980253E-10  0.17130000000E+03  0.17130000000E+03 0.  1.
       11    1    1    2    0    0  0.26377081118E-01 -0.98438458131E-02  0.41796148161E-01  0.50396735340E-01  0.51109989000E-03 0.  1.
     -623    1    1    2    0    0  0.47557904481E-01  0.28255653502E-01  0.20757936375E-01  0.17130001019E+03  0.17130000000E+03 0.  1.
      622    1    1    2    0    0 -0.73934985600E-01 -0.18411807689E-01  0.39374458828E+01  0.39495930749E+01  0.30000000000E+00 0.  1.
</event>
<event>
 5   0  0.5137000E+05  0.9118800E+02  0.7818608E-02  0.1180000E+00
       11   -1    0    0    0    0  0.00000000000E+00  0.00000000000E+00  0.39999999673E+01  0.40000000000E+01  0.51109989000E-03 0.  1.
     -623   -1    0    0    0    0  0.00000000000E+00  0.00000000000E+00  0.12525980253E-10  0.17130000000E+03  0.17130000000E+03 0. -1.
       11    1    1    2    0    0 -0.21279199218E-02  0.15925319800E-02  0.37389034559E-01  0.37486868745E-01  0.51109989000E-03 0.  1.
     -623    1    1    2    0    0 -0.34005756514E-02  0.47215993888E-02  0.11479949005E-01  0.17130000048E+03  0.17130000000E+03 0. -1.
      622    1    1    2    0    0  0.55284955732E-02 -0.63141313688E-02  0.39511309838E+01  0.39625126478E+01  0.30000000000E+00 0.  1.
</event>
<event>
 5   0  0.5137000E+05  0.9118800E+02  0.7818608E-02  0.1180000E+00
       11   -1    0    0    0    0  0.00000000000E+00  0.00000000000E+00  0.39999999673E+01  0.40000000000E+01  0.51109989000E-03 0. -1.
     -623   -1    0    0    0    0  0.00000000000E+00  0.00000000000E+00  0.12525980253E-10  0.17130000000E+03  0.17130000000E+03 0. -1.
       11    1    1    2    0    0  0.88891540858E-02  0.52276705267E-01  0.51661316173E+00  0.51932772993E+00  0.51109989000E-03 0. -1.
     -623    1    1    2    0    0 -0.31569699714E-01 -0.41755332679E-01  0.15766062673E-01  0.17130000872E+03  0.17130000000E+03 0. -1.
      622    1    1    2    0    0  0.22680545628E-01 -0.10521372589E-01  0.34676207430E+01  0.34806635464E+01  0.30000000000E+00 0. -1.
</event>
<event>
 5   0  0.5137000E+05  0.9118800E+02  0.7818608E-02  0.1180000E+00
       11   -1    0    0    0    0  0.00000000000E+00  0.00000000000E+00  0.39999999673E+01  0.40000000000E+01  0.51109989000E-03 0.  1.
     -623   -1    0    0    0    0  0.00000000000E+00  0.00000000000E+00  0.12525980253E-10  0.17130000000E+03  0.17130000000E+03 0.  1.
       11    1    1    2    0    0  0.40863474883E-02  0.70723261896E-01  0.24031853842E+00  0.25054288882E+00  0.51109989000E-03 0.  1.
     -623    1    1    2    0    0 -0.10234088713E-01 -0.13821667642E-01  0.22685937425E-01  0.17130000237E+03  0.17130000000E+03 0.  1.
      622    1    1    2    0    0  0.61477412248E-02 -0.56901594253E-01  0.37369954915E+01  0.37494547457E+01  0.30000000000E+00 0.  0.
</event>
<event>
 5   0  0.5137000E+05  0.9118800E+02  0.7818608E-02  0.1180000E+00
       11   -1    0    0    0    0  0.00000000000E+00  0.00000000000E+00  0.39999999673E+01  0.40000000000E+01  0.51109989000E-03 0.  1.
     -623   -1    0    0    0    0  0.00000000000E+00  0.00000000000E+00  0.12525980253E-10  0.17130000000E+03  0.17130000000E+03 0.  1.
       11    1    1    2    0    0 -0.25841357513E-01 -0.26695070782E-01  0.20188149894E+00  0.20527251009E+00  0.51109989000E-03 0.  1.
     -623    1    1    2    0    0 -0.34530662992E-02  0.14908230846E-01  0.15401298501E-01  0.17130000138E+03  0.17130000000E+03 0.  1.
      622    1    1    2    0    0  0.29294423812E-01  0.11786839936E-01  0.37827171699E+01  0.37947261140E+01  0.30000000000E+00 0.  1.
</event>
<event>
 5   0  0.5137000E+05  0.9118800E+02  0.7818608E-02  0.1180000E+00
       11   -1    0    0    0    0  0.00000000000E+00  0.00000000000E+00  0.39999999673E+01  0.40000000000E+01  0.51109989000E-03 0. -1.
     -623   -1    0    0    0    0  0.00000000000E+00  0.00000000000E+00  0.12525980253E-10  0.17130000000E+03  0.17130000000E+03 0. -1.
       11    1    1    2    0    0  0.38928810594E-01 -0.19137383550E-01  0.11339692355E+01  0.11347987399E+01  0.51109989000E-03 0. -1.
     -623    1    1    2    0    0  0.77128450480E-01  0.73321807961E-02  0.18986092016E-01  0.17130001857E+03  0.17130000000E+03 0. -1.
      622    1    1    2    0    0 -0.11605726107E+00  0.11805202754E-01  0.28470446398E+01  0.28651826874E+01  0.30000000000E+00 0. -1.
</event>
<event>
 5   0  0.5137000E+05  0.9118800E+02  0.7818608E-02  0.1180000E+00
       11   -1    0    0    0    0  0.00000000000E+00  0.00000000000E+00  0.39999999673E+01  0.40000000000E+01  0.51109989000E-03 0.  1.
     -623   -1    0    0    0    0  0.00000000000E+00  0.00000000000E+00  0.12525980253E-10  0.17130000000E+03  0.17130000000E+03 0.  1.
       11    1    1    2    0    0 -0.13362010567E+00 -0.20607231212E-01  0.42277207351E+00  0.44386425625E+00  0.51109989000E-03 0.  1.
     -623    1    1    2    0    0 -0.96764510203E-02  0.68800836446E-01  0.37013740802E-01  0.17130001809E+03  0.17130000000E+03 0.  1.
      622    1    1    2    0    0  0.14329655669E+00 -0.48193605234E-01  0.35402141531E+01  0.35561176550E+01  0.30000000000E+00 0.  1.
</event>
<event>
 5   0  0.5137000E+05  0.9118800E+02  0.7818608E-02  0.1180000E+00
       11   -1    0    0    0    0  0.00000000000E+00  0.00000000000E+00  0.39999999673E+01  0.40000000000E+01  0.51109989000E-03 0. -1.
     -623   -1    0    0    0    0  0.00000000000E+00  0.00000000000E+00  0.12525980253E-10  0.17130000000E+03  0.17130000000E+03 0. -1.
       11    1    1    2    0    0 -0.49938730571E-01  0.57213145846E-01  0.75322787048E+00  0.75704670064E+00  0.51109989000E-03 0. -1.
     -623    1    1    2    0    0  0.99615836389E-02  0.36589440087E-02  0.18547527012E-01  0.17130000133E+03  0.17130000000E+03 0. -1.
      622    1    1    2    0    0  0.39977146932E-01 -0.60872089855E-01  0.32282245699E+01  0.32429519665E+01  0.30000000000E+00 0. -1.
</event>
<event>
 5   0  0.5137000E+05  0.9118800E+02  0.7818608E-02  0.1180000E+00
       11   -1    0    0    0    0  0.00000000000E+00  0.00000000000E+00  0.39999999673E+01  0.40000000000E+01  0.51109989000E-03 0.  1.
     -623   -1    0    0    0    0  0.00000000000E+00  0.00000000000E+00  0.12525980253E-10  0.17130000000E+03  0.17130000000E+03 0.  1.
       11    1    1    2    0    0 -0.15212818674E+00  0.42937231509E-02  0.85507290373E+00  0.86851099773E+00  0.51109989000E-03 0.  1.
     -623    1    1    2    0    0  0.70130823632E-01 -0.12545980353E+00  0.31340228330E-01  0.17130006317E+03  0.17130000000E+03 0.  1.
      622    1    1    2    0    0  0.81997363104E-01  0.12116608038E+00  0.31135868353E+01  0.31314258362E+01  0.30000000000E+00 0.  1.
</event>
<event>
 5   0  0.5137000E+05  0.9118800E+02  0.7818608E-02  0.1180000E+00
       11   -1    0    0    0    0  0.00000000000E+00  0.00000000000E+00  0.39999999673E+01  0.40000000000E+01  0.51109989000E-03 0.  1.
     -623   -1    0    0    0    0  0.00000000000E+00  0.00000000000E+00  0.12525980253E-10  0.17130000000E+03  0.17130000000E+03 0. -1.
       11    1    1    2    0    0 -0.16631200819E-01  0.22545450343E-01  0.29756428293E-01  0.40872979090E-01  0.51109989000E-03 0.  1.
     -623    1    1    2    0    0  0.11090599106E-01 -0.24853760615E-01  0.22507236632E-01  0.17130000364E+03  0.17130000000E+03 0. -1.
      622    1    1    2    0    0  0.55406017137E-02  0.23083102725E-02  0.39477363024E+01  0.39591233803E+01  0.30000000000E+00 0.  1.
</event>
<event>
 5   0  0.5137000E+05  0.9118800E+02  0.7818608E-02  0.1180000E+00
       11   -1    0    0    0    0  0.00000000000E+00  0.00000000000E+00  0.39999999673E+01  0.40000000000E+01  0.51109989000E-03 0. -1.
     -623   -1    0    0    0    0  0.00000000000E+00  0.00000000000E+00  0.12525980253E-10  0.17130000000E+03  0.17130000000E+03 0. -1.
       11    1    1    2    0    0 -0.44309068073E-02  0.17703321690E-01  0.16118348951E+00  0.16221411482E+00  0.51109989000E-03 0. -1.
     -623    1    1    2    0    0 -0.89069088611E-02 -0.15384096604E-01  0.12799426879E-01  0.17130000140E+03  0.17130000000E+03 0. -1.
      622    1    1    2    0    0  0.13337815668E-01 -0.23192250863E-02  0.38260170510E+01  0.38377844846E+01  0.30000000000E+00 0. -1.
</event>
<event>
 5   0  0.5137000E+05  0.9118800E+02  0.7818608E-02  0.1180000E+00
       11   -1    0    0    0    0  0.00000000000E+00  0.00000000000E+00  0.39999999673E+01  0.40000000000E+01  0.51109989000E-03 0. -1.
     -623   -1    0    0    0    0  0.00000000000E+00  0.00000000000E+00  0.12525980253E-10  0.17130000000E+03  0.17130000000E+03 0. -1.
       11    1    1    2    0    0  0.46502748040E-02 -0.82011440817E-04  0.42055781267E-02  0.62912552091E-02  0.51109989000E-03 0. -1.
     -623    1    1    2    0    0 -0.69196464168E-02  0.54032373789E-02  0.13374257512E-01  0.17130000075E+03  0.17130000000E+03 0. -1.
      622    1    1    2    0    0  0.22693716127E-02 -0.53212259380E-02  0.39824201317E+01  0.39937079977E+01  0.30000000000E+00 0. -1.
</event>
<event>
 5   0  0.5137000E+05  0.9118800E+02  0.7818608E-02  0.1180000E+00
       11   -1    0    0    0    0  0.00000000000E+00  0.00000000000E+00  0.39999999673E+01  0.40000000000E+01  0.51109989000E-03 0.  1.
     -623   -1    0    0    0    0  0.00000000000E+00  0.00000000000E+00  0.12525980253E-10  0.17130000000E+03  0.17130000000E+03 0.  1.
       11    1    1    2    0    0 -0.17991626838E-01 -0.22404993045E-04  0.95372820817E-01  0.97056351207E-01  0.51109989000E-03 0.  1.
     -623    1    1    2    0    0  0.14957846220E-02 -0.10161825718E-01  0.13279452917E-01  0.17130000082E+03  0.17130000000E+03 0.  1.
      622    1    1    2    0    0  0.16495842216E-01  0.10184230711E-01  0.38913476936E+01  0.39029428261E+01  0.30000000000E+00 0.  1.
</event>
<event>
 5   0  0.5137000E+05  0.9118800E+02  0.7818608E-02  0.1180000E+00
       11   -1    0    0    0    0  0.00000000000E+00  0.00000000000E+00  0.39999999673E+01  0.40000000000E+01  0.51109989000E-03 0.  1.
     -623   -1    0    0    0    0  0.00000000000E+00  0.00000000000E+00  0.12525980253E-10  0.17130000000E+03  0.17130000000E+03 0. -1.
       11    1    1    2    0    0  0.56685532476E-01 -0.72905590093E-01  0.76030451422E+00  0.76589274067E+00  0.51109989000E-03 0.  1.
     -623    1    1    2    0    0 -0.52605707710E-01 -0.23690810001E-01  0.20995235709E-01  0.17130001100E+03  0.17130000000E+03 0. -1.
      622    1    1    2    0    0 -0.40798247653E-02  0.96596400094E-01  0.32187002175E+01  0.32340962570E+01  0.30000000000E+00 0.  1.
</event>
<event>
 5   0  0.5137000E+05  0.9118800E+02  0.7818608E-02  0.1180000E+00
       11   -1    0    0    0    0  0.00000000000E+00  0.00000000000E+00  0.39999999673E+01  0.40000000000E+01  0.51109989000E-03 0. -1.
     -623   -1    0    0    0    0  0.00000000000E+00  0.00000000000E+00  0.12525980253E-10  0.17130000000E+03  0.17130000000E+03 0.  1.
       11    1    1    2    0    0  0.22488288544E-01  0.30214172626E-01 -0.58087432819E-03  0.37672509691E-01  0.51109989000E-03 0. -1.
     -623    1    1    2    0    0 -0.45539704775E-01 -0.29360686858E-01  0.49709801518E-01  0.17130001578E+03  0.17130000000E+03 0.  1.
      622    1    1    2    0    0  0.23051416231E-01 -0.85348576833E-03  0.39508710402E+01  0.39623117081E+01  0.30000000000E+00 0. -1.
</event>
<event>
 5   0  0.5137000E+05  0.9118800E+02  0.7818608E-02  0.1180000E+00
       11   -1    0    0    0    0  0.00000000000E+00  0.00000000000E+00  0.39999999673E+01  0.40000000000E+01  0.51109989000E-03 0.  1.
     -623   -1    0    0    0    0  0.00000000000E+00  0.00000000000E+00  0.12525980253E-10  0.17130000000E+03  0.17130000000E+03 0. -1.
       11    1    1    2    0    0 -0.52115265814E-01  0.71381362310E-02  0.11447597550E+00  0.12598398354E+00  0.51109989000E-03 0.  1.
     -623    1    1    2    0    0  0.29433055039E-01  0.21517847085E-01  0.23319687819E-01  0.17130000547E+03  0.17130000000E+03 0. -1.
      622    1    1    2    0    0  0.22682210775E-01 -0.28655983316E-01  0.38622043041E+01  0.38740105491E+01  0.30000000000E+00 0.  1.
</event>
<event>
 5   0  0.5137000E+05  0.9118800E+02  0.7818608E-02  0.1180000E+00
       11   -1    0    0    0    0  0.00000000000E+00  0.00000000000E+00  0.39999999673E+01  0.40000000000E+01  0.51109989000E-03 0. -1.
     -623   -1    0    0    0    0  0.00000000000E+00  0.00000000000E+00  0.12525980253E-10  0.17130000000E+03  0.17130000000E+03 0. -1.
       11    1    1    2    0    0  0.30252515834E-03  0.21674679433E-02  0.24140424923E-01  0.24244809271E-01  0.51109989000E-03 0. -1.
     -623    1    1    2    0    0  0.14770308631E-01 -0.17163964504E-01  0.11498019806E-01  0.17130000188E+03  0.17130000000E+03 0. -1.
      622    1    1    2    0    0 -0.15072833789E-01  0.14996496561E-01  0.39643615226E+01  0.39757533082E+01  0.30000000000E+00 0. -1.
</event>
<event>
 5   0  0.5137000E+05  0.9118800E+02  0.7818608E-02  0.1180000E+00
       11   -1    0    0    0    0  0.00000000000E+00  0.00000000000E+00  0.39999999673E+01  0.40000000000E+01  0.51109989000E-03 0. -1.
     -623   -1    0    0    0    0  0.00000000000E+00  0.00000000000E+00  0.12525980253E-10  0.17130000000E+03  0.17130000000E+03 0. -1.
       11    1    1    2    0    0 -0.12541388778E-01 -0.70339518175E-02  0.13931480334E-01  0.20027737659E-01  0.51109989000E-03 0. -1.
     -623    1    1    2    0    0  0.21775185480E-01 -0.66303354826E-02  0.17455616518E-01  0.17130000240E+03  0.17130000000E+03 0. -1.
      622    1    1    2    0    0 -0.92337967021E-02  0.13664287300E-01  0.39686128705E+01  0.39799698607E+01  0.30000000000E+00 0. -1.
</event>
<event>
 5   0  0.5137000E+05  0.9118800E+02  0.7818608E-02  0.1180000E+00
       11   -1    0    0    0    0  0.00000000000E+00  0.00000000000E+00  0.39999999673E+01  0.40000000000E+01  0.51109989000E-03 0. -1.
     -623   -1    0    0    0    0  0.00000000000E+00  0.00000000000E+00  0.12525980253E-10  0.17130000000E+03  0.17130000000E+03 0. -1.
       11    1    1    2    0    0 -0.23019652180E-01 -0.20825024211E-02  0.44943904992E+00  0.45003328990E+00  0.51109989000E-03 0. -1.
     -623    1    1    2    0    0 -0.19388604080E-02 -0.15309481913E-01  0.13425132075E-01  0.17130000122E+03  0.17130000000E+03 0. -1.
      622    1    1    2    0    0  0.24958512588E-01  0.17391984334E-01  0.35371357854E+01  0.35499654889E+01  0.30000000000E+00 0. -1.
</event>
<event>
 5   0  0.5137000E+05  0.9118800E+02  0.7818608E-02  0.1180000E+00
       11   -1    0    0    0    0  0.00000000000E+00  0.00000000000E+00  0.39999999673E+01  0.40000000000E+01  0.51109989000E-03 0. -1.
     -623   -1    0    0    0    0  0.00000000000E+00  0.00000000000E+00  0.12525980253E-10  0.17130000000E+03  0.17130000000E+03 0. -1.
       11    1    1    2    0    0 -0.72762706454E-02  0.17670576888E-02  0.86451270546E-01  0.86776436949E-01  0.51109989000E-03 0. -1.
     -623    1    1    2    0    0  0.17347431216E-01  0.58222087471E-02  0.11863321859E-01  0.17130000139E+03  0.17130000000E+03 0. -1.
      622    1    1    2    0    0 -0.10071160570E-01 -0.75892664358E-02  0.39016853750E+01  0.39132221749E+01  0.30000000000E+00 0.  0.
</event>
<event>
 5   0  0.5137000E+05  0.9118800E+02  0.7818608E-02  0.1180000E+00
       11   -1    0    0    0    0  0.00000000000E+00  0.00000000000E+00  0.39999999673E+01  0.40000000000E+01  0.51109989000E-03 0. -1.
     -623   -1    0    0    0    0  0.00000000000E+00  0.00000000000E+00  0.12525980253E-10  0.17130000000E+03  0.17130000000E+03 0.  1.
       11    1    1    2    0    0 -0.42343814829E-01 -0.35879084281E-01  0.11437477841E+00  0.12713047826E+00  0.51109989000E-03 0. -1.
     -623    1    1    2    0    0  0.30811725726E-01  0.34533124702E-01  0.24417913217E-01  0.17130000799E+03  0.17130000000E+03 0.  1.
      622    1    1    2    0    0  0.11532089104E-01  0.13459595783E-02  0.38612072757E+01  0.38728615295E+01  0.30000000000E+00 0.  0.
</event>
<event>
 5   0  0.5137000E+05  0.9118800E+02  0.7818608E-02  0.1180000E+00
       11   -1    0    0    0    0  0.00000000000E+00  0.00000000000E+00  0.39999999673E+01  0.40000000000E+01  0.51109989000E-03 0. -1.
     -623   -1    0    0    0    0  0.00000000000E+00  0.00000000000E+00  0.12525980253E-10  0.17130000000E+03  0.17130000000E+03 0.  1.
       11    1    1    2    0    0 -0.15862719027E-01 -0.36898267694E-01  0.15834013907E+00  0.16335534541E+00  0.51109989000E-03 0. -1.
     -623    1    1    2    0    0  0.61391244365E-02  0.29504344144E-02  0.16926145257E-01  0.17130000097E+03  0.17130000000E+03 0.  1.
      622    1    1    2    0    0  0.97235945904E-02  0.33947833280E-01  0.38247336830E+01  0.38366436829E+01  0.30000000000E+00 0. -1.
</event>
<event>
 5   0  0.5137000E+05  0.9118800E+02  0.7818608E-02  0.1180000E+00
       11   -1    0    0    0    0  0.00000000000E+00  0.00000000000E+00  0.39999999673E+01  0.40000000000E+01  0.51109989000E-03 0. -1.
     -623   -1    0    0    0    0  0.00000000000E+00  0.00000000000E+00  0.12525980253E-10  0.17130000000E+03  0.17130000000E+03 0.  1.
       11    1    1    2    0    0 -0.43061528102E-01  0.40452232472E-02  0.13547032980E+00  0.14220805361E+00  0.51109989000E-03 0. -1.
     -623    1    1    2    0    0  0.43314727039E-01 -0.45131703699E-01  0.18652029046E-01  0.17130001244E+03  0.17130000000E+03 0.  1.
      622    1    1    2    0    0 -0.25319893715E-03  0.41086480452E-01  0.38458776085E+01  0.38577795093E+01  0.30000000000E+00 0. -1.
</event>
<event>
 5   0  0.5137000E+05  0.9118800E+02  0.7818608E-02  0.1180000E+00
       11   -1    0    0    0    0  0.00000000000E+00  0.00000000000E+00  0.39999999673E+01  0.40000000000E+01  0.51109989000E-03 0. -1.
     -623   -1    0    0    0    0  0.00000000000E+00  0.00000000000E+00  0.12525980253E-10  0.17130000000E+03  0.17130000000E+03 0. -1.
       11    1    1    2    0    0  0.87646927131E-01  0.68857035229E-01  0.25879875425E+00  0.28178064440E+00  0.51109989000E-03 0. -1.
     -623    1    1    2    0    0 -0.47526362625E-01 -0.97587373698E-01  0.35470915882E-01  0.17130003806E+03  0.17130000000E+03 0. -1.
      622    1    1    2    0    0 -0.40120564507E-01  0.28730338470E-01  0.37057302972E+01  0.37181812930E+01  0.30000000000E+00 0. -1.
</event>
<event>
 5   0  0.5137000E+05  0.9118800E+02  0.7818608E-02  0.1180000E+00
       11   -1    0    0    0    0  0.00000000000E+00  0.00000000000E+00  0.39999999673E+01  0.40000000000E+01  0.51109989000E-03 0. -1.
     -623   -1    0    0    0    0  0.00000000000E+00  0.00000000000E+00  0.12525980253E-10  0.17130000000E+03  0.17130000000E+03 0.  1.
       11    1    1    2    0    0  0.16807449072E-02 -0.96531331918E-02  0.31084471090E+00  0.31099952315E+00  0.51109989000E-03 0. -1.
     -623    1    1    2    0    0 -0.16647697482E-01  0.58133792585E-02  0.12407270341E-01  0.17130000136E+03  0.17130000000E+03 0.  1.
      622    1    1    2    0    0  0.14966952575E-01  0.38397539333E-02  0.36767479861E+01  0.36889991199E+01  0.30000000000E+00 0. -1.
</event>
<event>
 5   0  0.5137000E+05  0.9118800E+02  0.7818608E-02  0.1180000E+00
       11   -1    0    0    0    0  0.00000000000E+00  0.00000000000E+00  0.39999999673E+01  0.40000000000E+01  0.51109989000E-03 0.  1.
     -623   -1    0    0    0    0  0.00000000000E+00  0.00000000000E+00  0.12525980253E-10  0.17130000000E+03  0.17130000000E+03 0.  1.
       11    1    1    2    0    0  0.28226057093E-02  0.10281106360E-01  0.59700017237E-01  0.60646694307E-01  0.51109989000E-03 0.  1.
     -623    1    1    2    0    0 -0.55538476262E-02 -0.98962867720E-04  0.12401137126E-01  0.17130000054E+03  0.17130000000E+03 0.  1.
      622    1    1    2    0    0  0.27312419170E-02 -0.10182143493E-01  0.39278988130E+01  0.39393527667E+01  0.30000000000E+00 0.  1.
</event>
<event>
 5   0  0.5137000E+05  0.9118800E+02  0.7818608E-02  0.1180000E+00
       11   -1    0    0    0    0  0.00000000000E+00  0.00000000000E+00  0.39999999673E+01  0.40000000000E+01  0.51109989000E-03 0. -1.
     -623   -1    0    0    0    0  0.00000000000E+00  0.00000000000E+00  0.12525980253E-10  0.17130000000E+03  0.17130000000E+03 0.  1.
       11    1    1    2    0    0 -0.32989418199E-01  0.46357472201E-02  0.10451472601E+00  0.10969676860E+00  0.51109989000E-03 0. -1.
     -623    1    1    2    0    0  0.52689995135E-02  0.70499930173E-03  0.16870130020E-01  0.17130000091E+03  0.17130000000E+03 0.  1.
      622    1    1    2    0    0  0.27720418686E-01 -0.53407465219E-02  0.38786151113E+01  0.38903023182E+01  0.30000000000E+00 0. -1.
</event>
<event>
 5   0  0.5137000E+05  0.9118800E+02  0.7818608E-02  0.1180000E+00
       11   -1    0    0    0    0  0.00000000000E+00  0.00000000000E+00  0.39999999673E+01  0.40000000000E+01  0.51109989000E-03 0.  1.
     -623   -1    0    0    0    0  0.00000000000E+00  0.00000000000E+00  0.12525980253E-10  0.17130000000E+03  0.17130000000E+03 0.  1.
       11    1    1    2    0    0 -0.63999633403E-01  0.14035356420E-02  0.21492548256E+00  0.22425687785E+00  0.51109989000E-03 0.  1.
     -623    1    1    2    0    0  0.26866911420E-01  0.85861054360E-01  0.22488588685E-01  0.17130002510E+03  0.17130000000E+03 0.  1.
      622    1    1    2    0    0  0.37132721983E-01 -0.87264590002E-01  0.37625858961E+01  0.37757180209E+01  0.30000000000E+00 0.  1.
</event>
<event>
 5   0  0.5137000E+05  0.9118800E+02  0.7818608E-02  0.1180000E+00
       11   -1    0    0    0    0  0.00000000000E+00  0.00000000000E+00  0.39999999673E+01  0.40000000000E+01  0.51109989000E-03 0. -1.
     -623   -1    0    0    0    0  0.00000000000E+00  0.00000000000E+00  0.12525980253E-10  0.17130000000E+03  0.17130000000E+03 0.  1.
       11    1    1    2    0    0  0.10414149734E-01  0.52242338897E-02  0.16133797949E-02  0.11773332233E-01  0.51109989000E-03 0. -1.
     -623    1    1    2    0    0 -0.27049407962E-01  0.11774951695E-01  0.21534165096E-01  0.17130000389E+03  0.17130000000E+03 0.  1.
      622    1    1    2    0    0  0.16635258229E-01 -0.16999185584E-01  0.39768524225E+01  0.39882227739E+01  0.30000000000E+00 0. -1.
</event>
<event>
 5   0  0.5137000E+05  0.9118800E+02  0.7818608E-02  0.1180000E+00
       11   -1    0    0    0    0  0.00000000000E+00  0.00000000000E+00  0.39999999673E+01  0.40000000000E+01  0.51109989000E-03 0. -1.
     -623   -1    0    0    0    0  0.00000000000E+00  0.00000000000E+00  0.12525980253E-10  0.17130000000E+03  0.17130000000E+03 0.  1.
       11    1    1    2    0    0 -0.56421506847E-02  0.33338655893E-02  0.39939548589E+00  0.39944957616E+00  0.51109989000E-03 0. -1.
     -623    1    1    2    0    0  0.30530194334E-02  0.25230265013E-01  0.12690912238E-01  0.17130000236E+03  0.17130000000E+03 0.  1.
      622    1    1    2    0    0  0.25891312513E-02 -0.28564130602E-01  0.35879135692E+01  0.36005480685E+01  0.30000000000E+00 0. -1.
</event>
<event>
 5   0  0.5137000E+05  0.9118800E+02  0.7818608E-02  0.1180000E+00
       11   -1    0    0    0    0  0.00000000000E+00  0.00000000000E+00  0.39999999673E+01  0.40000000000E+01  0.51109989000E-03 0. -1.
     -623   -1    0    0    0    0  0.00000000000E+00  0.00000000000E+00  0.12525980253E-10  0.17130000000E+03  0.17130000000E+03 0. -1.
       11    1    1    2    0    0 -0.21074294465E-01  0.16653063612E-02  0.14183122838E+00  0.14339894594E+00  0.51109989000E-03 0. -1.
     -623    1    1    2    0    0  0.43569971087E-01 -0.19508152688E-01  0.13368102086E-01  0.17130000717E+03  0.17130000000E+03 0. -1.
      622    1    1    2    0    0 -0.22495676622E-01  0.17842846326E-01  0.38448006369E+01  0.38565938806E+01  0.30000000000E+00 0. -1.
</event>
<event>
 5   0  0.5137000E+05  0.9118800E+02  0.7818608E-02  0.1180000E+00
       11   -1    0    0    0    0  0.00000000000E+00  0.00000000000E+00  0.39999999673E+01  0.40000000000E+01  0.51109989000E-03 0. -1.
     -623   -1    0    0    0    0  0.00000000000E+00  0.00000000000E+00  0.12525980253E-10  0.17130000000E+03  0.17130000000E+03 0.  1.
       11    1    1    2    0    0  0.10142054551E-01 -0.23623921983E-01  0.44205858061E+00  0.44280582750E+00  0.51109989000E-03 0. -1.
     -623    1    1    2    0    0 -0.14540182085E-01  0.59182798450E-02  0.13468412804E-01  0.17130000125E+03  0.17130000000E+03 0.  1.
      622    1    1    2    0    0  0.43981275334E-02  0.17705642138E-01  0.35444729740E+01  0.35571929237E+01  0.30000000000E+00 0. -1.
</event>
<event>
 5   0  0.5137000E+05  0.9118800E+02  0.7818608E-02  0.1180000E+00
       11   -1    0    0    0    0  0.00000000000E+00  0.00000000000E+00  0.39999999673E+01  0.40000000000E+01  0.51109989000E-03 0. -1.
     -623   -1    0    0    0    0  0.00000000000E+00  0.00000000000E+00  0.12525980253E-10  0.17130000000E+03  0.17130000000E+03 0.  1.
       11    1    1    2    0    0  0.37208017278E-02 -0.11266710862E-01 -0.10422139734E-01  0.15800802476E-01  0.51109989000E-03 0. -1.
     -623    1    1    2    0    0  0.22563951387E-01  0.15328374758E-01  0.37628930876E-01  0.17130000630E+03  0.17130000000E+03 0.  1.
      622    1    1    2    0    0 -0.26284753115E-01 -0.40616638958E-02  0.39727931762E+01  0.39841928927E+01  0.30000000000E+00 0. -1.
</event>
<event>
 5   0  0.5137000E+05  0.9118800E+02  0.7818608E-02  0.1180000E+00
       11   -1    0    0    0    0  0.00000000000E+00  0.00000000000E+00  0.39999999673E+01  0.40000000000E+01  0.51109989000E-03 0. -1.
     -623   -1    0    0    0    0  0.00000000000E+00  0.00000000000E+00  0.12525980253E-10  0.17130000000E+03  0.17130000000E+03 0.  1.
       11    1    1    2    0    0 -0.11538391123E-01 -0.21635156301E-01  0.16319713044E+00  0.16502963086E+00  0.51109989000E-03 0. -1.
     -623    1    1    2    0    0  0.88664041246E-02  0.33814991652E-01  0.13609049127E-01  0.17130000411E+03  0.17130000000E+03 0.  1.
      622    1    1    2    0    0  0.26719869989E-02 -0.12179835350E-01  0.38231937878E+01  0.38349662615E+01  0.30000000000E+00 0. -1.
</event>
<event>
 5   0  0.5137000E+05  0.9118800E+02  0.7818608E-02  0.1180000E+00
       11   -1    0    0    0    0  0.00000000000E+00  0.00000000000E+00  0.39999999673E+01  0.40000000000E+01  0.51109989000E-03 0. -1.
     -623   -1    0    0    0    0  0.00000000000E+00  0.00000000000E+00  0.12525980253E-10  0.17130000000E+03  0.17130000000E+03 0. -1.
       11    1    1    2    0    0 -0.19936527979E-01 -0.94557496330E-02  0.46291180165E+00  0.46343766968E+00  0.51109989000E-03 0. -1.
     -623    1    1    2    0    0 -0.75227247625E-02  0.10544883845E-01  0.13381203042E-01  0.17130000101E+03  0.17130000000E+03 0. -1.
      622    1    1    2    0    0  0.27459252741E-01 -0.10891342123E-02  0.35237069627E+01  0.35365613179E+01  0.30000000000E+00 0. -1.
</event>
<event>
 5   0  0.5137000E+05  0.9118800E+02  0.7818608E-02  0.1180000E+00
       11   -1    0    0    0    0  0.00000000000E+00  0.00000000000E+00  0.39999999673E+01  0.40000000000E+01  0.51109989000E-03 0.  1.
     -623   -1    0    0    0    0  0.00000000000E+00  0.00000000000E+00  0.12525980253E-10  0.17130000000E+03  0.17130000000E+03 0.  1.
       11    1    1    2    0    0  0.26332422559E-02 -0.12379220148E-01  0.14908663488E-01  0.19562937531E-01  0.51109989000E-03 0.  1.
     -623    1    1    2    0    0  0.68146605992E-02  0.15969443962E-01  0.15990132388E-01  0.17130000163E+03  0.17130000000E+03 0.  1.
      622    1    1    2    0    0 -0.94479028551E-02 -0.35902238149E-02  0.39691011715E+01  0.39804354362E+01  0.30000000000E+00 0.  1.
</event>
<event>
 5   0  0.5137000E+05  0.9118800E+02  0.7818608E-02  0.1180000E+00
       11   -1    0    0    0    0  0.00000000000E+00  0.00000000000E+00  0.39999999673E+01  0.40000000000E+01  0.51109989000E-03 0. -1.
     -623   -1    0    0    0    0  0.00000000000E+00  0.00000000000E+00  0.12525980253E-10  0.17130000000E+03  0.17130000000E+03 0.  1.
       11    1    1    2    0    0 -0.30968743039E-01 -0.18482812154E-02  0.37314959273E-02  0.31251631539E-01  0.51109989000E-03 0. -1.
     -623    1    1    2    0    0  0.20718372383E-01  0.10543250672E-01  0.38903773345E-01  0.17130000600E+03  0.17130000000E+03 0.  1.
      622    1    1    2    0    0  0.10250370656E-01 -0.86949694569E-02  0.39573646981E+01  0.39687423734E+01  0.30000000000E+00 0. -1.
</event>
<event>
 5   0  0.5137000E+05  0.9118800E+02  0.7818608E-02  0.1180000E+00
       11   -1    0    0    0    0  0.00000000000E+00  0.00000000000E+00  0.39999999673E+01  0.40000000000E+01  0.51109989000E-03 0.  1.
     -623   -1    0    0    0    0  0.00000000000E+00  0.00000000000E+00  0.12525980253E-10  0.17130000000E+03  0.17130000000E+03 0.  1.
       11    1    1    2    0    0  0.56087378331E-02 -0.11400235123E-03  0.48582393714E+00  0.48585659412E+00  0.51109989000E-03 0.  1.
     -623    1    1    2    0    0  0.12841259236E-02 -0.26748791351E-01  0.12973866562E-01  0.17130000258E+03  0.17130000000E+03 0.  1.
      622    1    1    2    0    0 -0.68928637567E-02  0.26862793702E-01  0.35012021637E+01  0.35141408213E+01  0.30000000000E+00 0.  1.
</event>
<event>
 5   0  0.5137000E+05  0.9118800E+02  0.7818608E-02  0.1180000E+00
       11   -1    0    0    0    0  0.00000000000E+00  0.00000000000E+00  0.39999999673E+01  0.40000000000E+01  0.51109989000E-03 0. -1.
     -623   -1    0    0    0    0  0.00000000000E+00  0.00000000000E+00  0.12525980253E-10  0.17130000000E+03  0.17130000000E+03 0.  1.
       11    1    1    2    0    0 -0.60497618968E-02 -0.54541862591E-02  0.45795131458E-02  0.93584683508E-02  0.51109989000E-03 0. -1.
     -623    1    1    2    0    0  0.38935983357E-02  0.19549126866E-01  0.16098750228E-01  0.17130000192E+03  0.17130000000E+03 0.  1.
      622    1    1    2    0    0  0.21561635611E-02 -0.14094940607E-01  0.39793217040E+01  0.39906396154E+01  0.30000000000E+00 0. -1.
</event>
<event>
 5   0  0.5137000E+05  0.9118800E+02  0.7818608E-02  0.1180000E+00
       11   -1    0    0    0    0  0.00000000000E+00  0.00000000000E+00  0.39999999673E+01  0.40000000000E+01  0.51109989000E-03 0. -1.
     -623   -1    0    0    0    0  0.00000000000E+00  0.00000000000E+00  0.12525980253E-10  0.17130000000E+03  0.17130000000E+03 0.  1.
       11    1    1    2    0    0  0.97299412215E-03 -0.12060171023E+00  0.54285434558E+00  0.55609065895E+00  0.51109989000E-03 0. -1.
     -623    1    1    2    0    0 -0.11200603013E+00 -0.14503189305E-02  0.30337229998E-01  0.17130003931E+03  0.17130000000E+03 0.  1.
      622    1    1    2    0    0  0.11103303601E+00  0.12205202916E+00  0.34268083918E+01  0.34438700305E+01  0.30000000000E+00 0. -1.
</event>
<event>
 5   0  0.5137000E+05  0.9118800E+02  0.7818608E-02  0.1180000E+00
       11   -1    0    0    0    0  0.00000000000E+00  0.00000000000E+00  0.39999999673E+01  0.40000000000E+01  0.51109989000E-03 0.  1.
     -623   -1    0    0    0    0  0.00000000000E+00  0.00000000000E+00  0.12525980253E-10  0.17130000000E+03  0.17130000000E+03 0. -1.
       11    1    1    2    0    0  0.45471962427E-01 -0.24959614430E-01  0.12817148454E+00  0.13827101067E+00  0.51109989000E-03 0.  1.
     -623    1    1    2    0    0 -0.17728925478E-01  0.18817937942E-01  0.21878154400E-01  0.17130000335E+03  0.17130000000E+03 0. -1.
      622    1    1    2    0    0 -0.27743036949E-01  0.61416764878E-02  0.38499503284E+01  0.38617256411E+01  0.30000000000E+00 0.  1.
</event>
<event>
 5   0  0.5137000E+05  0.9118800E+02  0.7818608E-02  0.1180000E+00
       11   -1    0    0    0    0  0.00000000000E+00  0.00000000000E+00  0.39999999673E+01  0.40000000000E+01  0.51109989000E-03 0.  1.
     -623   -1    0    0    0    0  0.00000000000E+00  0.00000000000E+00  0.12525980253E-10  0.17130000000E+03  0.17130000000E+03 0. -1.
       11    1    1    2    0    0  0.29925562841E-01 -0.21009641651E-01  0.83515215065E+00  0.83595234332E+00  0.51109989000E-03 0.  1.
     -623    1    1    2    0    0 -0.35008847759E-01 -0.27623181596E-01  0.15440658745E-01  0.17130000650E+03  0.17130000000E+03 0. -1.
      622    1    1    2    0    0  0.50832849185E-02  0.48632823248E-01  0.31494071580E+01  0.31640411562E+01  0.30000000000E+00 0.  1.
</event>
<event>
 5   0  0.5137000E+05  0.9118800E+02  0.7818608E-02  0.1180000E+00
       11   -1    0    0    0    0  0.00000000000E+00  0.00000000000E+00  0.39999999673E+01  0.40000000000E+01  0.51109989000E-03 0. -1.
     -623   -1    0    0    0    0  0.00000000000E+00  0.00000000000E+00  0.12525980253E-10  0.17130000000E+03  0.17130000000E+03 0.  1.
       11    1    1    2    0    0 -0.69327042054E-01 -0.29901839074E-01  0.11220013948E+01  0.11245389055E+01  0.51109989000E-03 0. -1.
     -623    1    1    2    0    0  0.11044134040E-01  0.13372820356E-01  0.18873641470E-01  0.17130000192E+03  0.17130000000E+03 0.  1.
      622    1    1    2    0    0  0.58282908014E-01  0.16529018718E-01  0.28591249310E+01  0.28754591767E+01  0.30000000000E+00 0. -1.
</event>
<event>
 5   0  0.5137000E+05  0.9118800E+02  0.7818608E-02  0.1180000E+00
       11   -1    0    0    0    0  0.00000000000E+00  0.00000000000E+00  0.39999999673E+01  0.40000000000E+01  0.51109989000E-03 0. -1.
     -623   -1    0    0    0    0  0.00000000000E+00  0.00000000000E+00  0.12525980253E-10  0.17130000000E+03  0.17130000000E+03 0.  1.
       11    1    1    2    0    0  0.54529293009E-01  0.71698802799E-01  0.52851527659E+00  0.53613694233E+00  0.51109989000E-03 0. -1.
     -623    1    1    2    0    0  0.20109732546E-02  0.25976612128E-01  0.22486859173E-01  0.17130000346E+03  0.17130000000E+03 0.  1.
      622    1    1    2    0    0 -0.56540266264E-01 -0.97675414926E-01  0.34489978316E+01  0.34638596003E+01  0.30000000000E+00 0. -1.
</event>
<event>
 5   0  0.5137000E+05  0.9118800E+02  0.7818608E-02  0.1180000E+00
       11   -1    0    0    0    0  0.00000000000E+00  0.00000000000E+00  0.39999999673E+01  0.40000000000E+01  0.51109989000E-03 0.  1.
     -623   -1    0    0    0    0  0.00000000000E+00  0.00000000000E+00  0.12525980253E-10  0.17130000000E+03  0.17130000000E+03 0.  1.
       11    1    1    2    0    0 -0.14383998929E-01 -0.18764530665E-01  0.24267601062E-01  0.33884874476E-01  0.51109989000E-03 0.  1.
     -623    1    1    2    0    0  0.18576633253E-01  0.23042485414E-01  0.20988022115E-01  0.17130000384E+03  0.17130000000E+03 0.  1.
      622    1    1    2    0    0 -0.41926343244E-02 -0.42779547490E-02  0.39547443442E+01  0.39661112827E+01  0.30000000000E+00 0.  1.
</event>
<event>
 5   0  0.5137000E+05  0.9118800E+02  0.7818608E-02  0.1180000E+00
       11   -1    0    0    0    0  0.00000000000E+00  0.00000000000E+00  0.39999999673E+01  0.40000000000E+01  0.51109989000E-03 0.  1.
     -623   -1    0    0    0    0  0.00000000000E+00  0.00000000000E+00  0.12525980253E-10  0.17130000000E+03  0.17130000000E+03 0.  1.
       11    1    1    2    0    0  0.41355995170E-01 -0.29311898101E-01  0.73910736562E-01  0.89624572015E-01  0.51109989000E-03 0.  1.
     -623    1    1    2    0    0 -0.48281655432E-01  0.81117654281E-01  0.27617305167E-01  0.17130002824E+03  0.17130000000E+03 0.  1.
      622    1    1    2    0    0  0.69256602627E-02 -0.51805756180E-01  0.38984719256E+01  0.39103471913E+01  0.30000000000E+00 0.  1.
</event>
<event>
 5   0  0.5137000E+05  0.9118800E+02  0.7818608E-02  0.1180000E+00
       11   -1    0    0    0    0  0.00000000000E+00  0.00000000000E+00  0.39999999673E+01  0.40000000000E+01  0.51109989000E-03 0. -1.
     -623   -1    0    0    0    0  0.00000000000E+00  0.00000000000E+00  0.12525980253E-10  0.17130000000E+03  0.17130000000E+03 0. -1.
       11    1    1    2    0    0  0.12983756435E-01 -0.88263244274E-02  0.33787127459E-01  0.37260074331E-01  0.51109989000E-03 0. -1.
     -623    1    1    2    0    0 -0.27529287884E-02  0.44559984186E-02  0.14861399570E-01  0.17130000072E+03  0.17130000000E+03 0. -1.
      622    1    1    2    0    0 -0.10230827647E-01  0.43703260088E-02  0.39513514403E+01  0.39627392009E+01  0.30000000000E+00 0. -1.
</event>
<event>
 5   0  0.5137000E+05  0.9118800E+02  0.7818608E-02  0.1180000E+00
       11   -1    0    0    0    0  0.00000000000E+00  0.00000000000E+00  0.39999999673E+01  0.40000000000E+01  0.51109989000E-03 0. -1.
     -623   -1    0    0    0    0  0.00000000000E+00  0.00000000000E+00  0.12525980253E-10  0.17130000000E+03  0.17130000000E+03 0.  1.
       11    1    1    2    0    0 -0.11133570971E+00 -0.41232661829E-01  0.12377710497E+00  0.17151328111E+00  0.51109989000E-03 0. -1.
     -623    1    1    2    0    0 -0.94556558012E-01 -0.18535602464E-01  0.65574219563E-01  0.17130003965E+03  0.17130000000E+03 0.  1.
      622    1    1    2    0    0  0.20589226772E+00  0.59768264293E-01  0.38106486428E+01  0.38284470677E+01  0.30000000000E+00 0. -1.
</event>
<event>
 5   0  0.5137000E+05  0.9118800E+02  0.7818608E-02  0.1180000E+00
       11   -1    0    0    0    0  0.00000000000E+00  0.00000000000E+00  0.39999999673E+01  0.40000000000E+01  0.51109989000E-03 0.  1.
     -623   -1    0    0    0    0  0.00000000000E+00  0.00000000000E+00  0.12525980253E-10  0.17130000000E+03  0.17130000000E+03 0.  1.
       11    1    1    2    0    0 -0.13825846631E-01  0.12308447985E-02  0.81316193382E-02  0.16095138032E-01  0.51109989000E-03 0.  1.
     -623    1    1    2    0    0  0.31958386045E-01 -0.15280849243E-01  0.19345991938E-01  0.17130000476E+03  0.17130000000E+03 0.  1.
      622    1    1    2    0    0 -0.18132539414E-01  0.14050004444E-01  0.39725223561E+01  0.39839001068E+01  0.30000000000E+00 0.  1.
</event>
<event>
 5   0  0.5137000E+05  0.9118800E+02  0.7818608E-02  0.1180000E+00
       11   -1    0    0    0    0  0.00000000000E+00  0.00000000000E+00  0.39999999673E+01  0.40000000000E+01  0.51109989000E-03 0.  1.
     -623   -1    0    0    0    0  0.00000000000E+00  0.00000000000E+00  0.12525980253E-10  0.17130000000E+03  0.17130000000E+03 0. -1.
       11    1    1    2    0    0 -0.15192002889E-02 -0.29321877930E-01  0.13342806849E-01  0.32254801388E-01  0.51109989000E-03 0.  1.
     -623    1    1    2    0    0  0.14208022289E-03  0.40559943916E-01  0.30293374257E-01  0.17130000748E+03  0.17130000000E+03 0. -1.
      622    1    1    2    0    0  0.13771200660E-02 -0.11238065986E-01  0.39563637863E+01  0.39677377181E+01  0.30000000000E+00 0.  1.
</event>
<event>
 5   0  0.5137000E+05  0.9118800E+02  0.7818608E-02  0.1180000E+00
       11   -1    0    0    0    0  0.00000000000E+00  0.00000000000E+00  0.39999999673E+01  0.40000000000E+01  0.51109989000E-03 0. -1.
     -623   -1    0    0    0    0  0.00000000000E+00  0.00000000000E+00  0.12525980253E-10  0.17130000000E+03  0.17130000000E+03 0.  1.
       11    1    1    2    0    0  0.11076870425E-01  0.33968388588E-01  0.24776540037E+00  0.25032879045E+00  0.51109989000E-03 0. -1.
     -623    1    1    2    0    0 -0.17668894319E-01 -0.39223771420E-01  0.14599227669E-01  0.17130000602E+03  0.17130000000E+03 0.  1.
      622    1    1    2    0    0  0.65920238949E-02  0.52553828326E-02  0.37376353393E+01  0.37496651855E+01  0.30000000000E+00 0. -1.
</event>
<event>
 5   0  0.5137000E+05  0.9118800E+02  0.7818608E-02  0.1180000E+00
       11   -1    0    0    0    0  0.00000000000E+00  0.00000000000E+00  0.39999999673E+01  0.40000000000E+01  0.51109989000E-03 0. -1.
     -623   -1    0    0    0    0  0.00000000000E+00  0.00000000000E+00  0.12525980253E-10  0.17130000000E+03  0.17130000000E+03 0.  1.
       11    1    1    2    0    0  0.60207891379E-01  0.53846643750E-01  0.39751254530E+00  0.40563645808E+00  0.51109989000E-03 0. -1.
     -623    1    1    2    0    0 -0.15106622964E-01  0.13262699478E-01  0.21580660979E-01  0.17130000254E+03  0.17130000000E+03 0.  1.
      622    1    1    2    0    0 -0.45101268416E-01 -0.67109343228E-01  0.35809067611E+01  0.35943610030E+01  0.30000000000E+00 0. -1.
</event>
<event>
 5   0  0.5137000E+05  0.9118800E+02  0.7818608E-02  0.1180000E+00
       11   -1    0    0    0    0  0.00000000000E+00  0.00000000000E+00  0.39999999673E+01  0.40000000000E+01  0.51109989000E-03 0. -1.
     -623   -1    0    0    0    0  0.00000000000E+00  0.00000000000E+00  0.12525980253E-10  0.17130000000E+03  0.17130000000E+03 0.  1.
       11    1    1    2    0    0 -0.19740422747E-01 -0.29008414414E-01  0.33623023830E+00  0.33805651416E+00  0.51109989000E-03 0. -1.
     -623    1    1    2    0    0  0.16265557381E-01 -0.15898925635E-01  0.14415560479E-01  0.17130000212E+03  0.17130000000E+03 0.  1.
      622    1    1    2    0    0  0.34748653663E-02  0.44907340048E-01  0.36493541686E+01  0.36619413692E+01  0.30000000000E+00 0. -1.
</event>
<event>
 5   0  0.5137000E+05  0.9118800E+02  0.7818608E-02  0.1180000E+00
       11   -1    0    0    0    0  0.00000000000E+00  0.00000000000E+00  0.39999999673E+01  0.40000000000E+01  0.51109989000E-03 0. -1.
     -623   -1    0    0    0    0  0.00000000000E+00  0.00000000000E+00  0.12525980253E-10  0.17130000000E+03  0.17130000000E+03 0.  1.
       11    1    1    2    0    0 -0.84749304899E-01  0.60841878936E-01  0.53380551290E+00  0.54390510730E+00  0.51109989000E-03 0. -1.
     -623    1    1    2    0    0 -0.70111159078E-01 -0.57250189293E-01  0.26657042952E-01  0.17130002599E+03  0.17130000000E+03 0.  1.
      622    1    1    2    0    0  0.15486046398E+00 -0.35916896425E-02  0.34395374115E+01  0.34560689039E+01  0.30000000000E+00 0.  0.
</event>
<event>
 5   0  0.5137000E+05  0.9118800E+02  0.7818608E-02  0.1180000E+00
       11   -1    0    0    0    0  0.00000000000E+00  0.00000000000E+00  0.39999999673E+01  0.40000000000E+01  0.51109989000E-03 0. -1.
     -623   -1    0    0    0    0  0.00000000000E+00  0.00000000000E+00  0.12525980253E-10  0.17130000000E+03  0.17130000000E+03 0.  1.
       11    1    1    2    0    0  0.38286688758E-01  0.20011951477E-01  0.47573797943E-01  0.64264112922E-01  0.51109989000E-03 0. -1.
     -623    1    1    2    0    0 -0.15821874797E-01 -0.18479985438E-01  0.28209295077E-01  0.17130000405E+03  0.17130000000E+03 0.  1.
      622    1    1    2    0    0 -0.22464813961E-01 -0.15319660391E-02  0.39242168743E+01  0.39357318369E+01  0.30000000000E+00 0. -1.
</event>
<event>
 5   0  0.5137000E+05  0.9118800E+02  0.7818608E-02  0.1180000E+00
       11   -1    0    0    0    0  0.00000000000E+00  0.00000000000E+00  0.39999999673E+01  0.40000000000E+01  0.51109989000E-03 0. -1.
     -623   -1    0    0    0    0  0.00000000000E+00  0.00000000000E+00  0.12525980253E-10  0.17130000000E+03  0.17130000000E+03 0. -1.
       11    1    1    2    0    0  0.30049854099E-01 -0.16298301254E-01  0.22063634151E+00  0.22326953390E+00  0.51109989000E-03 0. -1.
     -623    1    1    2    0    0 -0.41944218416E-02  0.73984449023E-02  0.14667228401E-01  0.17130000084E+03  0.17130000000E+03 0. -1.
      622    1    1    2    0    0 -0.25855432257E-01  0.88998563520E-02  0.37646963975E+01  0.37767296270E+01  0.30000000000E+00 0. -1.
</event>
<event>
 5   0  0.5137000E+05  0.9118800E+02  0.7818608E-02  0.1180000E+00
       11   -1    0    0    0    0  0.00000000000E+00  0.00000000000E+00  0.39999999673E+01  0.40000000000E+01  0.51109989000E-03 0.  1.
     -623   -1    0    0    0    0  0.00000000000E+00  0.00000000000E+00  0.12525980253E-10  0.17130000000E+03  0.17130000000E+03 0.  1.
       11    1    1    2    0    0  0.11850703783E-01  0.10678647787E+00  0.15991561486E+00  0.19265787327E+00  0.51109989000E-03 0.  1.
     -623    1    1    2    0    0  0.26227475513E-01  0.14704474346E-01  0.46724963853E-01  0.17130000901E+03  0.17130000000E+03 0.  1.
      622    1    1    2    0    0 -0.38078179296E-01 -0.12149095221E+00  0.37933593886E+01  0.38073331153E+01  0.30000000000E+00 0.  1.
</event>
<event>
 5   0  0.5137000E+05  0.9118800E+02  0.7818608E-02  0.1180000E+00
       11   -1    0    0    0    0  0.00000000000E+00  0.00000000000E+00  0.39999999673E+01  0.40000000000E+01  0.51109989000E-03 0. -1.
     -623   -1    0    0    0    0  0.00000000000E+00  0.00000000000E+00  0.12525980253E-10  0.17130000000E+03  0.17130000000E+03 0.  1.
       11    1    1    2    0    0 -0.70415736125E-02  0.13490003521E+00  0.10555876763E+01  0.10641960378E+01  0.51109989000E-03 0. -1.
     -623    1    1    2    0    0 -0.23341444387E-02 -0.27078043697E-01  0.25986827690E-01  0.17130000413E+03  0.17130000000E+03 0.  1.
      622    1    1    2    0    0  0.93757180513E-02 -0.10782199151E+00  0.29184254634E+01  0.29357998350E+01  0.30000000000E+00 0.  0.
</event>
<event>
 5   0  0.5137000E+05  0.9118800E+02  0.7818608E-02  0.1180000E+00
       11   -1    0    0    0    0  0.00000000000E+00  0.00000000000E+00  0.39999999673E+01  0.40000000000E+01  0.51109989000E-03 0.  1.
     -623   -1    0    0    0    0  0.00000000000E+00  0.00000000000E+00  0.12525980253E-10  0.17130000000E+03  0.17130000000E+03 0. -1.
       11    1    1    2    0    0 -0.10330818336E-01 -0.19489726167E-01  0.59983002771E+00  0.60023570254E+00  0.51109989000E-03 0.  1.
     -623    1    1    2    0    0  0.90834856678E-02 -0.74093038493E-02  0.13775740623E-01  0.17130000095E+03  0.17130000000E+03 0. -1.
      622    1    1    2    0    0  0.12473326685E-02  0.26899030016E-01  0.33863941990E+01  0.33997633425E+01  0.30000000000E+00 0.  1.
</event>
<event>
 5   0  0.5137000E+05  0.9118800E+02  0.7818608E-02  0.1180000E+00
       11   -1    0    0    0    0  0.00000000000E+00  0.00000000000E+00  0.39999999673E+01  0.40000000000E+01  0.51109989000E-03 0.  1.
     -623   -1    0    0    0    0  0.00000000000E+00  0.00000000000E+00  0.12525980253E-10  0.17130000000E+03  0.17130000000E+03 0.  1.
       11    1    1    2    0    0  0.26634205800E-01 -0.20541145541E-02  0.18522110091E+00  0.18713823167E+00  0.51109989000E-03 0.  1.
     -623    1    1    2    0    0 -0.31300337559E-01  0.27070471951E-01  0.13828340692E-01  0.17130000556E+03  0.17130000000E+03 0.  1.
      622    1    1    2    0    0  0.46661317592E-02 -0.25016357397E-01  0.38009505258E+01  0.38128562116E+01  0.30000000000E+00 0.  1.
</event>
<event>
 5   0  0.5137000E+05  0.9118800E+02  0.7818608E-02  0.1180000E+00
       11   -1    0    0    0    0  0.00000000000E+00  0.00000000000E+00  0.39999999673E+01  0.40000000000E+01  0.51109989000E-03 0. -1.
     -623   -1    0    0    0    0  0.00000000000E+00  0.00000000000E+00  0.12525980253E-10  0.17130000000E+03  0.17130000000E+03 0. -1.
       11    1    1    2    0    0  0.10738784329E-01  0.15857747573E-02  0.13699503020E-01  0.17486388321E-01  0.51109989000E-03 0. -1.
     -623    1    1    2    0    0 -0.10343466089E-01  0.19177675434E-02  0.15104881280E-01  0.17130000099E+03  0.17130000000E+03 0. -1.
      622    1    1    2    0    0 -0.39531823966E-03 -0.35035423006E-02  0.39711955831E+01  0.39825126227E+01  0.30000000000E+00 0. -1.
</event>
<event>
 5   0  0.5137000E+05  0.9118800E+02  0.7818608E-02  0.1180000E+00
       11   -1    0    0    0    0  0.00000000000E+00  0.00000000000E+00  0.39999999673E+01  0.40000000000E+01  0.51109989000E-03 0.  1.
     -623   -1    0    0    0    0  0.00000000000E+00  0.00000000000E+00  0.12525980253E-10  0.17130000000E+03  0.17130000000E+03 0.  1.
       11    1    1    2    0    0  0.13918765866E-02 -0.95087864679E-02  0.53042869379E-01  0.53908826308E-01  0.51109989000E-03 0.  1.
     -623    1    1    2    0    0 -0.13849966955E-01  0.37475676084E-02  0.12311126406E-01  0.17130000104E+03  0.17130000000E+03 0.  1.
      622    1    1    2    0    0  0.12458090368E-01  0.57612188595E-02  0.39346459716E+01  0.39460901304E+01  0.30000000000E+00 0.  1.
</event>
<event>
 5   0  0.5137000E+05  0.9118800E+02  0.7818608E-02  0.1180000E+00
       11   -1    0    0    0    0  0.00000000000E+00  0.00000000000E+00  0.39999999673E+01  0.40000000000E+01  0.51109989000E-03 0. -1.
     -623   -1    0    0    0    0  0.00000000000E+00  0.00000000000E+00  0.12525980253E-10  0.17130000000E+03  0.17130000000E+03 0.  1.
       11    1    1    2    0    0  0.23470594164E-01  0.11315280068E-01  0.18178394673E-01  0.31774511908E-01  0.51109989000E-03 0. -1.
     -623    1    1    2    0    0 -0.35861276265E-01  0.32427578414E-02  0.25004222758E-01  0.17130000561E+03  0.17130000000E+03 0.  1.
      622    1    1    2    0    0  0.12390682102E-01 -0.14558037910E-01  0.39568173499E+01  0.39682198788E+01  0.30000000000E+00 0. -1.
</event>
<event>
 5   0  0.5137000E+05  0.9118800E+02  0.7818608E-02  0.1180000E+00
       11   -1    0    0    0    0  0.00000000000E+00  0.00000000000E+00  0.39999999673E+01  0.40000000000E+01  0.51109989000E-03 0. -1.
     -623   -1    0    0    0    0  0.00000000000E+00  0.00000000000E+00  0.12525980253E-10  0.17130000000E+03  0.17130000000E+03 0. -1.
       11    1    1    2    0    0 -0.22879868573E-01  0.27090757518E-01  0.29197505186E+00  0.29412087594E+00  0.51109989000E-03 0. -1.
     -623    1    1    2    0    0  0.64121972066E-02  0.37427019085E-01  0.14913713691E-01  0.17130000486E+03  0.17130000000E+03 0. -1.
      622    1    1    2    0    0  0.16467671366E-01 -0.64517776603E-01  0.36931112018E+01  0.37058742662E+01  0.30000000000E+00 0. -1.
</event>
<event>
 5   0  0.5137000E+05  0.9118800E+02  0.7818608E-02  0.1180000E+00
       11   -1    0    0    0    0  0.00000000000E+00  0.00000000000E+00  0.39999999673E+01  0.40000000000E+01  0.51109989000E-03 0.  1.
     -623   -1    0    0    0    0  0.00000000000E+00  0.00000000000E+00  0.12525980253E-10  0.17130000000E+03  0.17130000000E+03 0.  1.
       11    1    1    2    0    0  0.29645626851E-01 -0.76925329419E-02  0.41800118055E-01  0.51822286198E-01  0.51109989000E-03 0.  1.
     -623    1    1    2    0    0 -0.32419975686E-01 -0.30300366139E-02  0.21456329368E-01  0.17130000444E+03  0.17130000000E+03 0.  1.
      622    1    1    2    0    0  0.27743488351E-02  0.10722569556E-01  0.39367435199E+01  0.39481732754E+01  0.30000000000E+00 0.  1.
</event>
<event>
 5   0  0.5137000E+05  0.9118800E+02  0.7818608E-02  0.1180000E+00
       11   -1    0    0    0    0  0.00000000000E+00  0.00000000000E+00  0.39999999673E+01  0.40000000000E+01  0.51109989000E-03 0.  1.
     -623   -1    0    0    0    0  0.00000000000E+00  0.00000000000E+00  0.12525980253E-10  0.17130000000E+03  0.17130000000E+03 0. -1.
       11    1    1    2    0    0  0.24324505744E-01  0.97499986349E-02  0.28089736255E-01  0.38419247236E-01  0.51109989000E-03 0.  1.
     -623    1    1    2    0    0  0.32069432909E-02 -0.25168462555E-01  0.21834226981E-01  0.17130000327E+03  0.17130000000E+03 0. -1.
      622    1    1    2    0    0 -0.27531449035E-01  0.15418463920E-01  0.39500760041E+01  0.39615774823E+01  0.30000000000E+00 0.  1.
</event>
<event>
 5   0  0.5137000E+05  0.9118800E+02  0.7818608E-02  0.1180000E+00
       11   -1    0    0    0    0  0.00000000000E+00  0.00000000000E+00  0.39999999673E+01  0.40000000000E+01  0.51109989000E-03 0.  1.
     -623   -1    0    0    0    0  0.00000000000E+00  0.00000000000E+00  0.12525980253E-10  0.17130000000E+03  0.17130000000E+03 0. -1.
       11    1    1    2    0    0 -0.49357307247E-02 -0.41568017932E-01  0.48837078586E+00  0.49016175622E+00  0.51109989000E-03 0.  1.
     -623    1    1    2    0    0 -0.94867523040E-02 -0.12952937691E-01  0.15091750480E-01  0.17130000142E+03  0.17130000000E+03 0. -1.
      622    1    1    2    0    0  0.14422483029E-01  0.54520955623E-01  0.34965374310E+01  0.35098368266E+01  0.30000000000E+00 0.  1.
</event>
<event>
 5   0  0.5137000E+05  0.9118800E+02  0.7818608E-02  0.1180000E+00
       11   -1    0    0    0    0  0.00000000000E+00  0.00000000000E+00  0.39999999673E+01  0.40000000000E+01  0.51109989000E-03 0.  1.
     -623   -1    0    0    0    0  0.00000000000E+00  0.00000000000E+00  0.12525980253E-10  0.17130000000E+03  0.17130000000E+03 0.  1.
       11    1    1    2    0    0  0.92504538795E-02  0.40078703719E-01  0.10097593680E+01  0.10105969107E+01  0.51109989000E-03 0.  1.
     -623    1    1    2    0    0 -0.17475551986E-01  0.66782630725E-02  0.16309494848E-01  0.17130000180E+03  0.17130000000E+03 0.  1.
      622    1    1    2    0    0  0.82250981063E-02 -0.46756966792E-01  0.29739311045E+01  0.29894012913E+01  0.30000000000E+00 0.  1.
</event>
<event>
 5   0  0.5137000E+05  0.9118800E+02  0.7818608E-02  0.1180000E+00
       11   -1    0    0    0    0  0.00000000000E+00  0.00000000000E+00  0.39999999673E+01  0.40000000000E+01  0.51109989000E-03 0. -1.
     -623   -1    0    0    0    0  0.00000000000E+00  0.00000000000E+00  0.12525980253E-10  0.17130000000E+03  0.17130000000E+03 0.  1.
       11    1    1    2    0    0  0.30938174117E-01 -0.16102932703E-01  0.83377743051E-01  0.90380220834E-01  0.51109989000E-03 0. -1.
     -623    1    1    2    0    0  0.12679871349E-01  0.26941992123E-01  0.18792250805E-01  0.17130000362E+03  0.17130000000E+03 0.  1.
      622    1    1    2    0    0 -0.43618045466E-01 -0.10839059420E-01  0.38978299735E+01  0.39096161604E+01  0.30000000000E+00 0. -1.
</event>
<event>
 5   0  0.5137000E+05  0.9118800E+02  0.7818608E-02  0.1180000E+00
       11   -1    0    0    0    0  0.00000000000E+00  0.00000000000E+00  0.39999999673E+01  0.40000000000E+01  0.51109989000E-03 0. -1.
     -623   -1    0    0    0    0  0.00000000000E+00  0.00000000000E+00  0.12525980253E-10  0.17130000000E+03  0.17130000000E+03 0. -1.
       11    1    1    2    0    0  0.72484576865E-02 -0.54826380454E-01  0.87088212045E+00  0.87263646558E+00  0.51109989000E-03 0. -1.
     -623    1    1    2    0    0 -0.17550997121E-01 -0.45957153724E-01  0.17833670859E-01  0.17130000799E+03  0.17130000000E+03 0. -1.
      622    1    1    2    0    0  0.10302539435E-01  0.10078353418E+00  0.31112841761E+01  0.31273555422E+01  0.30000000000E+00 0.  0.
</event>
<event>
 5   0  0.5137000E+05  0.9118800E+02  0.7818608E-02  0.1180000E+00
       11   -1    0    0    0    0  0.00000000000E+00  0.00000000000E+00  0.39999999673E+01  0.40000000000E+01  0.51109989000E-03 0. -1.
     -623   -1    0    0    0    0  0.00000000000E+00  0.00000000000E+00  0.12525980253E-10  0.17130000000E+03  0.17130000000E+03 0.  1.
       11    1    1    2    0    0  0.30968048869E-01 -0.56321536050E-01  0.17458614934E+00  0.18604225390E+00  0.51109989000E-03 0. -1.
     -623    1    1    2    0    0 -0.24600118257E-01 -0.30969888966E-02  0.23746245070E-01  0.17130000344E+03  0.17130000000E+03 0.  1.
      622    1    1    2    0    0 -0.63679306119E-02  0.59418524947E-01  0.38016675729E+01  0.38139543058E+01  0.30000000000E+00 0. -1.
</event>
<event>
 5   0  0.5137000E+05  0.9118800E+02  0.7818608E-02  0.1180000E+00
       11   -1    0    0    0    0  0.00000000000E+00  0.00000000000E+00  0.39999999673E+01  0.40000000000E+01  0.51109989000E-03 0. -1.
     -623   -1    0    0    0    0  0.00000000000E+00  0.00000000000E+00  0.12525980253E-10  0.17130000000E+03  0.17130000000E+03 0.  1.
       11    1    1    2    0    0  0.40209222824E-01  0.27536005917E-01  0.34337618595E+00  0.34681764592E+00  0.51109989000E-03 0. -1.
     -623    1    1    2    0    0 -0.13082294554E-01 -0.33901681631E-01  0.15891523507E-01  0.17130000459E+03  0.17130000000E+03 0.  1.
      622    1    1    2    0    0 -0.27126928270E-01  0.63656757134E-02  0.36407322579E+01  0.36531777627E+01  0.30000000000E+00 0.  0.
</event>
<event>
 5   0  0.5137000E+05  0.9118800E+02  0.7818608E-02  0.1180000E+00
       11   -1    0    0    0    0  0.00000000000E+00  0.00000000000E+00  0.39999999673E+01  0.40000000000E+01  0.51109989000E-03 0.  1.
     -623   -1    0    0    0    0  0.00000000000E+00  0.00000000000E+00  0.12525980253E-10  0.17130000000E+03  0.17130000000E+03 0.  1.
       11    1    1    2    0    0  0.31476601853E-01  0.17736105412E-01  0.30223078089E-01  0.47106704096E-01  0.51109989000E-03 0.  1.
     -623    1    1    2    0    0 -0.14745239770E-01  0.34343071042E-01  0.28670188364E-01  0.17130000648E+03  0.17130000000E+03 0.  1.
      622    1    1    2    0    0 -0.16731362082E-01 -0.52079176455E-01  0.39411067009E+01  0.39528868194E+01  0.30000000000E+00 0.  1.
</event>
<event>
 5   0  0.5137000E+05  0.9118800E+02  0.7818608E-02  0.1180000E+00
       11   -1    0    0    0    0  0.00000000000E+00  0.00000000000E+00  0.39999999673E+01  0.40000000000E+01  0.51109989000E-03 0. -1.
     -623   -1    0    0    0    0  0.00000000000E+00  0.00000000000E+00  0.12525980253E-10  0.17130000000E+03  0.17130000000E+03 0. -1.
       11    1    1    2    0    0  0.61974609605E-01 -0.20165684958E-02  0.58894931794E-01  0.85520716770E-01  0.51109989000E-03 0. -1.
     -623    1    1    2    0    0 -0.95667870803E-01 -0.10558349798E-01  0.38335580525E-01  0.17130003133E+03  0.17130000000E+03 0. -1.
      622    1    1    2    0    0  0.33693261198E-01  0.12574918293E-01  0.39027694550E+01  0.39144479539E+01  0.30000000000E+00 0. -1.
</event>
<event>
 5   0  0.5137000E+05  0.9118800E+02  0.7818608E-02  0.1180000E+00
       11   -1    0    0    0    0  0.00000000000E+00  0.00000000000E+00  0.39999999673E+01  0.40000000000E+01  0.51109989000E-03 0. -1.
     -623   -1    0    0    0    0  0.00000000000E+00  0.00000000000E+00  0.12525980253E-10  0.17130000000E+03  0.17130000000E+03 0. -1.
       11    1    1    2    0    0 -0.51453668149E-02 -0.76427630421E-02  0.19972598730E-02  0.94412338534E-02  0.51109989000E-03 0. -1.
     -623    1    1    2    0    0 -0.42083581454E-02  0.14122209718E-01  0.18754469658E-01  0.17130000166E+03  0.17130000000E+03 0. -1.
      622    1    1    2    0    0  0.93537249603E-02 -0.64794466756E-02  0.39792482378E+01  0.39905571057E+01  0.30000000000E+00 0. -1.
</event>
<event>
 5   0  0.5137000E+05  0.9118800E+02  0.7818608E-02  0.1180000E+00
       11   -1    0    0    0    0  0.00000000000E+00  0.00000000000E+00  0.39999999673E+01  0.40000000000E+01  0.51109989000E-03 0.  1.
     -623   -1    0    0    0    0  0.00000000000E+00  0.00000000000E+00  0.12525980253E-10  0.17130000000E+03  0.17130000000E+03 0. -1.
       11    1    1    2    0    0  0.88138008013E-02  0.10339634188E-01  0.51888302522E-01  0.53639987681E-01  0.51109989000E-03 0.  1.
     -623    1    1    2    0    0 -0.23794513422E-02  0.10280035380E-01  0.13231212135E-01  0.17130000084E+03  0.17130000000E+03 0. -1.
      622    1    1    2    0    0 -0.64343494591E-02 -0.20619669568E-01  0.39348804527E+01  0.39463591763E+01  0.30000000000E+00 0.  1.
</event>
<event>
 5   0  0.5137000E+05  0.9118800E+02  0.7818608E-02  0.1180000E+00
       11   -1    0    0    0    0  0.00000000000E+00  0.00000000000E+00  0.39999999673E+01  0.40000000000E+01  0.51109989000E-03 0. -1.
     -623   -1    0    0    0    0  0.00000000000E+00  0.00000000000E+00  0.12525980253E-10  0.17130000000E+03  0.17130000000E+03 0. -1.
       11    1    1    2    0    0  0.22866941827E-01  0.58791877553E-02  0.22386402227E-01  0.32540345803E-01  0.51109989000E-03 0. -1.
     -623    1    1    2    0    0 -0.17277874754E-01  0.17230351336E-01  0.21586993423E-01  0.17130000310E+03  0.17130000000E+03 0. -1.
      622    1    1    2    0    0 -0.55890670726E-02 -0.23109539091E-01  0.39560265717E+01  0.39674565561E+01  0.30000000000E+00 0. -1.
</event>
<event>
 5   0  0.5137000E+05  0.9118800E+02  0.7818608E-02  0.1180000E+00
       11   -1    0    0    0    0  0.00000000000E+00  0.00000000000E+00  0.39999999673E+01  0.40000000000E+01  0.51109989000E-03 0.  1.
     -623   -1    0    0    0    0  0.00000000000E+00  0.00000000000E+00  0.12525980253E-10  0.17130000000E+03  0.17130000000E+03 0.  1.
       11    1    1    2    0    0 -0.24748987997E-01  0.25974193367E-01  0.12723897406E+00  0.13220131947E+00  0.51109989000E-03 0.  1.
     -623    1    1    2    0    0 -0.12957426558E-01 -0.21342475639E-01  0.16804178843E-01  0.17130000264E+03  0.17130000000E+03 0.  1.
      622    1    1    2    0    0  0.37706414555E-01 -0.46317177279E-02  0.38559568145E+01  0.38677960367E+01  0.30000000000E+00 0.  1.
</event>
<event>
 5   0  0.5137000E+05  0.9118800E+02  0.7818608E-02  0.1180000E+00
       11   -1    0    0    0    0  0.00000000000E+00  0.00000000000E+00  0.39999999673E+01  0.40000000000E+01  0.51109989000E-03 0. -1.
     -623   -1    0    0    0    0  0.00000000000E+00  0.00000000000E+00  0.12525980253E-10  0.17130000000E+03  0.17130000000E+03 0.  1.
       11    1    1    2    0    0 -0.33702050917E-01  0.13227021462E-01  0.14264549479E+00  0.14716922483E+00  0.51109989000E-03 0. -1.
     -623    1    1    2    0    0  0.10229453802E-01 -0.35167686447E-01  0.16360273695E-01  0.17130000470E+03  0.17130000000E+03 0.  1.
      622    1    1    2    0    0  0.23472597115E-01  0.21940664986E-01  0.38409941989E+01  0.38528260785E+01  0.30000000000E+00 0. -1.
</event>
<event>
 5   0  0.5137000E+05  0.9118800E+02  0.7818608E-02  0.1180000E+00
       11   -1    0    0    0    0  0.00000000000E+00  0.00000000000E+00  0.39999999673E+01  0.40000000000E+01  0.51109989000E-03 0. -1.
     -623   -1    0    0    0    0  0.00000000000E+00  0.00000000000E+00  0.12525980253E-10  0.17130000000E+03  0.17130000000E+03 0.  1.
       11    1    1    2    0    0  0.40564115031E-01 -0.26298315142E-02  0.88900995971E-01  0.97754855377E-01  0.51109989000E-03 0. -1.
     -623    1    1    2    0    0 -0.23112154189E-01 -0.91075035263E-02  0.20462617755E-01  0.17130000302E+03  0.17130000000E+03 0.  1.
      622    1    1    2    0    0 -0.17451960842E-01  0.11737335041E-01  0.38906363536E+01  0.39022421212E+01  0.30000000000E+00 0. -1.
</event>
<event>
 5   0  0.5137000E+05  0.9118800E+02  0.7818608E-02  0.1180000E+00
       11   -1    0    0    0    0  0.00000000000E+00  0.00000000000E+00  0.39999999673E+01  0.40000000000E+01  0.51109989000E-03 0. -1.
     -623   -1    0    0    0    0  0.00000000000E+00  0.00000000000E+00  0.12525980253E-10  0.17130000000E+03  0.17130000000E+03 0.  1.
       11    1    1    2    0    0 -0.39579841137E-01 -0.96413921297E-02  0.55295168809E-01  0.68682874018E-01  0.51109989000E-03 0. -1.
     -623    1    1    2    0    0 -0.32007025050E-02  0.10474781921E-01  0.25086669308E-01  0.17130000219E+03  0.17130000000E+03 0.  1.
      622    1    1    2    0    0  0.42780543642E-01 -0.83338979172E-03  0.39196181292E+01  0.39313149389E+01  0.30000000000E+00 0. -1.
</event>
<event>
 5   0  0.5137000E+05  0.9118800E+02  0.7818608E-02  0.1180000E+00
       11   -1    0    0    0    0  0.00000000000E+00  0.00000000000E+00  0.39999999673E+01  0.40000000000E+01  0.51109989000E-03 0.  1.
     -623   -1    0    0    0    0  0.00000000000E+00  0.00000000000E+00  0.12525980253E-10  0.17130000000E+03  0.17130000000E+03 0.  1.
       11    1    1    2    0    0  0.18192607409E-01 -0.10826934849E-03  0.56424951462E-01  0.59287596129E-01  0.51109989000E-03 0.  1.
     -623    1    1    2    0    0 -0.25161326393E-01  0.16837542374E-01  0.14343538949E-01  0.17130000328E+03  0.17130000000E+03 0.  1.
      622    1    1    2    0    0  0.69687189839E-02 -0.16729273025E-01  0.39292314769E+01  0.39407091279E+01  0.30000000000E+00 0.  1.
</event>
<event>
 5   0  0.5137000E+05  0.9118800E+02  0.7818608E-02  0.1180000E+00
       11   -1    0    0    0    0  0.00000000000E+00  0.00000000000E+00  0.39999999673E+01  0.40000000000E+01  0.51109989000E-03 0.  1.
     -623   -1    0    0    0    0  0.00000000000E+00  0.00000000000E+00  0.12525980253E-10  0.17130000000E+03  0.17130000000E+03 0. -1.
       11    1    1    2    0    0  0.28822693254E-02  0.19969101508E-02 -0.34439534257E-03  0.35601907061E-02  0.51109989000E-03 0.  1.
     -623    1    1    2    0    0  0.14630073460E-02  0.83861769139E-02  0.15197266239E-01  0.17130000089E+03  0.17130000000E+03 0. -1.
      622    1    1    2    0    0 -0.43452766714E-02 -0.10383087065E-01  0.39851470965E+01  0.39964389236E+01  0.30000000000E+00 0.  1.
</event>
<event>
 5   0  0.5137000E+05  0.9118800E+02  0.7818608E-02  0.1180000E+00
       11   -1    0    0    0    0  0.00000000000E+00  0.00000000000E+00  0.39999999673E+01  0.40000000000E+01  0.51109989000E-03 0. -1.
     -623   -1    0    0    0    0  0.00000000000E+00  0.00000000000E+00  0.12525980253E-10  0.17130000000E+03  0.17130000000E+03 0. -1.
       11    1    1    2    0    0  0.41274511861E-02  0.38439767755E-01  0.19093505952E+00  0.19481044576E+00  0.51109989000E-03 0. -1.
     -623    1    1    2    0    0  0.29227439040E-01 -0.13350914808E-01  0.15953130451E-01  0.17130000376E+03  0.17130000000E+03 0. -1.
      622    1    1    2    0    0 -0.33354890226E-01 -0.25088852946E-01  0.37931117774E+01  0.38051857977E+01  0.30000000000E+00 0. -1.
</event>
<event>
 5   0  0.5137000E+05  0.9118800E+02  0.7818608E-02  0.1180000E+00
       11   -1    0    0    0    0  0.00000000000E+00  0.00000000000E+00  0.39999999673E+01  0.40000000000E+01  0.51109989000E-03 0. -1.
     -623   -1    0    0    0    0  0.00000000000E+00  0.00000000000E+00  0.12525980253E-10  0.17130000000E+03  0.17130000000E+03 0.  1.
       11    1    1    2    0    0  0.19709702808E-02  0.16320755202E+00  0.43503103960E+00  0.46464271908E+00  0.51109989000E-03 0. -1.
     -623    1    1    2    0    0 -0.77917966270E-01  0.16271703499E+00  0.58401631881E-01  0.17130010496E+03  0.17130000000E+03 0.  1.
      622    1    1    2    0    0  0.75946995989E-01 -0.32592458700E+00  0.35065672959E+01  0.35352523224E+01  0.30000000000E+00 0. -1.
</event>
<event>
 5   0  0.5137000E+05  0.9118800E+02  0.7818608E-02  0.1180000E+00
       11   -1    0    0    0    0  0.00000000000E+00  0.00000000000E+00  0.39999999673E+01  0.40000000000E+01  0.51109989000E-03 0. -1.
     -623   -1    0    0    0    0  0.00000000000E+00  0.00000000000E+00  0.12525980253E-10  0.17130000000E+03  0.17130000000E+03 0. -1.
       11    1    1    2    0    0 -0.17874043233E-01 -0.18778270928E-03  0.64842884345E+00  0.64867537561E+00  0.51109989000E-03 0. -1.
     -623    1    1    2    0    0 -0.30027280497E-01 -0.18126656965E-01  0.14099202610E-01  0.17130000417E+03  0.17130000000E+03 0. -1.
      622    1    1    2    0    0  0.47901323730E-01  0.18314439674E-01  0.33374719213E+01  0.33513204533E+01  0.30000000000E+00 0. -1.
</event>
<event>
 5   0  0.5137000E+05  0.9118800E+02  0.7818608E-02  0.1180000E+00
       11   -1    0    0    0    0  0.00000000000E+00  0.00000000000E+00  0.39999999673E+01  0.40000000000E+01  0.51109989000E-03 0. -1.
     -623   -1    0    0    0    0  0.00000000000E+00  0.00000000000E+00  0.12525980253E-10  0.17130000000E+03  0.17130000000E+03 0. -1.
       11    1    1    2    0    0  0.19750844536E-01  0.16247042358E-01  0.17397190713E+00  0.17584239516E+00  0.51109989000E-03 0. -1.
     -623    1    1    2    0    0  0.10703351276E-01  0.34321940566E-02  0.13829276557E-01  0.17130000093E+03  0.17130000000E+03 0. -1.
      622    1    1    2    0    0 -0.30454195812E-01 -0.19679236414E-01  0.38121987837E+01  0.38241566778E+01  0.30000000000E+00 0. -1.
</event>
<event>
 5   0  0.5137000E+05  0.9118800E+02  0.7818608E-02  0.1180000E+00
       11   -1    0    0    0    0  0.00000000000E+00  0.00000000000E+00  0.39999999673E+01  0.40000000000E+01  0.51109989000E-03 0.  1.
     -623   -1    0    0    0    0  0.00000000000E+00  0.00000000000E+00  0.12525980253E-10  0.17130000000E+03  0.17130000000E+03 0.  1.
       11    1    1    2    0    0  0.89797583124E-02  0.10538493490E-01  0.84316516618E-01  0.85447247469E-01  0.51109989000E-03 0.  1.
     -623    1    1    2    0    0 -0.12478042085E-01  0.41398822764E-02  0.12673338079E-01  0.17130000097E+03  0.17130000000E+03 0.  1.
      622    1    1    2    0    0  0.34982837724E-02 -0.14678375766E-01  0.39030101127E+01  0.39145517792E+01  0.30000000000E+00 0.  1.
</event>
<event>
 5   0  0.5137000E+05  0.9118800E+02  0.7818608E-02  0.1180000E+00
       11   -1    0    0    0    0  0.00000000000E+00  0.00000000000E+00  0.39999999673E+01  0.40000000000E+01  0.51109989000E-03 0.  1.
     -623   -1    0    0    0    0  0.00000000000E+00  0.00000000000E+00  0.12525980253E-10  0.17130000000E+03  0.17130000000E+03 0.  1.
       11    1    1    2    0    0  0.25297293208E-01 -0.11160902350E-02  0.74997238193E+00  0.75039991576E+00  0.51109989000E-03 0.  1.
     -623    1    1    2    0    0 -0.77105425879E-02 -0.15172693056E-01  0.14395241797E-01  0.17130000145E+03  0.17130000000E+03 0.  1.
      622    1    1    2    0    0 -0.17586750621E-01  0.16288783291E-01  0.32356323436E+01  0.32495986339E+01  0.30000000000E+00 0.  1.
</event>
<event>
 5   0  0.5137000E+05  0.9118800E+02  0.7818608E-02  0.1180000E+00
       11   -1    0    0    0    0  0.00000000000E+00  0.00000000000E+00  0.39999999673E+01  0.40000000000E+01  0.51109989000E-03 0. -1.
     -623   -1    0    0    0    0  0.00000000000E+00  0.00000000000E+00  0.12525980253E-10  0.17130000000E+03  0.17130000000E+03 0. -1.
       11    1    1    2    0    0  0.11991127242E+00 -0.10011859385E-01  0.27653994939E+00  0.30158507160E+00  0.51109989000E-03 0. -1.
     -623    1    1    2    0    0 -0.38012486223E-01 -0.26345904225E-01  0.38332370572E-01  0.17130001053E+03  0.17130000000E+03 0. -1.
      622    1    1    2    0    0 -0.81898786196E-01  0.36357763610E-01  0.36851276474E+01  0.36984043959E+01  0.30000000000E+00 0. -1.
</event>
<event>
 5   0  0.5137000E+05  0.9118800E+02  0.7818608E-02  0.1180000E+00
       11   -1    0    0    0    0  0.00000000000E+00  0.00000000000E+00  0.39999999673E+01  0.40000000000E+01  0.51109989000E-03 0.  1.
     -623   -1    0    0    0    0  0.00000000000E+00  0.00000000000E+00  0.12525980253E-10  0.17130000000E+03  0.17130000000E+03 0.  1.
       11    1    1    2    0    0 -0.66185230175E-02  0.30278529637E-01  0.66419192035E-01  0.73296415311E-01  0.51109989000E-03 0.  1.
     -623    1    1    2    0    0  0.46483204318E-01  0.22552365046E-01  0.18922252539E-01  0.17130000884E+03  0.17130000000E+03 0.  1.
      622    1    1    2    0    0 -0.39864681300E-01 -0.52830894683E-01  0.39146585228E+01  0.39266947483E+01  0.30000000000E+00 0.  1.
</event>
<event>
 5   0  0.5137000E+05  0.9118800E+02  0.7818608E-02  0.1180000E+00
       11   -1    0    0    0    0  0.00000000000E+00  0.00000000000E+00  0.39999999673E+01  0.40000000000E+01  0.51109989000E-03 0. -1.
     -623   -1    0    0    0    0  0.00000000000E+00  0.00000000000E+00  0.12525980253E-10  0.17130000000E+03  0.17130000000E+03 0.  1.
       11    1    1    2    0    0 -0.29413133954E-01  0.36703482402E-01  0.18899485188E+00  0.19476034845E+00  0.51109989000E-03 0. -1.
     -623    1    1    2    0    0  0.39074491311E-02 -0.51373136972E-01  0.17732502546E-01  0.17130000867E+03  0.17130000000E+03 0.  1.
      622    1    1    2    0    0  0.25505684823E-01  0.14669654571E-01  0.37932726130E+01  0.38052309857E+01  0.30000000000E+00 0. -1.
</event>
<event>
 5   0  0.5137000E+05  0.9118800E+02  0.7818608E-02  0.1180000E+00
       11   -1    0    0    0    0  0.00000000000E+00  0.00000000000E+00  0.39999999673E+01  0.40000000000E+01  0.51109989000E-03 0.  1.
     -623   -1    0    0    0    0  0.00000000000E+00  0.00000000000E+00  0.12525980253E-10  0.17130000000E+03  0.17130000000E+03 0. -1.
       11    1    1    2    0    0 -0.70849594648E-02 -0.35219689522E-01  0.17751855029E+00  0.18111797288E+00  0.51109989000E-03 0.  1.
     -623    1    1    2    0    0  0.33875618433E-02 -0.19049454241E-01  0.15791618676E-01  0.17130000182E+03  0.17130000000E+03 0. -1.
      622    1    1    2    0    0  0.36973976215E-02  0.54269143763E-01  0.38066897984E+01  0.38188802065E+01  0.30000000000E+00 0.  1.
</event>
<event>
 5   0  0.5137000E+05  0.9118800E+02  0.7818608E-02  0.1180000E+00
       11   -1    0    0    0    0  0.00000000000E+00  0.00000000000E+00  0.39999999673E+01  0.40000000000E+01  0.51109989000E-03 0.  1.
     -623   -1    0    0    0    0  0.00000000000E+00  0.00000000000E+00  0.12525980253E-10  0.17130000000E+03  0.17130000000E+03 0.  1.
       11    1    1    2    0    0  0.64215910558E-02  0.54339789187E-01  0.23373903124E+00  0.24005883752E+00  0.51109989000E-03 0.  1.
     -623    1    1    2    0    0  0.35942850327E-01  0.13128173415E-01  0.19159299237E-01  0.17130000535E+03  0.17130000000E+03 0.  1.
      622    1    1    2    0    0 -0.42364441383E-01 -0.67467962602E-01  0.37471016369E+01  0.37599358172E+01  0.30000000000E+00 0.  1.
</event>
<event>
 5   0  0.5137000E+05  0.9118800E+02  0.7818608E-02  0.1180000E+00
       11   -1    0    0    0    0  0.00000000000E+00  0.00000000000E+00  0.39999999673E+01  0.40000000000E+01  0.51109989000E-03 0.  1.
     -623   -1    0    0    0    0  0.00000000000E+00  0.00000000000E+00  0.12525980253E-10  0.17130000000E+03  0.17130000000E+03 0. -1.
       11    1    1    2    0    0 -0.94990720045E-02  0.63075396780E-01  0.21798826261E+00  0.22712965880E+00  0.51109989000E-03 0.  1.
     -623    1    1    2    0    0  0.45506161882E-01 -0.23780054700E-01  0.21474275589E-01  0.17130000904E+03  0.17130000000E+03 0. -1.
      622    1    1    2    0    0 -0.36007089878E-01 -0.39295342080E-01  0.37605374292E+01  0.37728613002E+01  0.30000000000E+00 0.  1.
</event>
<event>
 5   0  0.5137000E+05  0.9118800E+02  0.7818608E-02  0.1180000E+00
       11   -1    0    0    0    0  0.00000000000E+00  0.00000000000E+00  0.39999999673E+01  0.40000000000E+01  0.51109989000E-03 0. -1.
     -623   -1    0    0    0    0  0.00000000000E+00  0.00000000000E+00  0.12525980253E-10  0.17130000000E+03  0.17130000000E+03 0.  1.
       11    1    1    2    0    0  0.11385280844E-01 -0.13372884229E-01  0.23018912317E-01  0.28958421916E-01  0.51109989000E-03 0. -1.
     -623    1    1    2    0    0 -0.22026035947E-01  0.14611763739E-01  0.17305144539E-01  0.17130000291E+03  0.17130000000E+03 0.  1.
      622    1    1    2    0    0  0.10640755103E-01 -0.12388795104E-02  0.39596759105E+01  0.39710386647E+01  0.30000000000E+00 0. -1.
</event>
<event>
 5   0  0.5137000E+05  0.9118800E+02  0.7818608E-02  0.1180000E+00
       11   -1    0    0    0    0  0.00000000000E+00  0.00000000000E+00  0.39999999673E+01  0.40000000000E+01  0.51109989000E-03 0.  1.
     -623   -1    0    0    0    0  0.00000000000E+00  0.00000000000E+00  0.12525980253E-10  0.17130000000E+03  0.17130000000E+03 0.  1.
       11    1    1    2    0    0 -0.40732726706E-01  0.41661169142E-02  0.13970874678E+00  0.14558608004E+00  0.51109989000E-03 0.  1.
     -623    1    1    2    0    0  0.12548605062E-01  0.95862031220E-02  0.17699577503E-01  0.17130000164E+03  0.17130000000E+03 0.  1.
      622    1    1    2    0    0  0.28184121644E-01 -0.13752320036E-01  0.38425916431E+01  0.38544122777E+01  0.30000000000E+00 0.  1.
</event>
<event>
 5   0  0.5137000E+05  0.9118800E+02  0.7818608E-02  0.1180000E+00
       11   -1    0    0    0    0  0.00000000000E+00  0.00000000000E+00  0.39999999673E+01  0.40000000000E+01  0.51109989000E-03 0. -1.
     -623   -1    0    0    0    0  0.00000000000E+00  0.00000000000E+00  0.12525980253E-10  0.17130000000E+03  0.17130000000E+03 0.  1.
       11    1    1    2    0    0 -0.10602488199E-01 -0.28051879522E-02  0.34217777921E+00  0.34235387487E+00  0.51109989000E-03 0. -1.
     -623    1    1    2    0    0 -0.14413472348E-01  0.37561024333E-02  0.12586893392E-01  0.17130000111E+03  0.17130000000E+03 0.  1.
      622    1    1    2    0    0  0.25015960547E-01 -0.95091448108E-03  0.36452352948E+01  0.36576450151E+01  0.30000000000E+00 0. -1.
</event>
<event>
 5   0  0.5137000E+05  0.9118800E+02  0.7818608E-02  0.1180000E+00
       11   -1    0    0    0    0  0.00000000000E+00  0.00000000000E+00  0.39999999673E+01  0.40000000000E+01  0.51109989000E-03 0.  1.
     -623   -1    0    0    0    0  0.00000000000E+00  0.00000000000E+00  0.12525980253E-10  0.17130000000E+03  0.17130000000E+03 0.  1.
       11    1    1    2    0    0  0.36610256749E-02  0.11325255796E-02  0.52937552739E-03  0.39022024183E-02  0.51109989000E-03 0.  1.
     -623    1    1    2    0    0 -0.11800029451E-01  0.81324916894E-02  0.14670005551E-01  0.17130000123E+03  0.17130000000E+03 0.  1.
      622    1    1    2    0    0  0.81390037762E-02 -0.92650172690E-02  0.39848005863E+01  0.39960965699E+01  0.30000000000E+00 0.  1.
</event>
<event>
 5   0  0.5137000E+05  0.9118800E+02  0.7818608E-02  0.1180000E+00
       11   -1    0    0    0    0  0.00000000000E+00  0.00000000000E+00  0.39999999673E+01  0.40000000000E+01  0.51109989000E-03 0.  1.
     -623   -1    0    0    0    0  0.00000000000E+00  0.00000000000E+00  0.12525980253E-10  0.17130000000E+03  0.17130000000E+03 0.  1.
       11    1    1    2    0    0  0.26321337036E-02  0.10525966939E-01  0.15054413563E+00  0.15093548987E+00  0.51109989000E-03 0.  1.
     -623    1    1    2    0    0  0.11337753520E-02  0.90443001133E-02  0.12152711008E-01  0.17130000067E+03  0.17130000000E+03 0.  1.
      622    1    1    2    0    0 -0.37659090556E-02 -0.19570267052E-01  0.38373031207E+01  0.38490638365E+01  0.30000000000E+00 0.  1.
</event>
<event>
 5   0  0.5137000E+05  0.9118800E+02  0.7818608E-02  0.1180000E+00
       11   -1    0    0    0    0  0.00000000000E+00  0.00000000000E+00  0.39999999673E+01  0.40000000000E+01  0.51109989000E-03 0.  1.
     -623   -1    0    0    0    0  0.00000000000E+00  0.00000000000E+00  0.12525980253E-10  0.17130000000E+03  0.17130000000E+03 0.  1.
       11    1    1    2    0    0 -0.16131522130E-01 -0.72339122019E-02  0.25375100656E+00  0.25436664491E+00  0.51109989000E-03 0.  1.
     -623    1    1    2    0    0 -0.80988819708E-02  0.14076247045E-01  0.12735068005E-01  0.17130000124E+03  0.17130000000E+03 0.  1.
      622    1    1    2    0    0  0.24230404101E-01 -0.68423348433E-02  0.37335138928E+01  0.37456321119E+01  0.30000000000E+00 0.  1.
</event>
<event>
 5   0  0.5137000E+05  0.9118800E+02  0.7818608E-02  0.1180000E+00
       11   -1    0    0    0    0  0.00000000000E+00  0.00000000000E+00  0.39999999673E+01  0.40000000000E+01  0.51109989000E-03 0.  1.
     -623   -1    0    0    0    0  0.00000000000E+00  0.00000000000E+00  0.12525980253E-10  0.17130000000E+03  0.17130000000E+03 0. -1.
       11    1    1    2    0    0 -0.37762405459E-01  0.51024249140E-01  0.26246054919E+00  0.27002828439E+00  0.51109989000E-03 0.  1.
     -623    1    1    2    0    0 -0.15348952412E-01 -0.16346166026E-01  0.20195502870E-01  0.17130000266E+03  0.17130000000E+03 0. -1.
      622    1    1    2    0    0  0.53111357871E-01 -0.34678083114E-01  0.37173439153E+01  0.37299690576E+01  0.30000000000E+00 0.  1.
</event>
<event>
 5   0  0.5137000E+05  0.9118800E+02  0.7818608E-02  0.1180000E+00
       11   -1    0    0    0    0  0.00000000000E+00  0.00000000000E+00  0.39999999673E+01  0.40000000000E+01  0.51109989000E-03 0.  1.
     -623   -1    0    0    0    0  0.00000000000E+00  0.00000000000E+00  0.12525980253E-10  0.17130000000E+03  0.17130000000E+03 0.  1.
       11    1    1    2    0    0  0.10273977509E-01  0.51474046476E-01  0.51195826339E+00  0.51464226094E+00  0.51109989000E-03 0.  1.
     -623    1    1    2    0    0 -0.21125268643E-01 -0.37585076787E-02  0.15966029129E-01  0.17130000209E+03  0.17130000000E+03 0.  1.
      622    1    1    2    0    0  0.10851291135E-01 -0.47715538798E-01  0.34720756748E+01  0.34853556511E+01  0.30000000000E+00 0.  1.
</event>
<event>
 5   0  0.5137000E+05  0.9118800E+02  0.7818608E-02  0.1180000E+00
       11   -1    0    0    0    0  0.00000000000E+00  0.00000000000E+00  0.39999999673E+01  0.40000000000E+01  0.51109989000E-03 0. -1.
     -623   -1    0    0    0    0  0.00000000000E+00  0.00000000000E+00  0.12525980253E-10  0.17130000000E+03  0.17130000000E+03 0.  1.
       11    1    1    2    0    0 -0.77826325815E-01  0.84237026002E-01  0.10225878951E+01  0.10289990661E+01  0.51109989000E-03 0. -1.
     -623    1    1    2    0    0 -0.49618427802E-01 -0.79484294256E-01  0.24376478827E-01  0.17130002736E+03  0.17130000000E+03 0.  1.
      622    1    1    2    0    0  0.12744475362E+00 -0.47527317461E-02  0.29530355934E+01  0.29709735727E+01  0.30000000000E+00 0. -1.
</event>
<event>
 5   0  0.5137000E+05  0.9118800E+02  0.7818608E-02  0.1180000E+00
       11   -1    0    0    0    0  0.00000000000E+00  0.00000000000E+00  0.39999999673E+01  0.40000000000E+01  0.51109989000E-03 0. -1.
     -623   -1    0    0    0    0  0.00000000000E+00  0.00000000000E+00  0.12525980253E-10  0.17130000000E+03  0.17130000000E+03 0.  1.
       11    1    1    2    0    0 -0.10683752727E-01  0.15685464133E-01  0.36472488725E+00  0.36521867554E+00  0.51109989000E-03 0. -1.
     -623    1    1    2    0    0  0.22174622355E-02 -0.11858693855E-01  0.12908128701E-01  0.17130000091E+03  0.17130000000E+03 0.  1.
      622    1    1    2    0    0  0.84662904920E-02 -0.38267702782E-02  0.36223669514E+01  0.36347804133E+01  0.30000000000E+00 0. -1.
</event>
<event>
 5   0  0.5137000E+05  0.9118800E+02  0.7818608E-02  0.1180000E+00
       11   -1    0    0    0    0  0.00000000000E+00  0.00000000000E+00  0.39999999673E+01  0.40000000000E+01  0.51109989000E-03 0.  1.
     -623   -1    0    0    0    0  0.00000000000E+00  0.00000000000E+00  0.12525980253E-10  0.17130000000E+03  0.17130000000E+03 0. -1.
       11    1    1    2    0    0 -0.11023082923E-01 -0.21353310011E-01  0.98572723550E-01  0.10146090507E+00  0.51109989000E-03 0.  1.
     -623    1    1    2    0    0 -0.65584550933E-02  0.42921721486E-02  0.14526076888E-01  0.17130000080E+03  0.17130000000E+03 0. -1.
      622    1    1    2    0    0  0.17581538016E-01  0.17061137863E-01  0.38869011669E+01  0.38985382997E+01  0.30000000000E+00 0.  1.
</event>
<event>
 5   0  0.5137000E+05  0.9118800E+02  0.7818608E-02  0.1180000E+00
       11   -1    0    0    0    0  0.00000000000E+00  0.00000000000E+00  0.39999999673E+01  0.40000000000E+01  0.51109989000E-03 0.  1.
     -623   -1    0    0    0    0  0.00000000000E+00  0.00000000000E+00  0.12525980253E-10  0.17130000000E+03  0.17130000000E+03 0.  1.
       11    1    1    2    0    0  0.51578520278E-02 -0.58648668380E-01  0.85269444112E-01  0.10362147008E+00  0.51109989000E-03 0.  1.
     -623    1    1    2    0    0 -0.44993681384E-01  0.54761147560E-01  0.30141906754E-01  0.17130001731E+03  0.17130000000E+03 0.  1.
      622    1    1    2    0    0  0.39835829357E-01  0.38875208199E-02  0.38845886165E+01  0.38963612160E+01  0.30000000000E+00 0.  1.
</event>
<event>
 5   0  0.5137000E+05  0.9118800E+02  0.7818608E-02  0.1180000E+00
       11   -1    0    0    0    0  0.00000000000E+00  0.00000000000E+00  0.39999999673E+01  0.40000000000E+01  0.51109989000E-03 0.  1.
     -623   -1    0    0    0    0  0.00000000000E+00  0.00000000000E+00  0.12525980253E-10  0.17130000000E+03  0.17130000000E+03 0.  1.
       11    1    1    2    0    0 -0.14586018357E-01  0.27538775673E-02  0.70573084268E-02  0.16443922844E-01  0.51109989000E-03 0.  1.
     -623    1    1    2    0    0  0.23037051657E-01 -0.18034857658E-01  0.20741231251E-01  0.17130000375E+03  0.17130000000E+03 0.  1.
      622    1    1    2    0    0 -0.84510333007E-02  0.15280980091E-01  0.39722014277E+01  0.39835523231E+01  0.30000000000E+00 0.  1.
</event>
<event>
 5   0  0.5137000E+05  0.9118800E+02  0.7818608E-02  0.1180000E+00
       11   -1    0    0    0    0  0.00000000000E+00  0.00000000000E+00  0.39999999673E+01  0.40000000000E+01  0.51109989000E-03 0. -1.
     -623   -1    0    0    0    0  0.00000000000E+00  0.00000000000E+00  0.12525980253E-10  0.17130000000E+03  0.17130000000E+03 0.  1.
       11    1    1    2    0    0 -0.36342909950E-02  0.39465220354E-01  0.60785692287E+00  0.60914777484E+00  0.51109989000E-03 0. -1.
     -623    1    1    2    0    0  0.89532215078E-02  0.54318672542E-02  0.14891467694E-01  0.17130000097E+03  0.17130000000E+03 0.  1.
      622    1    1    2    0    0 -0.53189305127E-02 -0.44897087608E-01  0.33772515768E+01  0.33908512578E+01  0.30000000000E+00 0. -1.
</event>
<event>
 5   0  0.5137000E+05  0.9118800E+02  0.7818608E-02  0.1180000E+00
       11   -1    0    0    0    0  0.00000000000E+00  0.00000000000E+00  0.39999999673E+01  0.40000000000E+01  0.51109989000E-03 0. -1.
     -623   -1    0    0    0    0  0.00000000000E+00  0.00000000000E+00  0.12525980253E-10  0.17130000000E+03  0.17130000000E+03 0.  1.
       11    1    1    2    0    0 -0.89973846447E-02 -0.22155180158E-02 -0.78792614018E-02  0.12173965412E-01  0.51109989000E-03 0. -1.
     -623    1    1    2    0    0 -0.86471546078E-02  0.30698911720E-02  0.31395918679E-01  0.17130000312E+03  0.17130000000E+03 0.  1.
      622    1    1    2    0    0  0.17644539252E-01 -0.85437315621E-03  0.39764833101E+01  0.39878229117E+01  0.30000000000E+00 0. -1.
</event>
<event>
 5   0  0.5137000E+05  0.9118800E+02  0.7818608E-02  0.1180000E+00
       11   -1    0    0    0    0  0.00000000000E+00  0.00000000000E+00  0.39999999673E+01  0.40000000000E+01  0.51109989000E-03 0.  1.
     -623   -1    0    0    0    0  0.00000000000E+00  0.00000000000E+00  0.12525980253E-10  0.17130000000E+03  0.17130000000E+03 0.  1.
       11    1    1    2    0    0  0.29632942419E-01 -0.99931762191E-02  0.34226848064E+00  0.34369455758E+00  0.51109989000E-03 0.  1.
     -623    1    1    2    0    0 -0.34338980418E-01  0.22213211243E-01  0.13783317953E-01  0.17130000544E+03  0.17130000000E+03 0.  1.
      622    1    1    2    0    0  0.47060379987E-02 -0.12220035024E-01  0.36439481688E+01  0.36563000058E+01  0.30000000000E+00 0.  1.
</event>
<event>
 5   0  0.5137000E+05  0.9118800E+02  0.7818608E-02  0.1180000E+00
       11   -1    0    0    0    0  0.00000000000E+00  0.00000000000E+00  0.39999999673E+01  0.40000000000E+01  0.51109989000E-03 0.  1.
     -623   -1    0    0    0    0  0.00000000000E+00  0.00000000000E+00  0.12525980253E-10  0.17130000000E+03  0.17130000000E+03 0.  1.
       11    1    1    2    0    0 -0.87850457637E-02 -0.14859095272E+00  0.91367946287E+00  0.92572505116E+00  0.51109989000E-03 0.  1.
     -623    1    1    2    0    0 -0.53266525310E-01  0.14199174101E+00  0.27424255046E-01  0.17130006933E+03  0.17130000000E+03 0.  1.
      622    1    1    2    0    0  0.62051571074E-01  0.65992117060E-02  0.30588962495E+01  0.30742056229E+01  0.30000000000E+00 0.  1.
</event>
<event>
 5   0  0.5137000E+05  0.9118800E+02  0.7818608E-02  0.1180000E+00
       11   -1    0    0    0    0  0.00000000000E+00  0.00000000000E+00  0.39999999673E+01  0.40000000000E+01  0.51109989000E-03 0.  1.
     -623   -1    0    0    0    0  0.00000000000E+00  0.00000000000E+00  0.12525980253E-10  0.17130000000E+03  0.17130000000E+03 0.  1.
       11    1    1    2    0    0 -0.69663220844E-01 -0.20591582334E-01  0.16529002422E+00  0.18054924794E+00  0.51109989000E-03 0.  1.
     -623    1    1    2    0    0  0.11260923836E-01 -0.72447553832E-02  0.27611656974E-01  0.17130000275E+03  0.17130000000E+03 0.  1.
      622    1    1    2    0    0  0.58402297008E-01  0.27836337717E-01  0.38070982862E+01  0.38194480034E+01  0.30000000000E+00 0.  0.
</event>
<event>
 5   0  0.5137000E+05  0.9118800E+02  0.7818608E-02  0.1180000E+00
       11   -1    0    0    0    0  0.00000000000E+00  0.00000000000E+00  0.39999999673E+01  0.40000000000E+01  0.51109989000E-03 0. -1.
     -623   -1    0    0    0    0  0.00000000000E+00  0.00000000000E+00  0.12525980253E-10  0.17130000000E+03  0.17130000000E+03 0.  1.
       11    1    1    2    0    0 -0.28355838135E-02  0.18701131865E-03 -0.64735804222E-02  0.70882984825E-02  0.51109989000E-03 0. -1.
     -623    1    1    2    0    0 -0.52979118950E-02  0.16037705635E-01  0.24891780602E-01  0.17130000264E+03  0.17130000000E+03 0.  1.
      622    1    1    2    0    0  0.81334957085E-02 -0.16224716954E-01  0.39815817672E+01  0.39929090603E+01  0.30000000000E+00 0. -1.
</event>
<event>
 5   0  0.5137000E+05  0.9118800E+02  0.7818608E-02  0.1180000E+00
       11   -1    0    0    0    0  0.00000000000E+00  0.00000000000E+00  0.39999999673E+01  0.40000000000E+01  0.51109989000E-03 0. -1.
     -623   -1    0    0    0    0  0.00000000000E+00  0.00000000000E+00  0.12525980253E-10  0.17130000000E+03  0.17130000000E+03 0. -1.
       11    1    1    2    0    0 -0.40939585232E-04 -0.10634031234E-01  0.14301088803E-01  0.17828815451E-01  0.51109989000E-03 0. -1.
     -623    1    1    2    0    0  0.13588649582E-01 -0.95231999797E-05  0.14882706059E-01  0.17130000119E+03  0.17130000000E+03 0. -1.
      622    1    1    2    0    0 -0.13547709997E-01  0.10643554434E-01  0.39708161725E+01  0.39821699991E+01  0.30000000000E+00 0. -1.
</event>
<event>
 5   0  0.5137000E+05  0.9118800E+02  0.7818608E-02  0.1180000E+00
       11   -1    0    0    0    0  0.00000000000E+00  0.00000000000E+00  0.39999999673E+01  0.40000000000E+01  0.51109989000E-03 0.  1.
     -623   -1    0    0    0    0  0.00000000000E+00  0.00000000000E+00  0.12525980253E-10  0.17130000000E+03  0.17130000000E+03 0.  1.
       11    1    1    2    0    0 -0.37499064629E-01  0.26478428898E-01  0.36745019999E+00  0.37030689670E+00  0.51109989000E-03 0.  1.
     -623    1    1    2    0    0 -0.54797275746E-02 -0.56719494388E-02  0.15591726562E-01  0.17130000089E+03  0.17130000000E+03 0.  1.
      622    1    1    2    0    0  0.42978792203E-01 -0.20806479459E-01  0.36169580408E+01  0.36296922122E+01  0.30000000000E+00 0.  1.
</event>
<event>
 5   0  0.5137000E+05  0.9118800E+02  0.7818608E-02  0.1180000E+00
       11   -1    0    0    0    0  0.00000000000E+00  0.00000000000E+00  0.39999999673E+01  0.40000000000E+01  0.51109989000E-03 0.  1.
     -623   -1    0    0    0    0  0.00000000000E+00  0.00000000000E+00  0.12525980253E-10  0.17130000000E+03  0.17130000000E+03 0.  1.
       11    1    1    2    0    0  0.40343113845E-01 -0.24072131918E-01  0.84468937383E-01  0.96655558430E-01  0.51109989000E-03 0.  1.
     -623    1    1    2    0    0 -0.22296537335E-01  0.42759462039E-01  0.23827417549E-01  0.17130000844E+03  0.17130000000E+03 0.  1.
      622    1    1    2    0    0 -0.18046576509E-01 -0.18687330122E-01  0.38917036124E+01  0.39033359966E+01  0.30000000000E+00 0.  1.
</event>
<event>
 5   0  0.5137000E+05  0.9118800E+02  0.7818608E-02  0.1180000E+00
       11   -1    0    0    0    0  0.00000000000E+00  0.00000000000E+00  0.39999999673E+01  0.40000000000E+01  0.51109989000E-03 0. -1.
     -623   -1    0    0    0    0  0.00000000000E+00  0.00000000000E+00  0.12525980253E-10  0.17130000000E+03  0.17130000000E+03 0. -1.
       11    1    1    2    0    0 -0.42086194664E-01  0.25225139275E-01  0.25416961618E+00  0.25886291825E+00  0.51109989000E-03 0. -1.
     -623    1    1    2    0    0  0.43505355637E-01 -0.16977617429E-02  0.16821966428E-01  0.17130000636E+03  0.17130000000E+03 0. -1.
      622    1    1    2    0    0 -0.14191609736E-02 -0.23527377532E-01  0.37290083847E+01  0.37411307228E+01  0.30000000000E+00 0. -1.
</event>
<event>
 5   0  0.5137000E+05  0.9118800E+02  0.7818608E-02  0.1180000E+00
       11   -1    0    0    0    0  0.00000000000E+00  0.00000000000E+00  0.39999999673E+01  0.40000000000E+01  0.51109989000E-03 0. -1.
     -623   -1    0    0    0    0  0.00000000000E+00  0.00000000000E+00  0.12525980253E-10  0.17130000000E+03  0.17130000000E+03 0.  1.
       11    1    1    2    0    0 -0.13712398693E-01 -0.99358633708E-02  0.42952678549E-01  0.46172990768E-01  0.51109989000E-03 0. -1.
     -623    1    1    2    0    0  0.13584187904E-01  0.50353562888E-01  0.14833881114E-01  0.17130000858E+03  0.17130000000E+03 0.  1.
      622    1    1    2    0    0  0.12821078902E-03 -0.40417699517E-01  0.39422134077E+01  0.39538184276E+01  0.30000000000E+00 0. -1.
</event>
<event>
 5   0  0.5137000E+05  0.9118800E+02  0.7818608E-02  0.1180000E+00
       11   -1    0    0    0    0  0.00000000000E+00  0.00000000000E+00  0.39999999673E+01  0.40000000000E+01  0.51109989000E-03 0. -1.
     -623   -1    0    0    0    0  0.00000000000E+00  0.00000000000E+00  0.12525980253E-10  0.17130000000E+03  0.17130000000E+03 0.  1.
       11    1    1    2    0    0  0.14946193398E-02  0.12798407334E-02 -0.12095743410E-01  0.12265403011E-01  0.51109989000E-03 0. -1.
     -623    1    1    2    0    0 -0.42309004736E-02 -0.50343022776E-02  0.35668292894E-01  0.17130000384E+03  0.17130000000E+03 0.  1.
      622    1    1    2    0    0  0.27362811338E-02  0.37544615442E-02  0.39764274179E+01  0.39877307573E+01  0.30000000000E+00 0. -1.
</event>
<event>
 5   0  0.5137000E+05  0.9118800E+02  0.7818608E-02  0.1180000E+00
       11   -1    0    0    0    0  0.00000000000E+00  0.00000000000E+00  0.39999999673E+01  0.40000000000E+01  0.51109989000E-03 0. -1.
     -623   -1    0    0    0    0  0.00000000000E+00  0.00000000000E+00  0.12525980253E-10  0.17130000000E+03  0.17130000000E+03 0.  1.
       11    1    1    2    0    0  0.15766257977E-02 -0.39550291347E-01  0.51358427358E+00  0.51510754079E+00  0.51109989000E-03 0. -1.
     -623    1    1    2    0    0 -0.38845831548E-01 -0.13713407333E-01  0.15074412731E-01  0.17130000562E+03  0.17130000000E+03 0.  1.
      622    1    1    2    0    0  0.37269205751E-01  0.53263698680E-01  0.34713412811E+01  0.34848868425E+01  0.30000000000E+00 0. -1.
</event>
<event>
 5   0  0.5137000E+05  0.9118800E+02  0.7818608E-02  0.1180000E+00
       11   -1    0    0    0    0  0.00000000000E+00  0.00000000000E+00  0.39999999673E+01  0.40000000000E+01  0.51109989000E-03 0.  1.
     -623   -1    0    0    0    0  0.00000000000E+00  0.00000000000E+00  0.12525980253E-10  0.17130000000E+03  0.17130000000E+03 0. -1.
       11    1    1    2    0    0  0.18002927655E-01 -0.16915010168E-01  0.87742900499E-01  0.91155366168E-01  0.51109989000E-03 0.  1.
     -623    1    1    2    0    0 -0.44182402446E-02  0.69251013292E-01  0.15331672431E-01  0.17130001474E+03  0.17130000000E+03 0. -1.
      622    1    1    2    0    0 -0.13584687410E-01 -0.52336003124E-01  0.38969253944E+01  0.39088298928E+01  0.30000000000E+00 0.  1.
</event>
<event>
 5   0  0.5137000E+05  0.9118800E+02  0.7818608E-02  0.1180000E+00
       11   -1    0    0    0    0  0.00000000000E+00  0.00000000000E+00  0.39999999673E+01  0.40000000000E+01  0.51109989000E-03 0.  1.
     -623   -1    0    0    0    0  0.00000000000E+00  0.00000000000E+00  0.12525980253E-10  0.17130000000E+03  0.17130000000E+03 0. -1.
       11    1    1    2    0    0  0.42187230355E-03 -0.30690128927E-01  0.16088879283E+00  0.16379110742E+00  0.51109989000E-03 0.  1.
     -623    1    1    2    0    0  0.15185713159E-01  0.73066430765E-02  0.14755405567E-01  0.17130000146E+03  0.17130000000E+03 0. -1.
      622    1    1    2    0    0 -0.15607585463E-01  0.23383485851E-01  0.38243557690E+01  0.38362074282E+01  0.30000000000E+00 0.  1.
</event>
<event>
 5   0  0.5137000E+05  0.9118800E+02  0.7818608E-02  0.1180000E+00
       11   -1    0    0    0    0  0.00000000000E+00  0.00000000000E+00  0.39999999673E+01  0.40000000000E+01  0.51109989000E-03 0.  1.
     -623   -1    0    0    0    0  0.00000000000E+00  0.00000000000E+00  0.12525980253E-10  0.17130000000E+03  0.17130000000E+03 0.  1.
       11    1    1    2    0    0 -0.74163562502E-01  0.22595528041E-02  0.53090912518E+00  0.53606911868E+00  0.51109989000E-03 0.  1.
     -623    1    1    2    0    0  0.10342947332E-01  0.84315488298E-02  0.18783747949E-01  0.17130000155E+03  0.17130000000E+03 0.  1.
      622    1    1    2    0    0  0.63820615170E-01 -0.10691101634E-01  0.34503070942E+01  0.34639293317E+01  0.30000000000E+00 0.  1.
</event>
<event>
 5   0  0.5137000E+05  0.9118800E+02  0.7818608E-02  0.1180000E+00
       11   -1    0    0    0    0  0.00000000000E+00  0.00000000000E+00  0.39999999673E+01  0.40000000000E+01  0.51109989000E-03 0.  1.
     -623   -1    0    0    0    0  0.00000000000E+00  0.00000000000E+00  0.12525980253E-10  0.17130000000E+03  0.17130000000E+03 0.  1.
       11    1    1    2    0    0  0.63948941103E-01  0.74847257030E-01  0.27889848544E+00  0.29576376613E+00  0.51109989000E-03 0.  1.
     -623    1    1    2    0    0 -0.32852696630E-01  0.84438952196E-02  0.30110124838E-01  0.17130000600E+03  0.17130000000E+03 0.  1.
      622    1    1    2    0    0 -0.31096244472E-01 -0.83291152250E-01  0.36909913571E+01  0.37042302291E+01  0.30000000000E+00 0.  1.
</event>
<event>
 5   0  0.5137000E+05  0.9118800E+02  0.7818608E-02  0.1180000E+00
       11   -1    0    0    0    0  0.00000000000E+00  0.00000000000E+00  0.39999999673E+01  0.40000000000E+01  0.51109989000E-03 0.  1.
     -623   -1    0    0    0    0  0.00000000000E+00  0.00000000000E+00  0.12525980253E-10  0.17130000000E+03  0.17130000000E+03 0.  1.
       11    1    1    2    0    0  0.23096707957E-01 -0.21349981371E-01  0.36419999687E+00  0.36555598555E+00  0.51109989000E-03 0.  1.
     -623    1    1    2    0    0 -0.26360187434E-01  0.12040831298E-02  0.13818749982E-01  0.17130000259E+03  0.17130000000E+03 0.  1.
      622    1    1    2    0    0  0.32634794774E-02  0.20145898241E-01  0.36219812205E+01  0.36344414246E+01  0.30000000000E+00 0.  1.
</event>
<event>
 5   0  0.5137000E+05  0.9118800E+02  0.7818608E-02  0.1180000E+00
       11   -1    0    0    0    0  0.00000000000E+00  0.00000000000E+00  0.39999999673E+01  0.40000000000E+01  0.51109989000E-03 0. -1.
     -623   -1    0    0    0    0  0.00000000000E+00  0.00000000000E+00  0.12525980253E-10  0.17130000000E+03  0.17130000000E+03 0. -1.
       11    1    1    2    0    0 -0.64257790523E-01  0.38449201450E-01  0.14501670947E+00  0.16321002415E+00  0.51109989000E-03 0. -1.
     -623    1    1    2    0    0 -0.45921683730E-01 -0.72565118455E-01  0.31703746837E-01  0.17130002446E+03  0.17130000000E+03 0. -1.
      622    1    1    2    0    0  0.11017947425E+00  0.34115917005E-01  0.38232795110E+01  0.38367655169E+01  0.30000000000E+00 0. -1.
</event>
<event>
 5   0  0.5137000E+05  0.9118800E+02  0.7818608E-02  0.1180000E+00
       11   -1    0    0    0    0  0.00000000000E+00  0.00000000000E+00  0.39999999673E+01  0.40000000000E+01  0.51109989000E-03 0.  1.
     -623   -1    0    0    0    0  0.00000000000E+00  0.00000000000E+00  0.12525980253E-10  0.17130000000E+03  0.17130000000E+03 0. -1.
       11    1    1    2    0    0  0.11217857754E+00  0.76782060865E-01  0.94218342379E+00  0.95193980031E+00  0.51109989000E-03 0.  1.
     -623    1    1    2    0    0  0.30017391161E-01 -0.43400784508E-02  0.28761846337E-01  0.17130000510E+03  0.17130000000E+03 0. -1.
      622    1    1    2    0    0 -0.14219596870E+00 -0.72441982414E-01  0.30290546972E+01  0.30480551001E+01  0.30000000000E+00 0.  1.
</event>
<event>
 5   0  0.5137000E+05  0.9118800E+02  0.7818608E-02  0.1180000E+00
       11   -1    0    0    0    0  0.00000000000E+00  0.00000000000E+00  0.39999999673E+01  0.40000000000E+01  0.51109989000E-03 0. -1.
     -623   -1    0    0    0    0  0.00000000000E+00  0.00000000000E+00  0.12525980253E-10  0.17130000000E+03  0.17130000000E+03 0.  1.
       11    1    1    2    0    0 -0.29638677942E-01  0.38155442365E-02  0.11923935460E+00  0.12292800541E+00  0.51109989000E-03 0. -1.
     -623    1    1    2    0    0 -0.84180593823E-02 -0.80921229260E-02  0.15503555233E-01  0.17130000110E+03  0.17130000000E+03 0.  1.
      622    1    1    2    0    0  0.38056737325E-01  0.42765786895E-02  0.38652570575E+01  0.38770708950E+01  0.30000000000E+00 0. -1.
</event>
<event>
 5   0  0.5137000E+05  0.9118800E+02  0.7818608E-02  0.1180000E+00
       11   -1    0    0    0    0  0.00000000000E+00  0.00000000000E+00  0.39999999673E+01  0.40000000000E+01  0.51109989000E-03 0.  1.
     -623   -1    0    0    0    0  0.00000000000E+00  0.00000000000E+00  0.12525980253E-10  0.17130000000E+03  0.17130000000E+03 0. -1.
       11    1    1    2    0    0  0.37723493822E-01  0.87583626274E-02  0.87233168230E-01  0.95444527158E-01  0.51109989000E-03 0.  1.
     -623    1    1    2    0    0 -0.21853380262E-01 -0.17036300645E-01  0.19797929427E-01  0.17130000339E+03  0.17130000000E+03 0. -1.
      622    1    1    2    0    0 -0.15870113560E-01  0.82779380172E-02  0.38929688697E+01  0.39045520877E+01  0.30000000000E+00 0.  1.
</event>
<event>
 5   0  0.5137000E+05  0.9118800E+02  0.7818608E-02  0.1180000E+00
       11   -1    0    0    0    0  0.00000000000E+00  0.00000000000E+00  0.39999999673E+01  0.40000000000E+01  0.51109989000E-03 0. -1.
     -623   -1    0    0    0    0  0.00000000000E+00  0.00000000000E+00  0.12525980253E-10  0.17130000000E+03  0.17130000000E+03 0. -1.
       11    1    1    2    0    0 -0.17901947362E-01 -0.21144658759E-01  0.33929677614E-01  0.43807083439E-01  0.51109989000E-03 0. -1.
     -623    1    1    2    0    0  0.11961972016E-01  0.37479061443E-01  0.21312494792E-01  0.17130000584E+03  0.17130000000E+03 0. -1.
      622    1    1    2    0    0  0.59399753458E-02 -0.16334402684E-01  0.39447577950E+01  0.39561870730E+01  0.30000000000E+00 0. -1.
</event>
<event>
 5   0  0.5137000E+05  0.9118800E+02  0.7818608E-02  0.1180000E+00
       11   -1    0    0    0    0  0.00000000000E+00  0.00000000000E+00  0.39999999673E+01  0.40000000000E+01  0.51109989000E-03 0.  1.
     -623   -1    0    0    0    0  0.00000000000E+00  0.00000000000E+00  0.12525980253E-10  0.17130000000E+03  0.17130000000E+03 0. -1.
       11    1    1    2    0    0  0.33211286432E-01 -0.11296974526E-01  0.15236031269E-01  0.38249301325E-01  0.51109989000E-03 0.  1.
     -623    1    1    2    0    0  0.20238603704E-01  0.57735307236E-01  0.35037333938E-01  0.17130001451E+03  0.17130000000E+03 0. -1.
      622    1    1    2    0    0 -0.53449890136E-01 -0.46438332710E-01  0.39497266022E+01  0.39617361903E+01  0.30000000000E+00 0.  1.
</event>
<event>
 5   0  0.5137000E+05  0.9118800E+02  0.7818608E-02  0.1180000E+00
       11   -1    0    0    0    0  0.00000000000E+00  0.00000000000E+00  0.39999999673E+01  0.40000000000E+01  0.51109989000E-03 0. -1.
     -623   -1    0    0    0    0  0.00000000000E+00  0.00000000000E+00  0.12525980253E-10  0.17130000000E+03  0.17130000000E+03 0.  1.
       11    1    1    2    0    0 -0.29231338450E-03 -0.15024266430E-01  0.26698706132E-01  0.30641412517E-01  0.51109989000E-03 0. -1.
     -623    1    1    2    0    0 -0.74567544599E-02  0.39479954451E-01  0.15384311969E-01  0.17130000540E+03  0.17130000000E+03 0.  1.
      622    1    1    2    0    0  0.77490678444E-02 -0.24455688021E-01  0.39579169493E+01  0.39693531848E+01  0.30000000000E+00 0. -1.
</event>
<event>
 5   0  0.5137000E+05  0.9118800E+02  0.7818608E-02  0.1180000E+00
       11   -1    0    0    0    0  0.00000000000E+00  0.00000000000E+00  0.39999999673E+01  0.40000000000E+01  0.51109989000E-03 0.  1.
     -623   -1    0    0    0    0  0.00000000000E+00  0.00000000000E+00  0.12525980253E-10  0.17130000000E+03  0.17130000000E+03 0. -1.
       11    1    1    2    0    0  0.22786754808E-01  0.49743621388E-01  0.35597625313E+00  0.36015693535E+00  0.51109989000E-03 0.  1.
     -623    1    1    2    0    0 -0.12882094276E-01 -0.26662235316E-01  0.16655224903E-01  0.17130000337E+03  0.17130000000E+03 0. -1.
      622    1    1    2    0    0 -0.99046605322E-02 -0.23081386072E-01  0.36273684893E+01  0.36398396957E+01  0.30000000000E+00 0.  1.
</event>
<event>
 5   0  0.5137000E+05  0.9118800E+02  0.7818608E-02  0.1180000E+00
       11   -1    0    0    0    0  0.00000000000E+00  0.00000000000E+00  0.39999999673E+01  0.40000000000E+01  0.51109989000E-03 0.  1.
     -623   -1    0    0    0    0  0.00000000000E+00  0.00000000000E+00  0.12525980253E-10  0.17130000000E+03  0.17130000000E+03 0. -1.
       11    1    1    2    0    0 -0.13166219991E+00  0.11301568906E+00  0.10559562805E+01  0.10701174741E+01  0.51109989000E-03 0.  1.
     -623    1    1    2    0    0  0.42673998915E-01 -0.33524872386E-01  0.32015867008E-01  0.17130001159E+03  0.17130000000E+03 0. -1.
      622    1    1    2    0    0  0.88988200997E-01 -0.79490816677E-01  0.29120278198E+01  0.29298709380E+01  0.30000000000E+00 0.  0.
</event>
<event>
 5   0  0.5137000E+05  0.9118800E+02  0.7818608E-02  0.1180000E+00
       11   -1    0    0    0    0  0.00000000000E+00  0.00000000000E+00  0.39999999673E+01  0.40000000000E+01  0.51109989000E-03 0. -1.
     -623   -1    0    0    0    0  0.00000000000E+00  0.00000000000E+00  0.12525980253E-10  0.17130000000E+03  0.17130000000E+03 0.  1.
       11    1    1    2    0    0 -0.37296773594E-01  0.42803420986E-01  0.35497678831E+00  0.35948847496E+00  0.51109989000E-03 0. -1.
     -623    1    1    2    0    0  0.34703305708E-01  0.25558467428E-02  0.17182503536E-01  0.17130000440E+03  0.17130000000E+03 0.  1.
      622    1    1    2    0    0  0.25934678862E-02 -0.45359267729E-01  0.36278406755E+01  0.36405071290E+01  0.30000000000E+00 0. -1.
</event>
<event>
 5   0  0.5137000E+05  0.9118800E+02  0.7818608E-02  0.1180000E+00
       11   -1    0    0    0    0  0.00000000000E+00  0.00000000000E+00  0.39999999673E+01  0.40000000000E+01  0.51109989000E-03 0.  1.
     -623   -1    0    0    0    0  0.00000000000E+00  0.00000000000E+00  0.12525980253E-10  0.17130000000E+03  0.17130000000E+03 0. -1.
       11    1    1    2    0    0  0.68146860152E-01  0.10752957528E+00  0.84859740980E+00  0.85809348514E+00  0.51109989000E-03 0.  1.
     -623    1    1    2    0    0 -0.41772927094E-01  0.72619666023E-01  0.29178531717E-01  0.17130002297E+03  0.17130000000E+03 0. -1.
      622    1    1    2    0    0 -0.26373933058E-01 -0.18014924130E+00  0.31222240258E+01  0.31418835435E+01  0.30000000000E+00 0.  0.
</event>
<event>
 5   0  0.5137000E+05  0.9118800E+02  0.7818608E-02  0.1180000E+00
       11   -1    0    0    0    0  0.00000000000E+00  0.00000000000E+00  0.39999999673E+01  0.40000000000E+01  0.51109989000E-03 0. -1.
     -623   -1    0    0    0    0  0.00000000000E+00  0.00000000000E+00  0.12525980253E-10  0.17130000000E+03  0.17130000000E+03 0.  1.
       11    1    1    2    0    0 -0.66910861395E-02 -0.19242144602E-01  0.59905422603E-01  0.63276785972E-01  0.51109989000E-03 0. -1.
     -623    1    1    2    0    0  0.14807453296E-01  0.32752937082E-01  0.14854872672E-01  0.17130000442E+03  0.17130000000E+03 0.  1.
      622    1    1    2    0    0 -0.81163671566E-02 -0.13510792481E-01  0.39252396721E+01  0.39367187988E+01  0.30000000000E+00 0. -1.
</event>
<event>
 5   0  0.5137000E+05  0.9118800E+02  0.7818608E-02  0.1180000E+00
       11   -1    0    0    0    0  0.00000000000E+00  0.00000000000E+00  0.39999999673E+01  0.40000000000E+01  0.51109989000E-03 0.  1.
     -623   -1    0    0    0    0  0.00000000000E+00  0.00000000000E+00  0.12525980253E-10  0.17130000000E+03  0.17130000000E+03 0.  1.
       11    1    1    2    0    0  0.23091278114E-01  0.64467901950E-02  0.64678400363E-01  0.68980612657E-01  0.51109989000E-03 0.  1.
     -623    1    1    2    0    0 -0.15124579284E-01  0.13996522377E-02  0.15783663447E-01  0.17130000140E+03  0.17130000000E+03 0.  1.
      622    1    1    2    0    0 -0.79666988295E-02 -0.78464424328E-02  0.39195379036E+01  0.39310179868E+01  0.30000000000E+00 0.  1.
</event>
<event>
 5   0  0.5137000E+05  0.9118800E+02  0.7818608E-02  0.1180000E+00
       11   -1    0    0    0    0  0.00000000000E+00  0.00000000000E+00  0.39999999673E+01  0.40000000000E+01  0.51109989000E-03 0. -1.
     -623   -1    0    0    0    0  0.00000000000E+00  0.00000000000E+00  0.12525980253E-10  0.17130000000E+03  0.17130000000E+03 0.  1.
       11    1    1    2    0    0  0.12936391808E-01 -0.29561144937E-01  0.35797709747E-01  0.48196978839E-01  0.51109989000E-03 0. -1.
     -623    1    1    2    0    0  0.99774964334E-05  0.23369155356E-01  0.23832291831E-01  0.17130000325E+03  0.17130000000E+03 0.  1.
      622    1    1    2    0    0 -0.12946369304E-01  0.61919895811E-02  0.39403699658E+01  0.39517997693E+01  0.30000000000E+00 0. -1.
</event>
<event>
 5   0  0.5137000E+05  0.9118800E+02  0.7818608E-02  0.1180000E+00
       11   -1    0    0    0    0  0.00000000000E+00  0.00000000000E+00  0.39999999673E+01  0.40000000000E+01  0.51109989000E-03 0. -1.
     -623   -1    0    0    0    0  0.00000000000E+00  0.00000000000E+00  0.12525980253E-10  0.17130000000E+03  0.17130000000E+03 0.  1.
       11    1    1    2    0    0 -0.25371115667E-01 -0.27832397857E-01  0.18060655947E+00  0.18449207686E+00  0.51109989000E-03 0. -1.
     -623    1    1    2    0    0 -0.15624902474E-01  0.33287820369E-01  0.15927290391E-01  0.17130000469E+03  0.17130000000E+03 0.  1.
      622    1    1    2    0    0  0.40996018142E-01 -0.54554225127E-02  0.38034661175E+01  0.38155032358E+01  0.30000000000E+00 0. -1.
</event>
<event>
 5   0  0.5137000E+05  0.9118800E+02  0.7818608E-02  0.1180000E+00
       11   -1    0    0    0    0  0.00000000000E+00  0.00000000000E+00  0.39999999673E+01  0.40000000000E+01  0.51109989000E-03 0.  1.
     -623   -1    0    0    0    0  0.00000000000E+00  0.00000000000E+00  0.12525980253E-10  0.17130000000E+03  0.17130000000E+03 0. -1.
       11    1    1    2    0    0 -0.20700219987E-01 -0.23070217614E-01  0.16881510246E-01  0.35298451234E-01  0.51109989000E-03 0.  1.
     -623    1    1    2    0    0  0.19253972606E-01 -0.34967132762E-01  0.30216999556E-01  0.17130000732E+03  0.17130000000E+03 0. -1.
      622    1    1    2    0    0  0.14462473815E-02  0.58037350376E-01  0.39529014576E+01  0.39646942327E+01  0.30000000000E+00 0.  1.
</event>
<event>
 5   0  0.5137000E+05  0.9118800E+02  0.7818608E-02  0.1180000E+00
       11   -1    0    0    0    0  0.00000000000E+00  0.00000000000E+00  0.39999999673E+01  0.40000000000E+01  0.51109989000E-03 0.  1.
     -623   -1    0    0    0    0  0.00000000000E+00  0.00000000000E+00  0.12525980253E-10  0.17130000000E+03  0.17130000000E+03 0.  1.
       11    1    1    2    0    0  0.34180506761E-01  0.59515497521E-02  0.42084834816E-01  0.54544683806E-01  0.51109989000E-03 0.  1.
     -623    1    1    2    0    0 -0.42445178231E-01 -0.56640352814E-02  0.23897608819E-01  0.17130000702E+03  0.17130000000E+03 0.  1.
      622    1    1    2    0    0  0.82646714697E-02 -0.28751447066E-03  0.39340175237E+01  0.39454482970E+01  0.30000000000E+00 0.  1.
</event>
<event>
 5   0  0.5137000E+05  0.9118800E+02  0.7818608E-02  0.1180000E+00
       11   -1    0    0    0    0  0.00000000000E+00  0.00000000000E+00  0.39999999673E+01  0.40000000000E+01  0.51109989000E-03 0. -1.
     -623   -1    0    0    0    0  0.00000000000E+00  0.00000000000E+00  0.12525980253E-10  0.17130000000E+03  0.17130000000E+03 0. -1.
       11    1    1    2    0    0  0.13136257744E-01  0.15704657172E-01  0.41599210135E-01  0.46367585999E-01  0.51109989000E-03 0. -1.
     -623    1    1    2    0    0 -0.16784578896E-01 -0.14442748940E-01  0.16170803190E-01  0.17130000219E+03  0.17130000000E+03 0. -1.
      622    1    1    2    0    0  0.36483211526E-02 -0.12619082327E-02  0.39422299540E+01  0.39536302196E+01  0.30000000000E+00 0. -1.
</event>
<event>
 5   0  0.5137000E+05  0.9118800E+02  0.7818608E-02  0.1180000E+00
       11   -1    0    0    0    0  0.00000000000E+00  0.00000000000E+00  0.39999999673E+01  0.40000000000E+01  0.51109989000E-03 0.  1.
     -623   -1    0    0    0    0  0.00000000000E+00  0.00000000000E+00  0.12525980253E-10  0.17130000000E+03  0.17130000000E+03 0.  1.
       11    1    1    2    0    0  0.15592401779E-01 -0.11856182937E-01  0.87036265711E-01  0.89214712011E-01  0.51109989000E-03 0.  1.
     -623    1    1    2    0    0 -0.14198793038E-01 -0.11952778940E-01  0.13776534738E-01  0.17130000156E+03  0.17130000000E+03 0.  1.
      622    1    1    2    0    0 -0.13936087410E-02  0.23808961878E-01  0.38991871669E+01  0.39107837286E+01  0.30000000000E+00 0.  1.
</event>
<event>
 5   0  0.5137000E+05  0.9118800E+02  0.7818608E-02  0.1180000E+00
       11   -1    0    0    0    0  0.00000000000E+00  0.00000000000E+00  0.39999999673E+01  0.40000000000E+01  0.51109989000E-03 0. -1.
     -623   -1    0    0    0    0  0.00000000000E+00  0.00000000000E+00  0.12525980253E-10  0.17130000000E+03  0.17130000000E+03 0. -1.
       11    1    1    2    0    0  0.31807391538E-01 -0.32762127764E-01  0.82594214226E+00  0.82720357274E+00  0.51109989000E-03 0. -1.
     -623    1    1    2    0    0  0.24760059593E-01 -0.11317937560E-02  0.16167346580E-01  0.17130000256E+03  0.17130000000E+03 0. -1.
      622    1    1    2    0    0 -0.56567451132E-01  0.33893921520E-01  0.31578904785E+01  0.31727938711E+01  0.30000000000E+00 0.  0.
</event>
<event>
 5   0  0.5137000E+05  0.9118800E+02  0.7818608E-02  0.1180000E+00
       11   -1    0    0    0    0  0.00000000000E+00  0.00000000000E+00  0.39999999673E+01  0.40000000000E+01  0.51109989000E-03 0.  1.
     -623   -1    0    0    0    0  0.00000000000E+00  0.00000000000E+00  0.12525980253E-10  0.17130000000E+03  0.17130000000E+03 0. -1.
       11    1    1    2    0    0 -0.84782128177E-02  0.36661536426E-01  0.94666356638E-01  0.10187211909E+00  0.51109989000E-03 0.  1.
     -623    1    1    2    0    0 -0.45775097286E-01 -0.23385975255E-01  0.19177049631E-01  0.17130000879E+03  0.17130000000E+03 0. -1.
      622    1    1    2    0    0  0.54253310104E-01 -0.13275561171E-01  0.38861565611E+01  0.38981190951E+01  0.30000000000E+00 0.  1.
</event>
<event>
 5   0  0.5137000E+05  0.9118800E+02  0.7818608E-02  0.1180000E+00
       11   -1    0    0    0    0  0.00000000000E+00  0.00000000000E+00  0.39999999673E+01  0.40000000000E+01  0.51109989000E-03 0. -1.
     -623   -1    0    0    0    0  0.00000000000E+00  0.00000000000E+00  0.12525980253E-10  0.17130000000E+03  0.17130000000E+03 0. -1.
       11    1    1    2    0    0 -0.11182435062E-01 -0.64614624624E-02  0.17715575722E+00  0.17762663339E+00  0.51109989000E-03 0. -1.
     -623    1    1    2    0    0  0.14601208681E-01 -0.54230553728E-03  0.12270855734E-01  0.17130000106E+03  0.17130000000E+03 0. -1.
      622    1    1    2    0    0 -0.34187736187E-02  0.70037679997E-02  0.38105733544E+01  0.38223723040E+01  0.30000000000E+00 0. -1.
</event>
<event>
 5   0  0.5137000E+05  0.9118800E+02  0.7818608E-02  0.1180000E+00
       11   -1    0    0    0    0  0.00000000000E+00  0.00000000000E+00  0.39999999673E+01  0.40000000000E+01  0.51109989000E-03 0. -1.
     -623   -1    0    0    0    0  0.00000000000E+00  0.00000000000E+00  0.12525980253E-10  0.17130000000E+03  0.17130000000E+03 0. -1.
       11    1    1    2    0    0 -0.37025777688E-02 -0.11010265959E-01  0.45233173469E-01  0.46703706943E-01  0.51109989000E-03 0. -1.
     -623    1    1    2    0    0 -0.32805152023E-02  0.77851669603E-02  0.12878040849E-01  0.17130000069E+03  0.17130000000E+03 0. -1.
      622    1    1    2    0    0  0.69830929711E-02  0.32250989985E-02  0.39418887530E+01  0.39532956007E+01  0.30000000000E+00 0. -1.
</event>
<event>
 5   0  0.5137000E+05  0.9118800E+02  0.7818608E-02  0.1180000E+00
       11   -1    0    0    0    0  0.00000000000E+00  0.00000000000E+00  0.39999999673E+01  0.40000000000E+01  0.51109989000E-03 0.  1.
     -623   -1    0    0    0    0  0.00000000000E+00  0.00000000000E+00  0.12525980253E-10  0.17130000000E+03  0.17130000000E+03 0.  1.
       11    1    1    2    0    0  0.31901729539E-02  0.42088241585E-02  0.17512768129E+00  0.17520804028E+00  0.51109989000E-03 0.  1.
     -623    1    1    2    0    0 -0.26346292106E-01 -0.12748196404E-01  0.11946625303E-01  0.17130000292E+03  0.17130000000E+03 0.  1.
      622    1    1    2    0    0  0.23156119152E-01  0.85393722458E-02  0.38129256608E+01  0.38247890427E+01  0.30000000000E+00 0.  1.
</event>
<event>
 5   0  0.5137000E+05  0.9118800E+02  0.7818608E-02  0.1180000E+00
       11   -1    0    0    0    0  0.00000000000E+00  0.00000000000E+00  0.39999999673E+01  0.40000000000E+01  0.51109989000E-03 0.  1.
     -623   -1    0    0    0    0  0.00000000000E+00  0.00000000000E+00  0.12525980253E-10  0.17130000000E+03  0.17130000000E+03 0. -1.
       11    1    1    2    0    0 -0.29692982124E-02 -0.15615143510E-02  0.54174398515E-01  0.54280583407E-01  0.51109989000E-03 0.  1.
     -623    1    1    2    0    0 -0.14068542342E-01  0.47111903251E-02  0.11566635558E-01  0.17130000103E+03  0.17130000000E+03 0. -1.
      622    1    1    2    0    0  0.17037840554E-01 -0.31496759742E-02  0.39342589333E+01  0.39457183836E+01  0.30000000000E+00 0.  1.
</event>
<event>
 5   0  0.5137000E+05  0.9118800E+02  0.7818608E-02  0.1180000E+00
       11   -1    0    0    0    0  0.00000000000E+00  0.00000000000E+00  0.39999999673E+01  0.40000000000E+01  0.51109989000E-03 0.  1.
     -623   -1    0    0    0    0  0.00000000000E+00  0.00000000000E+00  0.12525980253E-10  0.17130000000E+03  0.17130000000E+03 0. -1.
       11    1    1    2    0    0  0.12754720542E-01  0.17953144259E-01  0.38385617441E-02  0.22360547031E-01  0.51109989000E-03 0.  1.
     -623    1    1    2    0    0 -0.48190872951E-01 -0.49570130737E-01  0.30152307099E-01  0.17130001660E+03  0.17130000000E+03 0. -1.
      622    1    1    2    0    0  0.35436152408E-01  0.31616986478E-01  0.39660090985E+01  0.39776228484E+01  0.30000000000E+00 0.  1.
</event>
<event>
 5   0  0.5137000E+05  0.9118800E+02  0.7818608E-02  0.1180000E+00
       11   -1    0    0    0    0  0.00000000000E+00  0.00000000000E+00  0.39999999673E+01  0.40000000000E+01  0.51109989000E-03 0. -1.
     -623   -1    0    0    0    0  0.00000000000E+00  0.00000000000E+00  0.12525980253E-10  0.17130000000E+03  0.17130000000E+03 0. -1.
       11    1    1    2    0    0  0.18160083281E-01  0.80540727512E-02  0.22217860649E-01  0.29808577080E-01  0.51109989000E-03 0. -1.
     -623    1    1    2    0    0 -0.48996664842E-01 -0.74498210268E-02  0.19069775650E-01  0.17130000823E+03  0.17130000000E+03 0. -1.
      622    1    1    2    0    0  0.30836581561E-01 -0.60425172441E-03  0.39587123311E+01  0.39701831922E+01  0.30000000000E+00 0. -1.
</event>
<event>
 5   0  0.5137000E+05  0.9118800E+02  0.7818608E-02  0.1180000E+00
       11   -1    0    0    0    0  0.00000000000E+00  0.00000000000E+00  0.39999999673E+01  0.40000000000E+01  0.51109989000E-03 0. -1.
     -623   -1    0    0    0    0  0.00000000000E+00  0.00000000000E+00  0.12525980253E-10  0.17130000000E+03  0.17130000000E+03 0. -1.
       11    1    1    2    0    0 -0.15912830926E-01  0.46374530278E-02  0.29113590363E-01  0.33505022393E-01  0.51109989000E-03 0. -1.
     -623    1    1    2    0    0  0.25652120460E-01 -0.19932871957E-01  0.15798086225E-01  0.17130000381E+03  0.17130000000E+03 0. -1.
      622    1    1    2    0    0 -0.97392895340E-02  0.15295418929E-01  0.39550882908E+01  0.39664911687E+01  0.30000000000E+00 0. -1.
</event>
<event>
 5   0  0.5137000E+05  0.9118800E+02  0.7818608E-02  0.1180000E+00
       11   -1    0    0    0    0  0.00000000000E+00  0.00000000000E+00  0.39999999673E+01  0.40000000000E+01  0.51109989000E-03 0.  1.
     -623   -1    0    0    0    0  0.00000000000E+00  0.00000000000E+00  0.12525980253E-10  0.17130000000E+03  0.17130000000E+03 0.  1.
       11    1    1    2    0    0  0.31842177916E-01 -0.97761111573E-02  0.11877893950E+01  0.11882564558E+01  0.51109989000E-03 0.  1.
     -623    1    1    2    0    0  0.86183266220E-01  0.14338992145E-01  0.19036805254E-01  0.17130002334E+03  0.17130000000E+03 0.  1.
      622    1    1    2    0    0 -0.11802544414E+00 -0.45628809875E-02  0.27931737671E+01  0.28117202063E+01  0.30000000000E+00 0.  1.
</event>
<event>
 5   0  0.5137000E+05  0.9118800E+02  0.7818608E-02  0.1180000E+00
       11   -1    0    0    0    0  0.00000000000E+00  0.00000000000E+00  0.39999999673E+01  0.40000000000E+01  0.51109989000E-03 0. -1.
     -623   -1    0    0    0    0  0.00000000000E+00  0.00000000000E+00  0.12525980253E-10  0.17130000000E+03  0.17130000000E+03 0.  1.
       11    1    1    2    0    0 -0.44419575924E-02  0.29237641895E-01  0.73549819844E+00  0.73609267883E+00  0.51109989000E-03 0. -1.
     -623    1    1    2    0    0  0.32413414283E-01  0.34807102259E-01  0.15169624876E-01  0.17130000727E+03  0.17130000000E+03 0.  1.
      622    1    1    2    0    0 -0.27971456691E-01 -0.64044744154E-01  0.32493321440E+01  0.32639000466E+01  0.30000000000E+00 0. -1.
</event>
<event>
 5   0  0.5137000E+05  0.9118800E+02  0.7818608E-02  0.1180000E+00
       11   -1    0    0    0    0  0.00000000000E+00  0.00000000000E+00  0.39999999673E+01  0.40000000000E+01  0.51109989000E-03 0. -1.
     -623   -1    0    0    0    0  0.00000000000E+00  0.00000000000E+00  0.12525980253E-10  0.17130000000E+03  0.17130000000E+03 0. -1.
       11    1    1    2    0    0 -0.65710960819E-01  0.34743159758E-01  0.25205056743E+00  0.26278273780E+00  0.51109989000E-03 0. -1.
     -623    1    1    2    0    0 -0.66198027903E-01  0.61256783256E-01  0.26392705770E-01  0.17130002578E+03  0.17130000000E+03 0. -1.
      622    1    1    2    0    0  0.13190898872E+00 -0.95999943014E-01  0.37215566942E+01  0.37371914854E+01  0.30000000000E+00 0. -1.
</event>
<event>
 5   0  0.5137000E+05  0.9118800E+02  0.7818608E-02  0.1180000E+00
       11   -1    0    0    0    0  0.00000000000E+00  0.00000000000E+00  0.39999999673E+01  0.40000000000E+01  0.51109989000E-03 0.  1.
     -623   -1    0    0    0    0  0.00000000000E+00  0.00000000000E+00  0.12525980253E-10  0.17130000000E+03  0.17130000000E+03 0.  1.
       11    1    1    2    0    0  0.13414811849E+00  0.13051133635E+00  0.56415118470E+00  0.59438686647E+00  0.51109989000E-03 0.  1.
     -623    1    1    2    0    0 -0.83308931956E-01  0.13355968716E+00  0.54232068884E-01  0.17130008091E+03  0.17130000000E+03 0.  1.
      622    1    1    2    0    0 -0.50839186536E-01 -0.26407102351E+00  0.33816167138E+01  0.34055322238E+01  0.30000000000E+00 0. -1.
</event>
<event>
 5   0  0.5137000E+05  0.9118800E+02  0.7818608E-02  0.1180000E+00
       11   -1    0    0    0    0  0.00000000000E+00  0.00000000000E+00  0.39999999673E+01  0.40000000000E+01  0.51109989000E-03 0. -1.
     -623   -1    0    0    0    0  0.00000000000E+00  0.00000000000E+00  0.12525980253E-10  0.17130000000E+03  0.17130000000E+03 0. -1.
       11    1    1    2    0    0  0.59558229748E-02 -0.48586772735E-01  0.69675265067E+00  0.69847023111E+00  0.51109989000E-03 0. -1.
     -623    1    1    2    0    0 -0.20673164243E-01  0.30429686109E-01  0.15463588599E-01  0.17130000465E+03  0.17130000000E+03 0. -1.
      622    1    1    2    0    0  0.14717341268E-01  0.18157086626E-01  0.32877837281E+01  0.33015251207E+01  0.30000000000E+00 0. -1.
</event>
<event>
 5   0  0.5137000E+05  0.9118800E+02  0.7818608E-02  0.1180000E+00
       11   -1    0    0    0    0  0.00000000000E+00  0.00000000000E+00  0.39999999673E+01  0.40000000000E+01  0.51109989000E-03 0. -1.
     -623   -1    0    0    0    0  0.00000000000E+00  0.00000000000E+00  0.12525980253E-10  0.17130000000E+03  0.17130000000E+03 0.  1.
       11    1    1    2    0    0  0.27135098778E-01 -0.49039771873E-01  0.11181633315E+01  0.11195671976E+01  0.51109989000E-03 0. -1.
     -623    1    1    2    0    0 -0.79072149948E-02  0.17280938322E-01  0.17311599856E-01  0.17130000193E+03  0.17130000000E+03 0.  1.
      622    1    1    2    0    0 -0.19227883783E-01  0.31758833551E-01  0.28645250360E+01  0.28804308735E+01  0.30000000000E+00 0. -1.
</event>
<event>
 5   0  0.5137000E+05  0.9118800E+02  0.7818608E-02  0.1180000E+00
       11   -1    0    0    0    0  0.00000000000E+00  0.00000000000E+00  0.39999999673E+01  0.40000000000E+01  0.51109989000E-03 0. -1.
     -623   -1    0    0    0    0  0.00000000000E+00  0.00000000000E+00  0.12525980253E-10  0.17130000000E+03  0.17130000000E+03 0. -1.
       11    1    1    2    0    0 -0.11146736451E-01 -0.51835448389E-02  0.43692071399E+00  0.43709391486E+00  0.51109989000E-03 0. -1.
     -623    1    1    2    0    0  0.38425008379E-01 -0.70174836316E-03  0.12940266226E-01  0.17130000480E+03  0.17130000000E+03 0. -1.
      622    1    1    2    0    0 -0.27278271928E-01  0.58852932021E-02  0.35501389871E+01  0.35629012853E+01  0.30000000000E+00 0. -1.
</event>
<event>
 5   0  0.5137000E+05  0.9118800E+02  0.7818608E-02  0.1180000E+00
       11   -1    0    0    0    0  0.00000000000E+00  0.00000000000E+00  0.39999999673E+01  0.40000000000E+01  0.51109989000E-03 0. -1.
     -623   -1    0    0    0    0  0.00000000000E+00  0.00000000000E+00  0.12525980253E-10  0.17130000000E+03  0.17130000000E+03 0. -1.
       11    1    1    2    0    0  0.73545538104E-02 -0.39751863415E-01  0.64428078673E-01  0.76062728398E-01  0.51109989000E-03 0. -1.
     -623    1    1    2    0    0 -0.18739984988E-01  0.11538677940E-01  0.23240789146E-01  0.17130000299E+03  0.17130000000E+03 0. -1.
      622    1    1    2    0    0  0.11385431178E-01  0.28213185475E-01  0.39123310996E+01  0.39239342814E+01  0.30000000000E+00 0. -1.
</event>
<event>
 5   0  0.5137000E+05  0.9118800E+02  0.7818608E-02  0.1180000E+00
       11   -1    0    0    0    0  0.00000000000E+00  0.00000000000E+00  0.39999999673E+01  0.40000000000E+01  0.51109989000E-03 0.  1.
     -623   -1    0    0    0    0  0.00000000000E+00  0.00000000000E+00  0.12525980253E-10  0.17130000000E+03  0.17130000000E+03 0. -1.
       11    1    1    2    0    0  0.51473792172E-02 -0.10517505660E-01  0.21061049715E-01  0.24102748315E-01  0.51109989000E-03 0.  1.
     -623    1    1    2    0    0 -0.83937883789E-02  0.89776200473E-02  0.14378697274E-01  0.17130000104E+03  0.17130000000E+03 0. -1.
      622    1    1    2    0    0  0.32464091618E-02  0.15398856124E-02  0.39645602204E+01  0.39758962073E+01  0.30000000000E+00 0.  1.
</event>
<event>
 5   0  0.5137000E+05  0.9118800E+02  0.7818608E-02  0.1180000E+00
       11   -1    0    0    0    0  0.00000000000E+00  0.00000000000E+00  0.39999999673E+01  0.40000000000E+01  0.51109989000E-03 0.  1.
     -623   -1    0    0    0    0  0.00000000000E+00  0.00000000000E+00  0.12525980253E-10  0.17130000000E+03  0.17130000000E+03 0. -1.
       11    1    1    2    0    0  0.18985119124E-01 -0.15048768333E-01  0.35388868963E+00  0.35471730441E+00  0.51109989000E-03 0.  1.
     -623    1    1    2    0    0 -0.56911001873E-02  0.10640693433E-01  0.13222213950E-01  0.17130000094E+03  0.17130000000E+03 0. -1.
      622    1    1    2    0    0 -0.13294018937E-01  0.44080749008E-02  0.36328890638E+01  0.36452817603E+01  0.30000000000E+00 0.  1.
</event>
<event>
 5   0  0.5137000E+05  0.9118800E+02  0.7818608E-02  0.1180000E+00
       11   -1    0    0    0    0  0.00000000000E+00  0.00000000000E+00  0.39999999673E+01  0.40000000000E+01  0.51109989000E-03 0.  1.
     -623   -1    0    0    0    0  0.00000000000E+00  0.00000000000E+00  0.12525980253E-10  0.17130000000E+03  0.17130000000E+03 0. -1.
       11    1    1    2    0    0  0.95762920577E-02 -0.13533156704E-01 -0.30307417790E-02  0.16861148205E-01  0.51109989000E-03 0.  1.
     -623    1    1    2    0    0 -0.17694259293E-01 -0.10423616605E-01  0.31290194958E-01  0.17130000409E+03  0.17130000000E+03 0. -1.
      622    1    1    2    0    0  0.81179672356E-02  0.23956773309E-01  0.39717405142E+01  0.39831347630E+01  0.30000000000E+00 0.  1.
</event>
<event>
 5   0  0.5137000E+05  0.9118800E+02  0.7818608E-02  0.1180000E+00
       11   -1    0    0    0    0  0.00000000000E+00  0.00000000000E+00  0.39999999673E+01  0.40000000000E+01  0.51109989000E-03 0. -1.
     -623   -1    0    0    0    0  0.00000000000E+00  0.00000000000E+00  0.12525980253E-10  0.17130000000E+03  0.17130000000E+03 0.  1.
       11    1    1    2    0    0  0.72398363077E-02 -0.13065167247E-01  0.36051499772E+00  0.36082466466E+00  0.51109989000E-03 0. -1.
     -623    1    1    2    0    0  0.10854781768E-02  0.10737296416E-01  0.12707269429E-01  0.17130000081E+03  0.17130000000E+03 0.  1.
      622    1    1    2    0    0 -0.83253144845E-02  0.23278708306E-02  0.36267777002E+01  0.36391745241E+01  0.30000000000E+00 0. -1.
</event>
<event>
 5   0  0.5137000E+05  0.9118800E+02  0.7818608E-02  0.1180000E+00
       11   -1    0    0    0    0  0.00000000000E+00  0.00000000000E+00  0.39999999673E+01  0.40000000000E+01  0.51109989000E-03 0.  1.
     -623   -1    0    0    0    0  0.00000000000E+00  0.00000000000E+00  0.12525980253E-10  0.17130000000E+03  0.17130000000E+03 0.  1.
       11    1    1    2    0    0 -0.19570092361E-01  0.60513351613E-02  0.86017575412E-01  0.88424497031E-01  0.51109989000E-03 0.  1.
     -623    1    1    2    0    0 -0.15569593138E-01  0.31472292282E-01  0.14271211434E-01  0.17130000419E+03  0.17130000000E+03 0.  1.
      622    1    1    2    0    0  0.35139685499E-01 -0.37523627444E-01  0.38997111805E+01  0.39115713098E+01  0.30000000000E+00 0.  0.
</event>
<event>
 5   0  0.5137000E+05  0.9118800E+02  0.7818608E-02  0.1180000E+00
       11   -1    0    0    0    0  0.00000000000E+00  0.00000000000E+00  0.39999999673E+01  0.40000000000E+01  0.51109989000E-03 0.  1.
     -623   -1    0    0    0    0  0.00000000000E+00  0.00000000000E+00  0.12525980253E-10  0.17130000000E+03  0.17130000000E+03 0.  1.
       11    1    1    2    0    0 -0.42801354705E-01 -0.49575377691E-01  0.15280417199E+00  0.16624996311E+00  0.51109989000E-03 0.  1.
     -623    1    1    2    0    0  0.18243734715E-01  0.10745499594E+00  0.25755555261E-01  0.17130003661E+03  0.17130000000E+03 0.  1.
      622    1    1    2    0    0  0.24557619990E-01 -0.57879618251E-01  0.38214402401E+01  0.38337134264E+01  0.30000000000E+00 0.  1.
</event>
<event>
 5   0  0.5137000E+05  0.9118800E+02  0.7818608E-02  0.1180000E+00
       11   -1    0    0    0    0  0.00000000000E+00  0.00000000000E+00  0.39999999673E+01  0.40000000000E+01  0.51109989000E-03 0.  1.
     -623   -1    0    0    0    0  0.00000000000E+00  0.00000000000E+00  0.12525980253E-10  0.17130000000E+03  0.17130000000E+03 0.  1.
       11    1    1    2    0    0 -0.42928711107E-01  0.20346032369E-01  0.44813581746E+00  0.45064709849E+00  0.51109989000E-03 0.  1.
     -623    1    1    2    0    0  0.36362062043E-01  0.21115165044E-01  0.15467357055E-01  0.17130000586E+03  0.17130000000E+03 0.  1.
      622    1    1    2    0    0  0.65666490636E-02 -0.41461197413E-01  0.35363967929E+01  0.35493470425E+01  0.30000000000E+00 0.  1.
</event>
<event>
 5   0  0.5137000E+05  0.9118800E+02  0.7818608E-02  0.1180000E+00
       11   -1    0    0    0    0  0.00000000000E+00  0.00000000000E+00  0.39999999673E+01  0.40000000000E+01  0.51109989000E-03 0. -1.
     -623   -1    0    0    0    0  0.00000000000E+00  0.00000000000E+00  0.12525980253E-10  0.17130000000E+03  0.17130000000E+03 0. -1.
       11    1    1    2    0    0 -0.43290014748E-03 -0.27387065796E-02  0.50226026741E-02  0.57598330693E-02  0.51109989000E-03 0. -1.
     -623    1    1    2    0    0 -0.39778214971E-01  0.55051095547E-02  0.12228460224E-01  0.17130000514E+03  0.17130000000E+03 0. -1.
      622    1    1    2    0    0  0.40211115119E-01 -0.27664029752E-02  0.39827489045E+01  0.39942350235E+01  0.30000000000E+00 0. -1.
</event>
<event>
 5   0  0.5137000E+05  0.9118800E+02  0.7818608E-02  0.1180000E+00
       11   -1    0    0    0    0  0.00000000000E+00  0.00000000000E+00  0.39999999673E+01  0.40000000000E+01  0.51109989000E-03 0. -1.
     -623   -1    0    0    0    0  0.00000000000E+00  0.00000000000E+00  0.12525980253E-10  0.17130000000E+03  0.17130000000E+03 0. -1.
       11    1    1    2    0    0 -0.56195071792E-02 -0.39364950260E-01  0.73537434052E-01  0.83601397117E-01  0.51109989000E-03 0. -1.
     -623    1    1    2    0    0  0.62700139754E-03  0.83395942347E-02  0.21699012315E-01  0.17130000158E+03  0.17130000000E+03 0. -1.
      622    1    1    2    0    0  0.49925057817E-02  0.31025356025E-01  0.39047635210E+01  0.39163970244E+01  0.30000000000E+00 0. -1.
</event>
<event>
 5   0  0.5137000E+05  0.9118800E+02  0.7818608E-02  0.1180000E+00
       11   -1    0    0    0    0  0.00000000000E+00  0.00000000000E+00  0.39999999673E+01  0.40000000000E+01  0.51109989000E-03 0.  1.
     -623   -1    0    0    0    0  0.00000000000E+00  0.00000000000E+00  0.12525980253E-10  0.17130000000E+03  0.17130000000E+03 0. -1.
       11    1    1    2    0    0  0.22525411205E-01 -0.14714188802E-02  0.11291940509E-01  0.25245363278E-01  0.51109989000E-03 0.  1.
     -623    1    1    2    0    0 -0.63744349693E-02  0.17351092670E-01  0.25358615761E-01  0.17130000287E+03  0.17130000000E+03 0. -1.
      622    1    1    2    0    0 -0.16150976236E-01 -0.15879673790E-01  0.39633494111E+01  0.39747517624E+01  0.30000000000E+00 0.  1.
</event>
<event>
 5   0  0.5137000E+05  0.9118800E+02  0.7818608E-02  0.1180000E+00
       11   -1    0    0    0    0  0.00000000000E+00  0.00000000000E+00  0.39999999673E+01  0.40000000000E+01  0.51109989000E-03 0.  1.
     -623   -1    0    0    0    0  0.00000000000E+00  0.00000000000E+00  0.12525980253E-10  0.17130000000E+03  0.17130000000E+03 0. -1.
       11    1    1    2    0    0  0.93566927066E-02  0.69345686358E-01  0.51259056103E+00  0.51734487181E+00  0.51109989000E-03 0.  1.
     -623    1    1    2    0    0  0.18998798855E-01 -0.16239238995E-01  0.18224637444E-01  0.17130000279E+03  0.17130000000E+03 0. -1.
      622    1    1    2    0    0 -0.28355491562E-01 -0.53106447363E-01  0.34691847689E+01  0.34826523354E+01  0.30000000000E+00 0.  1.
</event>
<event>
 5   0  0.5137000E+05  0.9118800E+02  0.7818608E-02  0.1180000E+00
       11   -1    0    0    0    0  0.00000000000E+00  0.00000000000E+00  0.39999999673E+01  0.40000000000E+01  0.51109989000E-03 0.  1.
     -623   -1    0    0    0    0  0.00000000000E+00  0.00000000000E+00  0.12525980253E-10  0.17130000000E+03  0.17130000000E+03 0.  1.
       11    1    1    2    0    0 -0.65446575127E-02  0.20384246080E-01  0.23133801571E-01  0.31524340254E-01  0.51109989000E-03 0.  1.
     -623    1    1    2    0    0  0.22259844040E-01 -0.22983149631E-01  0.19782320575E-01  0.17130000413E+03  0.17130000000E+03 0.  1.
      622    1    1    2    0    0 -0.15715186527E-01  0.25989035503E-02  0.39570838452E+01  0.39684715294E+01  0.30000000000E+00 0.  1.
</event>
<event>
 5   0  0.5137000E+05  0.9118800E+02  0.7818608E-02  0.1180000E+00
       11   -1    0    0    0    0  0.00000000000E+00  0.00000000000E+00  0.39999999673E+01  0.40000000000E+01  0.51109989000E-03 0.  1.
     -623   -1    0    0    0    0  0.00000000000E+00  0.00000000000E+00  0.12525980253E-10  0.17130000000E+03  0.17130000000E+03 0.  1.
       11    1    1    2    0    0  0.10161202369E+00 -0.56935390430E-01  0.10936762640E+01  0.10998612066E+01  0.51109989000E-03 0.  1.
     -623    1    1    2    0    0  0.75434358335E-01  0.32592026102E-01  0.27306500456E-01  0.17130002189E+03  0.17130000000E+03 0.  1.
      622    1    1    2    0    0 -0.17704638202E+00  0.24343364328E-01  0.28790172029E+01  0.29001169072E+01  0.30000000000E+00 0.  1.
</event>
<event>
 5   0  0.5137000E+05  0.9118800E+02  0.7818608E-02  0.1180000E+00
       11   -1    0    0    0    0  0.00000000000E+00  0.00000000000E+00  0.39999999673E+01  0.40000000000E+01  0.51109989000E-03 0. -1.
     -623   -1    0    0    0    0  0.00000000000E+00  0.00000000000E+00  0.12525980253E-10  0.17130000000E+03  0.17130000000E+03 0.  1.
       11    1    1    2    0    0  0.51811832782E-02 -0.12912780523E-01  0.10337237002E-02  0.13961173618E-01  0.51109989000E-03 0. -1.
     -623    1    1    2    0    0  0.96154821833E-02  0.27221139761E-01  0.24290315758E-01  0.17130000415E+03  0.17130000000E+03 0.  1.
      622    1    1    2    0    0 -0.14796665461E-01 -0.14308359239E-01  0.39746759279E+01  0.39860346715E+01  0.30000000000E+00 0. -1.
</event>
<event>
 5   0  0.5137000E+05  0.9118800E+02  0.7818608E-02  0.1180000E+00
       11   -1    0    0    0    0  0.00000000000E+00  0.00000000000E+00  0.39999999673E+01  0.40000000000E+01  0.51109989000E-03 0.  1.
     -623   -1    0    0    0    0  0.00000000000E+00  0.00000000000E+00  0.12525980253E-10  0.17130000000E+03  0.17130000000E+03 0.  1.
       11    1    1    2    0    0  0.88520042947E-01  0.20285725191E-01  0.12344182468E+00  0.15324964585E+00  0.51109989000E-03 0.  1.
     -623    1    1    2    0    0 -0.18421714909E-01 -0.61033847134E-01  0.42398200545E-01  0.17130001711E+03  0.17130000000E+03 0.  1.
      622    1    1    2    0    0 -0.70098328037E-01  0.40748121942E-01  0.38341599421E+01  0.38467332435E+01  0.30000000000E+00 0.  1.
</event>
<event>
 5   0  0.5137000E+05  0.9118800E+02  0.7818608E-02  0.1180000E+00
       11   -1    0    0    0    0  0.00000000000E+00  0.00000000000E+00  0.39999999673E+01  0.40000000000E+01  0.51109989000E-03 0.  1.
     -623   -1    0    0    0    0  0.00000000000E+00  0.00000000000E+00  0.12525980253E-10  0.17130000000E+03  0.17130000000E+03 0. -1.
       11    1    1    2    0    0  0.17692216998E-02 -0.92520478065E-02  0.32527931211E-01  0.33868245681E-01  0.51109989000E-03 0.  1.
     -623    1    1    2    0    0  0.29330026218E-01 -0.45234609979E-02  0.12851959675E-01  0.17130000305E+03  0.17130000000E+03 0. -1.
      622    1    1    2    0    0 -0.31099247918E-01  0.13775508804E-01  0.39546200765E+01  0.39661287015E+01  0.30000000000E+00 0.  1.
</event>
<event>
 5   0  0.5137000E+05  0.9118800E+02  0.7818608E-02  0.1180000E+00
       11   -1    0    0    0    0  0.00000000000E+00  0.00000000000E+00  0.39999999673E+01  0.40000000000E+01  0.51109989000E-03 0.  1.
     -623   -1    0    0    0    0  0.00000000000E+00  0.00000000000E+00  0.12525980253E-10  0.17130000000E+03  0.17130000000E+03 0.  1.
       11    1    1    2    0    0  0.23478830947E-01  0.39456603594E-01  0.18255910130E+00  0.18824496212E+00  0.51109989000E-03 0.  1.
     -623    1    1    2    0    0  0.11978546985E-01 -0.40716547070E-01  0.17681582093E-01  0.17130000617E+03  0.17130000000E+03 0.  1.
      622    1    1    2    0    0 -0.35457377932E-01  0.12599434759E-02  0.37997592840E+01  0.38117488675E+01  0.30000000000E+00 0.  1.
</event>
<event>
 5   0  0.5137000E+05  0.9118800E+02  0.7818608E-02  0.1180000E+00
       11   -1    0    0    0    0  0.00000000000E+00  0.00000000000E+00  0.39999999673E+01  0.40000000000E+01  0.51109989000E-03 0.  1.
     -623   -1    0    0    0    0  0.00000000000E+00  0.00000000000E+00  0.12525980253E-10  0.17130000000E+03  0.17130000000E+03 0. -1.
       11    1    1    2    0    0 -0.73421914490E-02  0.24583081968E-01  0.74856588616E-01  0.79132836273E-01  0.51109989000E-03 0.  1.
     -623    1    1    2    0    0  0.10078926237E-01 -0.11801058385E-01  0.15793404164E-01  0.17130000143E+03  0.17130000000E+03 0. -1.
      622    1    1    2    0    0 -0.27367347884E-02 -0.12782023584E-01  0.39093499746E+01  0.39208657327E+01  0.30000000000E+00 0.  1.
</event>
<event>
 5   0  0.5137000E+05  0.9118800E+02  0.7818608E-02  0.1180000E+00
       11   -1    0    0    0    0  0.00000000000E+00  0.00000000000E+00  0.39999999673E+01  0.40000000000E+01  0.51109989000E-03 0. -1.
     -623   -1    0    0    0    0  0.00000000000E+00  0.00000000000E+00  0.12525980253E-10  0.17130000000E+03  0.17130000000E+03 0. -1.
       11    1    1    2    0    0 -0.30011424934E-02 -0.17747015495E-02  0.23924510409E+00  0.23927105440E+00  0.51109989000E-03 0. -1.
     -623    1    1    2    0    0  0.18941488360E-01 -0.16106509514E-02  0.12047682544E-01  0.17130000148E+03  0.17130000000E+03 0. -1.
      622    1    1    2    0    0 -0.15940345867E-01  0.33853525009E-02  0.37487071807E+01  0.37607274671E+01  0.30000000000E+00 0. -1.
</event>
<event>
 5   0  0.5137000E+05  0.9118800E+02  0.7818608E-02  0.1180000E+00
       11   -1    0    0    0    0  0.00000000000E+00  0.00000000000E+00  0.39999999673E+01  0.40000000000E+01  0.51109989000E-03 0. -1.
     -623   -1    0    0    0    0  0.00000000000E+00  0.00000000000E+00  0.12525980253E-10  0.17130000000E+03  0.17130000000E+03 0. -1.
       11    1    1    2    0    0  0.40051304179E-02 -0.10005253249E-02  0.52460139336E-01  0.52624799856E-01  0.51109989000E-03 0. -1.
     -623    1    1    2    0    0  0.34952573038E-02  0.70183728332E-02  0.11593437818E-01  0.17130000057E+03  0.17130000000E+03 0. -1.
      622    1    1    2    0    0 -0.75003877217E-02 -0.60178475082E-02  0.39359463902E+01  0.39473746284E+01  0.30000000000E+00 0. -1.
</event>
<event>
 5   0  0.5137000E+05  0.9118800E+02  0.7818608E-02  0.1180000E+00
       11   -1    0    0    0    0  0.00000000000E+00  0.00000000000E+00  0.39999999673E+01  0.40000000000E+01  0.51109989000E-03 0. -1.
     -623   -1    0    0    0    0  0.00000000000E+00  0.00000000000E+00  0.12525980253E-10  0.17130000000E+03  0.17130000000E+03 0.  1.
       11    1    1    2    0    0  0.93388169274E-02  0.33691891611E-01  0.50048599397E+00  0.50170593822E+00  0.51109989000E-03 0. -1.
     -623    1    1    2    0    0  0.26527254154E-01  0.26854861348E-01  0.14822384072E-01  0.17130000480E+03  0.17130000000E+03 0.  1.
      622    1    1    2    0    0 -0.35866071081E-01 -0.60546752959E-01  0.34846915893E+01  0.34982892615E+01  0.30000000000E+00 0.  0.
</event>
<event>
 5   0  0.5137000E+05  0.9118800E+02  0.7818608E-02  0.1180000E+00
       11   -1    0    0    0    0  0.00000000000E+00  0.00000000000E+00  0.39999999673E+01  0.40000000000E+01  0.51109989000E-03 0. -1.
     -623   -1    0    0    0    0  0.00000000000E+00  0.00000000000E+00  0.12525980253E-10  0.17130000000E+03  0.17130000000E+03 0.  1.
       11    1    1    2    0    0 -0.27023285504E-01 -0.14974725154E-01  0.83369931895E-01  0.88911794033E-01  0.51109989000E-03 0. -1.
     -623    1    1    2    0    0 -0.27101765912E-01  0.14439776460E-01  0.17443880719E-01  0.17130000364E+03  0.17130000000E+03 0.  1.
      622    1    1    2    0    0  0.54125051416E-01  0.53494869350E-03  0.38991861547E+01  0.39110845653E+01  0.30000000000E+00 0. -1.
</event>
<event>
 5   0  0.5137000E+05  0.9118800E+02  0.7818608E-02  0.1180000E+00
       11   -1    0    0    0    0  0.00000000000E+00  0.00000000000E+00  0.39999999673E+01  0.40000000000E+01  0.51109989000E-03 0.  1.
     -623   -1    0    0    0    0  0.00000000000E+00  0.00000000000E+00  0.12525980253E-10  0.17130000000E+03  0.17130000000E+03 0.  1.
       11    1    1    2    0    0 -0.27748116305E-01  0.14814297537E-03  0.10684843920E-01  0.29738981447E-01  0.51109989000E-03 0.  1.
     -623    1    1    2    0    0  0.38747923920E-01 -0.15805758145E-01  0.30458684007E-01  0.17130000782E+03  0.17130000000E+03 0.  1.
      622    1    1    2    0    0 -0.10999807615E-01  0.15657615170E-01  0.39588564394E+01  0.39702531991E+01  0.30000000000E+00 0.  1.
</event>
<event>
 5   0  0.5137000E+05  0.9118800E+02  0.7818608E-02  0.1180000E+00
       11   -1    0    0    0    0  0.00000000000E+00  0.00000000000E+00  0.39999999673E+01  0.40000000000E+01  0.51109989000E-03 0.  1.
     -623   -1    0    0    0    0  0.00000000000E+00  0.00000000000E+00  0.12525980253E-10  0.17130000000E+03  0.17130000000E+03 0. -1.
       11    1    1    2    0    0 -0.50958889706E-01 -0.12927639198E-01  0.48360701623E-01  0.71434942289E-01  0.51109989000E-03 0.  1.
     -623    1    1    2    0    0  0.83515761761E-01  0.22343847793E-01  0.34717547644E-01  0.17130002533E+03  0.17130000000E+03 0. -1.
      622    1    1    2    0    0 -0.32556872056E-01 -0.94162085954E-02  0.39169217181E+01  0.39285397237E+01  0.30000000000E+00 0.  1.
</event>
<event>
 5   0  0.5137000E+05  0.9118800E+02  0.7818608E-02  0.1180000E+00
       11   -1    0    0    0    0  0.00000000000E+00  0.00000000000E+00  0.39999999673E+01  0.40000000000E+01  0.51109989000E-03 0.  1.
     -623   -1    0    0    0    0  0.00000000000E+00  0.00000000000E+00  0.12525980253E-10  0.17130000000E+03  0.17130000000E+03 0.  1.
       11    1    1    2    0    0  0.41060741324E-02 -0.10531466566E-01  0.21411157261E-01  0.24217153217E-01  0.51109989000E-03 0.  1.
     -623    1    1    2    0    0  0.19044516996E-01  0.26441118456E-01  0.14243867420E-01  0.17130000369E+03  0.17130000000E+03 0.  1.
      622    1    1    2    0    0 -0.23150591128E-01 -0.15909651891E-01  0.39643449427E+01  0.39757791553E+01  0.30000000000E+00 0.  1.
</event>
<event>
 5   0  0.5137000E+05  0.9118800E+02  0.7818608E-02  0.1180000E+00
       11   -1    0    0    0    0  0.00000000000E+00  0.00000000000E+00  0.39999999673E+01  0.40000000000E+01  0.51109989000E-03 0.  1.
     -623   -1    0    0    0    0  0.00000000000E+00  0.00000000000E+00  0.12525980253E-10  0.17130000000E+03  0.17130000000E+03 0.  1.
       11    1    1    2    0    0  0.16553851489E-01  0.19882216950E-01  0.18133785800E-01  0.31597910680E-01  0.51109989000E-03 0.  1.
     -623    1    1    2    0    0 -0.31216063337E-01 -0.31550308878E-01  0.24871861099E-01  0.17130000756E+03  0.17130000000E+03 0.  1.
      622    1    1    2    0    0  0.14662211848E-01  0.11668091928E-01  0.39569943205E+01  0.39683945339E+01  0.30000000000E+00 0.  1.
</event>
<event>
 5   0  0.5137000E+05  0.9118800E+02  0.7818608E-02  0.1180000E+00
       11   -1    0    0    0    0  0.00000000000E+00  0.00000000000E+00  0.39999999673E+01  0.40000000000E+01  0.51109989000E-03 0. -1.
     -623   -1    0    0    0    0  0.00000000000E+00  0.00000000000E+00  0.12525980253E-10  0.17130000000E+03  0.17130000000E+03 0. -1.
       11    1    1    2    0    0  0.48866382289E-01 -0.30286749344E-01  0.82514511743E+00  0.82714565619E+00  0.51109989000E-03 0. -1.
     -623    1    1    2    0    0 -0.36942819258E-01 -0.84890888106E-01  0.18364453404E-01  0.17130002600E+03  0.17130000000E+03 0. -1.
      622    1    1    2    0    0 -0.11923563032E-01  0.11517763745E+00  0.31564903965E+01  0.31728283412E+01  0.30000000000E+00 0. -1.
</event>
<event>
 5   0  0.5137000E+05  0.9118800E+02  0.7818608E-02  0.1180000E+00
       11   -1    0    0    0    0  0.00000000000E+00  0.00000000000E+00  0.39999999673E+01  0.40000000000E+01  0.51109989000E-03 0. -1.
     -623   -1    0    0    0    0  0.00000000000E+00  0.00000000000E+00  0.12525980253E-10  0.17130000000E+03  0.17130000000E+03 0.  1.
       11    1    1    2    0    0 -0.76850390260E-02 -0.89330306318E-02  0.18363393977E-02  0.11937010789E-01  0.51109989000E-03 0. -1.
     -623    1    1    2    0    0  0.22748539854E-01  0.24335622180E-01  0.21463275090E-01  0.17130000458E+03  0.17130000000E+03 0.  1.
      622    1    1    2    0    0 -0.15063500828E-01 -0.15402591549E-01  0.39767003529E+01  0.39880584055E+01  0.30000000000E+00 0. -1.
</event>
<event>
 5   0  0.5137000E+05  0.9118800E+02  0.7818608E-02  0.1180000E+00
       11   -1    0    0    0    0  0.00000000000E+00  0.00000000000E+00  0.39999999673E+01  0.40000000000E+01  0.51109989000E-03 0. -1.
     -623   -1    0    0    0    0  0.00000000000E+00  0.00000000000E+00  0.12525980253E-10  0.17130000000E+03  0.17130000000E+03 0. -1.
       11    1    1    2    0    0  0.38621276231E-01  0.88436218639E-02  0.16037681160E+00  0.16519926013E+00  0.51109989000E-03 0. -1.
     -623    1    1    2    0    0 -0.16344948354E-02 -0.12610752586E-01  0.16757137295E-01  0.17130000129E+03  0.17130000000E+03 0. -1.
      622    1    1    2    0    0 -0.36986781395E-01  0.37671307222E-02  0.38228660185E+01  0.38347994483E+01  0.30000000000E+00 0. -1.
</event>
<event>
 5   0  0.5137000E+05  0.9118800E+02  0.7818608E-02  0.1180000E+00
       11   -1    0    0    0    0  0.00000000000E+00  0.00000000000E+00  0.39999999673E+01  0.40000000000E+01  0.51109989000E-03 0. -1.
     -623   -1    0    0    0    0  0.00000000000E+00  0.00000000000E+00  0.12525980253E-10  0.17130000000E+03  0.17130000000E+03 0.  1.
       11    1    1    2    0    0 -0.50705716797E-02  0.19415541801E-01  0.28028135906E+00  0.28099924451E+00  0.51109989000E-03 0. -1.
     -623    1    1    2    0    0 -0.12255916743E-01 -0.63656538021E-02  0.12902136220E-01  0.17130000104E+03  0.17130000000E+03 0.  1.
      622    1    1    2    0    0  0.17326488423E-01 -0.13049887999E-01  0.37068164721E+01  0.37189997129E+01  0.30000000000E+00 0. -1.
</event>
<event>
 5   0  0.5137000E+05  0.9118800E+02  0.7818608E-02  0.1180000E+00
       11   -1    0    0    0    0  0.00000000000E+00  0.00000000000E+00  0.39999999673E+01  0.40000000000E+01  0.51109989000E-03 0. -1.
     -623   -1    0    0    0    0  0.00000000000E+00  0.00000000000E+00  0.12525980253E-10  0.17130000000E+03  0.17130000000E+03 0. -1.
       11    1    1    2    0    0 -0.23283318234E-02 -0.65550685279E-02 -0.44433890450E-02  0.82701258142E-02  0.51109989000E-03 0. -1.
     -623    1    1    2    0    0  0.12292001032E-02  0.23456637415E-01  0.24042096312E-01  0.17130000330E+03  0.17130000000E+03 0. -1.
      622    1    1    2    0    0  0.10991317202E-02 -0.16901568887E-01  0.39804012601E+01  0.39917265766E+01  0.30000000000E+00 0. -1.
</event>
<event>
 5   0  0.5137000E+05  0.9118800E+02  0.7818608E-02  0.1180000E+00
       11   -1    0    0    0    0  0.00000000000E+00  0.00000000000E+00  0.39999999673E+01  0.40000000000E+01  0.51109989000E-03 0. -1.
     -623   -1    0    0    0    0  0.00000000000E+00  0.00000000000E+00  0.12525980253E-10  0.17130000000E+03  0.17130000000E+03 0. -1.
       11    1    1    2    0    0 -0.15134973467E-01 -0.24518000549E-01  0.85336729920E-01  0.90071185566E-01  0.51109989000E-03 0. -1.
     -623    1    1    2    0    0  0.10888194213E-01  0.24188090767E-01  0.16265734492E-01  0.17130000283E+03  0.17130000000E+03 0. -1.
      622    1    1    2    0    0  0.42467792533E-02  0.32990978235E-03  0.38983975030E+01  0.39099259884E+01  0.30000000000E+00 0. -1.
</event>
<event>
 5   0  0.5137000E+05  0.9118800E+02  0.7818608E-02  0.1180000E+00
       11   -1    0    0    0    0  0.00000000000E+00  0.00000000000E+00  0.39999999673E+01  0.40000000000E+01  0.51109989000E-03 0.  1.
     -623   -1    0    0    0    0  0.00000000000E+00  0.00000000000E+00  0.12525980253E-10  0.17130000000E+03  0.17130000000E+03 0. -1.
       11    1    1    2    0    0  0.83009850677E-01  0.33724303501E-01  0.42093320151E+00  0.43036378252E+00  0.51109989000E-03 0.  1.
     -623    1    1    2    0    0  0.75265453369E-02 -0.13178515518E-01  0.23273229929E-01  0.17130000225E+03  0.17130000000E+03 0. -1.
      622    1    1    2    0    0 -0.90536396013E-01 -0.20545787983E-01  0.35557935359E+01  0.35696339642E+01  0.30000000000E+00 0.  1.
</event>
<event>
 5   0  0.5137000E+05  0.9118800E+02  0.7818608E-02  0.1180000E+00
       11   -1    0    0    0    0  0.00000000000E+00  0.00000000000E+00  0.39999999673E+01  0.40000000000E+01  0.51109989000E-03 0. -1.
     -623   -1    0    0    0    0  0.00000000000E+00  0.00000000000E+00  0.12525980253E-10  0.17130000000E+03  0.17130000000E+03 0. -1.
       11    1    1    2    0    0 -0.79491827821E-02  0.94495385548E-03 -0.24132361649E-01  0.25430582866E-01  0.51109989000E-03 0. -1.
     -623    1    1    2    0    0  0.34556261873E-02 -0.54017341942E-02  0.60917101303E-01  0.17130001095E+03  0.17130000000E+03 0. -1.
      622    1    1    2    0    0  0.44935565947E-02  0.44567803387E-02  0.39632152277E+01  0.39745584655E+01  0.30000000000E+00 0. -1.
</event>
<event>
 5   0  0.5137000E+05  0.9118800E+02  0.7818608E-02  0.1180000E+00
       11   -1    0    0    0    0  0.00000000000E+00  0.00000000000E+00  0.39999999673E+01  0.40000000000E+01  0.51109989000E-03 0.  1.
     -623   -1    0    0    0    0  0.00000000000E+00  0.00000000000E+00  0.12525980253E-10  0.17130000000E+03  0.17130000000E+03 0. -1.
       11    1    1    2    0    0 -0.25731017178E-01  0.27264187279E-01  0.43805108607E+00  0.43965263149E+00  0.51109989000E-03 0.  1.
     -623    1    1    2    0    0  0.95997209019E-02 -0.11038000392E-01  0.14338254978E-01  0.17130000122E+03  0.17130000000E+03 0. -1.
      622    1    1    2    0    0  0.16131296276E-01 -0.16226186887E-01  0.35476106263E+01  0.35603461438E+01  0.30000000000E+00 0.  1.
</event>
<event>
 5   0  0.5137000E+05  0.9118800E+02  0.7818608E-02  0.1180000E+00
       11   -1    0    0    0    0  0.00000000000E+00  0.00000000000E+00  0.39999999673E+01  0.40000000000E+01  0.51109989000E-03 0. -1.
     -623   -1    0    0    0    0  0.00000000000E+00  0.00000000000E+00  0.12525980253E-10  0.17130000000E+03  0.17130000000E+03 0.  1.
       11    1    1    2    0    0  0.25150661328E-01 -0.11287096368E-01 -0.15438089663E-02  0.27615192868E-01  0.51109989000E-03 0. -1.
     -623    1    1    2    0    0 -0.23028625084E-01 -0.24453318017E-01  0.40673335603E-01  0.17130000812E+03  0.17130000000E+03 0.  1.
      622    1    1    2    0    0 -0.21220362441E-02  0.35740414386E-01  0.39608704407E+01  0.39723766851E+01  0.30000000000E+00 0. -1.
</event>
<event>
 5   0  0.5137000E+05  0.9118800E+02  0.7818608E-02  0.1180000E+00
       11   -1    0    0    0    0  0.00000000000E+00  0.00000000000E+00  0.39999999673E+01  0.40000000000E+01  0.51109989000E-03 0. -1.
     -623   -1    0    0    0    0  0.00000000000E+00  0.00000000000E+00  0.12525980253E-10  0.17130000000E+03  0.17130000000E+03 0. -1.
       11    1    1    2    0    0 -0.43683778618E-02  0.54798856630E-01  0.16266920875E+00  0.17170768798E+00  0.51109989000E-03 0. -1.
     -623    1    1    2    0    0 -0.40377556035E-01 -0.10783004040E-01  0.21333742531E-01  0.17130000643E+03  0.17130000000E+03 0. -1.
      622    1    1    2    0    0  0.44745933897E-01 -0.44015852590E-01  0.38159970161E+01  0.38282858854E+01  0.30000000000E+00 0. -1.
</event>
<event>
 5   0  0.5137000E+05  0.9118800E+02  0.7818608E-02  0.1180000E+00
       11   -1    0    0    0    0  0.00000000000E+00  0.00000000000E+00  0.39999999673E+01  0.40000000000E+01  0.51109989000E-03 0.  1.
     -623   -1    0    0    0    0  0.00000000000E+00  0.00000000000E+00  0.12525980253E-10  0.17130000000E+03  0.17130000000E+03 0. -1.
       11    1    1    2    0    0  0.41914715174E-01 -0.34461820505E-03  0.17734751549E+00  0.18223436719E+00  0.51109989000E-03 0.  1.
     -623    1    1    2    0    0 -0.45576155467E-01  0.17525502943E-01  0.16740412306E-01  0.17130000778E+03  0.17130000000E+03 0. -1.
      622    1    1    2    0    0  0.36614402925E-02 -0.17180884738E-01  0.38059120396E+01  0.38177578553E+01  0.30000000000E+00 0.  1.
</event>
<event>
 5   0  0.5137000E+05  0.9118800E+02  0.7818608E-02  0.1180000E+00
       11   -1    0    0    0    0  0.00000000000E+00  0.00000000000E+00  0.39999999673E+01  0.40000000000E+01  0.51109989000E-03 0.  1.
     -623   -1    0    0    0    0  0.00000000000E+00  0.00000000000E+00  0.12525980253E-10  0.17130000000E+03  0.17130000000E+03 0. -1.
       11    1    1    2    0    0  0.21199306997E-01  0.13822592257E-02  0.13916627821E-01  0.25401870221E-01  0.51109989000E-03 0.  1.
     -623    1    1    2    0    0 -0.15565364848E-01 -0.18356448939E-01  0.22866860903E-01  0.17130000322E+03  0.17130000000E+03 0. -1.
      622    1    1    2    0    0 -0.56339421484E-02  0.16974189713E-01  0.39632164786E+01  0.39745949128E+01  0.30000000000E+00 0.  1.
</event>
<event>
 5   0  0.5137000E+05  0.9118800E+02  0.7818608E-02  0.1180000E+00
       11   -1    0    0    0    0  0.00000000000E+00  0.00000000000E+00  0.39999999673E+01  0.40000000000E+01  0.51109989000E-03 0. -1.
     -623   -1    0    0    0    0  0.00000000000E+00  0.00000000000E+00  0.12525980253E-10  0.17130000000E+03  0.17130000000E+03 0.  1.
       11    1    1    2    0    0 -0.30855461709E-02 -0.10665030551E-02  0.39991654567E-02  0.51877327791E-02  0.51109989000E-03 0. -1.
     -623    1    1    2    0    0  0.27614430492E-01  0.45232404349E-02  0.12548843815E-01  0.17130000275E+03  0.17130000000E+03 0.  1.
      622    1    1    2    0    0 -0.24528884321E-01 -0.34567373798E-02  0.39834519581E+01  0.39948095221E+01  0.30000000000E+00 0. -1.
</event>
<event>
 5   0  0.5137000E+05  0.9118800E+02  0.7818608E-02  0.1180000E+00
       11   -1    0    0    0    0  0.00000000000E+00  0.00000000000E+00  0.39999999673E+01  0.40000000000E+01  0.51109989000E-03 0. -1.
     -623   -1    0    0    0    0  0.00000000000E+00  0.00000000000E+00  0.12525980253E-10  0.17130000000E+03  0.17130000000E+03 0.  1.
       11    1    1    2    0    0  0.11514151035E-01 -0.18068054162E-02  0.17457829097E-01  0.20997076934E-01  0.51109989000E-03 0. -1.
     -623    1    1    2    0    0 -0.18878184871E-01  0.67825558523E-02  0.14876478552E-01  0.17130000182E+03  0.17130000000E+03 0.  1.
      622    1    1    2    0    0  0.73640338358E-02 -0.49757504361E-02  0.39676656597E+01  0.39790011026E+01  0.30000000000E+00 0. -1.
</event>
<event>
 5   0  0.5137000E+05  0.9118800E+02  0.7818608E-02  0.1180000E+00
       11   -1    0    0    0    0  0.00000000000E+00  0.00000000000E+00  0.39999999673E+01  0.40000000000E+01  0.51109989000E-03 0. -1.
     -623   -1    0    0    0    0  0.00000000000E+00  0.00000000000E+00  0.12525980253E-10  0.17130000000E+03  0.17130000000E+03 0.  1.
       11    1    1    2    0    0  0.40140698739E-01  0.42708969822E-01  0.71630192021E-02  0.59049994629E-01  0.51109989000E-03 0. -1.
     -623    1    1    2    0    0  0.11562367293E+00 -0.81526157195E-01  0.66674077282E-01  0.17130007140E+03  0.17130000000E+03 0.  1.
      622    1    1    2    0    0 -0.15576437167E+00  0.38817187373E-01  0.39261628709E+01  0.39408786079E+01  0.30000000000E+00 0. -1.
</event>
<event>
 5   0  0.5137000E+05  0.9118800E+02  0.7818608E-02  0.1180000E+00
       11   -1    0    0    0    0  0.00000000000E+00  0.00000000000E+00  0.39999999673E+01  0.40000000000E+01  0.51109989000E-03 0. -1.
     -623   -1    0    0    0    0  0.00000000000E+00  0.00000000000E+00  0.12525980253E-10  0.17130000000E+03  0.17130000000E+03 0. -1.
       11    1    1    2    0    0  0.21827448113E-01  0.82176134538E-03  0.40233012056E+00  0.40292294538E+00  0.51109989000E-03 0. -1.
     -623    1    1    2    0    0  0.28227593275E-01  0.24388682015E-01  0.13567563668E-01  0.17130000460E+03  0.17130000000E+03 0. -1.
      622    1    1    2    0    0 -0.50055041388E-01 -0.25210443361E-01  0.35841022831E+01  0.35970724554E+01  0.30000000000E+00 0. -1.
</event>
<event>
 5   0  0.5137000E+05  0.9118800E+02  0.7818608E-02  0.1180000E+00
       11   -1    0    0    0    0  0.00000000000E+00  0.00000000000E+00  0.39999999673E+01  0.40000000000E+01  0.51109989000E-03 0.  1.
     -623   -1    0    0    0    0  0.00000000000E+00  0.00000000000E+00  0.12525980253E-10  0.17130000000E+03  0.17130000000E+03 0.  1.
       11    1    1    2    0    0 -0.50672451404E-01 -0.13032737859E+00  0.92985202911E+00  0.94030738602E+00  0.51109989000E-03 0.  1.
     -623    1    1    2    0    0 -0.18985211101E-01 -0.91426379373E-01  0.34111797081E-01  0.17130002885E+03  0.17130000000E+03 0.  1.
      622    1    1    2    0    0  0.69657662505E-01  0.22175375797E+00  0.30360361412E+01  0.30596637674E+01  0.30000000000E+00 0.  0.
</event>
<event>
 5   0  0.5137000E+05  0.9118800E+02  0.7818608E-02  0.1180000E+00
       11   -1    0    0    0    0  0.00000000000E+00  0.00000000000E+00  0.39999999673E+01  0.40000000000E+01  0.51109989000E-03 0.  1.
     -623   -1    0    0    0    0  0.00000000000E+00  0.00000000000E+00  0.12525980253E-10  0.17130000000E+03  0.17130000000E+03 0.  1.
       11    1    1    2    0    0 -0.13430148690E-01  0.17264703224E-02  0.14540361752E-01  0.19875435476E-01  0.51109989000E-03 0.  1.
     -623    1    1    2    0    0  0.16587645453E-01  0.54597303899E-02  0.16666791918E-01  0.17130000170E+03  0.17130000000E+03 0.  1.
      622    1    1    2    0    0 -0.31574967630E-02 -0.71862007124E-02  0.39687928137E+01  0.39801228636E+01  0.30000000000E+00 0.  1.
</event>
<event>
 5   0  0.5137000E+05  0.9118800E+02  0.7818608E-02  0.1180000E+00
       11   -1    0    0    0    0  0.00000000000E+00  0.00000000000E+00  0.39999999673E+01  0.40000000000E+01  0.51109989000E-03 0. -1.
     -623   -1    0    0    0    0  0.00000000000E+00  0.00000000000E+00  0.12525980253E-10  0.17130000000E+03  0.17130000000E+03 0.  1.
       11    1    1    2    0    0  0.32614761559E-01 -0.12052827904E-02  0.92707634265E-01  0.98286021646E-01  0.51109989000E-03 0. -1.
     -623    1    1    2    0    0  0.53165939221E-02 -0.27345694752E-01  0.17421713986E-01  0.17130000315E+03  0.17130000000E+03 0.  1.
      622    1    1    2    0    0 -0.37931355481E-01  0.28550977542E-01  0.38898706191E+01  0.39017108272E+01  0.30000000000E+00 0. -1.
</event>
<event>
 5   0  0.5137000E+05  0.9118800E+02  0.7818608E-02  0.1180000E+00
       11   -1    0    0    0    0  0.00000000000E+00  0.00000000000E+00  0.39999999673E+01  0.40000000000E+01  0.51109989000E-03 0. -1.
     -623   -1    0    0    0    0  0.00000000000E+00  0.00000000000E+00  0.12525980253E-10  0.17130000000E+03  0.17130000000E+03 0. -1.
       11    1    1    2    0    0 -0.19356247114E-01 -0.61036407788E-01  0.19175144636E+00  0.20216079189E+00  0.51109989000E-03 0. -1.
     -623    1    1    2    0    0 -0.10761612341E-01  0.68991108517E-02  0.22785592286E-01  0.17130000199E+03  0.17130000000E+03 0. -1.
      622    1    1    2    0    0  0.30117859455E-01  0.54137296936E-01  0.37854629287E+01  0.37978372157E+01  0.30000000000E+00 0. -1.
</event>
<event>
 5   0  0.5137000E+05  0.9118800E+02  0.7818608E-02  0.1180000E+00
       11   -1    0    0    0    0  0.00000000000E+00  0.00000000000E+00  0.39999999673E+01  0.40000000000E+01  0.51109989000E-03 0. -1.
     -623   -1    0    0    0    0  0.00000000000E+00  0.00000000000E+00  0.12525980253E-10  0.17130000000E+03  0.17130000000E+03 0.  1.
       11    1    1    2    0    0  0.19673125599E-01  0.15098131452E-01  0.58275689177E+00  0.58328452883E+00  0.51109989000E-03 0. -1.
     -623    1    1    2    0    0 -0.18785853598E-01 -0.10394817253E-01  0.13728899205E-01  0.17130000190E+03  0.17130000000E+03 0.  1.
      622    1    1    2    0    0 -0.88727200102E-03 -0.47033141988E-02  0.34035141764E+01  0.34167135755E+01  0.30000000000E+00 0. -1.
</event>
<event>
 5   0  0.5137000E+05  0.9118800E+02  0.7818608E-02  0.1180000E+00
       11   -1    0    0    0    0  0.00000000000E+00  0.00000000000E+00  0.39999999673E+01  0.40000000000E+01  0.51109989000E-03 0. -1.
     -623   -1    0    0    0    0  0.00000000000E+00  0.00000000000E+00  0.12525980253E-10  0.17130000000E+03  0.17130000000E+03 0. -1.
       11    1    1    2    0    0 -0.14273249820E-01  0.10468114923E-01  0.11391166196E-01  0.21055331412E-01  0.51109989000E-03 0. -1.
     -623    1    1    2    0    0 -0.10189384619E-01 -0.82376554356E-02  0.21067625218E-01  0.17130000180E+03  0.17130000000E+03 0. -1.
      622    1    1    2    0    0  0.24462634439E-01 -0.22304594871E-02  0.39675411759E+01  0.39789428720E+01  0.30000000000E+00 0. -1.
</event>
<event>
 5   0  0.5137000E+05  0.9118800E+02  0.7818608E-02  0.1180000E+00
       11   -1    0    0    0    0  0.00000000000E+00  0.00000000000E+00  0.39999999673E+01  0.40000000000E+01  0.51109989000E-03 0. -1.
     -623   -1    0    0    0    0  0.00000000000E+00  0.00000000000E+00  0.12525980253E-10  0.17130000000E+03  0.17130000000E+03 0. -1.
       11    1    1    2    0    0  0.47463445509E-01 -0.93625475698E-01  0.29945723926E+00  0.31732224588E+00  0.51109989000E-03 0. -1.
     -623    1    1    2    0    0 -0.41485643089E-01 -0.25616249987E-02  0.31378049281E-01  0.17130000792E+03  0.17130000000E+03 0. -1.
      622    1    1    2    0    0 -0.59778024199E-02  0.96187100697E-01  0.36691646788E+01  0.36826698376E+01  0.30000000000E+00 0. -1.
</event>
<event>
 5   0  0.5137000E+05  0.9118800E+02  0.7818608E-02  0.1180000E+00
       11   -1    0    0    0    0  0.00000000000E+00  0.00000000000E+00  0.39999999673E+01  0.40000000000E+01  0.51109989000E-03 0.  1.
     -623   -1    0    0    0    0  0.00000000000E+00  0.00000000000E+00  0.12525980253E-10  0.17130000000E+03  0.17130000000E+03 0. -1.
       11    1    1    2    0    0 -0.12082945045E-01 -0.22517730034E-01  0.41321068973E+00  0.41400046021E+00  0.51109989000E-03 0.  1.
     -623    1    1    2    0    0 -0.54945962864E-02  0.36646752168E-02  0.13454198295E-01  0.17130000066E+03  0.17130000000E+03 0. -1.
      622    1    1    2    0    0  0.17577541332E-01  0.18853054817E-01  0.35733350793E+01  0.35859988841E+01  0.30000000000E+00 0.  1.
</event>
<event>
 5   0  0.5137000E+05  0.9118800E+02  0.7818608E-02  0.1180000E+00
       11   -1    0    0    0    0  0.00000000000E+00  0.00000000000E+00  0.39999999673E+01  0.40000000000E+01  0.51109989000E-03 0.  1.
     -623   -1    0    0    0    0  0.00000000000E+00  0.00000000000E+00  0.12525980253E-10  0.17130000000E+03  0.17130000000E+03 0. -1.
       11    1    1    2    0    0 -0.27101131643E-02  0.62211220536E-02  0.13076507780E-02  0.69295199418E-02  0.51109989000E-03 0.  1.
     -623    1    1    2    0    0  0.20144352895E-01 -0.33654173072E-01  0.17045333186E-01  0.17130000534E+03  0.17130000000E+03 0. -1.
      622    1    1    2    0    0 -0.17434239731E-01  0.27433051018E-01  0.39816469834E+01  0.39930651416E+01  0.30000000000E+00 0.  1.
</event>
<event>
 5   0  0.5137000E+05  0.9118800E+02  0.7818608E-02  0.1180000E+00
       11   -1    0    0    0    0  0.00000000000E+00  0.00000000000E+00  0.39999999673E+01  0.40000000000E+01  0.51109989000E-03 0.  1.
     -623   -1    0    0    0    0  0.00000000000E+00  0.00000000000E+00  0.12525980253E-10  0.17130000000E+03  0.17130000000E+03 0. -1.
       11    1    1    2    0    0  0.10606623674E-01  0.44086769734E-01  0.36388439408E+00  0.36669913718E+00  0.51109989000E-03 0.  1.
     -623    1    1    2    0    0 -0.40275055551E-01  0.12787175201E-01  0.15795541332E-01  0.17130000594E+03  0.17130000000E+03 0. -1.
      622    1    1    2    0    0  0.29668431877E-01 -0.56873944935E-01  0.36203200319E+01  0.36332949227E+01  0.30000000000E+00 0.  1.
</event>
<event>
 5   0  0.5137000E+05  0.9118800E+02  0.7818608E-02  0.1180000E+00
       11   -1    0    0    0    0  0.00000000000E+00  0.00000000000E+00  0.39999999673E+01  0.40000000000E+01  0.51109989000E-03 0. -1.
     -623   -1    0    0    0    0  0.00000000000E+00  0.00000000000E+00  0.12525980253E-10  0.17130000000E+03  0.17130000000E+03 0.  1.
       11    1    1    2    0    0 -0.72202639635E-01  0.15643769932E-01  0.96818613797E-01  0.12178692011E+00  0.51109989000E-03 0. -1.
     -623    1    1    2    0    0 -0.51960102447E-02  0.54686001403E-01  0.38016566930E-01  0.17130001303E+03  0.17130000000E+03 0.  1.
      622    1    1    2    0    0  0.77398649880E-01 -0.70329771335E-01  0.38651647866E+01  0.38782000536E+01  0.30000000000E+00 0. -1.
</event>
<event>
 5   0  0.5137000E+05  0.9118800E+02  0.7818608E-02  0.1180000E+00
       11   -1    0    0    0    0  0.00000000000E+00  0.00000000000E+00  0.39999999673E+01  0.40000000000E+01  0.51109989000E-03 0. -1.
     -623   -1    0    0    0    0  0.00000000000E+00  0.00000000000E+00  0.12525980253E-10  0.17130000000E+03  0.17130000000E+03 0.  1.
       11    1    1    2    0    0 -0.47975817606E-01  0.86748734900E-02  0.31002082780E+00  0.31383133591E+00  0.51109989000E-03 0. -1.
     -623    1    1    2    0    0  0.46278695786E-02 -0.86900271526E-02  0.16295351406E-01  0.17130000106E+03  0.17130000000E+03 0.  1.
      622    1    1    2    0    0  0.43347948028E-01  0.15153662648E-04  0.36736837882E+01  0.36861676061E+01  0.30000000000E+00 0. -1.
</event>
<event>
 5   0  0.5137000E+05  0.9118800E+02  0.7818608E-02  0.1180000E+00
       11   -1    0    0    0    0  0.00000000000E+00  0.00000000000E+00  0.39999999673E+01  0.40000000000E+01  0.51109989000E-03 0. -1.
     -623   -1    0    0    0    0  0.00000000000E+00  0.00000000000E+00  0.12525980253E-10  0.17130000000E+03  0.17130000000E+03 0.  1.
       11    1    1    2    0    0  0.10713210805E+00  0.47550299634E-01  0.98215414630E+00  0.98912352509E+00  0.51109989000E-03 0. -1.
     -623    1    1    2    0    0 -0.33520086226E-01  0.57177742091E-02  0.23335671693E-01  0.17130000496E+03  0.17130000000E+03 0.  1.
      622    1    1    2    0    0 -0.73612021819E-01 -0.53268073844E-01  0.29945101494E+01  0.30108715104E+01  0.30000000000E+00 0. -1.
</event>
<event>
 5   0  0.5137000E+05  0.9118800E+02  0.7818608E-02  0.1180000E+00
       11   -1    0    0    0    0  0.00000000000E+00  0.00000000000E+00  0.39999999673E+01  0.40000000000E+01  0.51109989000E-03 0. -1.
     -623   -1    0    0    0    0  0.00000000000E+00  0.00000000000E+00  0.12525980253E-10  0.17130000000E+03  0.17130000000E+03 0.  1.
       11    1    1    2    0    0  0.27138227968E-01  0.25803878925E-01  0.44644485919E+00  0.44801294301E+00  0.51109989000E-03 0. -1.
     -623    1    1    2    0    0 -0.32588421236E-01 -0.10719187794E-01  0.14300079697E-01  0.17130000403E+03  0.17130000000E+03 0.  1.
      622    1    1    2    0    0  0.54501932674E-02 -0.15084691131E-01  0.35392550285E+01  0.35519830249E+01  0.30000000000E+00 0. -1.
</event>
<event>
 5   0  0.5137000E+05  0.9118800E+02  0.7818608E-02  0.1180000E+00
       11   -1    0    0    0    0  0.00000000000E+00  0.00000000000E+00  0.39999999673E+01  0.40000000000E+01  0.51109989000E-03 0.  1.
     -623   -1    0    0    0    0  0.00000000000E+00  0.00000000000E+00  0.12525980253E-10  0.17130000000E+03  0.17130000000E+03 0.  1.
       11    1    1    2    0    0  0.34757648164E-01  0.45427870641E-01  0.71030290128E+00  0.71260245461E+00  0.51109989000E-03 0.  1.
     -623    1    1    2    0    0  0.23089436011E-01 -0.31140216570E-02  0.16803844732E-01  0.17130000241E+03  0.17130000000E+03 0.  1.
      622    1    1    2    0    0 -0.57847084175E-01 -0.42313848984E-01  0.32728932214E+01  0.32873951368E+01  0.30000000000E+00 0.  1.
</event>
<event>
 5   0  0.5137000E+05  0.9118800E+02  0.7818608E-02  0.1180000E+00
       11   -1    0    0    0    0  0.00000000000E+00  0.00000000000E+00  0.39999999673E+01  0.40000000000E+01  0.51109989000E-03 0.  1.
     -623   -1    0    0    0    0  0.00000000000E+00  0.00000000000E+00  0.12525980253E-10  0.17130000000E+03  0.17130000000E+03 0. -1.
       11    1    1    2    0    0 -0.18170278864E-01  0.38855079651E-01  0.67230762044E-01  0.79750315591E-01  0.51109989000E-03 0.  1.
     -623    1    1    2    0    0  0.29453764319E-01 -0.14577644745E-01  0.24111781672E-01  0.17130000485E+03  0.17130000000E+03 0. -1.
      622    1    1    2    0    0 -0.11283485455E-01 -0.24277434906E-01  0.39086574236E+01  0.39202448350E+01  0.30000000000E+00 0.  1.
</event>
<event>
 5   0  0.5137000E+05  0.9118800E+02  0.7818608E-02  0.1180000E+00
       11   -1    0    0    0    0  0.00000000000E+00  0.00000000000E+00  0.39999999673E+01  0.40000000000E+01  0.51109989000E-03 0. -1.
     -623   -1    0    0    0    0  0.00000000000E+00  0.00000000000E+00  0.12525980253E-10  0.17130000000E+03  0.17130000000E+03 0.  1.
       11    1    1    2    0    0 -0.40013491563E-02 -0.16886601291E-01  0.53410594380E+00  0.53438805050E+00  0.51109989000E-03 0. -1.
     -623    1    1    2    0    0 -0.23783150079E-01 -0.30672560252E-01  0.13735562817E-01  0.17130000495E+03  0.17130000000E+03 0.  1.
      622    1    1    2    0    0  0.27784499235E-01  0.47559161542E-01  0.34521584607E+01  0.34656070017E+01  0.30000000000E+00 0.  0.
</event>
<event>
 5   0  0.5137000E+05  0.9118800E+02  0.7818608E-02  0.1180000E+00
       11   -1    0    0    0    0  0.00000000000E+00  0.00000000000E+00  0.39999999673E+01  0.40000000000E+01  0.51109989000E-03 0.  1.
     -623   -1    0    0    0    0  0.00000000000E+00  0.00000000000E+00  0.12525980253E-10  0.17130000000E+03  0.17130000000E+03 0. -1.
       11    1    1    2    0    0  0.37866210855E-01 -0.40839106692E-01  0.18368113479E+00  0.19193932130E+00  0.51109989000E-03 0.  1.
     -623    1    1    2    0    0  0.22195722010E-02  0.37043922086E-01  0.20312368924E-01  0.17130000522E+03  0.17130000000E+03 0. -1.
      622    1    1    2    0    0 -0.40085783056E-01  0.37951846062E-02  0.37960064636E+01  0.38080554546E+01  0.30000000000E+00 0.  1.
</event>
<event>
 5   0  0.5137000E+05  0.9118800E+02  0.7818608E-02  0.1180000E+00
       11   -1    0    0    0    0  0.00000000000E+00  0.00000000000E+00  0.39999999673E+01  0.40000000000E+01  0.51109989000E-03 0. -1.
     -623   -1    0    0    0    0  0.00000000000E+00  0.00000000000E+00  0.12525980253E-10  0.17130000000E+03  0.17130000000E+03 0.  1.
       11    1    1    2    0    0  0.11884299725E-01  0.99819581882E-02  0.95270251857E-01  0.96527499609E-01  0.51109989000E-03 0. -1.
     -623    1    1    2    0    0 -0.63017677353E-02  0.21815711942E-01  0.12938387571E-01  0.17130000199E+03  0.17130000000E+03 0.  1.
      622    1    1    2    0    0 -0.55825319893E-02 -0.31797670130E-01  0.38917913279E+01  0.39034705067E+01  0.30000000000E+00 0. -1.
</event>
<event>
 5   0  0.5137000E+05  0.9118800E+02  0.7818608E-02  0.1180000E+00
       11   -1    0    0    0    0  0.00000000000E+00  0.00000000000E+00  0.39999999673E+01  0.40000000000E+01  0.51109989000E-03 0.  1.
     -623   -1    0    0    0    0  0.00000000000E+00  0.00000000000E+00  0.12525980253E-10  0.17130000000E+03  0.17130000000E+03 0. -1.
       11    1    1    2    0    0  0.27326879998E-02  0.17382324232E-01  0.18187006259E+00  0.18271998705E+00  0.51109989000E-03 0.  1.
     -623    1    1    2    0    0 -0.14842309335E-01 -0.48749802604E-02  0.12697657420E-01  0.17130000118E+03  0.17130000000E+03 0. -1.
      622    1    1    2    0    0  0.12109621335E-01 -0.12507343972E-01  0.38054322473E+01  0.38172788300E+01  0.30000000000E+00 0.  1.
</event>
<event>
 5   0  0.5137000E+05  0.9118800E+02  0.7818608E-02  0.1180000E+00
       11   -1    0    0    0    0  0.00000000000E+00  0.00000000000E+00  0.39999999673E+01  0.40000000000E+01  0.51109989000E-03 0.  1.
     -623   -1    0    0    0    0  0.00000000000E+00  0.00000000000E+00  0.12525980253E-10  0.17130000000E+03  0.17130000000E+03 0. -1.
       11    1    1    2    0    0 -0.34392196816E-01 -0.16826355558E-01  0.57351167739E-01  0.68959169840E-01  0.51109989000E-03 0.  1.
     -623    1    1    2    0    0 -0.18676391288E-01  0.20140153244E-01  0.23436527451E-01  0.17130000381E+03  0.17130000000E+03 0. -1.
      622    1    1    2    0    0  0.53068588104E-01 -0.33137976851E-02  0.39192122722E+01  0.39310370248E+01  0.30000000000E+00 0.  1.
</event>
<event>
 5   0  0.5137000E+05  0.9118800E+02  0.7818608E-02  0.1180000E+00
       11   -1    0    0    0    0  0.00000000000E+00  0.00000000000E+00  0.39999999673E+01  0.40000000000E+01  0.51109989000E-03 0. -1.
     -623   -1    0    0    0    0  0.00000000000E+00  0.00000000000E+00  0.12525980253E-10  0.17130000000E+03  0.17130000000E+03 0. -1.
       11    1    1    2    0    0  0.32881647879E-01  0.56862137539E-01  0.53699370185E+00  0.54099630545E+00  0.51109989000E-03 0. -1.
     -623    1    1    2    0    0  0.26838102583E-01 -0.11226682113E-01  0.17859826654E-01  0.17130000340E+03  0.17130000000E+03 0. -1.
      622    1    1    2    0    0 -0.59719750461E-01 -0.45635455426E-01  0.34451464389E+01  0.34590002932E+01  0.30000000000E+00 0. -1.
</event>
<event>
 5   0  0.5137000E+05  0.9118800E+02  0.7818608E-02  0.1180000E+00
       11   -1    0    0    0    0  0.00000000000E+00  0.00000000000E+00  0.39999999673E+01  0.40000000000E+01  0.51109989000E-03 0.  1.
     -623   -1    0    0    0    0  0.00000000000E+00  0.00000000000E+00  0.12525980253E-10  0.17130000000E+03  0.17130000000E+03 0. -1.
       11    1    1    2    0    0  0.23017200659E-01  0.68693632256E-02  0.89437662465E-01  0.92608511304E-01  0.51109989000E-03 0.  1.
     -623    1    1    2    0    0 -0.18367366332E-01  0.11582629161E-01  0.14752962936E-01  0.17130000201E+03  0.17130000000E+03 0. -1.
      622    1    1    2    0    0 -0.46498343274E-02 -0.18451992387E-01  0.38958093420E+01  0.39073894771E+01  0.30000000000E+00 0.  1.
</event>
<event>
 5   0  0.5137000E+05  0.9118800E+02  0.7818608E-02  0.1180000E+00
       11   -1    0    0    0    0  0.00000000000E+00  0.00000000000E+00  0.39999999673E+01  0.40000000000E+01  0.51109989000E-03 0. -1.
     -623   -1    0    0    0    0  0.00000000000E+00  0.00000000000E+00  0.12525980253E-10  0.17130000000E+03  0.17130000000E+03 0.  1.
       11    1    1    2    0    0 -0.15014269741E-01 -0.23950963806E-01  0.29236801241E+00  0.29373183836E+00  0.51109989000E-03 0. -1.
     -623    1    1    2    0    0  0.11406485840E-01 -0.27172917022E-01  0.13883986075E-01  0.17130000310E+03  0.17130000000E+03 0.  1.
      622    1    1    2    0    0  0.36077839012E-02  0.51123880828E-01  0.36937479689E+01  0.37062650640E+01  0.30000000000E+00 0. -1.
</event>
<event>
 5   0  0.5137000E+05  0.9118800E+02  0.7818608E-02  0.1180000E+00
       11   -1    0    0    0    0  0.00000000000E+00  0.00000000000E+00  0.39999999673E+01  0.40000000000E+01  0.51109989000E-03 0. -1.
     -623   -1    0    0    0    0  0.00000000000E+00  0.00000000000E+00  0.12525980253E-10  0.17130000000E+03  0.17130000000E+03 0. -1.
       11    1    1    2    0    0  0.99007346411E-03 -0.60516769510E-02  0.10528086402E+00  0.10546053570E+00  0.51109989000E-03 0. -1.
     -623    1    1    2    0    0  0.18138979026E-01  0.33990349233E-01  0.11903864367E-01  0.17130000475E+03  0.17130000000E+03 0. -1.
      622    1    1    2    0    0 -0.19129052490E-01 -0.27938672282E-01  0.38828152390E+01  0.38945347180E+01  0.30000000000E+00 0. -1.
</event>
<event>
 5   0  0.5137000E+05  0.9118800E+02  0.7818608E-02  0.1180000E+00
       11   -1    0    0    0    0  0.00000000000E+00  0.00000000000E+00  0.39999999673E+01  0.40000000000E+01  0.51109989000E-03 0.  1.
     -623   -1    0    0    0    0  0.00000000000E+00  0.00000000000E+00  0.12525980253E-10  0.17130000000E+03  0.17130000000E+03 0.  1.
       11    1    1    2    0    0  0.18879211296E-01 -0.63113358034E-03  0.17882457105E-01  0.26016657048E-01  0.51109989000E-03 0.  1.
     -623    1    1    2    0    0 -0.44122172916E-02  0.32411548781E-03  0.19501588294E-01  0.17130000117E+03  0.17130000000E+03 0.  1.
      622    1    1    2    0    0 -0.14466994004E-01  0.30701809253E-03  0.39626159220E+01  0.39739821758E+01  0.30000000000E+00 0.  1.
</event>
<event>
 5   0  0.5137000E+05  0.9118800E+02  0.7818608E-02  0.1180000E+00
       11   -1    0    0    0    0  0.00000000000E+00  0.00000000000E+00  0.39999999673E+01  0.40000000000E+01  0.51109989000E-03 0. -1.
     -623   -1    0    0    0    0  0.00000000000E+00  0.00000000000E+00  0.12525980253E-10  0.17130000000E+03  0.17130000000E+03 0.  1.
       11    1    1    2    0    0  0.15462023502E-01  0.11601426468E-02  0.59717879515E-02  0.16623584916E-01  0.51109989000E-03 0. -1.
     -623    1    1    2    0    0  0.77467615220E-02 -0.12457434051E-02  0.22034185484E-01  0.17130000160E+03  0.17130000000E+03 0.  1.
      622    1    1    2    0    0 -0.23208785024E-01  0.85600758230E-04  0.39719939939E+01  0.39833748183E+01  0.30000000000E+00 0. -1.
</event>
<event>
 5   0  0.5137000E+05  0.9118800E+02  0.7818608E-02  0.1180000E+00
       11   -1    0    0    0    0  0.00000000000E+00  0.00000000000E+00  0.39999999673E+01  0.40000000000E+01  0.51109989000E-03 0.  1.
     -623   -1    0    0    0    0  0.00000000000E+00  0.00000000000E+00  0.12525980253E-10  0.17130000000E+03  0.17130000000E+03 0. -1.
       11    1    1    2    0    0  0.79474310586E-03  0.15551213043E-02  0.47747110946E-03  0.18812816464E-02  0.51109989000E-03 0.  1.
     -623    1    1    2    0    0  0.38212265968E-02  0.24154418687E-02  0.12680138719E-01  0.17130000053E+03  0.17130000000E+03 0. -1.
      622    1    1    2    0    0 -0.46159697026E-02 -0.39705631730E-02  0.39868423575E+01  0.39981181894E+01  0.30000000000E+00 0.  1.
</event>
<event>
 5   0  0.5137000E+05  0.9118800E+02  0.7818608E-02  0.1180000E+00
       11   -1    0    0    0    0  0.00000000000E+00  0.00000000000E+00  0.39999999673E+01  0.40000000000E+01  0.51109989000E-03 0. -1.
     -623   -1    0    0    0    0  0.00000000000E+00  0.00000000000E+00  0.12525980253E-10  0.17130000000E+03  0.17130000000E+03 0. -1.
       11    1    1    2    0    0 -0.74695281322E-01  0.14602906558E+00  0.27259038530E+00  0.31813464513E+00  0.51109989000E-03 0. -1.
     -623    1    1    2    0    0  0.73648170780E-01 -0.34680563344E-01  0.59506316743E-01  0.17130002968E+03  0.17130000000E+03 0. -1.
      622    1    1    2    0    0  0.10471105424E-02 -0.11134850224E+00  0.36679032653E+01  0.36818356765E+01  0.30000000000E+00 0. -1.
</event>
<event>
 5   0  0.5137000E+05  0.9118800E+02  0.7818608E-02  0.1180000E+00
       11   -1    0    0    0    0  0.00000000000E+00  0.00000000000E+00  0.39999999673E+01  0.40000000000E+01  0.51109989000E-03 0.  1.
     -623   -1    0    0    0    0  0.00000000000E+00  0.00000000000E+00  0.12525980253E-10  0.17130000000E+03  0.17130000000E+03 0.  1.
       11    1    1    2    0    0 -0.33602110863E-01  0.45560131626E-01  0.92068566971E-01  0.10808195823E+00  0.51109989000E-03 0.  1.
     -623    1    1    2    0    0 -0.15767118193E-02 -0.40394165015E-03  0.28017545947E-01  0.17130000230E+03  0.17130000000E+03 0.  1.
      622    1    1    2    0    0  0.35178822682E-01 -0.45156189976E-01  0.38799138544E+01  0.38919157428E+01  0.30000000000E+00 0.  1.
</event>
<event>
 5   0  0.5137000E+05  0.9118800E+02  0.7818608E-02  0.1180000E+00
       11   -1    0    0    0    0  0.00000000000E+00  0.00000000000E+00  0.39999999673E+01  0.40000000000E+01  0.51109989000E-03 0. -1.
     -623   -1    0    0    0    0  0.00000000000E+00  0.00000000000E+00  0.12525980253E-10  0.17130000000E+03  0.17130000000E+03 0. -1.
       11    1    1    2    0    0  0.49261171104E-01  0.26091622849E-01  0.18575286897E+00  0.19393768409E+00  0.51109989000E-03 0. -1.
     -623    1    1    2    0    0 -0.33501182009E-01 -0.21117683257E-01  0.20068209382E-01  0.17130000575E+03  0.17130000000E+03 0. -1.
      622    1    1    2    0    0 -0.15759989095E-01 -0.49739395918E-02  0.37941788890E+01  0.38060565628E+01  0.30000000000E+00 0. -1.
</event>
<event>
 5   0  0.5137000E+05  0.9118800E+02  0.7818608E-02  0.1180000E+00
       11   -1    0    0    0    0  0.00000000000E+00  0.00000000000E+00  0.39999999673E+01  0.40000000000E+01  0.51109989000E-03 0. -1.
     -623   -1    0    0    0    0  0.00000000000E+00  0.00000000000E+00  0.12525980253E-10  0.17130000000E+03  0.17130000000E+03 0. -1.
       11    1    1    2    0    0 -0.14014201019E-02 -0.38298642022E-01  0.74767453035E-01  0.84018945571E-01  0.51109989000E-03 0. -1.
     -623    1    1    2    0    0 -0.45238817266E-01 -0.20453721085E-01  0.21488982560E-01  0.17130000854E+03  0.17130000000E+03 0. -1.
      622    1    1    2    0    0  0.46640237368E-01  0.58752363107E-01  0.39037435318E+01  0.39159725119E+01  0.30000000000E+00 0. -1.
</event>
<event>
 5   0  0.5137000E+05  0.9118800E+02  0.7818608E-02  0.1180000E+00
       11   -1    0    0    0    0  0.00000000000E+00  0.00000000000E+00  0.39999999673E+01  0.40000000000E+01  0.51109989000E-03 0.  1.
     -623   -1    0    0    0    0  0.00000000000E+00  0.00000000000E+00  0.12525980253E-10  0.17130000000E+03  0.17130000000E+03 0.  1.
       11    1    1    2    0    0  0.40035180023E-01 -0.19379075071E-01  0.88226182796E-01  0.98805287024E-01  0.51109989000E-03 0.  1.
     -623    1    1    2    0    0 -0.64861435273E-01  0.54915603840E-02  0.22248979163E-01  0.17130001381E+03  0.17130000000E+03 0.  1.
      622    1    1    2    0    0  0.24826255250E-01  0.13887514687E-01  0.38895248054E+01  0.39011809004E+01  0.30000000000E+00 0.  1.
</event>
<event>
 5   0  0.5137000E+05  0.9118800E+02  0.7818608E-02  0.1180000E+00
       11   -1    0    0    0    0  0.00000000000E+00  0.00000000000E+00  0.39999999673E+01  0.40000000000E+01  0.51109989000E-03 0.  1.
     -623   -1    0    0    0    0  0.00000000000E+00  0.00000000000E+00  0.12525980253E-10  0.17130000000E+03  0.17130000000E+03 0. -1.
       11    1    1    2    0    0  0.32561679907E-01 -0.42103938165E-03  0.77123123733E-01  0.83717845828E-01  0.51109989000E-03 0.  1.
     -623    1    1    2    0    0 -0.81252548859E-02 -0.33735506301E-01  0.18332453974E-01  0.17130000450E+03  0.17130000000E+03 0. -1.
      622    1    1    2    0    0 -0.24436425021E-01  0.34156545683E-01  0.39045443897E+01  0.39162776586E+01  0.30000000000E+00 0.  1.
</event>
<event>
 5   0  0.5137000E+05  0.9118800E+02  0.7818608E-02  0.1180000E+00
       11   -1    0    0    0    0  0.00000000000E+00  0.00000000000E+00  0.39999999673E+01  0.40000000000E+01  0.51109989000E-03 0. -1.
     -623   -1    0    0    0    0  0.00000000000E+00  0.00000000000E+00  0.12525980253E-10  0.17130000000E+03  0.17130000000E+03 0.  1.
       11    1    1    2    0    0  0.15015448845E-01  0.34615533591E-01  0.28679500249E+00  0.28926688982E+00  0.51109989000E-03 0. -1.
     -623    1    1    2    0    0 -0.42194257547E-01 -0.20574410085E-01  0.14752325760E-01  0.17130000707E+03  0.17130000000E+03 0.  1.
      622    1    1    2    0    0  0.27178808702E-01 -0.14041123506E-01  0.36984526391E+01  0.37107260428E+01  0.30000000000E+00 0. -1.
</event>
<event>
 5   0  0.5137000E+05  0.9118800E+02  0.7818608E-02  0.1180000E+00
       11   -1    0    0    0    0  0.00000000000E+00  0.00000000000E+00  0.39999999673E+01  0.40000000000E+01  0.51109989000E-03 0.  1.
     -623   -1    0    0    0    0  0.00000000000E+00  0.00000000000E+00  0.12525980253E-10  0.17130000000E+03  0.17130000000E+03 0. -1.
       11    1    1    2    0    0  0.22353399562E-01 -0.22306148924E-02  0.47573159986E-01  0.52612896588E-01  0.51109989000E-03 0.  1.
     -623    1    1    2    0    0 -0.13482867610E-01 -0.10753702604E-01  0.16489238510E-01  0.17130000166E+03  0.17130000000E+03 0. -1.
      622    1    1    2    0    0 -0.88705319517E-02  0.12984317496E-01  0.39359375689E+01  0.39473854416E+01  0.30000000000E+00 0.  1.
</event>
<event>
 5   0  0.5137000E+05  0.9118800E+02  0.7818608E-02  0.1180000E+00
       11   -1    0    0    0    0  0.00000000000E+00  0.00000000000E+00  0.39999999673E+01  0.40000000000E+01  0.51109989000E-03 0. -1.
     -623   -1    0    0    0    0  0.00000000000E+00  0.00000000000E+00  0.12525980253E-10  0.17130000000E+03  0.17130000000E+03 0. -1.
       11    1    1    2    0    0 -0.71632436619E-02 -0.47386894504E-01  0.56297066621E-02  0.48257482847E-01  0.51109989000E-03 0. -1.
     -623    1    1    2    0    0  0.12154094644E+00 -0.70097421461E-01  0.57511911243E-01  0.17130006711E+03  0.17130000000E+03 0. -1.
      622    1    1    2    0    0 -0.11437770278E+00  0.11748431597E+00  0.39368583495E+01  0.39516754025E+01  0.30000000000E+00 0. -1.
</event>
<event>
 5   0  0.5137000E+05  0.9118800E+02  0.7818608E-02  0.1180000E+00
       11   -1    0    0    0    0  0.00000000000E+00  0.00000000000E+00  0.39999999673E+01  0.40000000000E+01  0.51109989000E-03 0. -1.
     -623   -1    0    0    0    0  0.00000000000E+00  0.00000000000E+00  0.12525980253E-10  0.17130000000E+03  0.17130000000E+03 0.  1.
       11    1    1    2    0    0 -0.76821655108E-02  0.14547022598E-01  0.63641797324E-01  0.65735615332E-01  0.51109989000E-03 0. -1.
     -623    1    1    2    0    0  0.94985410213E-02 -0.19331535143E-01  0.13553665163E-01  0.17130000189E+03  0.17130000000E+03 0.  1.
      622    1    1    2    0    0 -0.18163755105E-02  0.47845125455E-02  0.39228045049E+01  0.39342624943E+01  0.30000000000E+00 0. -1.
</event>
<event>
 5   0  0.5137000E+05  0.9118800E+02  0.7818608E-02  0.1180000E+00
       11   -1    0    0    0    0  0.00000000000E+00  0.00000000000E+00  0.39999999673E+01  0.40000000000E+01  0.51109989000E-03 0.  1.
     -623   -1    0    0    0    0  0.00000000000E+00  0.00000000000E+00  0.12525980253E-10  0.17130000000E+03  0.17130000000E+03 0. -1.
       11    1    1    2    0    0  0.35107156473E-03 -0.49528645274E-02  0.39706193163E-01  0.40018709585E-01  0.51109989000E-03 0.  1.
     -623    1    1    2    0    0 -0.96197985781E-02  0.36799974419E-02  0.11704320766E-01  0.17130000071E+03  0.17130000000E+03 0. -1.
      622    1    1    2    0    0  0.92687270134E-02  0.12728670855E-02  0.39485894534E+01  0.39599805809E+01  0.30000000000E+00 0.  1.
</event>
<event>
 5   0  0.5137000E+05  0.9118800E+02  0.7818608E-02  0.1180000E+00
       11   -1    0    0    0    0  0.00000000000E+00  0.00000000000E+00  0.39999999673E+01  0.40000000000E+01  0.51109989000E-03 0. -1.
     -623   -1    0    0    0    0  0.00000000000E+00  0.00000000000E+00  0.12525980253E-10  0.17130000000E+03  0.17130000000E+03 0.  1.
       11    1    1    2    0    0  0.27625360209E-01 -0.95591973737E-02  0.13421438351E+00  0.13736193339E+00  0.51109989000E-03 0. -1.
     -623    1    1    2    0    0 -0.44733533561E-02  0.37544801546E-01  0.14991338500E-01  0.17130000483E+03  0.17130000000E+03 0.  1.
      622    1    1    2    0    0 -0.23152006853E-01 -0.27985604172E-01  0.38507942454E+01  0.38626332378E+01  0.30000000000E+00 0. -1.
</event>
<event>
 5   0  0.5137000E+05  0.9118800E+02  0.7818608E-02  0.1180000E+00
       11   -1    0    0    0    0  0.00000000000E+00  0.00000000000E+00  0.39999999673E+01  0.40000000000E+01  0.51109989000E-03 0. -1.
     -623   -1    0    0    0    0  0.00000000000E+00  0.00000000000E+00  0.12525980253E-10  0.17130000000E+03  0.17130000000E+03 0. -1.
       11    1    1    2    0    0  0.12510195614E-01 -0.37378100070E-02 -0.33041026666E-02  0.13477927715E-01  0.51109989000E-03 0. -1.
     -623    1    1    2    0    0 -0.31776842201E-02 -0.46312746192E-02  0.28108228986E-01  0.17130000240E+03  0.17130000000E+03 0. -1.
      622    1    1    2    0    0 -0.93325113940E-02  0.83690846263E-02  0.39751958410E+01  0.39865196741E+01  0.30000000000E+00 0. -1.
</event>
<event>
 5   0  0.5137000E+05  0.9118800E+02  0.7818608E-02  0.1180000E+00
       11   -1    0    0    0    0  0.00000000000E+00  0.00000000000E+00  0.39999999673E+01  0.40000000000E+01  0.51109989000E-03 0.  1.
     -623   -1    0    0    0    0  0.00000000000E+00  0.00000000000E+00  0.12525980253E-10  0.17130000000E+03  0.17130000000E+03 0.  1.
       11    1    1    2    0    0  0.87631396621E-02  0.31483434844E-01  0.11908524207E+00  0.12348909016E+00  0.51109989000E-03 0.  1.
     -623    1    1    2    0    0 -0.33587616917E-01  0.33854816151E-01  0.16669166618E-01  0.17130000745E+03  0.17130000000E+03 0.  1.
      622    1    1    2    0    0  0.24824477255E-01 -0.65338250995E-01  0.38642455587E+01  0.38765034605E+01  0.30000000000E+00 0.  1.
</event>
<event>
 5   0  0.5137000E+05  0.9118800E+02  0.7818608E-02  0.1180000E+00
       11   -1    0    0    0    0  0.00000000000E+00  0.00000000000E+00  0.39999999673E+01  0.40000000000E+01  0.51109989000E-03 0. -1.
     -623   -1    0    0    0    0  0.00000000000E+00  0.00000000000E+00  0.12525980253E-10  0.17130000000E+03  0.17130000000E+03 0.  1.
       11    1    1    2    0    0  0.38836084937E-01  0.21245127366E-01  0.27813096286E+00  0.28163219037E+00  0.51109989000E-03 0. -1.
     -623    1    1    2    0    0  0.32605093372E-02  0.54887581044E-01  0.16653867792E-01  0.17130000963E+03  0.17130000000E+03 0.  1.
      622    1    1    2    0    0 -0.42096594274E-01 -0.76132708410E-01  0.37052151367E+01  0.37183581756E+01  0.30000000000E+00 0. -1.
</event>
<event>
 5   0  0.5137000E+05  0.9118800E+02  0.7818608E-02  0.1180000E+00
       11   -1    0    0    0    0  0.00000000000E+00  0.00000000000E+00  0.39999999673E+01  0.40000000000E+01  0.51109989000E-03 0.  1.
     -623   -1    0    0    0    0  0.00000000000E+00  0.00000000000E+00  0.12525980253E-10  0.17130000000E+03  0.17130000000E+03 0. -1.
       11    1    1    2    0    0  0.24478571040E+00 -0.10155867422E+00  0.62862691843E+00  0.68220691299E+00  0.51109989000E-03 0.  1.
     -623    1    1    2    0    0  0.58505486170E-02  0.17170412589E+00  0.77541857422E-01  0.17130010370E+03  0.17130000000E+03 0. -1.
      622    1    1    2    0    0 -0.25063625901E+00 -0.70145451671E-01  0.32938311915E+01  0.33176893822E+01  0.30000000000E+00 0.  1.
</event>
<event>
 5   0  0.5137000E+05  0.9118800E+02  0.7818608E-02  0.1180000E+00
       11   -1    0    0    0    0  0.00000000000E+00  0.00000000000E+00  0.39999999673E+01  0.40000000000E+01  0.51109989000E-03 0. -1.
     -623   -1    0    0    0    0  0.00000000000E+00  0.00000000000E+00  0.12525980253E-10  0.17130000000E+03  0.17130000000E+03 0. -1.
       11    1    1    2    0    0 -0.14804098857E-01 -0.22657905798E-01  0.98256463487E-01  0.10191729920E+00  0.51109989000E-03 0. -1.
     -623    1    1    2    0    0 -0.13237010219E-01 -0.57687210596E-02  0.15428513548E-01  0.17130000130E+03  0.17130000000E+03 0. -1.
      622    1    1    2    0    0  0.28041109076E-01  0.28426626857E-01  0.38863149903E+01  0.38980813974E+01  0.30000000000E+00 0. -1.
</event>
<event>
 5   0  0.5137000E+05  0.9118800E+02  0.7818608E-02  0.1180000E+00
       11   -1    0    0    0    0  0.00000000000E+00  0.00000000000E+00  0.39999999673E+01  0.40000000000E+01  0.51109989000E-03 0.  1.
     -623   -1    0    0    0    0  0.00000000000E+00  0.00000000000E+00  0.12525980253E-10  0.17130000000E+03  0.17130000000E+03 0.  1.
       11    1    1    2    0    0 -0.56544773896E-01  0.78863187552E-01  0.99213286367E+00  0.99686739048E+00  0.51109989000E-03 0.  1.
     -623    1    1    2    0    0  0.58897098494E-01 -0.14767314624E-01  0.20456907185E-01  0.17130001198E+03  0.17130000000E+03 0.  1.
      622    1    1    2    0    0 -0.23523245978E-02 -0.64095872928E-01  0.29874101965E+01  0.30031206264E+01  0.30000000000E+00 0.  0.
</event>
<event>
 5   0  0.5137000E+05  0.9118800E+02  0.7818608E-02  0.1180000E+00
       11   -1    0    0    0    0  0.00000000000E+00  0.00000000000E+00  0.39999999673E+01  0.40000000000E+01  0.51109989000E-03 0. -1.
     -623   -1    0    0    0    0  0.00000000000E+00  0.00000000000E+00  0.12525980253E-10  0.17130000000E+03  0.17130000000E+03 0. -1.
       11    1    1    2    0    0 -0.18776390420E-01 -0.48834799411E-02  0.66593217721E+00  0.66621492559E+00  0.51109989000E-03 0. -1.
     -623    1    1    2    0    0 -0.10467234882E-01 -0.16885041371E-01  0.14010205818E-01  0.17130000172E+03  0.17130000000E+03 0. -1.
      622    1    1    2    0    0  0.29243625302E-01  0.21768521312E-01  0.33200575843E+01  0.33337833495E+01  0.30000000000E+00 0. -1.
</event>
<event>
 5   0  0.5137000E+05  0.9118800E+02  0.7818608E-02  0.1180000E+00
       11   -1    0    0    0    0  0.00000000000E+00  0.00000000000E+00  0.39999999673E+01  0.40000000000E+01  0.51109989000E-03 0. -1.
     -623   -1    0    0    0    0  0.00000000000E+00  0.00000000000E+00  0.12525980253E-10  0.17130000000E+03  0.17130000000E+03 0.  1.
       11    1    1    2    0    0  0.12412524652E-01  0.21323381304E-02 -0.11746845959E-02  0.12659334150E-01  0.51109989000E-03 0. -1.
     -623    1    1    2    0    0 -0.11285267050E-01  0.29458123761E-03  0.25138843734E-01  0.17130000222E+03  0.17130000000E+03 0.  1.
      622    1    1    2    0    0 -0.11272576015E-02 -0.24269193680E-02  0.39760358082E+01  0.39873384493E+01  0.30000000000E+00 0. -1.
</event>
<event>
 5   0  0.5137000E+05  0.9118800E+02  0.7818608E-02  0.1180000E+00
       11   -1    0    0    0    0  0.00000000000E+00  0.00000000000E+00  0.39999999673E+01  0.40000000000E+01  0.51109989000E-03 0. -1.
     -623   -1    0    0    0    0  0.00000000000E+00  0.00000000000E+00  0.12525980253E-10  0.17130000000E+03  0.17130000000E+03 0.  1.
       11    1    1    2    0    0  0.14636306501E-01  0.14918470372E-01  0.19227917361E-01  0.28403454990E-01  0.51109989000E-03 0. -1.
     -623    1    1    2    0    0 -0.14110371451E-02  0.35437434657E-02  0.20588570659E-01  0.17130000128E+03  0.17130000000E+03 0.  1.
      622    1    1    2    0    0 -0.13225269356E-01 -0.18462213838E-01  0.39601834794E+01  0.39715952653E+01  0.30000000000E+00 0. -1.
</event>
<event>
 5   0  0.5137000E+05  0.9118800E+02  0.7818608E-02  0.1180000E+00
       11   -1    0    0    0    0  0.00000000000E+00  0.00000000000E+00  0.39999999673E+01  0.40000000000E+01  0.51109989000E-03 0.  1.
     -623   -1    0    0    0    0  0.00000000000E+00  0.00000000000E+00  0.12525980253E-10  0.17130000000E+03  0.17130000000E+03 0.  1.
       11    1    1    2    0    0 -0.12796766219E-01 -0.46836817272E-01  0.10008866943E+01  0.10020638107E+01  0.51109989000E-03 0.  1.
     -623    1    1    2    0    0  0.73549706533E-02 -0.88651979056E-02  0.16751485105E-01  0.17130000121E+03  0.17130000000E+03 0.  1.
      622    1    1    2    0    0  0.54417955658E-02  0.55702015177E-01  0.29823617879E+01  0.29979349829E+01  0.30000000000E+00 0.  1.
</event>
<event>
 5   0  0.5137000E+05  0.9118800E+02  0.7818608E-02  0.1180000E+00
       11   -1    0    0    0    0  0.00000000000E+00  0.00000000000E+00  0.39999999673E+01  0.40000000000E+01  0.51109989000E-03 0. -1.
     -623   -1    0    0    0    0  0.00000000000E+00  0.00000000000E+00  0.12525980253E-10  0.17130000000E+03  0.17130000000E+03 0.  1.
       11    1    1    2    0    0  0.42597436338E-01  0.15108467590E-01  0.19963214505E+00  0.20468527533E+00  0.51109989000E-03 0. -1.
     -623    1    1    2    0    0  0.86728657106E-02 -0.21241890222E-01  0.17283192712E-01  0.17130000241E+03  0.17130000000E+03 0.  1.
      622    1    1    2    0    0 -0.51270302049E-01  0.61334226324E-02  0.37830846296E+01  0.37953123162E+01  0.30000000000E+00 0. -1.
</event>
<event>
 5   0  0.5137000E+05  0.9118800E+02  0.7818608E-02  0.1180000E+00
       11   -1    0    0    0    0  0.00000000000E+00  0.00000000000E+00  0.39999999673E+01  0.40000000000E+01  0.51109989000E-03 0.  1.
     -623   -1    0    0    0    0  0.00000000000E+00  0.00000000000E+00  0.12525980253E-10  0.17130000000E+03  0.17130000000E+03 0. -1.
       11    1    1    2    0    0 -0.47891091886E-01 -0.13304729574E-01  0.19982681257E+00  0.20591646062E+00  0.51109989000E-03 0.  1.
     -623    1    1    2    0    0  0.75817467328E-02  0.32593333898E-01  0.18237031400E-01  0.17130000424E+03  0.17130000000E+03 0. -1.
      622    1    1    2    0    0  0.40309345153E-01 -0.19288604324E-01  0.37819361234E+01  0.37940793000E+01  0.30000000000E+00 0.  1.
</event>
<event>
 5   0  0.5137000E+05  0.9118800E+02  0.7818608E-02  0.1180000E+00
       11   -1    0    0    0    0  0.00000000000E+00  0.00000000000E+00  0.39999999673E+01  0.40000000000E+01  0.51109989000E-03 0.  1.
     -623   -1    0    0    0    0  0.00000000000E+00  0.00000000000E+00  0.12525980253E-10  0.17130000000E+03  0.17130000000E+03 0. -1.
       11    1    1    2    0    0 -0.66790754179E-02 -0.16488790985E-01  0.41867906332E-01  0.45493659781E-01  0.51109989000E-03 0.  1.
     -623    1    1    2    0    0 -0.14996713367E-01  0.11817397383E-03  0.15116452318E-01  0.17130000132E+03  0.17130000000E+03 0. -1.
      622    1    1    2    0    0  0.21675788785E-01  0.16370617012E-01  0.39430156087E+01  0.39545050168E+01  0.30000000000E+00 0.  1.
</event>
<event>
 5   0  0.5137000E+05  0.9118800E+02  0.7818608E-02  0.1180000E+00
       11   -1    0    0    0    0  0.00000000000E+00  0.00000000000E+00  0.39999999673E+01  0.40000000000E+01  0.51109989000E-03 0. -1.
     -623   -1    0    0    0    0  0.00000000000E+00  0.00000000000E+00  0.12525980253E-10  0.17130000000E+03  0.17130000000E+03 0.  1.
       11    1    1    2    0    0  0.86875012174E-01  0.40467872627E-01  0.77961217915E+00  0.78548095302E+00  0.51109989000E-03 0. -1.
     -623    1    1    2    0    0  0.74289266379E-01 -0.90582923753E-02  0.24131198744E-01  0.17130001805E+03  0.17130000000E+03 0.  1.
      622    1    1    2    0    0 -0.16116427855E+00 -0.31409580251E-01  0.31962565895E+01  0.32145009989E+01  0.30000000000E+00 0.  0.
</event>
<event>
 5   0  0.5137000E+05  0.9118800E+02  0.7818608E-02  0.1180000E+00
       11   -1    0    0    0    0  0.00000000000E+00  0.00000000000E+00  0.39999999673E+01  0.40000000000E+01  0.51109989000E-03 0.  1.
     -623   -1    0    0    0    0  0.00000000000E+00  0.00000000000E+00  0.12525980253E-10  0.17130000000E+03  0.17130000000E+03 0.  1.
       11    1    1    2    0    0  0.32744914983E-01 -0.49871843063E-01  0.53784419156E+00  0.54114329507E+00  0.51109989000E-03 0.  1.
     -623    1    1    2    0    0 -0.99074278153E-03  0.12401502286E-01  0.16685038026E-01  0.17130000126E+03  0.17130000000E+03 0.  1.
      622    1    1    2    0    0 -0.31754172201E-01  0.37470340778E-01  0.34454707378E+01  0.34588554406E+01  0.30000000000E+00 0.  1.
</event>
<event>
 5   0  0.5137000E+05  0.9118800E+02  0.7818608E-02  0.1180000E+00
       11   -1    0    0    0    0  0.00000000000E+00  0.00000000000E+00  0.39999999673E+01  0.40000000000E+01  0.51109989000E-03 0.  1.
     -623   -1    0    0    0    0  0.00000000000E+00  0.00000000000E+00  0.12525980253E-10  0.17130000000E+03  0.17130000000E+03 0.  1.
       11    1    1    2    0    0  0.74696988068E-03  0.26653976496E-02  0.15669614964E-01  0.15920438573E-01  0.51109989000E-03 0.  1.
     -623    1    1    2    0    0 -0.24510082575E-02 -0.81858661527E-02  0.11566608769E-01  0.17130000060E+03  0.17130000000E+03 0.  1.
      622    1    1    2    0    0  0.17040383768E-02  0.55204685031E-02  0.39727637436E+01  0.39840789578E+01  0.30000000000E+00 0.  1.
</event>
<event>
 5   0  0.5137000E+05  0.9118800E+02  0.7818608E-02  0.1180000E+00
       11   -1    0    0    0    0  0.00000000000E+00  0.00000000000E+00  0.39999999673E+01  0.40000000000E+01  0.51109989000E-03 0.  1.
     -623   -1    0    0    0    0  0.00000000000E+00  0.00000000000E+00  0.12525980253E-10  0.17130000000E+03  0.17130000000E+03 0.  1.
       11    1    1    2    0    0  0.43847082546E-03  0.11958942104E-01  0.15071313442E+00  0.15118835491E+00  0.51109989000E-03 0.  1.
     -623    1    1    2    0    0  0.11973705928E-01  0.43912279369E-02  0.12240746678E-01  0.17130000091E+03  0.17130000000E+03 0.  1.
      622    1    1    2    0    0 -0.12412176753E-01 -0.16350170041E-01  0.38370460863E+01  0.38488107330E+01  0.30000000000E+00 0.  1.
</event>
<event>
 5   0  0.5137000E+05  0.9118800E+02  0.7818608E-02  0.1180000E+00
       11   -1    0    0    0    0  0.00000000000E+00  0.00000000000E+00  0.39999999673E+01  0.40000000000E+01  0.51109989000E-03 0.  1.
     -623   -1    0    0    0    0  0.00000000000E+00  0.00000000000E+00  0.12525980253E-10  0.17130000000E+03  0.17130000000E+03 0. -1.
       11    1    1    2    0    0 -0.29686520721E-02  0.25033014998E-02  0.42048030358E-02  0.57463904202E-02  0.51109989000E-03 0.  1.
     -623    1    1    2    0    0  0.14811449221E-01  0.76980728911E-03  0.12843751497E-01  0.17130000112E+03  0.17130000000E+03 0. -1.
      622    1    1    2    0    0 -0.11842797149E-01 -0.32731087889E-02  0.39829514128E+01  0.39942524860E+01  0.30000000000E+00 0.  1.
</event>
<event>
 5   0  0.5137000E+05  0.9118800E+02  0.7818608E-02  0.1180000E+00
       11   -1    0    0    0    0  0.00000000000E+00  0.00000000000E+00  0.39999999673E+01  0.40000000000E+01  0.51109989000E-03 0. -1.
     -623   -1    0    0    0    0  0.00000000000E+00  0.00000000000E+00  0.12525980253E-10  0.17130000000E+03  0.17130000000E+03 0. -1.
       11    1    1    2    0    0 -0.27166354484E-01 -0.16639607093E-01  0.22555355042E+00  0.22779278449E+00  0.51109989000E-03 0. -1.
     -623    1    1    2    0    0  0.23186271044E-01 -0.31962117027E-02  0.14244102642E-01  0.17130000219E+03  0.17130000000E+03 0. -1.
      622    1    1    2    0    0  0.39800834398E-02  0.19835818796E-01  0.37602023143E+01  0.37722050243E+01  0.30000000000E+00 0. -1.
</event>
<event>
 5   0  0.5137000E+05  0.9118800E+02  0.7818608E-02  0.1180000E+00
       11   -1    0    0    0    0  0.00000000000E+00  0.00000000000E+00  0.39999999673E+01  0.40000000000E+01  0.51109989000E-03 0.  1.
     -623   -1    0    0    0    0  0.00000000000E+00  0.00000000000E+00  0.12525980253E-10  0.17130000000E+03  0.17130000000E+03 0. -1.
       11    1    1    2    0    0  0.17571395313E-01  0.69076991307E-02  0.16024143521E-01  0.24769025753E-01  0.51109989000E-03 0.  1.
     -623    1    1    2    0    0 -0.13285018317E-01  0.18352680159E-01  0.20166609337E-01  0.17130000269E+03  0.17130000000E+03 0. -1.
      622    1    1    2    0    0 -0.42863769960E-02 -0.25260379290E-01  0.39638092145E+01  0.39752282889E+01  0.30000000000E+00 0.  1.
</event>
<event>
 5   0  0.5137000E+05  0.9118800E+02  0.7818608E-02  0.1180000E+00
       11   -1    0    0    0    0  0.00000000000E+00  0.00000000000E+00  0.39999999673E+01  0.40000000000E+01  0.51109989000E-03 0.  1.
     -623   -1    0    0    0    0  0.00000000000E+00  0.00000000000E+00  0.12525980253E-10  0.17130000000E+03  0.17130000000E+03 0.  1.
       11    1    1    2    0    0  0.61907883637E-01 -0.23072889063E-01  0.95774088153E+00  0.96001708403E+00  0.51109989000E-03 0.  1.
     -623    1    1    2    0    0 -0.25394105358E-01 -0.19721095546E-01  0.17642138404E-01  0.17130000393E+03  0.17130000000E+03 0.  1.
      622    1    1    2    0    0 -0.36513778279E-01  0.42793984610E-01  0.30246169474E+01  0.30399789900E+01  0.30000000000E+00 0.  1.
</event>
<event>
 5   0  0.5137000E+05  0.9118800E+02  0.7818608E-02  0.1180000E+00
       11   -1    0    0    0    0  0.00000000000E+00  0.00000000000E+00  0.39999999673E+01  0.40000000000E+01  0.51109989000E-03 0.  1.
     -623   -1    0    0    0    0  0.00000000000E+00  0.00000000000E+00  0.12525980253E-10  0.17130000000E+03  0.17130000000E+03 0.  1.
       11    1    1    2    0    0 -0.94821486285E-02  0.75102308070E-03  0.55864159147E-02  0.11042845836E-01  0.51109989000E-03 0.  1.
     -623    1    1    2    0    0  0.31390608857E-02 -0.20438785549E-02  0.16759669575E-01  0.17130000086E+03  0.17130000000E+03 0.  1.
      622    1    1    2    0    0  0.63430877427E-02  0.12928554742E-02  0.39776538819E+01  0.39889562933E+01  0.30000000000E+00 0.  1.
</event>
<event>
 5   0  0.5137000E+05  0.9118800E+02  0.7818608E-02  0.1180000E+00
       11   -1    0    0    0    0  0.00000000000E+00  0.00000000000E+00  0.39999999673E+01  0.40000000000E+01  0.51109989000E-03 0.  1.
     -623   -1    0    0    0    0  0.00000000000E+00  0.00000000000E+00  0.12525980253E-10  0.17130000000E+03  0.17130000000E+03 0.  1.
       11    1    1    2    0    0 -0.42520244093E-01  0.50042699420E-02  0.20759656648E+00  0.21196605745E+00  0.51109989000E-03 0.  1.
     -623    1    1    2    0    0 -0.21798434583E-01  0.65195303730E-01  0.17482869368E-01  0.17130001469E+03  0.17130000000E+03 0.  1.
      622    1    1    2    0    0  0.64318678676E-01 -0.70199573672E-01  0.37749205315E+01  0.37880192571E+01  0.30000000000E+00 0.  1.
</event>
<event>
 5   0  0.5137000E+05  0.9118800E+02  0.7818608E-02  0.1180000E+00
       11   -1    0    0    0    0  0.00000000000E+00  0.00000000000E+00  0.39999999673E+01  0.40000000000E+01  0.51109989000E-03 0.  1.
     -623   -1    0    0    0    0  0.00000000000E+00  0.00000000000E+00  0.12525980253E-10  0.17130000000E+03  0.17130000000E+03 0.  1.
       11    1    1    2    0    0  0.62622362739E-01  0.40172298536E-01  0.27725633109E+00  0.28706568627E+00  0.51109989000E-03 0.  1.
     -623    1    1    2    0    0 -0.33698932865E-01 -0.39782897776E-01  0.22071396856E-01  0.17130000936E+03  0.17130000000E+03 0.  1.
      622    1    1    2    0    0 -0.28923429873E-01 -0.38940075946E-03  0.37006722394E+01  0.37129249575E+01  0.30000000000E+00 0.  1.
</event>
<event>
 5   0  0.5137000E+05  0.9118800E+02  0.7818608E-02  0.1180000E+00
       11   -1    0    0    0    0  0.00000000000E+00  0.00000000000E+00  0.39999999673E+01  0.40000000000E+01  0.51109989000E-03 0.  1.
     -623   -1    0    0    0    0  0.00000000000E+00  0.00000000000E+00  0.12525980253E-10  0.17130000000E+03  0.17130000000E+03 0.  1.
       11    1    1    2    0    0  0.86841957821E-01 -0.57986087508E-01  0.11687649755E+01  0.11734205304E+01  0.51109989000E-03 0.  1.
     -623    1    1    2    0    0  0.29599035788E-02  0.65942556920E-01  0.22081404728E-01  0.17130001414E+03  0.17130000000E+03 0.  1.
      622    1    1    2    0    0 -0.89801861400E-01 -0.79564694116E-02  0.28091535872E+01  0.28265653284E+01  0.30000000000E+00 0.  1.
</event>
<event>
 5   0  0.5137000E+05  0.9118800E+02  0.7818608E-02  0.1180000E+00
       11   -1    0    0    0    0  0.00000000000E+00  0.00000000000E+00  0.39999999673E+01  0.40000000000E+01  0.51109989000E-03 0. -1.
     -623   -1    0    0    0    0  0.00000000000E+00  0.00000000000E+00  0.12525980253E-10  0.17130000000E+03  0.17130000000E+03 0.  1.
       11    1    1    2    0    0 -0.89671198885E-02  0.80249594873E-02  0.10005559210E-01  0.15658277430E-01  0.51109989000E-03 0. -1.
     -623    1    1    2    0    0  0.35952693273E-02 -0.14178608343E-01  0.16972817347E-01  0.17130000147E+03  0.17130000000E+03 0.  1.
      622    1    1    2    0    0  0.53718505611E-02  0.61536488559E-02  0.39730215908E+01  0.39843402572E+01  0.30000000000E+00 0. -1.
</event>
<event>
 5   0  0.5137000E+05  0.9118800E+02  0.7818608E-02  0.1180000E+00
       11   -1    0    0    0    0  0.00000000000E+00  0.00000000000E+00  0.39999999673E+01  0.40000000000E+01  0.51109989000E-03 0.  1.
     -623   -1    0    0    0    0  0.00000000000E+00  0.00000000000E+00  0.12525980253E-10  0.17130000000E+03  0.17130000000E+03 0. -1.
       11    1    1    2    0    0  0.28092619539E-01 -0.60136427861E-02  0.50675985900E-01  0.58255265350E-01  0.51109989000E-03 0.  1.
     -623    1    1    2    0    0 -0.13992720510E-02 -0.24611457325E-01  0.19224919904E-01  0.17130000285E+03  0.17130000000E+03 0. -1.
      622    1    1    2    0    0 -0.26693347488E-01  0.30625100111E-01  0.39300990616E+01  0.39417418821E+01  0.30000000000E+00 0.  1.
</event>
<event>
 5   0  0.5137000E+05  0.9118800E+02  0.7818608E-02  0.1180000E+00
       11   -1    0    0    0    0  0.00000000000E+00  0.00000000000E+00  0.39999999673E+01  0.40000000000E+01  0.51109989000E-03 0. -1.
     -623   -1    0    0    0    0  0.00000000000E+00  0.00000000000E+00  0.12525980253E-10  0.17130000000E+03  0.17130000000E+03 0.  1.
       11    1    1    2    0    0  0.29493067234E-02  0.13439599314E-02  0.48921827177E-01  0.49031734988E-01  0.51109989000E-03 0. -1.
     -623    1    1    2    0    0  0.60756350529E-02  0.18612895085E-01  0.11578353204E-01  0.17130000151E+03  0.17130000000E+03 0.  1.
      622    1    1    2    0    0 -0.90249417764E-02 -0.19956855016E-01  0.39394997870E+01  0.39509667548E+01  0.30000000000E+00 0. -1.
</event>
<event>
 5   0  0.5137000E+05  0.9118800E+02  0.7818608E-02  0.1180000E+00
       11   -1    0    0    0    0  0.00000000000E+00  0.00000000000E+00  0.39999999673E+01  0.40000000000E+01  0.51109989000E-03 0. -1.
     -623   -1    0    0    0    0  0.00000000000E+00  0.00000000000E+00  0.12525980253E-10  0.17130000000E+03  0.17130000000E+03 0.  1.
       11    1    1    2    0    0 -0.15090617034E-03  0.46511341408E-02  0.30131542744E-01  0.30493063331E-01  0.51109989000E-03 0. -1.
     -623    1    1    2    0    0  0.51414543467E-02 -0.23219869822E-01  0.11762905060E-01  0.17130000205E+03  0.17130000000E+03 0.  1.
      622    1    1    2    0    0 -0.49905481763E-02  0.18568735682E-01  0.39581055196E+01  0.39695048819E+01  0.30000000000E+00 0. -1.
</event>
<event>
 5   0  0.5137000E+05  0.9118800E+02  0.7818608E-02  0.1180000E+00
       11   -1    0    0    0    0  0.00000000000E+00  0.00000000000E+00  0.39999999673E+01  0.40000000000E+01  0.51109989000E-03 0. -1.
     -623   -1    0    0    0    0  0.00000000000E+00  0.00000000000E+00  0.12525980253E-10  0.17130000000E+03  0.17130000000E+03 0.  1.
       11    1    1    2    0    0  0.12850120991E-01  0.23985943007E-01  0.22542335858E-01  0.35339343521E-01  0.51109989000E-03 0. -1.
     -623    1    1    2    0    0 -0.10010013317E-02 -0.17333210235E-01  0.24189497262E-01  0.17130000259E+03  0.17130000000E+03 0.  1.
      622    1    1    2    0    0 -0.11849119659E-01 -0.66527327725E-02  0.39532681342E+01  0.39646580687E+01  0.30000000000E+00 0. -1.
</event>
<event>
 5   0  0.5137000E+05  0.9118800E+02  0.7818608E-02  0.1180000E+00
       11   -1    0    0    0    0  0.00000000000E+00  0.00000000000E+00  0.39999999673E+01  0.40000000000E+01  0.51109989000E-03 0. -1.
     -623   -1    0    0    0    0  0.00000000000E+00  0.00000000000E+00  0.12525980253E-10  0.17130000000E+03  0.17130000000E+03 0. -1.
       11    1    1    2    0    0  0.18010141628E-01  0.90423823911E-02  0.54372759658E-02  0.20879537202E-01  0.51109989000E-03 0. -1.
     -623    1    1    2    0    0 -0.17815463166E-01  0.19211852946E-01  0.26872103969E-01  0.17130000411E+03  0.17130000000E+03 0. -1.
      622    1    1    2    0    0 -0.19467846198E-03 -0.28254235337E-01  0.39676905874E+01  0.39791163513E+01  0.30000000000E+00 0. -1.
</event>
<event>
 5   0  0.5137000E+05  0.9118800E+02  0.7818608E-02  0.1180000E+00
       11   -1    0    0    0    0  0.00000000000E+00  0.00000000000E+00  0.39999999673E+01  0.40000000000E+01  0.51109989000E-03 0. -1.
     -623   -1    0    0    0    0  0.00000000000E+00  0.00000000000E+00  0.12525980253E-10  0.17130000000E+03  0.17130000000E+03 0.  1.
       11    1    1    2    0    0  0.10793029181E-01  0.12887573426E-02  0.23002648348E-02  0.11122176756E-01  0.51109989000E-03 0. -1.
     -623    1    1    2    0    0  0.29211490462E-02 -0.28360199656E-01  0.20238592521E-01  0.17130000357E+03  0.17130000000E+03 0.  1.
      622    1    1    2    0    0 -0.13714178227E-01  0.27071442314E-01  0.39774611100E+01  0.39888742552E+01  0.30000000000E+00 0. -1.
</event>
<event>
 5   0  0.5137000E+05  0.9118800E+02  0.7818608E-02  0.1180000E+00
       11   -1    0    0    0    0  0.00000000000E+00  0.00000000000E+00  0.39999999673E+01  0.40000000000E+01  0.51109989000E-03 0. -1.
     -623   -1    0    0    0    0  0.00000000000E+00  0.00000000000E+00  0.12525980253E-10  0.17130000000E+03  0.17130000000E+03 0. -1.
       11    1    1    2    0    0 -0.16139837781E-02  0.73479440672E-02  0.25818544380E-01  0.26897131443E-01  0.51109989000E-03 0. -1.
     -623    1    1    2    0    0 -0.29517731205E-01 -0.25483019525E-02  0.12549161904E-01  0.17130000302E+03  0.17130000000E+03 0. -1.
      622    1    1    2    0    0  0.31131714983E-01 -0.47996421147E-02  0.39616322611E+01  0.39730998467E+01  0.30000000000E+00 0. -1.
</event>
<event>
 5   0  0.5137000E+05  0.9118800E+02  0.7818608E-02  0.1180000E+00
       11   -1    0    0    0    0  0.00000000000E+00  0.00000000000E+00  0.39999999673E+01  0.40000000000E+01  0.51109989000E-03 0. -1.
     -623   -1    0    0    0    0  0.00000000000E+00  0.00000000000E+00  0.12525980253E-10  0.17130000000E+03  0.17130000000E+03 0. -1.
       11    1    1    2    0    0  0.10816960615E-01 -0.13402547826E-01  0.12347817939E+00  0.12467460419E+00  0.51109989000E-03 0. -1.
     -623    1    1    2    0    0  0.14414834745E-01  0.37018717070E-01  0.12985449504E-01  0.17130000510E+03  0.17130000000E+03 0. -1.
      622    1    1    2    0    0 -0.25231795360E-01 -0.23616169243E-01  0.38635363385E+01  0.38753202972E+01  0.30000000000E+00 0. -1.
</event>
<event>
 5   0  0.5137000E+05  0.9118800E+02  0.7818608E-02  0.1180000E+00
       11   -1    0    0    0    0  0.00000000000E+00  0.00000000000E+00  0.39999999673E+01  0.40000000000E+01  0.51109989000E-03 0.  1.
     -623   -1    0    0    0    0  0.00000000000E+00  0.00000000000E+00  0.12525980253E-10  0.17130000000E+03  0.17130000000E+03 0.  1.
       11    1    1    2    0    0 -0.12701152955E-01  0.44429532797E-01  0.21829996408E+00  0.22313771131E+00  0.51109989000E-03 0.  1.
     -623    1    1    2    0    0  0.31760955291E-01  0.15249193677E-02  0.17103754353E-01  0.17130000381E+03  0.17130000000E+03 0.  1.
      622    1    1    2    0    0 -0.19059802336E-01 -0.45954452165E-01  0.37645962489E+01  0.37768584836E+01  0.30000000000E+00 0.  1.
</event>
<event>
 5   0  0.5137000E+05  0.9118800E+02  0.7818608E-02  0.1180000E+00
       11   -1    0    0    0    0  0.00000000000E+00  0.00000000000E+00  0.39999999673E+01  0.40000000000E+01  0.51109989000E-03 0. -1.
     -623   -1    0    0    0    0  0.00000000000E+00  0.00000000000E+00  0.12525980253E-10  0.17130000000E+03  0.17130000000E+03 0.  1.
       11    1    1    2    0    0 -0.53461038127E-01  0.59106808241E-01  0.99953450081E-01  0.12783837759E+00  0.51109989000E-03 0. -1.
     -623    1    1    2    0    0  0.57901730163E-01  0.71484753766E-02  0.40109621066E-01  0.17130001463E+03  0.17130000000E+03 0.  1.
      622    1    1    2    0    0 -0.44406920363E-02 -0.66255283617E-01  0.38599368962E+01  0.38721469917E+01  0.30000000000E+00 0. -1.
</event>
<event>
 5   0  0.5137000E+05  0.9118800E+02  0.7818608E-02  0.1180000E+00
       11   -1    0    0    0    0  0.00000000000E+00  0.00000000000E+00  0.39999999673E+01  0.40000000000E+01  0.51109989000E-03 0.  1.
     -623   -1    0    0    0    0  0.00000000000E+00  0.00000000000E+00  0.12525980253E-10  0.17130000000E+03  0.17130000000E+03 0.  1.
       11    1    1    2    0    0 -0.44792429756E-01  0.21299374299E-02  0.12127490355E+00  0.12930105123E+00  0.51109989000E-03 0.  1.
     -623    1    1    2    0    0  0.58784229757E-02  0.27856858385E-01  0.19985696707E-01  0.17130000353E+03  0.17130000000E+03 0.  1.
      622    1    1    2    0    0  0.38914006780E-01 -0.29986795815E-01  0.38587393671E+01  0.38706954170E+01  0.30000000000E+00 0.  1.
</event>
<event>
 5   0  0.5137000E+05  0.9118800E+02  0.7818608E-02  0.1180000E+00
       11   -1    0    0    0    0  0.00000000000E+00  0.00000000000E+00  0.39999999673E+01  0.40000000000E+01  0.51109989000E-03 0. -1.
     -623   -1    0    0    0    0  0.00000000000E+00  0.00000000000E+00  0.12525980253E-10  0.17130000000E+03  0.17130000000E+03 0.  1.
       11    1    1    2    0    0  0.24996892165E-01 -0.14305293815E+00  0.61565876648E+00  0.63255431837E+00  0.51109989000E-03 0. -1.
     -623    1    1    2    0    0  0.28121697829E-01  0.49855419094E-01  0.32013874775E-01  0.17130001255E+03  0.17130000000E+03 0.  1.
      622    1    1    2    0    0 -0.53118589994E-01  0.93197519051E-01  0.33523273261E+01  0.33674331268E+01  0.30000000000E+00 0. -1.
</event>
<event>
 5   0  0.5137000E+05  0.9118800E+02  0.7818608E-02  0.1180000E+00
       11   -1    0    0    0    0  0.00000000000E+00  0.00000000000E+00  0.39999999673E+01  0.40000000000E+01  0.51109989000E-03 0.  1.
     -623   -1    0    0    0    0  0.00000000000E+00  0.00000000000E+00  0.12525980253E-10  0.17130000000E+03  0.17130000000E+03 0.  1.
       11    1    1    2    0    0  0.24320504961E-02  0.14541541889E-02  0.47942595499E-02  0.55924574469E-02  0.51109989000E-03 0.  1.
     -623    1    1    2    0    0 -0.15995527381E-01 -0.26811662258E-01  0.12186946509E-01  0.17130000328E+03  0.17130000000E+03 0.  1.
      622    1    1    2    0    0  0.13563476885E-01  0.25357508069E-01  0.39830187613E+01  0.39944042640E+01  0.30000000000E+00 0.  1.
</event>
<event>
 5   0  0.5137000E+05  0.9118800E+02  0.7818608E-02  0.1180000E+00
       11   -1    0    0    0    0  0.00000000000E+00  0.00000000000E+00  0.39999999673E+01  0.40000000000E+01  0.51109989000E-03 0.  1.
     -623   -1    0    0    0    0  0.00000000000E+00  0.00000000000E+00  0.12525980253E-10  0.17130000000E+03  0.17130000000E+03 0.  1.
       11    1    1    2    0    0 -0.76472562624E-02  0.30880397997E-02  0.13453387469E-02  0.83718383638E-02  0.51109989000E-03 0.  1.
     -623    1    1    2    0    0  0.33246751362E-01  0.63175204946E-01  0.18965936016E-01  0.17130001593E+03  0.17130000000E+03 0.  1.
      622    1    1    2    0    0 -0.25599495099E-01 -0.66263244745E-01  0.39796886926E+01  0.39916122359E+01  0.30000000000E+00 0.  1.
</event>
<event>
 5   0  0.5137000E+05  0.9118800E+02  0.7818608E-02  0.1180000E+00
       11   -1    0    0    0    0  0.00000000000E+00  0.00000000000E+00  0.39999999673E+01  0.40000000000E+01  0.51109989000E-03 0. -1.
     -623   -1    0    0    0    0  0.00000000000E+00  0.00000000000E+00  0.12525980253E-10  0.17130000000E+03  0.17130000000E+03 0. -1.
       11    1    1    2    0    0 -0.21814185105E-01  0.56518505319E-02  0.37878267982E-01  0.44077505540E-01  0.51109989000E-03 0. -1.
     -623    1    1    2    0    0  0.93968538922E-02  0.13069361991E-02  0.17617811589E-01  0.17130000117E+03  0.17130000000E+03 0. -1.
      622    1    1    2    0    0  0.12417331213E-01 -0.69587867310E-02  0.39445038878E+01  0.39559213258E+01  0.30000000000E+00 0. -1.
</event>
<event>
 5   0  0.5137000E+05  0.9118800E+02  0.7818608E-02  0.1180000E+00
       11   -1    0    0    0    0  0.00000000000E+00  0.00000000000E+00  0.39999999673E+01  0.40000000000E+01  0.51109989000E-03 0. -1.
     -623   -1    0    0    0    0  0.00000000000E+00  0.00000000000E+00  0.12525980253E-10  0.17130000000E+03  0.17130000000E+03 0. -1.
       11    1    1    2    0    0  0.11920255190E+00  0.14603964975E+00  0.94220610709E+00  0.96087951229E+00  0.51109989000E-03 0. -1.
     -623    1    1    2    0    0 -0.57773221223E-01  0.27511365073E-01  0.39141843978E-01  0.17130001642E+03  0.17130000000E+03 0. -1.
      622    1    1    2    0    0 -0.61429330673E-01 -0.17355101482E+00  0.30186520163E+01  0.30391040642E+01  0.30000000000E+00 0. -1.
</event>
<event>
 5   0  0.5137000E+05  0.9118800E+02  0.7818608E-02  0.1180000E+00
       11   -1    0    0    0    0  0.00000000000E+00  0.00000000000E+00  0.39999999673E+01  0.40000000000E+01  0.51109989000E-03 0. -1.
     -623   -1    0    0    0    0  0.00000000000E+00  0.00000000000E+00  0.12525980253E-10  0.17130000000E+03  0.17130000000E+03 0. -1.
       11    1    1    2    0    0 -0.67647868585E-01 -0.11967494591E-01  0.54997278115E+00  0.55424703542E+00  0.51109989000E-03 0. -1.
     -623    1    1    2    0    0  0.11790162652E-01  0.46286900818E-01  0.17992340323E-01  0.17130000760E+03  0.17130000000E+03 0. -1.
      622    1    1    2    0    0  0.55857705933E-01 -0.34319406227E-01  0.34320348459E+01  0.34457453603E+01  0.30000000000E+00 0. -1.
</event>
<event>
 5   0  0.5137000E+05  0.9118800E+02  0.7818608E-02  0.1180000E+00
       11   -1    0    0    0    0  0.00000000000E+00  0.00000000000E+00  0.39999999673E+01  0.40000000000E+01  0.51109989000E-03 0.  1.
     -623   -1    0    0    0    0  0.00000000000E+00  0.00000000000E+00  0.12525980253E-10  0.17130000000E+03  0.17130000000E+03 0.  1.
       11    1    1    2    0    0  0.46426206633E-01  0.17932825691E-01  0.15872459180E+00  0.16634523187E+00  0.51109989000E-03 0.  1.
     -623    1    1    2    0    0  0.51227026132E-02 -0.30985449509E-01  0.19750756253E-01  0.17130000402E+03  0.17130000000E+03 0.  1.
      622    1    1    2    0    0 -0.51548909246E-01  0.13052623818E-01  0.38215246193E+01  0.38336507505E+01  0.30000000000E+00 0.  1.
</event>
<event>
 5   0  0.5137000E+05  0.9118800E+02  0.7818608E-02  0.1180000E+00
       11   -1    0    0    0    0  0.00000000000E+00  0.00000000000E+00  0.39999999673E+01  0.40000000000E+01  0.51109989000E-03 0.  1.
     -623   -1    0    0    0    0  0.00000000000E+00  0.00000000000E+00  0.12525980253E-10  0.17130000000E+03  0.17130000000E+03 0. -1.
       11    1    1    2    0    0  0.10932175722E-01  0.60260656472E-01  0.47846236434E+00  0.48236641104E+00  0.51109989000E-03 0.  1.
     -623    1    1    2    0    0 -0.26949243435E-01  0.15109137652E-01  0.17570854824E-01  0.17130000369E+03  0.17130000000E+03 0. -1.
      622    1    1    2    0    0  0.16017067713E-01 -0.75369794124E-01  0.35039667482E+01  0.35176299016E+01  0.30000000000E+00 0.  1.
</event>
<event>
 5   0  0.5137000E+05  0.9118800E+02  0.7818608E-02  0.1180000E+00
       11   -1    0    0    0    0  0.00000000000E+00  0.00000000000E+00  0.39999999673E+01  0.40000000000E+01  0.51109989000E-03 0. -1.
     -623   -1    0    0    0    0  0.00000000000E+00  0.00000000000E+00  0.12525980253E-10  0.17130000000E+03  0.17130000000E+03 0. -1.
       11    1    1    2    0    0  0.10077349734E-01 -0.37531645781E-02  0.65956234227E-02  0.12625477949E-01  0.51109989000E-03 0. -1.
     -623    1    1    2    0    0 -0.16061995532E-04  0.31339745831E-02  0.17345147378E-01  0.17130000091E+03  0.17130000000E+03 0. -1.
      622    1    1    2    0    0 -0.10061287738E-01  0.61918999498E-03  0.39760591966E+01  0.39873736152E+01  0.30000000000E+00 0. -1.
</event>
<event>
 5   0  0.5137000E+05  0.9118800E+02  0.7818608E-02  0.1180000E+00
       11   -1    0    0    0    0  0.00000000000E+00  0.00000000000E+00  0.39999999673E+01  0.40000000000E+01  0.51109989000E-03 0. -1.
     -623   -1    0    0    0    0  0.00000000000E+00  0.00000000000E+00  0.12525980253E-10  0.17130000000E+03  0.17130000000E+03 0. -1.
       11    1    1    2    0    0 -0.14558878218E-01 -0.64247062781E-01  0.29199783270E+00  0.29933700328E+00  0.51109989000E-03 0. -1.
     -623    1    1    2    0    0 -0.16626063271E-01  0.11041402221E-01  0.20037114021E-01  0.17130000233E+03  0.17130000000E+03 0. -1.
      622    1    1    2    0    0  0.31184941490E-01  0.53205660560E-01  0.36879650206E+01  0.37006606621E+01  0.30000000000E+00 0. -1.
</event>
<event>
 5   0  0.5137000E+05  0.9118800E+02  0.7818608E-02  0.1180000E+00
       11   -1    0    0    0    0  0.00000000000E+00  0.00000000000E+00  0.39999999673E+01  0.40000000000E+01  0.51109989000E-03 0.  1.
     -623   -1    0    0    0    0  0.00000000000E+00  0.00000000000E+00  0.12525980253E-10  0.17130000000E+03  0.17130000000E+03 0.  1.
       11    1    1    2    0    0  0.25128265415E-01  0.26520788996E-01  0.10003061687E+00  0.10649491774E+00  0.51109989000E-03 0.  1.
     -623    1    1    2    0    0  0.18759991453E-02 -0.34937032539E-01  0.18146781881E-01  0.17130000453E+03  0.17130000000E+03 0.  1.
      622    1    1    2    0    0 -0.27004264560E-01  0.84162435435E-02  0.38818225686E+01  0.38935005480E+01  0.30000000000E+00 0.  1.
</event>
<event>
 5   0  0.5137000E+05  0.9118800E+02  0.7818608E-02  0.1180000E+00
       11   -1    0    0    0    0  0.00000000000E+00  0.00000000000E+00  0.39999999673E+01  0.40000000000E+01  0.51109989000E-03 0.  1.
     -623   -1    0    0    0    0  0.00000000000E+00  0.00000000000E+00  0.12525980253E-10  0.17130000000E+03  0.17130000000E+03 0. -1.
       11    1    1    2    0    0 -0.65550069444E-01 -0.11215528194E+00  0.74471292278E+00  0.75595847600E+00  0.51109989000E-03 0.  1.
     -623    1    1    2    0    0  0.53587819199E-02 -0.25680192555E-01  0.28654865717E-01  0.17130000441E+03  0.17130000000E+03 0. -1.
      622    1    1    2    0    0  0.60191287524E-01  0.13783547449E+00  0.32266321789E+01  0.32440371186E+01  0.30000000000E+00 0.  1.
</event>
<event>
 5   0  0.5137000E+05  0.9118800E+02  0.7818608E-02  0.1180000E+00
       11   -1    0    0    0    0  0.00000000000E+00  0.00000000000E+00  0.39999999673E+01  0.40000000000E+01  0.51109989000E-03 0.  1.
     -623   -1    0    0    0    0  0.00000000000E+00  0.00000000000E+00  0.12525980253E-10  0.17130000000E+03  0.17130000000E+03 0. -1.
       11    1    1    2    0    0  0.75898278713E-01  0.30440620079E-01  0.27320529518E+00  0.28518165193E+00  0.51109989000E-03 0.  1.
     -623    1    1    2    0    0 -0.11882799527E-01  0.20609922476E-01  0.25018696787E-01  0.17130000348E+03  0.17130000000E+03 0. -1.
      622    1    1    2    0    0 -0.64015479186E-01 -0.51050542556E-01  0.37017759754E+01  0.37148148691E+01  0.30000000000E+00 0.  1.
</event>
<event>
 5   0  0.5137000E+05  0.9118800E+02  0.7818608E-02  0.1180000E+00
       11   -1    0    0    0    0  0.00000000000E+00  0.00000000000E+00  0.39999999673E+01  0.40000000000E+01  0.51109989000E-03 0.  1.
     -623   -1    0    0    0    0  0.00000000000E+00  0.00000000000E+00  0.12525980253E-10  0.17130000000E+03  0.17130000000E+03 0.  1.
       11    1    1    2    0    0  0.92767369886E-02  0.37236890818E-02  0.84751303191E-01  0.85340308909E-01  0.51109989000E-03 0.  1.
     -623    1    1    2    0    0 -0.10390857876E-01  0.97372588133E-02  0.12125547418E-01  0.17130000102E+03  0.17130000000E+03 0.  1.
      622    1    1    2    0    0  0.11141208879E-02 -0.13460947895E-01  0.39031231168E+01  0.39146586700E+01  0.30000000000E+00 0.  1.
</event>
<event>
 5   0  0.5137000E+05  0.9118800E+02  0.7818608E-02  0.1180000E+00
       11   -1    0    0    0    0  0.00000000000E+00  0.00000000000E+00  0.39999999673E+01  0.40000000000E+01  0.51109989000E-03 0. -1.
     -623   -1    0    0    0    0  0.00000000000E+00  0.00000000000E+00  0.12525980253E-10  0.17130000000E+03  0.17130000000E+03 0.  1.
       11    1    1    2    0    0  0.34078426557E-01  0.28622920083E-01  0.65899386636E-01  0.79521073250E-01  0.51109989000E-03 0. -1.
     -623    1    1    2    0    0 -0.73770379429E-02 -0.46247597454E-01  0.25255914211E-01  0.17130000826E+03  0.17130000000E+03 0.  1.
      622    1    1    2    0    0 -0.26701388614E-01  0.17624677371E-01  0.39088446665E+01  0.39204706631E+01  0.30000000000E+00 0. -1.
</event>
<event>
 5   0  0.5137000E+05  0.9118800E+02  0.7818608E-02  0.1180000E+00
       11   -1    0    0    0    0  0.00000000000E+00  0.00000000000E+00  0.39999999673E+01  0.40000000000E+01  0.51109989000E-03 0.  1.
     -623   -1    0    0    0    0  0.00000000000E+00  0.00000000000E+00  0.12525980253E-10  0.17130000000E+03  0.17130000000E+03 0. -1.
       11    1    1    2    0    0 -0.30974041452E-01  0.12755218196E-02  0.88378407572E-01  0.93659075089E-01  0.51109989000E-03 0.  1.
     -623    1    1    2    0    0  0.50345480025E-02  0.31119151497E-01  0.17042267393E-01  0.17130000375E+03  0.17130000000E+03 0. -1.
      622    1    1    2    0    0  0.25939493449E-01 -0.32394673316E-01  0.38945792924E+01  0.39063371766E+01  0.30000000000E+00 0.  1.
</event>
<event>
 5   0  0.5137000E+05  0.9118800E+02  0.7818608E-02  0.1180000E+00
       11   -1    0    0    0    0  0.00000000000E+00  0.00000000000E+00  0.39999999673E+01  0.40000000000E+01  0.51109989000E-03 0. -1.
     -623   -1    0    0    0    0  0.00000000000E+00  0.00000000000E+00  0.12525980253E-10  0.17130000000E+03  0.17130000000E+03 0. -1.
       11    1    1    2    0    0 -0.28889604717E-01  0.47963612949E-02  0.50594523404E-02  0.29723284198E-01  0.51109989000E-03 0. -1.
     -623    1    1    2    0    0  0.33032063392E-01  0.70301525706E-02  0.36041219460E-01  0.17130000712E+03  0.17130000000E+03 0. -1.
      622    1    1    2    0    0 -0.41424586750E-02 -0.11826513866E-01  0.39588992956E+01  0.39702695952E+01  0.30000000000E+00 0. -1.
</event>
<event>
 5   0  0.5137000E+05  0.9118800E+02  0.7818608E-02  0.1180000E+00
       11   -1    0    0    0    0  0.00000000000E+00  0.00000000000E+00  0.39999999673E+01  0.40000000000E+01  0.51109989000E-03 0.  1.
     -623   -1    0    0    0    0  0.00000000000E+00  0.00000000000E+00  0.12525980253E-10  0.17130000000E+03  0.17130000000E+03 0.  1.
       11    1    1    2    0    0 -0.12117752854E-01  0.18939613603E-01  0.59146373992E+00  0.59189117730E+00  0.51109989000E-03 0.  1.
     -623    1    1    2    0    0  0.30744489853E-01  0.29994426398E-01  0.14066665051E-01  0.17130000596E+03  0.17130000000E+03 0.  1.
      622    1    1    2    0    0 -0.18626736999E-01 -0.48934040001E-01  0.33944695624E+01  0.34081028602E+01  0.30000000000E+00 0.  1.
</event>
<event>
 5   0  0.5137000E+05  0.9118800E+02  0.7818608E-02  0.1180000E+00
       11   -1    0    0    0    0  0.00000000000E+00  0.00000000000E+00  0.39999999673E+01  0.40000000000E+01  0.51109989000E-03 0.  1.
     -623   -1    0    0    0    0  0.00000000000E+00  0.00000000000E+00  0.12525980253E-10  0.17130000000E+03  0.17130000000E+03 0. -1.
       11    1    1    2    0    0  0.37022303494E-01 -0.84799627095E-02  0.13647789898E+00  0.14166523517E+00  0.51109989000E-03 0.  1.
     -623    1    1    2    0    0 -0.69389387094E-02 -0.20012897103E-01  0.17093384668E-01  0.17130000216E+03  0.17130000000E+03 0. -1.
      622    1    1    2    0    0 -0.30083364784E-01  0.28492859812E-01  0.38464286837E+01  0.38583326024E+01  0.30000000000E+00 0.  1.
</event>
<event>
 5   0  0.5137000E+05  0.9118800E+02  0.7818608E-02  0.1180000E+00
       11   -1    0    0    0    0  0.00000000000E+00  0.00000000000E+00  0.39999999673E+01  0.40000000000E+01  0.51109989000E-03 0.  1.
     -623   -1    0    0    0    0  0.00000000000E+00  0.00000000000E+00  0.12525980253E-10  0.17130000000E+03  0.17130000000E+03 0. -1.
       11    1    1    2    0    0  0.44703113549E-02 -0.27272481834E-02  0.98615714783E-02  0.11177360105E-01  0.51109989000E-03 0.  1.
     -623    1    1    2    0    0 -0.82704270953E-02 -0.94109673666E-03  0.12617455085E-01  0.17130000067E+03  0.17130000000E+03 0. -1.
      622    1    1    2    0    0  0.38001157404E-02  0.36683449200E-02  0.39775209408E+01  0.39888219730E+01  0.30000000000E+00 0.  1.
</event>
<event>
 5   0  0.5137000E+05  0.9118800E+02  0.7818608E-02  0.1180000E+00
       11   -1    0    0    0    0  0.00000000000E+00  0.00000000000E+00  0.39999999673E+01  0.40000000000E+01  0.51109989000E-03 0.  1.
     -623   -1    0    0    0    0  0.00000000000E+00  0.00000000000E+00  0.12525980253E-10  0.17130000000E+03  0.17130000000E+03 0. -1.
       11    1    1    2    0    0 -0.11296118073E+00 -0.73323015762E-01  0.10169932568E+01  0.10258713558E+01  0.51109989000E-03 0.  1.
     -623    1    1    2    0    0  0.87875721251E-02  0.19127475370E-01  0.26381587475E-01  0.17130000332E+03  0.17130000000E+03 0. -1.
      622    1    1    2    0    0  0.10417360861E+00  0.54195540392E-01  0.29566251231E+01  0.29741253194E+01  0.30000000000E+00 0.  0.
</event>
<event>
 5   0  0.5137000E+05  0.9118800E+02  0.7818608E-02  0.1180000E+00
       11   -1    0    0    0    0  0.00000000000E+00  0.00000000000E+00  0.39999999673E+01  0.40000000000E+01  0.51109989000E-03 0.  1.
     -623   -1    0    0    0    0  0.00000000000E+00  0.00000000000E+00  0.12525980253E-10  0.17130000000E+03  0.17130000000E+03 0. -1.
       11    1    1    2    0    0  0.10691263279E-01 -0.16900922129E-01  0.83446011724E-01  0.85810502708E-01  0.51109989000E-03 0.  1.
     -623    1    1    2    0    0  0.83733744105E-02  0.20289812023E-01  0.13928040407E-01  0.17130000197E+03  0.17130000000E+03 0. -1.
      622    1    1    2    0    0 -0.19064637690E-01 -0.33888898944E-02  0.39026259152E+01  0.39141875248E+01  0.30000000000E+00 0.  1.
</event>
<event>
 5   0  0.5137000E+05  0.9118800E+02  0.7818608E-02  0.1180000E+00
       11   -1    0    0    0    0  0.00000000000E+00  0.00000000000E+00  0.39999999673E+01  0.40000000000E+01  0.51109989000E-03 0.  1.
     -623   -1    0    0    0    0  0.00000000000E+00  0.00000000000E+00  0.12525980253E-10  0.17130000000E+03  0.17130000000E+03 0.  1.
       11    1    1    2    0    0  0.76882395221E-02  0.20888494819E-01  0.88740427339E-02  0.23967646950E-01  0.51109989000E-03 0.  1.
     -623    1    1    2    0    0  0.26717406963E-01  0.13322004552E-01  0.26729136340E-01  0.17130000469E+03  0.17130000000E+03 0.  1.
      622    1    1    2    0    0 -0.34405646485E-01 -0.34210499371E-01  0.39643967883E+01  0.39760276661E+01  0.30000000000E+00 0.  1.
</event>
<event>
 5   0  0.5137000E+05  0.9118800E+02  0.7818608E-02  0.1180000E+00
       11   -1    0    0    0    0  0.00000000000E+00  0.00000000000E+00  0.39999999673E+01  0.40000000000E+01  0.51109989000E-03 0. -1.
     -623   -1    0    0    0    0  0.00000000000E+00  0.00000000000E+00  0.12525980253E-10  0.17130000000E+03  0.17130000000E+03 0. -1.
       11    1    1    2    0    0  0.89193975402E-02 -0.37297688298E-02  0.21451827049E-01  0.23535269994E-01  0.51109989000E-03 0. -1.
     -623    1    1    2    0    0  0.67460675213E-02  0.17726676754E-01  0.13473378864E-01  0.17130000158E+03  0.17130000000E+03 0. -1.
      622    1    1    2    0    0 -0.15665465062E-01 -0.13996907925E-01  0.39650747614E+01  0.39764631501E+01  0.30000000000E+00 0. -1.
</event>
<event>
 5   0  0.5137000E+05  0.9118800E+02  0.7818608E-02  0.1180000E+00
       11   -1    0    0    0    0  0.00000000000E+00  0.00000000000E+00  0.39999999673E+01  0.40000000000E+01  0.51109989000E-03 0.  1.
     -623   -1    0    0    0    0  0.00000000000E+00  0.00000000000E+00  0.12525980253E-10  0.17130000000E+03  0.17130000000E+03 0. -1.
       11    1    1    2    0    0 -0.10889558537E-01 -0.21420469900E-01  0.10786429325E+00  0.11050966472E+00  0.51109989000E-03 0.  1.
     -623    1    1    2    0    0  0.77021525288E-01  0.18265365631E-01  0.14816443033E-01  0.17130001893E+03  0.17130000000E+03 0. -1.
      622    1    1    2    0    0 -0.66131966751E-01  0.31551042693E-02  0.38773192311E+01  0.38894714052E+01  0.30000000000E+00 0.  1.
</event>
<event>
 5   0  0.5137000E+05  0.9118800E+02  0.7818608E-02  0.1180000E+00
       11   -1    0    0    0    0  0.00000000000E+00  0.00000000000E+00  0.39999999673E+01  0.40000000000E+01  0.51109989000E-03 0.  1.
     -623   -1    0    0    0    0  0.00000000000E+00  0.00000000000E+00  0.12525980253E-10  0.17130000000E+03  0.17130000000E+03 0. -1.
       11    1    1    2    0    0  0.64596844403E-02  0.46032439273E-01  0.20141679178E+00  0.20671163058E+00  0.51109989000E-03 0.  1.
     -623    1    1    2    0    0  0.75694709494E-02 -0.25287129917E-01  0.17262316252E-01  0.17130000290E+03  0.17130000000E+03 0. -1.
      622    1    1    2    0    0 -0.14029155390E-01 -0.20745309357E-01  0.37813208593E+01  0.37932854660E+01  0.30000000000E+00 0.  1.
</event>
<event>
 5   0  0.5137000E+05  0.9118800E+02  0.7818608E-02  0.1180000E+00
       11   -1    0    0    0    0  0.00000000000E+00  0.00000000000E+00  0.39999999673E+01  0.40000000000E+01  0.51109989000E-03 0.  1.
     -623   -1    0    0    0    0  0.00000000000E+00  0.00000000000E+00  0.12525980253E-10  0.17130000000E+03  0.17130000000E+03 0.  1.
       11    1    1    2    0    0 -0.64432286815E-02  0.28699960932E-01  0.10690060661E+01  0.10694107880E+01  0.51109989000E-03 0.  1.
     -623    1    1    2    0    0 -0.14794233498E-01  0.49394225638E-02  0.16073334627E-01  0.17130000146E+03  0.17130000000E+03 0.  1.
      622    1    1    2    0    0  0.21237462180E-01 -0.33639383496E-01  0.29149205666E+01  0.29305877478E+01  0.30000000000E+00 0.  1.
</event>
<event>
 5   0  0.5137000E+05  0.9118800E+02  0.7818608E-02  0.1180000E+00
       11   -1    0    0    0    0  0.00000000000E+00  0.00000000000E+00  0.39999999673E+01  0.40000000000E+01  0.51109989000E-03 0.  1.
     -623   -1    0    0    0    0  0.00000000000E+00  0.00000000000E+00  0.12525980253E-10  0.17130000000E+03  0.17130000000E+03 0.  1.
       11    1    1    2    0    0  0.15187700660E+00  0.10952859505E+00  0.37555664490E+00  0.41965008402E+00  0.51109989000E-03 0.  1.
     -623    1    1    2    0    0  0.29896627830E-01 -0.82113574235E-01  0.61456691420E-01  0.17130003331E+03  0.17130000000E+03 0.  1.
      622    1    1    2    0    0 -0.18177363443E+00 -0.27415020815E-01  0.35629866310E+01  0.35803166020E+01  0.30000000000E+00 0.  1.
</event>
<event>
 5   0  0.5137000E+05  0.9118800E+02  0.7818608E-02  0.1180000E+00
       11   -1    0    0    0    0  0.00000000000E+00  0.00000000000E+00  0.39999999673E+01  0.40000000000E+01  0.51109989000E-03 0. -1.
     -623   -1    0    0    0    0  0.00000000000E+00  0.00000000000E+00  0.12525980253E-10  0.17130000000E+03  0.17130000000E+03 0. -1.
       11    1    1    2    0    0 -0.25131380320E-01  0.71013645072E-01  0.20195589666E+00  0.21554806768E+00  0.51109989000E-03 0. -1.
     -623    1    1    2    0    0 -0.15128036498E-01 -0.35289101528E-01  0.25891901787E-01  0.17130000626E+03  0.17130000000E+03 0. -1.
      622    1    1    2    0    0  0.40259416818E-01 -0.35724543544E-01  0.37721521689E+01  0.37844456726E+01  0.30000000000E+00 0. -1.
</event>
<event>
 5   0  0.5137000E+05  0.9118800E+02  0.7818608E-02  0.1180000E+00
       11   -1    0    0    0    0  0.00000000000E+00  0.00000000000E+00  0.39999999673E+01  0.40000000000E+01  0.51109989000E-03 0.  1.
     -623   -1    0    0    0    0  0.00000000000E+00  0.00000000000E+00  0.12525980253E-10  0.17130000000E+03  0.17130000000E+03 0. -1.
       11    1    1    2    0    0  0.17649419119E-01  0.45491116485E-01  0.19132380181E+00  0.19744873268E+00  0.51109989000E-03 0.  1.
     -623    1    1    2    0    0  0.20670584840E-01 -0.31700580032E-01  0.18201473290E-01  0.17130000515E+03  0.17130000000E+03 0. -1.
      622    1    1    2    0    0 -0.38320003959E-01 -0.13790536453E-01  0.37904746923E+01  0.38025461199E+01  0.30000000000E+00 0.  1.
</event>
<event>
 5   0  0.5137000E+05  0.9118800E+02  0.7818608E-02  0.1180000E+00
       11   -1    0    0    0    0  0.00000000000E+00  0.00000000000E+00  0.39999999673E+01  0.40000000000E+01  0.51109989000E-03 0.  1.
     -623   -1    0    0    0    0  0.00000000000E+00  0.00000000000E+00  0.12525980253E-10  0.17130000000E+03  0.17130000000E+03 0.  1.
       11    1    1    2    0    0  0.69644757906E-01 -0.40216477768E-01  0.11657287701E+00  0.14162363596E+00  0.51109989000E-03 0.  1.
     -623    1    1    2    0    0  0.17133469707E-01  0.49738979776E-01  0.37734354272E-01  0.17130001223E+03  0.17130000000E+03 0.  1.
      622    1    1    2    0    0 -0.86778227613E-01 -0.95225020088E-02  0.38456927361E+01  0.38583641299E+01  0.30000000000E+00 0.  1.
</event>
<event>
 5   0  0.5137000E+05  0.9118800E+02  0.7818608E-02  0.1180000E+00
       11   -1    0    0    0    0  0.00000000000E+00  0.00000000000E+00  0.39999999673E+01  0.40000000000E+01  0.51109989000E-03 0. -1.
     -623   -1    0    0    0    0  0.00000000000E+00  0.00000000000E+00  0.12525980253E-10  0.17130000000E+03  0.17130000000E+03 0. -1.
       11    1    1    2    0    0  0.14199705225E-02  0.23253719235E-01  0.38096600619E-01  0.44658302435E-01  0.51109989000E-03 0. -1.
     -623    1    1    2    0    0  0.73288352691E-02 -0.22961604693E-01  0.17967458382E-01  0.17130000264E+03  0.17130000000E+03 0. -1.
      622    1    1    2    0    0 -0.87488057916E-02 -0.29211454183E-03  0.39439359084E+01  0.39553390596E+01  0.30000000000E+00 0. -1.
</event>
<event>
 5   0  0.5137000E+05  0.9118800E+02  0.7818608E-02  0.1180000E+00
       11   -1    0    0    0    0  0.00000000000E+00  0.00000000000E+00  0.39999999673E+01  0.40000000000E+01  0.51109989000E-03 0. -1.
     -623   -1    0    0    0    0  0.00000000000E+00  0.00000000000E+00  0.12525980253E-10  0.17130000000E+03  0.17130000000E+03 0. -1.
       11    1    1    2    0    0  0.10056063694E-01 -0.46100687798E-01  0.15208897561E+00  0.15924106115E+00  0.51109989000E-03 0. -1.
     -623    1    1    2    0    0 -0.50352517903E-01 -0.11292087241E-01  0.19537547614E-01  0.17130000889E+03  0.17130000000E+03 0. -1.
      622    1    1    2    0    0  0.40296454210E-01  0.57392775040E-01  0.38283734441E+01  0.38407500521E+01  0.30000000000E+00 0. -1.
</event>
<event>
 5   0  0.5137000E+05  0.9118800E+02  0.7818608E-02  0.1180000E+00
       11   -1    0    0    0    0  0.00000000000E+00  0.00000000000E+00  0.39999999673E+01  0.40000000000E+01  0.51109989000E-03 0. -1.
     -623   -1    0    0    0    0  0.00000000000E+00  0.00000000000E+00  0.12525980253E-10  0.17130000000E+03  0.17130000000E+03 0. -1.
       11    1    1    2    0    0  0.36864492182E-01  0.38275269381E-02  0.87762142280E+00  0.87840381586E+00  0.51109989000E-03 0. -1.
     -623    1    1    2    0    0 -0.70753253273E-01  0.31604110832E-02  0.15439583626E-01  0.17130001534E+03  0.17130000000E+03 0. -1.
      622    1    1    2    0    0  0.33888761091E-01 -0.69879380214E-02  0.31069389610E+01  0.31215808473E+01  0.30000000000E+00 0. -1.
</event>
<event>
 5   0  0.5137000E+05  0.9118800E+02  0.7818608E-02  0.1180000E+00
       11   -1    0    0    0    0  0.00000000000E+00  0.00000000000E+00  0.39999999673E+01  0.40000000000E+01  0.51109989000E-03 0. -1.
     -623   -1    0    0    0    0  0.00000000000E+00  0.00000000000E+00  0.12525980253E-10  0.17130000000E+03  0.17130000000E+03 0. -1.
       11    1    1    2    0    0  0.15556163688E-02  0.12830150289E+00  0.35063767968E-01  0.13301663292E+00  0.51109989000E-03 0. -1.
     -623    1    1    2    0    0 -0.18191468321E+00 -0.29802286892E-01  0.11522685110E+00  0.17130013794E+03  0.17130000000E+03 0. -1.
      622    1    1    2    0    0  0.18035906684E+00 -0.98499215995E-01  0.38497093483E+01  0.38668454268E+01  0.30000000000E+00 0. -1.
</event>
<event>
 5   0  0.5137000E+05  0.9118800E+02  0.7818608E-02  0.1180000E+00
       11   -1    0    0    0    0  0.00000000000E+00  0.00000000000E+00  0.39999999673E+01  0.40000000000E+01  0.51109989000E-03 0.  1.
     -623   -1    0    0    0    0  0.00000000000E+00  0.00000000000E+00  0.12525980253E-10  0.17130000000E+03  0.17130000000E+03 0.  1.
       11    1    1    2    0    0  0.11171225634E-01  0.36808253751E-01  0.14445313900E-01  0.41092239451E-01  0.51109989000E-03 0.  1.
     -623    1    1    2    0    0 -0.82849290713E-02 -0.34494771213E-01  0.38039682507E-01  0.17130000790E+03  0.17130000000E+03 0.  1.
      622    1    1    2    0    0 -0.28862965627E-02 -0.23134825381E-02  0.39475149710E+01  0.39588998635E+01  0.30000000000E+00 0.  1.
</event>
<event>
 5   0  0.5137000E+05  0.9118800E+02  0.7818608E-02  0.1180000E+00
       11   -1    0    0    0    0  0.00000000000E+00  0.00000000000E+00  0.39999999673E+01  0.40000000000E+01  0.51109989000E-03 0. -1.
     -623   -1    0    0    0    0  0.00000000000E+00  0.00000000000E+00  0.12525980253E-10  0.17130000000E+03  0.17130000000E+03 0. -1.
       11    1    1    2    0    0 -0.22591329239E-01  0.14020171419E-01  0.34098335546E-01  0.43242237126E-01  0.51109989000E-03 0. -1.
     -623    1    1    2    0    0 -0.87549682179E-03 -0.27085496389E-01  0.20628028191E-01  0.17130000339E+03  0.17130000000E+03 0. -1.
      622    1    1    2    0    0  0.23466826061E-01  0.13065324969E-01  0.39452736036E+01  0.39567543773E+01  0.30000000000E+00 0. -1.
</event>
<event>
 5   0  0.5137000E+05  0.9118800E+02  0.7818608E-02  0.1180000E+00
       11   -1    0    0    0    0  0.00000000000E+00  0.00000000000E+00  0.39999999673E+01  0.40000000000E+01  0.51109989000E-03 0.  1.
     -623   -1    0    0    0    0  0.00000000000E+00  0.00000000000E+00  0.12525980253E-10  0.17130000000E+03  0.17130000000E+03 0. -1.
       11    1    1    2    0    0  0.19344910198E-01  0.12967171666E-01  0.18906748466E+00  0.19049710777E+00  0.51109989000E-03 0.  1.
     -623    1    1    2    0    0 -0.12719776478E-01 -0.16118822937E-02  0.13284280127E-01  0.17130000099E+03  0.17130000000E+03 0. -1.
      622    1    1    2    0    0 -0.66251337202E-02 -0.11355289372E-01  0.37976482026E+01  0.38095018973E+01  0.30000000000E+00 0.  1.
</event>
<event>
 5   0  0.5137000E+05  0.9118800E+02  0.7818608E-02  0.1180000E+00
       11   -1    0    0    0    0  0.00000000000E+00  0.00000000000E+00  0.39999999673E+01  0.40000000000E+01  0.51109989000E-03 0.  1.
     -623   -1    0    0    0    0  0.00000000000E+00  0.00000000000E+00  0.12525980253E-10  0.17130000000E+03  0.17130000000E+03 0. -1.
       11    1    1    2    0    0  0.46779875492E-01 -0.88279381698E-02  0.21169691776E+00  0.21698418250E+00  0.51109989000E-03 0.  1.
     -623    1    1    2    0    0 -0.18816896250E-01 -0.18638640307E-01  0.17407910437E-01  0.17130000293E+03  0.17130000000E+03 0. -1.
      622    1    1    2    0    0 -0.27962979242E-01  0.27466578477E-01  0.37708951392E+01  0.37830128855E+01  0.30000000000E+00 0.  1.
</event>
<event>
 5   0  0.5137000E+05  0.9118800E+02  0.7818608E-02  0.1180000E+00
       11   -1    0    0    0    0  0.00000000000E+00  0.00000000000E+00  0.39999999673E+01  0.40000000000E+01  0.51109989000E-03 0.  1.
     -623   -1    0    0    0    0  0.00000000000E+00  0.00000000000E+00  0.12525980253E-10  0.17130000000E+03  0.17130000000E+03 0. -1.
       11    1    1    2    0    0 -0.38232491761E-02  0.10106703510E-01  0.27900034983E-01  0.29923834359E-01  0.51109989000E-03 0.  1.
     -623    1    1    2    0    0 -0.43277841957E-02 -0.14699702140E-01  0.13387056894E-01  0.17130000121E+03  0.17130000000E+03 0. -1.
      622    1    1    2    0    0  0.81510333719E-02  0.45929986302E-02  0.39587128755E+01  0.39700749572E+01  0.30000000000E+00 0.  1.
</event>
<event>
 5   0  0.5137000E+05  0.9118800E+02  0.7818608E-02  0.1180000E+00
       11   -1    0    0    0    0  0.00000000000E+00  0.00000000000E+00  0.39999999673E+01  0.40000000000E+01  0.51109989000E-03 0. -1.
     -623   -1    0    0    0    0  0.00000000000E+00  0.00000000000E+00  0.12525980253E-10  0.17130000000E+03  0.17130000000E+03 0. -1.
       11    1    1    2    0    0 -0.68103733797E-01 -0.37667894712E-01  0.11188272438E+01  0.11215309410E+01  0.51109989000E-03 0. -1.
     -623    1    1    2    0    0  0.15579232173E-01 -0.14411197495E-01  0.19337784803E-01  0.17130000241E+03  0.17130000000E+03 0. -1.
      622    1    1    2    0    0  0.52524501624E-01  0.52079092207E-01  0.28618349388E+01  0.28784666529E+01  0.30000000000E+00 0. -1.
</event>
<event>
 5   0  0.5137000E+05  0.9118800E+02  0.7818608E-02  0.1180000E+00
       11   -1    0    0    0    0  0.00000000000E+00  0.00000000000E+00  0.39999999673E+01  0.40000000000E+01  0.51109989000E-03 0.  1.
     -623   -1    0    0    0    0  0.00000000000E+00  0.00000000000E+00  0.12525980253E-10  0.17130000000E+03  0.17130000000E+03 0. -1.
       11    1    1    2    0    0 -0.35306317883E-02 -0.59286616199E-01  0.15126845381E+00  0.16251084444E+00  0.51109989000E-03 0.  1.
     -623    1    1    2    0    0  0.82122503065E-02 -0.15496138459E-02  0.23475163381E-01  0.17130000181E+03  0.17130000000E+03 0. -1.
      622    1    1    2    0    0 -0.46816185182E-02  0.60836230045E-01  0.38252563502E+01  0.38374873432E+01  0.30000000000E+00 0.  1.
</event>
<event>
 5   0  0.5137000E+05  0.9118800E+02  0.7818608E-02  0.1180000E+00
       11   -1    0    0    0    0  0.00000000000E+00  0.00000000000E+00  0.39999999673E+01  0.40000000000E+01  0.51109989000E-03 0.  1.
     -623   -1    0    0    0    0  0.00000000000E+00  0.00000000000E+00  0.12525980253E-10  0.17130000000E+03  0.17130000000E+03 0.  1.
       11    1    1    2    0    0 -0.24616828529E-01 -0.23595029585E-01  0.23839168519E+00  0.24081854260E+00  0.51109989000E-03 0.  1.
     -623    1    1    2    0    0  0.84159989435E-03  0.10847980292E-01  0.14514707196E-01  0.17130000096E+03  0.17130000000E+03 0.  1.
      622    1    1    2    0    0  0.23775228634E-01  0.12747049293E-01  0.37470935750E+01  0.37591804969E+01  0.30000000000E+00 0.  1.
</event>
<event>
 5   0  0.5137000E+05  0.9118800E+02  0.7818608E-02  0.1180000E+00
       11   -1    0    0    0    0  0.00000000000E+00  0.00000000000E+00  0.39999999673E+01  0.40000000000E+01  0.51109989000E-03 0.  1.
     -623   -1    0    0    0    0  0.00000000000E+00  0.00000000000E+00  0.12525980253E-10  0.17130000000E+03  0.17130000000E+03 0. -1.
       11    1    1    2    0    0 -0.26997001727E-01  0.14729766245E-01 -0.10273062535E-01  0.32428400405E-01  0.51109989000E-03 0.  1.
     -623    1    1    2    0    0  0.40699676179E-01 -0.24697604609E-01  0.54111131589E-01  0.17130001516E+03  0.17130000000E+03 0. -1.
      622    1    1    2    0    0 -0.13702674452E-01  0.99678383639E-02  0.39561618983E+01  0.39675564377E+01  0.30000000000E+00 0.  1.
</event>
<event>
 5   0  0.5137000E+05  0.9118800E+02  0.7818608E-02  0.1180000E+00
       11   -1    0    0    0    0  0.00000000000E+00  0.00000000000E+00  0.39999999673E+01  0.40000000000E+01  0.51109989000E-03 0. -1.
     -623   -1    0    0    0    0  0.00000000000E+00  0.00000000000E+00  0.12525980253E-10  0.17130000000E+03  0.17130000000E+03 0.  1.
       11    1    1    2    0    0 -0.69878193271E-02  0.64983066142E-02  0.13126472828E-01  0.16236474943E-01  0.51109989000E-03 0. -1.
     -623    1    1    2    0    0  0.95911560985E-02  0.41150130862E-03  0.14429622649E-01  0.17130000088E+03  0.17130000000E+03 0.  1.
      622    1    1    2    0    0 -0.26033367713E-02 -0.69098079228E-02  0.39724438719E+01  0.39837626483E+01  0.30000000000E+00 0. -1.
</event>
<event>
 5   0  0.5137000E+05  0.9118800E+02  0.7818608E-02  0.1180000E+00
       11   -1    0    0    0    0  0.00000000000E+00  0.00000000000E+00  0.39999999673E+01  0.40000000000E+01  0.51109989000E-03 0. -1.
     -623   -1    0    0    0    0  0.00000000000E+00  0.00000000000E+00  0.12525980253E-10  0.17130000000E+03  0.17130000000E+03 0.  1.
       11    1    1    2    0    0 -0.32795238547E-01  0.16772334632E-01  0.37242388937E+00  0.37424143742E+00  0.51109989000E-03 0. -1.
     -623    1    1    2    0    0  0.13652361955E-01  0.15686521606E-01  0.14448408621E-01  0.17130000187E+03  0.17130000000E+03 0.  1.
      622    1    1    2    0    0  0.19142876592E-01 -0.32458856238E-01  0.36131276694E+01  0.36257566910E+01  0.30000000000E+00 0. -1.
</event>
<event>
 5   0  0.5137000E+05  0.9118800E+02  0.7818608E-02  0.1180000E+00
       11   -1    0    0    0    0  0.00000000000E+00  0.00000000000E+00  0.39999999673E+01  0.40000000000E+01  0.51109989000E-03 0. -1.
     -623   -1    0    0    0    0  0.00000000000E+00  0.00000000000E+00  0.12525980253E-10  0.17130000000E+03  0.17130000000E+03 0. -1.
       11    1    1    2    0    0  0.51479223939E-02 -0.38584667549E-06 -0.66850740245E-02  0.84529606017E-02  0.51109989000E-03 0. -1.
     -623    1    1    2    0    0  0.12811933474E-01 -0.32605800574E-02  0.26472210936E-01  0.17130000256E+03  0.17130000000E+03 0. -1.
      622    1    1    2    0    0 -0.17959855868E-01  0.32609659041E-02  0.39802128304E+01  0.39915444838E+01  0.30000000000E+00 0. -1.
</event>
<event>
 5   0  0.5137000E+05  0.9118800E+02  0.7818608E-02  0.1180000E+00
       11   -1    0    0    0    0  0.00000000000E+00  0.00000000000E+00  0.39999999673E+01  0.40000000000E+01  0.51109989000E-03 0. -1.
     -623   -1    0    0    0    0  0.00000000000E+00  0.00000000000E+00  0.12525980253E-10  0.17130000000E+03  0.17130000000E+03 0. -1.
       11    1    1    2    0    0 -0.93561393301E-02  0.96289131553E-01  0.77669275699E+00  0.78269472605E+00  0.51109989000E-03 0. -1.
     -623    1    1    2    0    0 -0.21451643756E-01 -0.10856290083E+00  0.20228101898E-01  0.17130003694E+03  0.17130000000E+03 0. -1.
      622    1    1    2    0    0  0.30807783086E-01  0.12273769273E-01  0.32030791085E+01  0.32172683351E+01  0.30000000000E+00 0. -1.
</event>
<event>
 5   0  0.5137000E+05  0.9118800E+02  0.7818608E-02  0.1180000E+00
       11   -1    0    0    0    0  0.00000000000E+00  0.00000000000E+00  0.39999999673E+01  0.40000000000E+01  0.51109989000E-03 0.  1.
     -623   -1    0    0    0    0  0.00000000000E+00  0.00000000000E+00  0.12525980253E-10  0.17130000000E+03  0.17130000000E+03 0. -1.
       11    1    1    2    0    0 -0.39455495078E-01  0.49113408806E-01  0.24659159253E+00  0.25451235284E+00  0.51109989000E-03 0.  1.
     -623    1    1    2    0    0 -0.46531020747E-01 -0.12971662061E-01  0.21127968962E-01  0.17130000811E+03  0.17130000000E+03 0. -1.
      622    1    1    2    0    0  0.85986515826E-01 -0.36141746745E-01  0.37322804059E+01  0.37454795334E+01  0.30000000000E+00 0.  1.
</event>
<event>
 5   0  0.5137000E+05  0.9118800E+02  0.7818608E-02  0.1180000E+00
       11   -1    0    0    0    0  0.00000000000E+00  0.00000000000E+00  0.39999999673E+01  0.40000000000E+01  0.51109989000E-03 0. -1.
     -623   -1    0    0    0    0  0.00000000000E+00  0.00000000000E+00  0.12525980253E-10  0.17130000000E+03  0.17130000000E+03 0.  1.
       11    1    1    2    0    0  0.20167977114E-02  0.31640634785E-02  0.12799509041E-01  0.13347937125E-01  0.51109989000E-03 0. -1.
     -623    1    1    2    0    0 -0.10354349747E-01  0.68535885726E-02  0.11874316665E-01  0.17130000086E+03  0.17130000000E+03 0.  1.
      622    1    1    2    0    0  0.83375520358E-02 -0.10017652051E-01  0.39753261417E+01  0.39866512013E+01  0.30000000000E+00 0. -1.
</event>
<event>
 5   0  0.5137000E+05  0.9118800E+02  0.7818608E-02  0.1180000E+00
       11   -1    0    0    0    0  0.00000000000E+00  0.00000000000E+00  0.39999999673E+01  0.40000000000E+01  0.51109989000E-03 0. -1.
     -623   -1    0    0    0    0  0.00000000000E+00  0.00000000000E+00  0.12525980253E-10  0.17130000000E+03  0.17130000000E+03 0. -1.
       11    1    1    2    0    0 -0.55221746919E-02 -0.25207304284E-01  0.13720620910E-01  0.29230450969E-01  0.51109989000E-03 0. -1.
     -623    1    1    2    0    0  0.23167226929E-01  0.21657184717E-01  0.26904804011E-01  0.17130000505E+03  0.17130000000E+03 0. -1.
      622    1    1    2    0    0 -0.17645052237E-01  0.35501195676E-02  0.39593745424E+01  0.39707645005E+01  0.30000000000E+00 0. -1.
</event>
<event>
 5   0  0.5137000E+05  0.9118800E+02  0.7818608E-02  0.1180000E+00
       11   -1    0    0    0    0  0.00000000000E+00  0.00000000000E+00  0.39999999673E+01  0.40000000000E+01  0.51109989000E-03 0.  1.
     -623   -1    0    0    0    0  0.00000000000E+00  0.00000000000E+00  0.12525980253E-10  0.17130000000E+03  0.17130000000E+03 0.  1.
       11    1    1    2    0    0  0.28972161176E-03 -0.14399521542E-02  0.27758363111E-02  0.31818059464E-02  0.51109989000E-03 0.  1.
     -623    1    1    2    0    0 -0.21738117815E-01  0.12735874432E-01  0.11756779581E-01  0.17130000226E+03  0.17130000000E+03 0.  1.
      622    1    1    2    0    0  0.21448396203E-01 -0.11295922277E-01  0.39854673515E+01  0.39968159379E+01  0.30000000000E+00 0.  1.
</event>
<event>
 5   0  0.5137000E+05  0.9118800E+02  0.7818608E-02  0.1180000E+00
       11   -1    0    0    0    0  0.00000000000E+00  0.00000000000E+00  0.39999999673E+01  0.40000000000E+01  0.51109989000E-03 0. -1.
     -623   -1    0    0    0    0  0.00000000000E+00  0.00000000000E+00  0.12525980253E-10  0.17130000000E+03  0.17130000000E+03 0.  1.
       11    1    1    2    0    0 -0.44411843995E-01  0.13597850088E-01  0.74845514202E-01  0.88087602033E-01  0.51109989000E-03 0. -1.
     -623    1    1    2    0    0  0.57696755978E-01  0.81213022025E-02  0.24857187386E-01  0.17130001171E+03  0.17130000000E+03 0.  1.
      622    1    1    2    0    0 -0.13284911983E-01 -0.21719152290E-01  0.39002972658E+01  0.39119006853E+01  0.30000000000E+00 0. -1.
</event>
<event>
 5   0  0.5137000E+05  0.9118800E+02  0.7818608E-02  0.1180000E+00
       11   -1    0    0    0    0  0.00000000000E+00  0.00000000000E+00  0.39999999673E+01  0.40000000000E+01  0.51109989000E-03 0. -1.
     -623   -1    0    0    0    0  0.00000000000E+00  0.00000000000E+00  0.12525980253E-10  0.17130000000E+03  0.17130000000E+03 0.  1.
       11    1    1    2    0    0 -0.66828888092E-02 -0.13110417125E-01  0.55320635744E-02  0.15729239912E-01  0.51109989000E-03 0. -1.
     -623    1    1    2    0    0 -0.20936545267E-01  0.34660372259E-01  0.21668236263E-01  0.17130000616E+03  0.17130000000E+03 0.  1.
      622    1    1    2    0    0  0.27619434076E-01 -0.21549955134E-01  0.39727996675E+01  0.39842646037E+01  0.30000000000E+00 0. -1.
</event>
<event>
 5   0  0.5137000E+05  0.9118800E+02  0.7818608E-02  0.1180000E+00
       11   -1    0    0    0    0  0.00000000000E+00  0.00000000000E+00  0.39999999673E+01  0.40000000000E+01  0.51109989000E-03 0. -1.
     -623   -1    0    0    0    0  0.00000000000E+00  0.00000000000E+00  0.12525980253E-10  0.17130000000E+03  0.17130000000E+03 0. -1.
       11    1    1    2    0    0 -0.26133064347E-01  0.20512112744E-02  0.43867148619E+00  0.43945429630E+00  0.51109989000E-03 0. -1.
     -623    1    1    2    0    0  0.38368616105E-01 -0.93336900916E-02  0.13477472556E-01  0.17130000508E+03  0.17130000000E+03 0. -1.
      622    1    1    2    0    0 -0.12235551757E-01  0.72824788171E-02  0.35478510086E+01  0.35605406222E+01  0.30000000000E+00 0. -1.
</event>
<event>
 5   0  0.5137000E+05  0.9118800E+02  0.7818608E-02  0.1180000E+00
       11   -1    0    0    0    0  0.00000000000E+00  0.00000000000E+00  0.39999999673E+01  0.40000000000E+01  0.51109989000E-03 0. -1.
     -623   -1    0    0    0    0  0.00000000000E+00  0.00000000000E+00  0.12525980253E-10  0.17130000000E+03  0.17130000000E+03 0. -1.
       11    1    1    2    0    0  0.46612755200E-03  0.20344276189E-01  0.84674465606E-01  0.87086928969E-01  0.51109989000E-03 0. -1.
     -623    1    1    2    0    0 -0.10484035039E-01 -0.76946701121E-02  0.13964199208E-01  0.17130000106E+03  0.17130000000E+03 0. -1.
      622    1    1    2    0    0  0.10017907487E-01 -0.12649606077E-01  0.39013613026E+01  0.39129120082E+01  0.30000000000E+00 0. -1.
</event>
<event>
 5   0  0.5137000E+05  0.9118800E+02  0.7818608E-02  0.1180000E+00
       11   -1    0    0    0    0  0.00000000000E+00  0.00000000000E+00  0.39999999673E+01  0.40000000000E+01  0.51109989000E-03 0. -1.
     -623   -1    0    0    0    0  0.00000000000E+00  0.00000000000E+00  0.12525980253E-10  0.17130000000E+03  0.17130000000E+03 0. -1.
       11    1    1    2    0    0  0.58930582946E-03 -0.91006449540E-03 -0.25066386261E-02  0.27784814280E-02  0.51109989000E-03 0. -1.
     -623    1    1    2    0    0 -0.30769966410E-02 -0.79979827363E-02  0.16570554601E-01  0.17130000102E+03  0.17130000000E+03 0. -1.
      622    1    1    2    0    0  0.24876908115E-02  0.89080472317E-02  0.39859360514E+01  0.39972205028E+01  0.30000000000E+00 0. -1.
</event>
<event>
 5   0  0.5137000E+05  0.9118800E+02  0.7818608E-02  0.1180000E+00
       11   -1    0    0    0    0  0.00000000000E+00  0.00000000000E+00  0.39999999673E+01  0.40000000000E+01  0.51109989000E-03 0.  1.
     -623   -1    0    0    0    0  0.00000000000E+00  0.00000000000E+00  0.12525980253E-10  0.17130000000E+03  0.17130000000E+03 0.  1.
       11    1    1    2    0    0  0.77164660505E-01  0.39855251723E-01  0.37703050057E+00  0.38690449145E+00  0.51109989000E-03 0.  1.
     -623    1    1    2    0    0  0.15090988828E-01 -0.21703510027E-01  0.23581727853E-01  0.17130000366E+03  0.17130000000E+03 0.  1.
      622    1    1    2    0    0 -0.92255649333E-01 -0.18151741695E-01  0.35993877389E+01  0.36130918457E+01  0.30000000000E+00 0.  1.
</event>
<event>
 5   0  0.5137000E+05  0.9118800E+02  0.7818608E-02  0.1180000E+00
       11   -1    0    0    0    0  0.00000000000E+00  0.00000000000E+00  0.39999999673E+01  0.40000000000E+01  0.51109989000E-03 0. -1.
     -623   -1    0    0    0    0  0.00000000000E+00  0.00000000000E+00  0.12525980253E-10  0.17130000000E+03  0.17130000000E+03 0. -1.
       11    1    1    2    0    0 -0.42825496122E-04 -0.45788545210E-02  0.30922443935E-03  0.46178550864E-02  0.51109989000E-03 0. -1.
     -623    1    1    2    0    0 -0.25697745937E-01 -0.34060244235E-02  0.15681362904E-01  0.17130000268E+03  0.17130000000E+03 0. -1.
      622    1    1    2    0    0  0.25740571434E-01  0.79848789446E-02  0.39840093800E+01  0.39953794658E+01  0.30000000000E+00 0. -1.
</event>
<event>
 5   0  0.5137000E+05  0.9118800E+02  0.7818608E-02  0.1180000E+00
       11   -1    0    0    0    0  0.00000000000E+00  0.00000000000E+00  0.39999999673E+01  0.40000000000E+01  0.51109989000E-03 0.  1.
     -623   -1    0    0    0    0  0.00000000000E+00  0.00000000000E+00  0.12525980253E-10  0.17130000000E+03  0.17130000000E+03 0. -1.
       11    1    1    2    0    0  0.33669794899E-01 -0.50506284274E-01  0.39775653704E+00  0.40236185681E+00  0.51109989000E-03 0.  1.
     -623    1    1    2    0    0 -0.34719186958E-02 -0.12983883872E-01  0.17826207317E-01  0.17130000145E+03  0.17130000000E+03 0. -1.
      622    1    1    2    0    0 -0.30197876203E-01  0.63490168147E-01  0.35844172230E+01  0.35976366884E+01  0.30000000000E+00 0.  1.
</event>
<event>
 5   0  0.5137000E+05  0.9118800E+02  0.7818608E-02  0.1180000E+00
       11   -1    0    0    0    0  0.00000000000E+00  0.00000000000E+00  0.39999999673E+01  0.40000000000E+01  0.51109989000E-03 0. -1.
     -623   -1    0    0    0    0  0.00000000000E+00  0.00000000000E+00  0.12525980253E-10  0.17130000000E+03  0.17130000000E+03 0. -1.
       11    1    1    2    0    0 -0.68518487370E-02  0.53502622537E-01  0.11416627817E+01  0.11429364141E+01  0.51109989000E-03 0. -1.
     -623    1    1    2    0    0 -0.17609309130E-01 -0.90902241113E-01  0.17445215357E-01  0.17130002591E+03  0.17130000000E+03 0. -1.
      622    1    1    2    0    0  0.24461157867E-01  0.37399618575E-01  0.28408919704E+01  0.28570376734E+01  0.30000000000E+00 0. -1.
</event>
<event>
 5   0  0.5137000E+05  0.9118800E+02  0.7818608E-02  0.1180000E+00
       11   -1    0    0    0    0  0.00000000000E+00  0.00000000000E+00  0.39999999673E+01  0.40000000000E+01  0.51109989000E-03 0. -1.
     -623   -1    0    0    0    0  0.00000000000E+00  0.00000000000E+00  0.12525980253E-10  0.17130000000E+03  0.17130000000E+03 0. -1.
       11    1    1    2    0    0  0.64388216303E-01  0.80511605677E-01  0.11660104967E+00  0.15564069858E+00  0.51109989000E-03 0. -1.
     -623    1    1    2    0    0 -0.19539954050E-01  0.86661731775E-02  0.52072347343E-01  0.17130000925E+03  0.17130000000E+03 0. -1.
      622    1    1    2    0    0 -0.44848262253E-01 -0.89177778855E-01  0.38313265703E+01  0.38443500532E+01  0.30000000000E+00 0. -1.
</event>
<event>
 5   0  0.5137000E+05  0.9118800E+02  0.7818608E-02  0.1180000E+00
       11   -1    0    0    0    0  0.00000000000E+00  0.00000000000E+00  0.39999999673E+01  0.40000000000E+01  0.51109989000E-03 0.  1.
     -623   -1    0    0    0    0  0.00000000000E+00  0.00000000000E+00  0.12525980253E-10  0.17130000000E+03  0.17130000000E+03 0. -1.
       11    1    1    2    0    0 -0.32757787101E-01  0.21049130264E-02  0.10899920028E+00  0.11383580350E+00  0.51109989000E-03 0.  1.
     -623    1    1    2    0    0  0.12007706017E-01  0.16287155948E-02  0.16492004060E-01  0.17130000122E+03  0.17130000000E+03 0. -1.
      622    1    1    2    0    0  0.20750081084E-01 -0.37336286212E-02  0.38745087630E+01  0.38861629740E+01  0.30000000000E+00 0.  1.
</event>
<event>
 5   0  0.5137000E+05  0.9118800E+02  0.7818608E-02  0.1180000E+00
       11   -1    0    0    0    0  0.00000000000E+00  0.00000000000E+00  0.39999999673E+01  0.40000000000E+01  0.51109989000E-03 0. -1.
     -623   -1    0    0    0    0  0.00000000000E+00  0.00000000000E+00  0.12525980253E-10  0.17130000000E+03  0.17130000000E+03 0. -1.
       11    1    1    2    0    0 -0.84063788851E-02 -0.87646240673E-02 -0.28729212479E-02  0.12490025644E-01  0.51109989000E-03 0. -1.
     -623    1    1    2    0    0  0.11126036894E-01  0.21468427204E-01  0.26689187986E-01  0.17130000379E+03  0.17130000000E+03 0. -1.
      622    1    1    2    0    0 -0.27196580086E-02 -0.12703803137E-01  0.39761837006E+01  0.39875061886E+01  0.30000000000E+00 0. -1.
</event>
<event>
 5   0  0.5137000E+05  0.9118800E+02  0.7818608E-02  0.1180000E+00
       11   -1    0    0    0    0  0.00000000000E+00  0.00000000000E+00  0.39999999673E+01  0.40000000000E+01  0.51109989000E-03 0.  1.
     -623   -1    0    0    0    0  0.00000000000E+00  0.00000000000E+00  0.12525980253E-10  0.17130000000E+03  0.17130000000E+03 0. -1.
       11    1    1    2    0    0  0.20153783506E-01 -0.57802664538E-02  0.69224452490E-02  0.22085469006E-01  0.51109989000E-03 0.  1.
     -623    1    1    2    0    0  0.26534618656E-02 -0.12292178276E-01  0.26600857871E-01  0.17130000253E+03  0.17130000000E+03 0. -1.
      622    1    1    2    0    0 -0.22807245372E-01  0.18072444730E-01  0.39664766642E+01  0.39779120040E+01  0.30000000000E+00 0.  1.
</event>
<event>
 5   0  0.5137000E+05  0.9118800E+02  0.7818608E-02  0.1180000E+00
       11   -1    0    0    0    0  0.00000000000E+00  0.00000000000E+00  0.39999999673E+01  0.40000000000E+01  0.51109989000E-03 0. -1.
     -623   -1    0    0    0    0  0.00000000000E+00  0.00000000000E+00  0.12525980253E-10  0.17130000000E+03  0.17130000000E+03 0. -1.
       11    1    1    2    0    0  0.14960136821E-01 -0.19180844795E-01  0.10903659810E+00  0.11171817868E+00  0.51109989000E-03 0. -1.
     -623    1    1    2    0    0  0.14268788610E-01  0.29450537565E-01  0.14399593168E-01  0.17130000373E+03  0.17130000000E+03 0. -1.
      622    1    1    2    0    0 -0.29228925431E-01 -0.10269692770E-01  0.38765637761E+01  0.38882780902E+01  0.30000000000E+00 0. -1.
</event>
<event>
 5   0  0.5137000E+05  0.9118800E+02  0.7818608E-02  0.1180000E+00
       11   -1    0    0    0    0  0.00000000000E+00  0.00000000000E+00  0.39999999673E+01  0.40000000000E+01  0.51109989000E-03 0. -1.
     -623   -1    0    0    0    0  0.00000000000E+00  0.00000000000E+00  0.12525980253E-10  0.17130000000E+03  0.17130000000E+03 0.  1.
       11    1    1    2    0    0 -0.12298834089E-01  0.37654115691E-01  0.36451788344E-01  0.53833891230E-01  0.51109989000E-03 0. -1.
     -623    1    1    2    0    0  0.29964453040E-01  0.71274235170E-02  0.29101822340E-01  0.17130000524E+03  0.17130000000E+03 0.  1.
      622    1    1    2    0    0 -0.17665618951E-01 -0.44781539208E-01  0.39344463567E+01  0.39461608677E+01  0.30000000000E+00 0. -1.
</event>
<event>
 5   0  0.5137000E+05  0.9118800E+02  0.7818608E-02  0.1180000E+00
       11   -1    0    0    0    0  0.00000000000E+00  0.00000000000E+00  0.39999999673E+01  0.40000000000E+01  0.51109989000E-03 0. -1.
     -623   -1    0    0    0    0  0.00000000000E+00  0.00000000000E+00  0.12525980253E-10  0.17130000000E+03  0.17130000000E+03 0.  1.
       11    1    1    2    0    0 -0.34897133037E-01  0.16418188531E-01  0.56851913200E+00  0.56982596596E+00  0.51109989000E-03 0. -1.
     -623    1    1    2    0    0  0.12826259297E-01 -0.51150802962E-01  0.14707443935E-01  0.17130000875E+03  0.17130000000E+03 0.  1.
      622    1    1    2    0    0  0.22070873740E-01  0.34732614431E-01  0.34167733914E+01  0.34301652856E+01  0.30000000000E+00 0. -1.
</event>
<event>
 5   0  0.5137000E+05  0.9118800E+02  0.7818608E-02  0.1180000E+00
       11   -1    0    0    0    0  0.00000000000E+00  0.00000000000E+00  0.39999999673E+01  0.40000000000E+01  0.51109989000E-03 0. -1.
     -623   -1    0    0    0    0  0.00000000000E+00  0.00000000000E+00  0.12525980253E-10  0.17130000000E+03  0.17130000000E+03 0. -1.
       11    1    1    2    0    0 -0.30270157713E-01  0.49548975739E-01  0.44618429334E-01  0.73228743691E-01  0.51109989000E-03 0. -1.
     -623    1    1    2    0    0  0.32610683505E-01  0.55873179854E-02  0.40483793906E-01  0.17130000798E+03  0.17130000000E+03 0. -1.
      622    1    1    2    0    0 -0.23405257920E-02 -0.55136293725E-01  0.39148977441E+01  0.39267632773E+01  0.30000000000E+00 0. -1.
</event>
<event>
 5   0  0.5137000E+05  0.9118800E+02  0.7818608E-02  0.1180000E+00
       11   -1    0    0    0    0  0.00000000000E+00  0.00000000000E+00  0.39999999673E+01  0.40000000000E+01  0.51109989000E-03 0. -1.
     -623   -1    0    0    0    0  0.00000000000E+00  0.00000000000E+00  0.12525980253E-10  0.17130000000E+03  0.17130000000E+03 0.  1.
       11    1    1    2    0    0  0.15219360940E-01 -0.40038389630E-01  0.44395081342E-01  0.61691863824E-01  0.51109989000E-03 0. -1.
     -623    1    1    2    0    0  0.25709660036E-02  0.12631624997E-01  0.28878468858E-01  0.17130000292E+03  0.17130000000E+03 0.  1.
      622    1    1    2    0    0 -0.17790326944E-01  0.27406764633E-01  0.39267264172E+01  0.39383052169E+01  0.30000000000E+00 0. -1.
</event>
<event>
 5   0  0.5137000E+05  0.9118800E+02  0.7818608E-02  0.1180000E+00
       11   -1    0    0    0    0  0.00000000000E+00  0.00000000000E+00  0.39999999673E+01  0.40000000000E+01  0.51109989000E-03 0. -1.
     -623   -1    0    0    0    0  0.00000000000E+00  0.00000000000E+00  0.12525980253E-10  0.17130000000E+03  0.17130000000E+03 0.  1.
       11    1    1    2    0    0  0.25109711736E-01  0.59853458229E-02  0.29091254719E+00  0.29205597635E+00  0.51109989000E-03 0. -1.
     -623    1    1    2    0    0 -0.12900016386E-01 -0.28705547754E-01  0.13392860664E-01  0.17130000341E+03  0.17130000000E+03 0.  1.
      622    1    1    2    0    0 -0.12209695349E-01  0.22720201931E-01  0.36956945595E+01  0.37079406092E+01  0.30000000000E+00 0. -1.
</event>
<event>
 5   0  0.5137000E+05  0.9118800E+02  0.7818608E-02  0.1180000E+00
       11   -1    0    0    0    0  0.00000000000E+00  0.00000000000E+00  0.39999999673E+01  0.40000000000E+01  0.51109989000E-03 0.  1.
     -623   -1    0    0    0    0  0.00000000000E+00  0.00000000000E+00  0.12525980253E-10  0.17130000000E+03  0.17130000000E+03 0.  1.
       11    1    1    2    0    0  0.29306482062E-02  0.32703543984E-02  0.11084223734E-01  0.11933363090E-01  0.51109989000E-03 0.  1.
     -623    1    1    2    0    0 -0.21837551375E-01  0.78003318308E-02  0.12211143205E-01  0.17130000200E+03  0.17130000000E+03 0.  1.
      622    1    1    2    0    0  0.18906903169E-01 -0.11070686229E-01  0.39767046004E+01  0.39880646321E+01  0.30000000000E+00 0.  1.
</event>
<event>
 5   0  0.5137000E+05  0.9118800E+02  0.7818608E-02  0.1180000E+00
       11   -1    0    0    0    0  0.00000000000E+00  0.00000000000E+00  0.39999999673E+01  0.40000000000E+01  0.51109989000E-03 0. -1.
     -623   -1    0    0    0    0  0.00000000000E+00  0.00000000000E+00  0.12525980253E-10  0.17130000000E+03  0.17130000000E+03 0.  1.
       11    1    1    2    0    0  0.85631617499E-02  0.22012929668E-01  0.10403342132E+00  0.10668228900E+00  0.51109989000E-03 0. -1.
     -623    1    1    2    0    0 -0.63205734007E-02 -0.45784281473E-02  0.14264883306E-01  0.17130000077E+03  0.17130000000E+03 0.  1.
      622    1    1    2    0    0 -0.22425883492E-02 -0.17434501521E-01  0.38817016627E+01  0.38933169393E+01  0.30000000000E+00 0. -1.
</event>
<event>
 5   0  0.5137000E+05  0.9118800E+02  0.7818608E-02  0.1180000E+00
       11   -1    0    0    0    0  0.00000000000E+00  0.00000000000E+00  0.39999999673E+01  0.40000000000E+01  0.51109989000E-03 0. -1.
     -623   -1    0    0    0    0  0.00000000000E+00  0.00000000000E+00  0.12525980253E-10  0.17130000000E+03  0.17130000000E+03 0.  1.
       11    1    1    2    0    0  0.68247481962E-02  0.67026081786E-01  0.44552285473E+00  0.45058844652E+00  0.51109989000E-03 0. -1.
     -623    1    1    2    0    0  0.29186809172E-01 -0.22917582719E-01  0.18229869542E-01  0.17130000499E+03  0.17130000000E+03 0.  1.
      622    1    1    2    0    0 -0.36011557369E-01 -0.44108499066E-01  0.35362472431E+01  0.35494065640E+01  0.30000000000E+00 0. -1.
</event>
<event>
 5   0  0.5137000E+05  0.9118800E+02  0.7818608E-02  0.1180000E+00
       11   -1    0    0    0    0  0.00000000000E+00  0.00000000000E+00  0.39999999673E+01  0.40000000000E+01  0.51109989000E-03 0. -1.
     -623   -1    0    0    0    0  0.00000000000E+00  0.00000000000E+00  0.12525980253E-10  0.17130000000E+03  0.17130000000E+03 0. -1.
       11    1    1    2    0    0 -0.57940906402E-02  0.80510328367E-02 -0.17252141825E-01  0.19906989610E-01  0.51109989000E-03 0. -1.
     -623    1    1    2    0    0  0.16706962598E-01 -0.73302293492E-02  0.48504401944E-01  0.17130000784E+03  0.17130000000E+03 0. -1.
      622    1    1    2    0    0 -0.10912871957E-01 -0.72080348750E-03  0.39687477072E+01  0.39800851717E+01  0.30000000000E+00 0. -1.
</event>
<event>
 5   0  0.5137000E+05  0.9118800E+02  0.7818608E-02  0.1180000E+00
       11   -1    0    0    0    0  0.00000000000E+00  0.00000000000E+00  0.39999999673E+01  0.40000000000E+01  0.51109989000E-03 0.  1.
     -623   -1    0    0    0    0  0.00000000000E+00  0.00000000000E+00  0.12525980253E-10  0.17130000000E+03  0.17130000000E+03 0.  1.
       11    1    1    2    0    0 -0.30634558768E-02 -0.33752975700E-01  0.25354019431E+00  0.25579589419E+00  0.51109989000E-03 0.  1.
     -623    1    1    2    0    0  0.84607520506E-02  0.15369704424E-01  0.14344275763E-01  0.17130000150E+03  0.17130000000E+03 0.  1.
      622    1    1    2    0    0 -0.53972961737E-02  0.18383271276E-01  0.37321154973E+01  0.37442026068E+01  0.30000000000E+00 0.  1.
</event>
<event>
 5   0  0.5137000E+05  0.9118800E+02  0.7818608E-02  0.1180000E+00
       11   -1    0    0    0    0  0.00000000000E+00  0.00000000000E+00  0.39999999673E+01  0.40000000000E+01  0.51109989000E-03 0. -1.
     -623   -1    0    0    0    0  0.00000000000E+00  0.00000000000E+00  0.12525980253E-10  0.17130000000E+03  0.17130000000E+03 0.  1.
       11    1    1    2    0    0 -0.61012982932E-02 -0.13301811589E-01  0.85265367118E-02  0.16944824637E-01  0.51109989000E-03 0. -1.
     -623    1    1    2    0    0  0.16822195725E-01  0.26146380526E-02  0.19763023775E-01  0.17130000199E+03  0.17130000000E+03 0.  1.
      622    1    1    2    0    0 -0.10720897431E-01  0.10687173536E-01  0.39717104069E+01  0.39830531894E+01  0.30000000000E+00 0. -1.
</event>
<event>
 5   0  0.5137000E+05  0.9118800E+02  0.7818608E-02  0.1180000E+00
       11   -1    0    0    0    0  0.00000000000E+00  0.00000000000E+00  0.39999999673E+01  0.40000000000E+01  0.51109989000E-03 0.  1.
     -623   -1    0    0    0    0  0.00000000000E+00  0.00000000000E+00  0.12525980253E-10  0.17130000000E+03  0.17130000000E+03 0.  1.
       11    1    1    2    0    0 -0.18211195023E+00  0.12673195910E-01  0.42994848560E+00  0.46709884800E+00  0.51109989000E-03 0.  1.
     -623    1    1    2    0    0  0.18404207052E-01 -0.12518587441E+00  0.55576083103E-01  0.17130005575E+03  0.17130000000E+03 0.  1.
      622    1    1    2    0    0  0.16370774317E+00  0.11251267850E+00  0.35144753987E+01  0.35328454050E+01  0.30000000000E+00 0. -1.
</event>
<event>
 5   0  0.5137000E+05  0.9118800E+02  0.7818608E-02  0.1180000E+00
       11   -1    0    0    0    0  0.00000000000E+00  0.00000000000E+00  0.39999999673E+01  0.40000000000E+01  0.51109989000E-03 0. -1.
     -623   -1    0    0    0    0  0.00000000000E+00  0.00000000000E+00  0.12525980253E-10  0.17130000000E+03  0.17130000000E+03 0.  1.
       11    1    1    2    0    0  0.71611585787E-01 -0.81971395458E-02  0.17511910841E+00  0.18937364037E+00  0.51109989000E-03 0. -1.
     -623    1    1    2    0    0 -0.52359204252E-01 -0.20889063217E-01  0.26253400653E-01  0.17130001129E+03  0.17130000000E+03 0.  1.
      622    1    1    2    0    0 -0.19252381535E-01  0.29086202763E-01  0.37986274583E+01  0.38106150722E+01  0.30000000000E+00 0. -1.
</event>
<event>
 5   0  0.5137000E+05  0.9118800E+02  0.7818608E-02  0.1180000E+00
       11   -1    0    0    0    0  0.00000000000E+00  0.00000000000E+00  0.39999999673E+01  0.40000000000E+01  0.51109989000E-03 0. -1.
     -623   -1    0    0    0    0  0.00000000000E+00  0.00000000000E+00  0.12525980253E-10  0.17130000000E+03  0.17130000000E+03 0. -1.
       11    1    1    2    0    0 -0.56561676858E-04 -0.30564210278E-02 -0.74254093768E-04  0.31002653903E-02  0.51109989000E-03 0. -1.
     -623    1    1    2    0    0  0.23217750501E-01  0.16042489750E-01  0.14540518933E-01  0.17130000294E+03  0.17130000000E+03 0. -1.
      622    1    1    2    0    0 -0.23161188824E-01 -0.12986068722E-01  0.39855337026E+01  0.39968967929E+01  0.30000000000E+00 0. -1.
</event>
<event>
 5   0  0.5137000E+05  0.9118800E+02  0.7818608E-02  0.1180000E+00
       11   -1    0    0    0    0  0.00000000000E+00  0.00000000000E+00  0.39999999673E+01  0.40000000000E+01  0.51109989000E-03 0. -1.
     -623   -1    0    0    0    0  0.00000000000E+00  0.00000000000E+00  0.12525980253E-10  0.17130000000E+03  0.17130000000E+03 0. -1.
       11    1    1    2    0    0 -0.19895988202E-02  0.30234760627E-01  0.50729495014E-01  0.59091811117E-01  0.51109989000E-03 0. -1.
     -623    1    1    2    0    0  0.59291390808E-01 -0.13796938978E-01  0.20261824435E-01  0.17130001202E+03  0.17130000000E+03 0. -1.
      622    1    1    2    0    0 -0.57301791988E-01 -0.16437821649E-01  0.39290086479E+01  0.39408961738E+01  0.30000000000E+00 0. -1.
</event>
<event>
 5   0  0.5137000E+05  0.9118800E+02  0.7818608E-02  0.1180000E+00
       11   -1    0    0    0    0  0.00000000000E+00  0.00000000000E+00  0.39999999673E+01  0.40000000000E+01  0.51109989000E-03 0. -1.
     -623   -1    0    0    0    0  0.00000000000E+00  0.00000000000E+00  0.12525980253E-10  0.17130000000E+03  0.17130000000E+03 0. -1.
       11    1    1    2    0    0 -0.31142845309E-01 -0.83101720628E-01  0.95322441959E-01  0.13023978635E+00  0.51109989000E-03 0. -1.
     -623    1    1    2    0    0  0.35738728993E-01  0.93954144121E-01  0.46617410196E-01  0.17130003584E+03  0.17130000000E+03 0. -1.
      622    1    1    2    0    0 -0.45958836848E-02 -0.10852423493E-01  0.38580601152E+01  0.38697243765E+01  0.30000000000E+00 0. -1.
</event>
<event>
 5   0  0.5137000E+05  0.9118800E+02  0.7818608E-02  0.1180000E+00
       11   -1    0    0    0    0  0.00000000000E+00  0.00000000000E+00  0.39999999673E+01  0.40000000000E+01  0.51109989000E-03 0. -1.
     -623   -1    0    0    0    0  0.00000000000E+00  0.00000000000E+00  0.12525980253E-10  0.17130000000E+03  0.17130000000E+03 0.  1.
       11    1    1    2    0    0 -0.77903084993E-02 -0.85892630403E-02  0.61913708964E-02  0.13155175512E-01  0.51109989000E-03 0. -1.
     -623    1    1    2    0    0  0.37079743485E-02  0.48111473253E-02  0.18271892333E-01  0.17130000108E+03  0.17130000000E+03 0.  1.
      622    1    1    2    0    0  0.40823341507E-02  0.37781157149E-02  0.39755367041E+01  0.39868437423E+01  0.30000000000E+00 0. -1.
</event>
<event>
 5   0  0.5137000E+05  0.9118800E+02  0.7818608E-02  0.1180000E+00
       11   -1    0    0    0    0  0.00000000000E+00  0.00000000000E+00  0.39999999673E+01  0.40000000000E+01  0.51109989000E-03 0. -1.
     -623   -1    0    0    0    0  0.00000000000E+00  0.00000000000E+00  0.12525980253E-10  0.17130000000E+03  0.17130000000E+03 0.  1.
       11    1    1    2    0    0 -0.46925286268E-02 -0.35069099704E-02  0.12558408014E-01  0.13866977886E-01  0.51109989000E-03 0. -1.
     -623    1    1    2    0    0  0.19362187269E-01 -0.10607127715E-01  0.12667730683E-01  0.17130000189E+03  0.17130000000E+03 0.  1.
      622    1    1    2    0    0 -0.14669658642E-01  0.14114037685E-01  0.39747738287E+01  0.39861311311E+01  0.30000000000E+00 0. -1.
</event>
<event>
 5   0  0.5137000E+05  0.9118800E+02  0.7818608E-02  0.1180000E+00
       11   -1    0    0    0    0  0.00000000000E+00  0.00000000000E+00  0.39999999673E+01  0.40000000000E+01  0.51109989000E-03 0. -1.
     -623   -1    0    0    0    0  0.00000000000E+00  0.00000000000E+00  0.12525980253E-10  0.17130000000E+03  0.17130000000E+03 0. -1.
       11    1    1    2    0    0 -0.84912659793E-02  0.16385149499E-01  0.24254877537E-01  0.30481716296E-01  0.51109989000E-03 0. -1.
     -623    1    1    2    0    0  0.23562398832E-03 -0.44486972334E-01  0.17694506677E-01  0.17130000669E+03  0.17130000000E+03 0. -1.
      622    1    1    2    0    0  0.82556419910E-02  0.28101822835E-01  0.39580505831E+01  0.39695115930E+01  0.30000000000E+00 0. -1.
</event>
<event>
 5   0  0.5137000E+05  0.9118800E+02  0.7818608E-02  0.1180000E+00
       11   -1    0    0    0    0  0.00000000000E+00  0.00000000000E+00  0.39999999673E+01  0.40000000000E+01  0.51109989000E-03 0. -1.
     -623   -1    0    0    0    0  0.00000000000E+00  0.00000000000E+00  0.12525980253E-10  0.17130000000E+03  0.17130000000E+03 0.  1.
       11    1    1    2    0    0 -0.56669368199E-01 -0.56007145163E-02  0.65422947923E+00  0.65670332572E+00  0.51109989000E-03 0. -1.
     -623    1    1    2    0    0  0.57593799318E-01  0.51829176371E-02  0.15971488056E-01  0.17130001050E+03  0.17130000000E+03 0.  1.
      622    1    1    2    0    0 -0.92443111934E-03  0.41779687917E-03  0.33297990001E+01  0.33432861693E+01  0.30000000000E+00 0. -1.
</event>
<event>
 5   0  0.5137000E+05  0.9118800E+02  0.7818608E-02  0.1180000E+00
       11   -1    0    0    0    0  0.00000000000E+00  0.00000000000E+00  0.39999999673E+01  0.40000000000E+01  0.51109989000E-03 0.  1.
     -623   -1    0    0    0    0  0.00000000000E+00  0.00000000000E+00  0.12525980253E-10  0.17130000000E+03  0.17130000000E+03 0. -1.
       11    1    1    2    0    0 -0.31905491909E-02 -0.42652212941E-02  0.98261132492E-02  0.11188630010E-01  0.51109989000E-03 0.  1.
     -623    1    1    2    0    0  0.67561137588E-02  0.21117127332E-01  0.12699247851E-01  0.17130000191E+03  0.17130000000E+03 0. -1.
      622    1    1    2    0    0 -0.35655645679E-02 -0.16851906038E-01  0.39774746063E+01  0.39888094644E+01  0.30000000000E+00 0.  1.
</event>
<event>
 5   0  0.5137000E+05  0.9118800E+02  0.7818608E-02  0.1180000E+00
       11   -1    0    0    0    0  0.00000000000E+00  0.00000000000E+00  0.39999999673E+01  0.40000000000E+01  0.51109989000E-03 0. -1.
     -623   -1    0    0    0    0  0.00000000000E+00  0.00000000000E+00  0.12525980253E-10  0.17130000000E+03  0.17130000000E+03 0.  1.
       11    1    1    2    0    0 -0.10359762562E-01  0.17997099469E-01  0.10687667827E+00  0.10887656245E+00  0.51109989000E-03 0. -1.
     -623    1    1    2    0    0  0.23586896500E-01 -0.22756242004E-01  0.13611027082E-01  0.17130000368E+03  0.17130000000E+03 0.  1.
      622    1    1    2    0    0 -0.13227133938E-01  0.47591425348E-02  0.38795122620E+01  0.38911197614E+01  0.30000000000E+00 0. -1.
</event>
<event>
 5   0  0.5137000E+05  0.9118800E+02  0.7818608E-02  0.1180000E+00
       11   -1    0    0    0    0  0.00000000000E+00  0.00000000000E+00  0.39999999673E+01  0.40000000000E+01  0.51109989000E-03 0.  1.
     -623   -1    0    0    0    0  0.00000000000E+00  0.00000000000E+00  0.12525980253E-10  0.17130000000E+03  0.17130000000E+03 0.  1.
       11    1    1    2    0    0 -0.32630976504E-01  0.26727136708E-01  0.28539315115E+00  0.28849373028E+00  0.51109989000E-03 0.  1.
     -623    1    1    2    0    0 -0.22711159235E-02 -0.38115095167E-01  0.15432016285E-01  0.17130000495E+03  0.17130000000E+03 0.  1.
      622    1    1    2    0    0  0.34902092427E-01  0.11387958459E-01  0.36991747999E+01  0.37115013192E+01  0.30000000000E+00 0.  1.
</event>
<event>
 5   0  0.5137000E+05  0.9118800E+02  0.7818608E-02  0.1180000E+00
       11   -1    0    0    0    0  0.00000000000E+00  0.00000000000E+00  0.39999999673E+01  0.40000000000E+01  0.51109989000E-03 0.  1.
     -623   -1    0    0    0    0  0.00000000000E+00  0.00000000000E+00  0.12525980253E-10  0.17130000000E+03  0.17130000000E+03 0. -1.
       11    1    1    2    0    0  0.17257205604E-01  0.25185347503E-01  0.19359408331E-01  0.36154678648E-01  0.51109989000E-03 0.  1.
     -623    1    1    2    0    0 -0.19434342973E-01 -0.35864764362E-01  0.28186377909E-01  0.17130000718E+03  0.17130000000E+03 0. -1.
      622    1    1    2    0    0  0.21771373686E-02  0.10679416859E-01  0.39524541811E+01  0.39638381455E+01  0.30000000000E+00 0.  1.
</event>
<event>
 5   0  0.5137000E+05  0.9118800E+02  0.7818608E-02  0.1180000E+00
       11   -1    0    0    0    0  0.00000000000E+00  0.00000000000E+00  0.39999999673E+01  0.40000000000E+01  0.51109989000E-03 0.  1.
     -623   -1    0    0    0    0  0.00000000000E+00  0.00000000000E+00  0.12525980253E-10  0.17130000000E+03  0.17130000000E+03 0. -1.
       11    1    1    2    0    0 -0.25484796601E-01  0.63946604745E-01  0.96405985843E+00  0.96651451876E+00  0.51109989000E-03 0.  1.
     -623    1    1    2    0    0  0.44341657471E-01 -0.20244779998E-01  0.17708655803E-01  0.17130000785E+03  0.17130000000E+03 0. -1.
      622    1    1    2    0    0 -0.18856860869E-01 -0.43701824747E-01  0.30182314531E+01  0.30334776306E+01  0.30000000000E+00 0.  1.
</event>
<event>
 5   0  0.5137000E+05  0.9118800E+02  0.7818608E-02  0.1180000E+00
       11   -1    0    0    0    0  0.00000000000E+00  0.00000000000E+00  0.39999999673E+01  0.40000000000E+01  0.51109989000E-03 0. -1.
     -623   -1    0    0    0    0  0.00000000000E+00  0.00000000000E+00  0.12525980253E-10  0.17130000000E+03  0.17130000000E+03 0. -1.
       11    1    1    2    0    0 -0.37763004906E-02  0.32668955160E-02  0.82653366087E-02  0.96700601079E-02  0.51109989000E-03 0. -1.
     -623    1    1    2    0    0  0.12785997061E-01  0.33130224807E-02  0.12714559228E-01  0.17130000098E+03  0.17130000000E+03 0. -1.
      622    1    1    2    0    0 -0.90096965708E-02 -0.65799179968E-02  0.39790200715E+01  0.39903289588E+01  0.30000000000E+00 0. -1.
</event>
<event>
 5   0  0.5137000E+05  0.9118800E+02  0.7818608E-02  0.1180000E+00
       11   -1    0    0    0    0  0.00000000000E+00  0.00000000000E+00  0.39999999673E+01  0.40000000000E+01  0.51109989000E-03 0. -1.
     -623   -1    0    0    0    0  0.00000000000E+00  0.00000000000E+00  0.12525980253E-10  0.17130000000E+03  0.17130000000E+03 0.  1.
       11    1    1    2    0    0 -0.97824885130E-03 -0.20272411297E-01  0.14135600425E-01  0.24738715648E-01  0.51109989000E-03 0. -1.
     -623    1    1    2    0    0 -0.25013390063E-01  0.50211568137E-01  0.22148187742E-01  0.17130001062E+03  0.17130000000E+03 0.  1.
      622    1    1    2    0    0  0.25991638915E-01 -0.29939156840E-01  0.39637161792E+01  0.39752506673E+01  0.30000000000E+00 0. -1.
</event>
<event>
 5   0  0.5137000E+05  0.9118800E+02  0.7818608E-02  0.1180000E+00
       11   -1    0    0    0    0  0.00000000000E+00  0.00000000000E+00  0.39999999673E+01  0.40000000000E+01  0.51109989000E-03 0. -1.
     -623   -1    0    0    0    0  0.00000000000E+00  0.00000000000E+00  0.12525980253E-10  0.17130000000E+03  0.17130000000E+03 0.  1.
       11    1    1    2    0    0 -0.18472498271E-02 -0.33837725562E-01  0.15675031787E+00  0.16037246452E+00  0.51109989000E-03 0. -1.
     -623    1    1    2    0    0 -0.96476956876E-02 -0.78077801286E-02  0.15604914369E-01  0.17130000116E+03  0.17130000000E+03 0.  1.
      622    1    1    2    0    0  0.11494945515E-01  0.41645505691E-01  0.38276447351E+01  0.38396263751E+01  0.30000000000E+00 0. -1.
</event>
<event>
 5   0  0.5137000E+05  0.9118800E+02  0.7818608E-02  0.1180000E+00
       11   -1    0    0    0    0  0.00000000000E+00  0.00000000000E+00  0.39999999673E+01  0.40000000000E+01  0.51109989000E-03 0.  1.
     -623   -1    0    0    0    0  0.00000000000E+00  0.00000000000E+00  0.12525980253E-10  0.17130000000E+03  0.17130000000E+03 0.  1.
       11    1    1    2    0    0 -0.16652072032E-01  0.16745331953E-01  0.23155047827E+00  0.23275219194E+00  0.51109989000E-03 0.  1.
     -623    1    1    2    0    0  0.28140129730E-01  0.44026471988E-01  0.13683624330E-01  0.17130000852E+03  0.17130000000E+03 0.  1.
      622    1    1    2    0    0 -0.11488057699E-01 -0.60771803941E-01  0.37547658648E+01  0.37672392925E+01  0.30000000000E+00 0.  1.
</event>
<event>
 5   0  0.5137000E+05  0.9118800E+02  0.7818608E-02  0.1180000E+00
       11   -1    0    0    0    0  0.00000000000E+00  0.00000000000E+00  0.39999999673E+01  0.40000000000E+01  0.51109989000E-03 0. -1.
     -623   -1    0    0    0    0  0.00000000000E+00  0.00000000000E+00  0.12525980253E-10  0.17130000000E+03  0.17130000000E+03 0. -1.
       11    1    1    2    0    0  0.10119744242E-01 -0.22251188318E-01  0.59217626295E-01  0.64066474011E-01  0.51109989000E-03 0. -1.
     -623    1    1    2    0    0  0.38852429844E-01  0.16427216350E-01  0.16614492742E-01  0.17130000600E+03  0.17130000000E+03 0. -1.
      622    1    1    2    0    0 -0.48972174085E-01  0.58239719685E-02  0.39241678483E+01  0.39359275265E+01  0.30000000000E+00 0. -1.
</event>
<event>
 5   0  0.5137000E+05  0.9118800E+02  0.7818608E-02  0.1180000E+00
       11   -1    0    0    0    0  0.00000000000E+00  0.00000000000E+00  0.39999999673E+01  0.40000000000E+01  0.51109989000E-03 0.  1.
     -623   -1    0    0    0    0  0.00000000000E+00  0.00000000000E+00  0.12525980253E-10  0.17130000000E+03  0.17130000000E+03 0. -1.
       11    1    1    2    0    0 -0.35425888908E-01  0.18648195789E-01  0.11921888620E+00  0.12576228712E+00  0.51109989000E-03 0.  1.
     -623    1    1    2    0    0  0.70753363944E-01 -0.16255911593E-01  0.18354734075E-01  0.17130001637E+03  0.17130000000E+03 0. -1.
      622    1    1    2    0    0 -0.35327475036E-01 -0.23922841954E-02  0.38624263471E+01  0.38742213463E+01  0.30000000000E+00 0.  1.
</event>
<event>
 5   0  0.5137000E+05  0.9118800E+02  0.7818608E-02  0.1180000E+00
       11   -1    0    0    0    0  0.00000000000E+00  0.00000000000E+00  0.39999999673E+01  0.40000000000E+01  0.51109989000E-03 0. -1.
     -623   -1    0    0    0    0  0.00000000000E+00  0.00000000000E+00  0.12525980253E-10  0.17130000000E+03  0.17130000000E+03 0. -1.
       11    1    1    2    0    0  0.28043689382E-01  0.40303554586E-01  0.47052424467E+00  0.47307943421E+00  0.51109989000E-03 0. -1.
     -623    1    1    2    0    0 -0.99068360819E-02  0.23020277458E-01  0.15957308063E-01  0.17130000258E+03  0.17130000000E+03 0. -1.
      622    1    1    2    0    0 -0.18136853300E-01 -0.63323832044E-01  0.35135184146E+01  0.35269179893E+01  0.30000000000E+00 0. -1.
</event>
<event>
 5   0  0.5137000E+05  0.9118800E+02  0.7818608E-02  0.1180000E+00
       11   -1    0    0    0    0  0.00000000000E+00  0.00000000000E+00  0.39999999673E+01  0.40000000000E+01  0.51109989000E-03 0. -1.
     -623   -1    0    0    0    0  0.00000000000E+00  0.00000000000E+00  0.12525980253E-10  0.17130000000E+03  0.17130000000E+03 0. -1.
       11    1    1    2    0    0 -0.13727862810E-01 -0.19397511947E-01  0.22855743996E-01  0.32975201952E-01  0.51109989000E-03 0. -1.
     -623    1    1    2    0    0  0.24421330832E-02  0.19389975973E-01  0.21497773937E-01  0.17130000246E+03  0.17130000000E+03 0. -1.
      622    1    1    2    0    0  0.11285729727E-01  0.75359741027E-05  0.39556464494E+01  0.39670223343E+01  0.30000000000E+00 0. -1.
</event>
<event>
 5   0  0.5137000E+05  0.9118800E+02  0.7818608E-02  0.1180000E+00
       11   -1    0    0    0    0  0.00000000000E+00  0.00000000000E+00  0.39999999673E+01  0.40000000000E+01  0.51109989000E-03 0.  1.
     -623   -1    0    0    0    0  0.00000000000E+00  0.00000000000E+00  0.12525980253E-10  0.17130000000E+03  0.17130000000E+03 0. -1.
       11    1    1    2    0    0  0.55197587323E-02  0.45000164869E-01  0.49776494078E+00  0.49982564967E+00  0.51109989000E-03 0.  1.
     -623    1    1    2    0    0 -0.38548046836E-01 -0.15916705398E-01  0.15224345159E-01  0.17130000575E+03  0.17130000000E+03 0. -1.
      622    1    1    2    0    0  0.33028288104E-01 -0.29083459471E-01  0.34870106814E+01  0.35001685970E+01  0.30000000000E+00 0.  1.
</event>
<event>
 5   0  0.5137000E+05  0.9118800E+02  0.7818608E-02  0.1180000E+00
       11   -1    0    0    0    0  0.00000000000E+00  0.00000000000E+00  0.39999999673E+01  0.40000000000E+01  0.51109989000E-03 0. -1.
     -623   -1    0    0    0    0  0.00000000000E+00  0.00000000000E+00  0.12525980253E-10  0.17130000000E+03  0.17130000000E+03 0. -1.
       11    1    1    2    0    0 -0.84912357292E-02 -0.64498558067E-01  0.95573153399E+00  0.95794320884E+00  0.51109989000E-03 0. -1.
     -623    1    1    2    0    0  0.32114993943E-01 -0.26877559317E-02  0.17882252615E-01  0.17130000396E+03  0.17130000000E+03 0. -1.
      622    1    1    2    0    0 -0.23623758214E-01  0.67186313999E-01  0.30263861807E+01  0.30420528262E+01  0.30000000000E+00 0. -1.
</event>
<event>
 5   0  0.5137000E+05  0.9118800E+02  0.7818608E-02  0.1180000E+00
       11   -1    0    0    0    0  0.00000000000E+00  0.00000000000E+00  0.39999999673E+01  0.40000000000E+01  0.51109989000E-03 0. -1.
     -623   -1    0    0    0    0  0.00000000000E+00  0.00000000000E+00  0.12525980253E-10  0.17130000000E+03  0.17130000000E+03 0.  1.
       11    1    1    2    0    0  0.52235783678E-02 -0.15752822651E-01  0.63552389771E-01  0.65685650320E-01  0.51109989000E-03 0. -1.
     -623    1    1    2    0    0 -0.52643297116E-02  0.32097797296E-01  0.13625420107E-01  0.17130000363E+03  0.17130000000E+03 0.  1.
      622    1    1    2    0    0  0.40751343892E-04 -0.16344974645E-01  0.39228221575E+01  0.39343107197E+01  0.30000000000E+00 0. -1.
</event>
<event>
 5   0  0.5137000E+05  0.9118800E+02  0.7818608E-02  0.1180000E+00
       11   -1    0    0    0    0  0.00000000000E+00  0.00000000000E+00  0.39999999673E+01  0.40000000000E+01  0.51109989000E-03 0.  1.
     -623   -1    0    0    0    0  0.00000000000E+00  0.00000000000E+00  0.12525980253E-10  0.17130000000E+03  0.17130000000E+03 0.  1.
       11    1    1    2    0    0  0.14759934192E-01 -0.27520176154E-01  0.51253011936E-02  0.31650366322E-01  0.51109989000E-03 0.  1.
     -623    1    1    2    0    0 -0.55016844566E-01  0.92811654944E-02  0.38141200514E-01  0.17130001333E+03  0.17130000000E+03 0.  1.
      622    1    1    2    0    0  0.40256910374E-01  0.18239010660E-01  0.39567334657E+01  0.39683363011E+01  0.30000000000E+00 0.  1.
</event>
<event>
 5   0  0.5137000E+05  0.9118800E+02  0.7818608E-02  0.1180000E+00
       11   -1    0    0    0    0  0.00000000000E+00  0.00000000000E+00  0.39999999673E+01  0.40000000000E+01  0.51109989000E-03 0. -1.
     -623   -1    0    0    0    0  0.00000000000E+00  0.00000000000E+00  0.12525980253E-10  0.17130000000E+03  0.17130000000E+03 0.  1.
       11    1    1    2    0    0 -0.11389733286E-01 -0.19454792800E-01  0.53481503323E-01  0.58040911502E-01  0.51109989000E-03 0. -1.
     -623    1    1    2    0    0 -0.37116566770E-03  0.22527317322E-01  0.16012629599E-01  0.17130000223E+03  0.17130000000E+03 0.  1.
      622    1    1    2    0    0  0.11760898954E-01 -0.30725245218E-02  0.39305058344E+01  0.39419568584E+01  0.30000000000E+00 0. -1.
</event>
<event>
 5   0  0.5137000E+05  0.9118800E+02  0.7818608E-02  0.1180000E+00
       11   -1    0    0    0    0  0.00000000000E+00  0.00000000000E+00  0.39999999673E+01  0.40000000000E+01  0.51109989000E-03 0.  1.
     -623   -1    0    0    0    0  0.00000000000E+00  0.00000000000E+00  0.12525980253E-10  0.17130000000E+03  0.17130000000E+03 0.  1.
       11    1    1    2    0    0  0.69692038936E-01 -0.23442714372E-01  0.35830085507E+00  0.36576810292E+00  0.51109989000E-03 0.  1.
     -623    1    1    2    0    0 -0.29355357026E-01 -0.17485094687E-01  0.20331164919E-01  0.17130000461E+03  0.17130000000E+03 0.  1.
      622    1    1    2    0    0 -0.40336681909E-01  0.40927809059E-01  0.36213679474E+01  0.36342272829E+01  0.30000000000E+00 0.  0.
</event>
<event>
 5   0  0.5137000E+05  0.9118800E+02  0.7818608E-02  0.1180000E+00
       11   -1    0    0    0    0  0.00000000000E+00  0.00000000000E+00  0.39999999673E+01  0.40000000000E+01  0.51109989000E-03 0.  1.
     -623   -1    0    0    0    0  0.00000000000E+00  0.00000000000E+00  0.12525980253E-10  0.17130000000E+03  0.17130000000E+03 0. -1.
       11    1    1    2    0    0  0.93106418124E-03 -0.10162016173E-01  0.16645958357E-01  0.19531579688E-01  0.51109989000E-03 0.  1.
     -623    1    1    2    0    0  0.82467695000E-02 -0.20297635455E-01  0.14336385908E-01  0.17130000200E+03  0.17130000000E+03 0. -1.
      622    1    1    2    0    0 -0.91778336812E-02  0.30459651628E-01  0.39690176231E+01  0.39804664193E+01  0.30000000000E+00 0.  1.
</event>
<event>
 5   0  0.5137000E+05  0.9118800E+02  0.7818608E-02  0.1180000E+00
       11   -1    0    0    0    0  0.00000000000E+00  0.00000000000E+00  0.39999999673E+01  0.40000000000E+01  0.51109989000E-03 0. -1.
     -623   -1    0    0    0    0  0.00000000000E+00  0.00000000000E+00  0.12525980253E-10  0.17130000000E+03  0.17130000000E+03 0.  1.
       11    1    1    2    0    0 -0.27221708100E-02 -0.75152408168E-02  0.11134305878E-01  0.13715795557E-01  0.51109989000E-03 0. -1.
     -623    1    1    2    0    0  0.84934233246E-02 -0.12689124574E-01  0.13942984847E-01  0.17130000125E+03  0.17130000000E+03 0.  1.
      622    1    1    2    0    0 -0.57712525146E-02  0.20204365391E-01  0.39749226766E+01  0.39862829565E+01  0.30000000000E+00 0. -1.
</event>
<event>
 5   0  0.5137000E+05  0.9118800E+02  0.7818608E-02  0.1180000E+00
       11   -1    0    0    0    0  0.00000000000E+00  0.00000000000E+00  0.39999999673E+01  0.40000000000E+01  0.51109989000E-03 0. -1.
     -623   -1    0    0    0    0  0.00000000000E+00  0.00000000000E+00  0.12525980253E-10  0.17130000000E+03  0.17130000000E+03 0.  1.
       11    1    1    2    0    0  0.79651462494E-02  0.37305554176E-01  0.97951585409E-01  0.10511861031E+00  0.51109989000E-03 0. -1.
     -623    1    1    2    0    0  0.22394965385E-01 -0.20035519852E-01  0.18898578268E-01  0.17130000368E+03  0.17130000000E+03 0.  1.
      622    1    1    2    0    0 -0.30360111634E-01 -0.17270034324E-01  0.38831498037E+01  0.38948777116E+01  0.30000000000E+00 0. -1.
</event>
<event>
 5   0  0.5137000E+05  0.9118800E+02  0.7818608E-02  0.1180000E+00
       11   -1    0    0    0    0  0.00000000000E+00  0.00000000000E+00  0.39999999673E+01  0.40000000000E+01  0.51109989000E-03 0.  1.
     -623   -1    0    0    0    0  0.00000000000E+00  0.00000000000E+00  0.12525980253E-10  0.17130000000E+03  0.17130000000E+03 0.  1.
       11    1    1    2    0    0 -0.28549524220E-01 -0.35641845992E-01  0.27844299617E+00  0.28216339213E+00  0.51109989000E-03 0.  1.
     -623    1    1    2    0    0 -0.52886434430E-01  0.21289314947E-01  0.16777007131E-01  0.17130001031E+03  0.17130000000E+03 0.  1.
      622    1    1    2    0    0  0.81435958649E-01  0.14352531045E-01  0.37047799640E+01  0.37178262994E+01  0.30000000000E+00 0.  1.
</event>
<event>
 5   0  0.5137000E+05  0.9118800E+02  0.7818608E-02  0.1180000E+00
       11   -1    0    0    0    0  0.00000000000E+00  0.00000000000E+00  0.39999999673E+01  0.40000000000E+01  0.51109989000E-03 0. -1.
     -623   -1    0    0    0    0  0.00000000000E+00  0.00000000000E+00  0.12525980253E-10  0.17130000000E+03  0.17130000000E+03 0.  1.
       11    1    1    2    0    0 -0.19422313368E-01 -0.95111748767E-02  0.81929007702E-01  0.84736723026E-01  0.51109989000E-03 0. -1.
     -623    1    1    2    0    0 -0.10076913655E-01 -0.44259516082E-02  0.14455387460E-01  0.17130000096E+03  0.17130000000E+03 0.  1.
      622    1    1    2    0    0  0.29499227023E-01  0.13937126485E-01  0.39036155722E+01  0.39152623135E+01  0.30000000000E+00 0. -1.
</event>
<event>
 5   0  0.5137000E+05  0.9118800E+02  0.7818608E-02  0.1180000E+00
       11   -1    0    0    0    0  0.00000000000E+00  0.00000000000E+00  0.39999999673E+01  0.40000000000E+01  0.51109989000E-03 0. -1.
     -623   -1    0    0    0    0  0.00000000000E+00  0.00000000000E+00  0.12525980253E-10  0.17130000000E+03  0.17130000000E+03 0. -1.
       11    1    1    2    0    0  0.86841216745E-02  0.98334735724E-02  0.66736652020E-01  0.68015829896E-01  0.51109989000E-03 0. -1.
     -623    1    1    2    0    0 -0.22729782923E-01  0.66803046565E-02  0.12802515512E-01  0.17130000212E+03  0.17130000000E+03 0. -1.
      622    1    1    2    0    0  0.14045661249E-01 -0.16513778229E-01  0.39204607998E+01  0.39319820534E+01  0.30000000000E+00 0. -1.
</event>
<event>
 5   0  0.5137000E+05  0.9118800E+02  0.7818608E-02  0.1180000E+00
       11   -1    0    0    0    0  0.00000000000E+00  0.00000000000E+00  0.39999999673E+01  0.40000000000E+01  0.51109989000E-03 0. -1.
     -623   -1    0    0    0    0  0.00000000000E+00  0.00000000000E+00  0.12525980253E-10  0.17130000000E+03  0.17130000000E+03 0. -1.
       11    1    1    2    0    0  0.58552003289E-01  0.32484181197E-01  0.40127849041E+00  0.40682704827E+00  0.51109989000E-03 0. -1.
     -623    1    1    2    0    0  0.42158415751E-01  0.11921673739E-01  0.19793018226E-01  0.17130000675E+03  0.17130000000E+03 0. -1.
      622    1    1    2    0    0 -0.10071041904E+00 -0.44405854936E-01  0.35789284587E+01  0.35931662056E+01  0.30000000000E+00 0.  0.
</event>
<event>
 5   0  0.5137000E+05  0.9118800E+02  0.7818608E-02  0.1180000E+00
       11   -1    0    0    0    0  0.00000000000E+00  0.00000000000E+00  0.39999999673E+01  0.40000000000E+01  0.51109989000E-03 0. -1.
     -623   -1    0    0    0    0  0.00000000000E+00  0.00000000000E+00  0.12525980253E-10  0.17130000000E+03  0.17130000000E+03 0.  1.
       11    1    1    2    0    0  0.93351232488E-02  0.10423181945E-01  0.85662046987E-02  0.16414272265E-01  0.51109989000E-03 0. -1.
     -623    1    1    2    0    0 -0.25181126490E-01 -0.18878686489E-01  0.19205037164E-01  0.17130000397E+03  0.17130000000E+03 0.  1.
      622    1    1    2    0    0  0.15846003242E-01  0.84555045442E-02  0.39722287255E+01  0.39835817601E+01  0.30000000000E+00 0. -1.
</event>
<event>
 5   0  0.5137000E+05  0.9118800E+02  0.7818608E-02  0.1180000E+00
       11   -1    0    0    0    0  0.00000000000E+00  0.00000000000E+00  0.39999999673E+01  0.40000000000E+01  0.51109989000E-03 0.  1.
     -623   -1    0    0    0    0  0.00000000000E+00  0.00000000000E+00  0.12525980253E-10  0.17130000000E+03  0.17130000000E+03 0.  1.
       11    1    1    2    0    0  0.44590425170E-02  0.83746331895E-02  0.76440268578E-02  0.12194667235E-01  0.51109989000E-03 0.  1.
     -623    1    1    2    0    0 -0.13553193310E-01  0.25086263718E-03  0.15872050564E-01  0.17130000127E+03  0.17130000000E+03 0.  1.
      622    1    1    2    0    0  0.90941507931E-02 -0.86254958267E-02  0.39764838899E+01  0.39878040611E+01  0.30000000000E+00 0.  1.
</event>
<event>
 5   0  0.5137000E+05  0.9118800E+02  0.7818608E-02  0.1180000E+00
       11   -1    0    0    0    0  0.00000000000E+00  0.00000000000E+00  0.39999999673E+01  0.40000000000E+01  0.51109989000E-03 0. -1.
     -623   -1    0    0    0    0  0.00000000000E+00  0.00000000000E+00  0.12525980253E-10  0.17130000000E+03  0.17130000000E+03 0.  1.
       11    1    1    2    0    0  0.43627494065E-01 -0.13332671985E-01  0.17146539981E+00  0.17743100895E+00  0.51109989000E-03 0. -1.
     -623    1    1    2    0    0  0.50745113914E-03  0.10144538665E-01  0.18014118827E-01  0.17130000125E+03  0.17130000000E+03 0.  1.
      622    1    1    2    0    0 -0.44134945204E-01  0.31881333204E-02  0.38105204487E+01  0.38225677427E+01  0.30000000000E+00 0. -1.
</event>
<event>
 5   0  0.5137000E+05  0.9118800E+02  0.7818608E-02  0.1180000E+00
       11   -1    0    0    0    0  0.00000000000E+00  0.00000000000E+00  0.39999999673E+01  0.40000000000E+01  0.51109989000E-03 0.  1.
     -623   -1    0    0    0    0  0.00000000000E+00  0.00000000000E+00  0.12525980253E-10  0.17130000000E+03  0.17130000000E+03 0. -1.
       11    1    1    2    0    0 -0.23015083245E-02 -0.80021904228E-02  0.24558300376E-01  0.25936525058E-01  0.51109989000E-03 0.  1.
     -623    1    1    2    0    0 -0.67806888711E-02  0.16442445435E-01  0.12738590127E-01  0.17130000140E+03  0.17130000000E+03 0. -1.
      622    1    1    2    0    0  0.90821971956E-02 -0.84402550125E-02  0.39627030769E+01  0.39740620780E+01  0.30000000000E+00 0.  1.
</event>
<event>
 5   0  0.5137000E+05  0.9118800E+02  0.7818608E-02  0.1180000E+00
       11   -1    0    0    0    0  0.00000000000E+00  0.00000000000E+00  0.39999999673E+01  0.40000000000E+01  0.51109989000E-03 0. -1.
     -623   -1    0    0    0    0  0.00000000000E+00  0.00000000000E+00  0.12525980253E-10  0.17130000000E+03  0.17130000000E+03 0.  1.
       11    1    1    2    0    0  0.20025977774E-01 -0.26966272768E-01  0.86847194739E-01  0.93117753991E-01  0.51109989000E-03 0. -1.
     -623    1    1    2    0    0 -0.16838709739E-01  0.37821000143E-01  0.17828067230E-01  0.17130000593E+03  0.17130000000E+03 0.  1.
      622    1    1    2    0    0 -0.31872680352E-02 -0.10854727375E-01  0.38953247054E+01  0.39068763154E+01  0.30000000000E+00 0. -1.
</event>
<event>
 5   0  0.5137000E+05  0.9118800E+02  0.7818608E-02  0.1180000E+00
       11   -1    0    0    0    0  0.00000000000E+00  0.00000000000E+00  0.39999999673E+01  0.40000000000E+01  0.51109989000E-03 0. -1.
     -623   -1    0    0    0    0  0.00000000000E+00  0.00000000000E+00  0.12525980253E-10  0.17130000000E+03  0.17130000000E+03 0. -1.
       11    1    1    2    0    0 -0.44884512956E-02 -0.14183746760E-01  0.99087232029E-02  0.17882082751E-01  0.51109989000E-03 0. -1.
     -623    1    1    2    0    0  0.43055477464E-02  0.34289194037E-01  0.19345422321E-01  0.17130000458E+03  0.17130000000E+03 0. -1.
      622    1    1    2    0    0  0.18290354918E-03 -0.20105447277E-01  0.39707458218E+01  0.39821133389E+01  0.30000000000E+00 0. -1.
</event>
<event>
 5   0  0.5137000E+05  0.9118800E+02  0.7818608E-02  0.1180000E+00
       11   -1    0    0    0    0  0.00000000000E+00  0.00000000000E+00  0.39999999673E+01  0.40000000000E+01  0.51109989000E-03 0. -1.
     -623   -1    0    0    0    0  0.00000000000E+00  0.00000000000E+00  0.12525980253E-10  0.17130000000E+03  0.17130000000E+03 0.  1.
       11    1    1    2    0    0 -0.75827876814E-02 -0.12669933375E-01  0.51265606934E-01  0.53352127944E-01  0.51109989000E-03 0. -1.
     -623    1    1    2    0    0 -0.37216516157E-01  0.23947166248E-01  0.13782547197E-01  0.17130000627E+03  0.17130000000E+03 0.  1.
      622    1    1    2    0    0  0.44799303839E-01 -0.11277232873E-01  0.39349518132E+01  0.39466416009E+01  0.30000000000E+00 0. -1.
</event>
<event>
 5   0  0.5137000E+05  0.9118800E+02  0.7818608E-02  0.1180000E+00
       11   -1    0    0    0    0  0.00000000000E+00  0.00000000000E+00  0.39999999673E+01  0.40000000000E+01  0.51109989000E-03 0. -1.
     -623   -1    0    0    0    0  0.00000000000E+00  0.00000000000E+00  0.12525980253E-10  0.17130000000E+03  0.17130000000E+03 0.  1.
       11    1    1    2    0    0 -0.12109055142E-02  0.52498836292E-02  0.94859602480E-02  0.10921182819E-01  0.51109989000E-03 0. -1.
     -623    1    1    2    0    0 -0.51272794333E-02 -0.25793967695E-02  0.12738503180E-01  0.17130000057E+03  0.17130000000E+03 0.  1.
      622    1    1    2    0    0  0.63381849475E-02 -0.26704868597E-02  0.39777755039E+01  0.39890782474E+01  0.30000000000E+00 0. -1.
</event>
<event>
 5   0  0.5137000E+05  0.9118800E+02  0.7818608E-02  0.1180000E+00
       11   -1    0    0    0    0  0.00000000000E+00  0.00000000000E+00  0.39999999673E+01  0.40000000000E+01  0.51109989000E-03 0.  1.
     -623   -1    0    0    0    0  0.00000000000E+00  0.00000000000E+00  0.12525980253E-10  0.17130000000E+03  0.17130000000E+03 0.  1.
       11    1    1    2    0    0 -0.13400531141E-01 -0.15863489014E-01  0.14382196168E+00  0.14531428836E+00  0.51109989000E-03 0.  1.
     -623    1    1    2    0    0  0.44590654998E-01  0.18309534247E-01  0.13318803120E-01  0.17130000730E+03  0.17130000000E+03 0.  1.
      622    1    1    2    0    0 -0.31190123857E-01 -0.24460452329E-02  0.38428592026E+01  0.38546784117E+01  0.30000000000E+00 0.  1.
</event>
<event>
 5   0  0.5137000E+05  0.9118800E+02  0.7818608E-02  0.1180000E+00
       11   -1    0    0    0    0  0.00000000000E+00  0.00000000000E+00  0.39999999673E+01  0.40000000000E+01  0.51109989000E-03 0.  1.
     -623   -1    0    0    0    0  0.00000000000E+00  0.00000000000E+00  0.12525980253E-10  0.17130000000E+03  0.17130000000E+03 0.  1.
       11    1    1    2    0    0  0.11417016225E-01 -0.53119382913E-02 -0.44251205410E-02  0.13356940622E-01  0.51109989000E-03 0.  1.
     -623    1    1    2    0    0 -0.50932392384E-02  0.64800316187E-02  0.29093623952E-01  0.17130000267E+03  0.17130000000E+03 0.  1.
      622    1    1    2    0    0 -0.63237769861E-02 -0.11680933274E-02  0.39753314640E+01  0.39866403905E+01  0.30000000000E+00 0.  1.
</event>
<event>
 5   0  0.5137000E+05  0.9118800E+02  0.7818608E-02  0.1180000E+00
       11   -1    0    0    0    0  0.00000000000E+00  0.00000000000E+00  0.39999999673E+01  0.40000000000E+01  0.51109989000E-03 0.  1.
     -623   -1    0    0    0    0  0.00000000000E+00  0.00000000000E+00  0.12525980253E-10  0.17130000000E+03  0.17130000000E+03 0. -1.
       11    1    1    2    0    0  0.10800923318E-02  0.32271272057E-01  0.85737641848E-01  0.91617716913E-01  0.51109989000E-03 0.  1.
     -623    1    1    2    0    0 -0.18832452697E-01 -0.17342292324E-01  0.17482613684E-01  0.17130000281E+03  0.17130000000E+03 0. -1.
      622    1    1    2    0    0  0.17752360366E-01 -0.14928979733E-01  0.38967797118E+01  0.39083794779E+01  0.30000000000E+00 0.  1.
</event>
<event>
 5   0  0.5137000E+05  0.9118800E+02  0.7818608E-02  0.1180000E+00
       11   -1    0    0    0    0  0.00000000000E+00  0.00000000000E+00  0.39999999673E+01  0.40000000000E+01  0.51109989000E-03 0. -1.
     -623   -1    0    0    0    0  0.00000000000E+00  0.00000000000E+00  0.12525980253E-10  0.17130000000E+03  0.17130000000E+03 0. -1.
       11    1    1    2    0    0  0.21032397232E-01  0.31352958716E-01  0.28088224372E+00  0.28340865515E+00  0.51109989000E-03 0. -1.
     -623    1    1    2    0    0 -0.33627705068E-01 -0.27209694373E-01  0.14683874848E-01  0.17130000609E+03  0.17130000000E+03 0. -1.
      622    1    1    2    0    0  0.12595307836E-01 -0.41432643429E-02  0.37044338488E+01  0.37165852538E+01  0.30000000000E+00 0. -1.
</event>
<event>
 5   0  0.5137000E+05  0.9118800E+02  0.7818608E-02  0.1180000E+00
       11   -1    0    0    0    0  0.00000000000E+00  0.00000000000E+00  0.39999999673E+01  0.40000000000E+01  0.51109989000E-03 0. -1.
     -623   -1    0    0    0    0  0.00000000000E+00  0.00000000000E+00  0.12525980253E-10  0.17130000000E+03  0.17130000000E+03 0.  1.
       11    1    1    2    0    0  0.84829881410E-02  0.11774472817E-01  0.19905284978E-01  0.24639011549E-01  0.51109989000E-03 0. -1.
     -623    1    1    2    0    0 -0.36285348874E-01 -0.75254477191E-02  0.16174145491E-01  0.17130000477E+03  0.17130000000E+03 0.  1.
      622    1    1    2    0    0  0.27802360733E-01 -0.42490250978E-02  0.39639205369E+01  0.39753562165E+01  0.30000000000E+00 0. -1.
</event>
<event>
 5   0  0.5137000E+05  0.9118800E+02  0.7818608E-02  0.1180000E+00
       11   -1    0    0    0    0  0.00000000000E+00  0.00000000000E+00  0.39999999673E+01  0.40000000000E+01  0.51109989000E-03 0.  1.
     -623   -1    0    0    0    0  0.00000000000E+00  0.00000000000E+00  0.12525980253E-10  0.17130000000E+03  0.17130000000E+03 0. -1.
       11    1    1    2    0    0  0.55956544571E-01 -0.20516027174E-01  0.83388259955E+00  0.83600986436E+00  0.51109989000E-03 0.  1.
     -623    1    1    2    0    0  0.59773999132E-02 -0.88455841186E-02  0.17128937164E-01  0.17130000119E+03  0.17130000000E+03 0. -1.
      622    1    1    2    0    0 -0.61933944484E-01  0.29361611293E-01  0.31489884306E+01  0.31639889466E+01  0.30000000000E+00 0.  1.
</event>
<event>
 5   0  0.5137000E+05  0.9118800E+02  0.7818608E-02  0.1180000E+00
       11   -1    0    0    0    0  0.00000000000E+00  0.00000000000E+00  0.39999999673E+01  0.40000000000E+01  0.51109989000E-03 0. -1.
     -623   -1    0    0    0    0  0.00000000000E+00  0.00000000000E+00  0.12525980253E-10  0.17130000000E+03  0.17130000000E+03 0.  1.
       11    1    1    2    0    0 -0.52773825582E-04 -0.27062882764E-01  0.19755569280E-01  0.33510388676E-01  0.51109989000E-03 0. -1.
     -623    1    1    2    0    0  0.14605138430E-02  0.24395569742E-01  0.25120847783E-01  0.17130000359E+03  0.17130000000E+03 0.  1.
      622    1    1    2    0    0 -0.14077400174E-02  0.26673130221E-02  0.39551235503E+01  0.39664860260E+01  0.30000000000E+00 0. -1.
</event>
<event>
 5   0  0.5137000E+05  0.9118800E+02  0.7818608E-02  0.1180000E+00
       11   -1    0    0    0    0  0.00000000000E+00  0.00000000000E+00  0.39999999673E+01  0.40000000000E+01  0.51109989000E-03 0. -1.
     -623   -1    0    0    0    0  0.00000000000E+00  0.00000000000E+00  0.12525980253E-10  0.17130000000E+03  0.17130000000E+03 0. -1.
       11    1    1    2    0    0 -0.61065790838E-02  0.96931934878E-02  0.47046332466E-01  0.48423826035E-01  0.51109989000E-03 0. -1.
     -623    1    1    2    0    0  0.11709633769E-01 -0.27912535011E-01  0.12831049675E-01  0.17130000315E+03  0.17130000000E+03 0. -1.
      622    1    1    2    0    0 -0.56030546850E-02  0.18219341523E-01  0.39401225852E+01  0.39515730191E+01  0.30000000000E+00 0. -1.
</event>
<event>
 5   0  0.5137000E+05  0.9118800E+02  0.7818608E-02  0.1180000E+00
       11   -1    0    0    0    0  0.00000000000E+00  0.00000000000E+00  0.39999999673E+01  0.40000000000E+01  0.51109989000E-03 0. -1.
     -623   -1    0    0    0    0  0.00000000000E+00  0.00000000000E+00  0.12525980253E-10  0.17130000000E+03  0.17130000000E+03 0.  1.
       11    1    1    2    0    0 -0.10796752692E-01  0.97725047133E-02  0.27880557035E+00  0.27918610101E+00  0.51109989000E-03 0. -1.
     -623    1    1    2    0    0  0.72616270493E-02 -0.14816961686E-01  0.12500716092E-01  0.17130000125E+03  0.17130000000E+03 0.  1.
      622    1    1    2    0    0  0.35351256423E-02  0.50444569725E-02  0.37086936809E+01  0.37208126481E+01  0.30000000000E+00 0. -1.
</event>
<event>
 5   0  0.5137000E+05  0.9118800E+02  0.7818608E-02  0.1180000E+00
       11   -1    0    0    0    0  0.00000000000E+00  0.00000000000E+00  0.39999999673E+01  0.40000000000E+01  0.51109989000E-03 0. -1.
     -623   -1    0    0    0    0  0.00000000000E+00  0.00000000000E+00  0.12525980253E-10  0.17130000000E+03  0.17130000000E+03 0. -1.
       11    1    1    2    0    0  0.81673198505E-05 -0.18286092484E-02  0.43937996780E-01  0.43979002509E-01  0.51109989000E-03 0. -1.
     -623    1    1    2    0    0  0.15563322294E-02  0.40984746426E-01  0.11632416298E-01  0.17130000530E+03  0.17130000000E+03 0. -1.
      622    1    1    2    0    0 -0.15644995493E-02 -0.39156137178E-01  0.39444295543E+01  0.39560156925E+01  0.30000000000E+00 0. -1.
</event>
<event>
 5   0  0.5137000E+05  0.9118800E+02  0.7818608E-02  0.1180000E+00
       11   -1    0    0    0    0  0.00000000000E+00  0.00000000000E+00  0.39999999673E+01  0.40000000000E+01  0.51109989000E-03 0. -1.
     -623   -1    0    0    0    0  0.00000000000E+00  0.00000000000E+00  0.12525980253E-10  0.17130000000E+03  0.17130000000E+03 0.  1.
       11    1    1    2    0    0 -0.17323784251E-01  0.16526862770E-02  0.97270185773E-01  0.98815965990E-01  0.51109989000E-03 0. -1.
     -623    1    1    2    0    0 -0.30955895323E-02 -0.15513795555E-01  0.13177348198E-01  0.17130000124E+03  0.17130000000E+03 0.  1.
      622    1    1    2    0    0  0.20419373783E-01  0.13861109278E-01  0.38895524334E+01  0.39011827967E+01  0.30000000000E+00 0. -1.
</event>
<event>
 5   0  0.5137000E+05  0.9118800E+02  0.7818608E-02  0.1180000E+00
       11   -1    0    0    0    0  0.00000000000E+00  0.00000000000E+00  0.39999999673E+01  0.40000000000E+01  0.51109989000E-03 0.  1.
     -623   -1    0    0    0    0  0.00000000000E+00  0.00000000000E+00  0.12525980253E-10  0.17130000000E+03  0.17130000000E+03 0.  1.
       11    1    1    2    0    0 -0.67838702263E-02 -0.12716793003E-03  0.90514015924E-01  0.90769407665E-01  0.51109989000E-03 0.  1.
     -623    1    1    2    0    0 -0.17407716870E-02  0.46648622040E-01  0.12077344367E-01  0.17130000679E+03  0.17130000000E+03 0.  1.
      622    1    1    2    0    0  0.85246419134E-02 -0.46521454110E-01  0.38974086071E+01  0.39092238060E+01  0.30000000000E+00 0.  1.
</event>
<event>
 5   0  0.5137000E+05  0.9118800E+02  0.7818608E-02  0.1180000E+00
       11   -1    0    0    0    0  0.00000000000E+00  0.00000000000E+00  0.39999999673E+01  0.40000000000E+01  0.51109989000E-03 0. -1.
     -623   -1    0    0    0    0  0.00000000000E+00  0.00000000000E+00  0.12525980253E-10  0.17130000000E+03  0.17130000000E+03 0.  1.
       11    1    1    2    0    0 -0.35820862693E-01 -0.14626166030E-01  0.57553370111E+00  0.57683304454E+00  0.51109989000E-03 0. -1.
     -623    1    1    2    0    0 -0.14108685891E-01 -0.15809618872E-01  0.14973744624E-01  0.17130000197E+03  0.17130000000E+03 0.  1.
      622    1    1    2    0    0  0.49929548584E-01  0.30435784902E-01  0.34094925216E+01  0.34231649905E+01  0.30000000000E+00 0. -1.
</event>
<event>
 5   0  0.5137000E+05  0.9118800E+02  0.7818608E-02  0.1180000E+00
       11   -1    0    0    0    0  0.00000000000E+00  0.00000000000E+00  0.39999999673E+01  0.40000000000E+01  0.51109989000E-03 0.  1.
     -623   -1    0    0    0    0  0.00000000000E+00  0.00000000000E+00  0.12525980253E-10  0.17130000000E+03  0.17130000000E+03 0.  1.
       11    1    1    2    0    0 -0.10045629692E-01  0.15633011089E-01  0.23062029603E-01  0.29621346057E-01  0.51109989000E-03 0.  1.
     -623    1    1    2    0    0  0.47982509162E-02  0.12386136974E-01  0.18013533629E-01  0.17130000146E+03  0.17130000000E+03 0.  1.
      622    1    1    2    0    0  0.52473787761E-02 -0.28019148063E-01  0.39589244041E+01  0.39703771918E+01  0.30000000000E+00 0.  1.
</event>
<event>
 5   0  0.5137000E+05  0.9118800E+02  0.7818608E-02  0.1180000E+00
       11   -1    0    0    0    0  0.00000000000E+00  0.00000000000E+00  0.39999999673E+01  0.40000000000E+01  0.51109989000E-03 0. -1.
     -623   -1    0    0    0    0  0.00000000000E+00  0.00000000000E+00  0.12525980253E-10  0.17130000000E+03  0.17130000000E+03 0. -1.
       11    1    1    2    0    0  0.99999243128E-02 -0.12828826297E-01  0.27941799101E-01  0.32335470141E-01  0.51109989000E-03 0. -1.
     -623    1    1    2    0    0 -0.18643964393E-02  0.27818833784E-01  0.15791347990E-01  0.17130000300E+03  0.17130000000E+03 0. -1.
      622    1    1    2    0    0 -0.81355278735E-02 -0.14990007487E-01  0.39562668203E+01  0.39676615330E+01  0.30000000000E+00 0. -1.
</event>
<event>
 5   0  0.5137000E+05  0.9118800E+02  0.7818608E-02  0.1180000E+00
       11   -1    0    0    0    0  0.00000000000E+00  0.00000000000E+00  0.39999999673E+01  0.40000000000E+01  0.51109989000E-03 0.  1.
     -623   -1    0    0    0    0  0.00000000000E+00  0.00000000000E+00  0.12525980253E-10  0.17130000000E+03  0.17130000000E+03 0.  1.
       11    1    1    2    0    0  0.44816200340E-01  0.62312921275E-01  0.36144077448E+00  0.36950113214E+00  0.51109989000E-03 0.  1.
     -623    1    1    2    0    0 -0.22368107047E-01  0.15183438578E-01  0.21379732378E-01  0.17130000347E+03  0.17130000000E+03 0.  1.
      622    1    1    2    0    0 -0.22448093293E-01 -0.77496359853E-01  0.36171794605E+01  0.36304954004E+01  0.30000000000E+00 0.  1.
</event>
<event>
 5   0  0.5137000E+05  0.9118800E+02  0.7818608E-02  0.1180000E+00
       11   -1    0    0    0    0  0.00000000000E+00  0.00000000000E+00  0.39999999673E+01  0.40000000000E+01  0.51109989000E-03 0. -1.
     -623   -1    0    0    0    0  0.00000000000E+00  0.00000000000E+00  0.12525980253E-10  0.17130000000E+03  0.17130000000E+03 0.  1.
       11    1    1    2    0    0  0.74857173444E-01  0.86409801780E-02  0.78450605178E+00  0.78811691358E+00  0.51109989000E-03 0. -1.
     -623    1    1    2    0    0  0.55926214730E-03  0.19464767008E-01  0.18667091112E-01  0.17130000212E+03  0.17130000000E+03 0.  1.
      622    1    1    2    0    0 -0.75416435591E-01 -0.28105747186E-01  0.31968268245E+01  0.32118809625E+01  0.30000000000E+00 0. -1.
</event>
<event>
 5   0  0.5137000E+05  0.9118800E+02  0.7818608E-02  0.1180000E+00
       11   -1    0    0    0    0  0.00000000000E+00  0.00000000000E+00  0.39999999673E+01  0.40000000000E+01  0.51109989000E-03 0. -1.
     -623   -1    0    0    0    0  0.00000000000E+00  0.00000000000E+00  0.12525980253E-10  0.17130000000E+03  0.17130000000E+03 0.  1.
       11    1    1    2    0    0  0.39755542061E-01  0.15187486133E-01  0.40368149587E+00  0.40591892563E+00  0.51109989000E-03 0. -1.
     -623    1    1    2    0    0 -0.31394097172E-01 -0.12476061008E-01  0.14794638468E-01  0.17130000397E+03  0.17130000000E+03 0.  1.
      622    1    1    2    0    0 -0.83614448897E-02 -0.27114251253E-02  0.35815238330E+01  0.35940771044E+01  0.30000000000E+00 0. -1.
</event>
<event>
 5   0  0.5137000E+05  0.9118800E+02  0.7818608E-02  0.1180000E+00
       11   -1    0    0    0    0  0.00000000000E+00  0.00000000000E+00  0.39999999673E+01  0.40000000000E+01  0.51109989000E-03 0. -1.
     -623   -1    0    0    0    0  0.00000000000E+00  0.00000000000E+00  0.12525980253E-10  0.17130000000E+03  0.17130000000E+03 0.  1.
       11    1    1    2    0    0 -0.30921617161E-01 -0.92375607900E-01  0.12815172164E+00  0.16097367587E+00  0.51109989000E-03 0. -1.
     -623    1    1    2    0    0  0.95055096813E-02 -0.45374020177E-01  0.47114059393E-01  0.17130001275E+03  0.17130000000E+03 0.  1.
      622    1    1    2    0    0  0.21416107480E-01  0.13774962808E+00  0.38247341863E+01  0.38390135720E+01  0.30000000000E+00 0. -1.
</event>
<event>
 5   0  0.5137000E+05  0.9118800E+02  0.7818608E-02  0.1180000E+00
       11   -1    0    0    0    0  0.00000000000E+00  0.00000000000E+00  0.39999999673E+01  0.40000000000E+01  0.51109989000E-03 0. -1.
     -623   -1    0    0    0    0  0.00000000000E+00  0.00000000000E+00  0.12525980253E-10  0.17130000000E+03  0.17130000000E+03 0. -1.
       11    1    1    2    0    0 -0.39310433252E-02  0.65162754177E-02  0.20093291679E-01  0.21492243730E-01  0.51109989000E-03 0. -1.
     -623    1    1    2    0    0  0.19618142999E-02 -0.10533328986E-01  0.12729149704E-01  0.17130000081E+03  0.17130000000E+03 0. -1.
      622    1    1    2    0    0  0.19692290254E-02  0.40170535679E-02  0.39671775260E+01  0.39785069483E+01  0.30000000000E+00 0. -1.
</event>
<event>
 5   0  0.5137000E+05  0.9118800E+02  0.7818608E-02  0.1180000E+00
       11   -1    0    0    0    0  0.00000000000E+00  0.00000000000E+00  0.39999999673E+01  0.40000000000E+01  0.51109989000E-03 0. -1.
     -623   -1    0    0    0    0  0.00000000000E+00  0.00000000000E+00  0.12525980253E-10  0.17130000000E+03  0.17130000000E+03 0.  1.
       11    1    1    2    0    0 -0.11067459826E-01  0.10134205617E-01  0.31387420806E+00  0.31423314672E+00  0.51109989000E-03 0. -1.
     -623    1    1    2    0    0 -0.71226543808E-01 -0.25916466723E-01  0.13561485171E-01  0.17130001731E+03  0.17130000000E+03 0.  1.
      622    1    1    2    0    0  0.82294003633E-01  0.15782261105E-01  0.36725642741E+01  0.36857495480E+01  0.30000000000E+00 0. -1.
</event>
<event>
 5   0  0.5137000E+05  0.9118800E+02  0.7818608E-02  0.1180000E+00
       11   -1    0    0    0    0  0.00000000000E+00  0.00000000000E+00  0.39999999673E+01  0.40000000000E+01  0.51109989000E-03 0.  1.
     -623   -1    0    0    0    0  0.00000000000E+00  0.00000000000E+00  0.12525980253E-10  0.17130000000E+03  0.17130000000E+03 0. -1.
       11    1    1    2    0    0 -0.86794591376E-01 -0.71552628489E-01  0.52307398707E+00  0.53503246341E+00  0.51109989000E-03 0.  1.
     -623    1    1    2    0    0 -0.23432342232E-01  0.89465357712E-02  0.27302417284E-01  0.17130000401E+03  0.17130000000E+03 0. -1.
      622    1    1    2    0    0  0.11022693361E+00  0.62606092718E-01  0.34496235630E+01  0.34649635245E+01  0.30000000000E+00 0.  1.
</event>
<event>
 5   0  0.5137000E+05  0.9118800E+02  0.7818608E-02  0.1180000E+00
       11   -1    0    0    0    0  0.00000000000E+00  0.00000000000E+00  0.39999999673E+01  0.40000000000E+01  0.51109989000E-03 0.  1.
     -623   -1    0    0    0    0  0.00000000000E+00  0.00000000000E+00  0.12525980253E-10  0.17130000000E+03  0.17130000000E+03 0.  1.
       11    1    1    2    0    0  0.45563020160E-02  0.33136010055E-02  0.68709486225E-03  0.56985226723E-02  0.51109989000E-03 0.  1.
     -623    1    1    2    0    0 -0.14205034662E-01 -0.16581095292E-01  0.16329338272E-01  0.17130000217E+03  0.17130000000E+03 0.  1.
      622    1    1    2    0    0  0.96487326460E-02  0.13267494286E-01  0.39829835342E+01  0.39942993076E+01  0.30000000000E+00 0.  1.
</event>
<event>
 5   0  0.5137000E+05  0.9118800E+02  0.7818608E-02  0.1180000E+00
       11   -1    0    0    0    0  0.00000000000E+00  0.00000000000E+00  0.39999999673E+01  0.40000000000E+01  0.51109989000E-03 0.  1.
     -623   -1    0    0    0    0  0.00000000000E+00  0.00000000000E+00  0.12525980253E-10  0.17130000000E+03  0.17130000000E+03 0. -1.
       11    1    1    2    0    0  0.12701825608E-02  0.93957854509E-02  0.39391721796E-01  0.40519910103E-01  0.51109989000E-03 0.  1.
     -623    1    1    2    0    0 -0.25398314729E-01 -0.17431440610E-01  0.12594790249E-01  0.17130000323E+03  0.17130000000E+03 0. -1.
      622    1    1    2    0    0  0.24128132168E-01  0.80356551595E-02  0.39480134553E+01  0.39594768571E+01  0.30000000000E+00 0.  1.
</event>
<event>
 5   0  0.5137000E+05  0.9118800E+02  0.7818608E-02  0.1180000E+00
       11   -1    0    0    0    0  0.00000000000E+00  0.00000000000E+00  0.39999999673E+01  0.40000000000E+01  0.51109989000E-03 0. -1.
     -623   -1    0    0    0    0  0.00000000000E+00  0.00000000000E+00  0.12525980253E-10  0.17130000000E+03  0.17130000000E+03 0.  1.
       11    1    1    2    0    0 -0.10763264280E+00  0.14786600404E+00  0.11732263851E+01  0.11873961230E+01  0.51109989000E-03 0. -1.
     -623    1    1    2    0    0  0.31213554441E-01 -0.65953823384E-01  0.32478259894E-01  0.17130001862E+03  0.17130000000E+03 0.  1.
      622    1    1    2    0    0  0.76419088360E-01 -0.81912180661E-01  0.27942953224E+01  0.28125852575E+01  0.30000000000E+00 0.  0.
</event>
<event>
 5   0  0.5137000E+05  0.9118800E+02  0.7818608E-02  0.1180000E+00
       11   -1    0    0    0    0  0.00000000000E+00  0.00000000000E+00  0.39999999673E+01  0.40000000000E+01  0.51109989000E-03 0.  1.
     -623   -1    0    0    0    0  0.00000000000E+00  0.00000000000E+00  0.12525980253E-10  0.17130000000E+03  0.17130000000E+03 0. -1.
       11    1    1    2    0    0 -0.96116596318E-02  0.69691417788E-02  0.50013088205E-01  0.51405477849E-01  0.51109989000E-03 0.  1.
     -623    1    1    2    0    0  0.28138749322E-03 -0.35061068956E-01  0.12920673943E-01  0.17130000408E+03  0.17130000000E+03 0. -1.
      622    1    1    2    0    0  0.93302721386E-02  0.28091927177E-01  0.39370662052E+01  0.39485904466E+01  0.30000000000E+00 0.  1.
</event>
<event>
 5   0  0.5137000E+05  0.9118800E+02  0.7818608E-02  0.1180000E+00
       11   -1    0    0    0    0  0.00000000000E+00  0.00000000000E+00  0.39999999673E+01  0.40000000000E+01  0.51109989000E-03 0. -1.
     -623   -1    0    0    0    0  0.00000000000E+00  0.00000000000E+00  0.12525980253E-10  0.17130000000E+03  0.17130000000E+03 0.  1.
       11    1    1    2    0    0 -0.93180552677E-02 -0.40803138081E-02  0.15636760195E-01  0.18661313117E-01  0.51109989000E-03 0. -1.
     -623    1    1    2    0    0  0.17656543679E-01  0.12416772708E-01  0.14362818115E-01  0.17130000196E+03  0.17130000000E+03 0.  1.
      622    1    1    2    0    0 -0.83384884116E-02 -0.83364588998E-02  0.39700003890E+01  0.39813367248E+01  0.30000000000E+00 0. -1.
</event>
<event>
 5   0  0.5137000E+05  0.9118800E+02  0.7818608E-02  0.1180000E+00
       11   -1    0    0    0    0  0.00000000000E+00  0.00000000000E+00  0.39999999673E+01  0.40000000000E+01  0.51109989000E-03 0. -1.
     -623   -1    0    0    0    0  0.00000000000E+00  0.00000000000E+00  0.12525980253E-10  0.17130000000E+03  0.17130000000E+03 0. -1.
       11    1    1    2    0    0 -0.60922170229E-02  0.31393757569E-01  0.27440460014E+00  0.27626224665E+00  0.51109989000E-03 0. -1.
     -623    1    1    2    0    0  0.24424153742E-01  0.36775772761E-01  0.14639602910E-01  0.17130000631E+03  0.17130000000E+03 0. -1.
      622    1    1    2    0    0 -0.18331936719E-01 -0.68169530330E-01  0.37109557643E+01  0.37237314389E+01  0.30000000000E+00 0. -1.
</event>
<event>
 5   0  0.5137000E+05  0.9118800E+02  0.7818608E-02  0.1180000E+00
       11   -1    0    0    0    0  0.00000000000E+00  0.00000000000E+00  0.39999999673E+01  0.40000000000E+01  0.51109989000E-03 0.  1.
     -623   -1    0    0    0    0  0.00000000000E+00  0.00000000000E+00  0.12525980253E-10  0.17130000000E+03  0.17130000000E+03 0. -1.
       11    1    1    2    0    0  0.67652452532E-01 -0.85188310295E-02  0.12241563886E+00  0.14012592436E+00  0.51109989000E-03 0.  1.
     -623    1    1    2    0    0 -0.64256983886E-01 -0.87844290463E-01  0.30631970662E-01  0.17130003731E+03  0.17130000000E+03 0. -1.
      622    1    1    2    0    0 -0.33954686460E-02  0.96363121493E-01  0.38469523578E+01  0.38598367613E+01  0.30000000000E+00 0.  1.
</event>
<event>
 5   0  0.5137000E+05  0.9118800E+02  0.7818608E-02  0.1180000E+00
       11   -1    0    0    0    0  0.00000000000E+00  0.00000000000E+00  0.39999999673E+01  0.40000000000E+01  0.51109989000E-03 0. -1.
     -623   -1    0    0    0    0  0.00000000000E+00  0.00000000000E+00  0.12525980253E-10  0.17130000000E+03  0.17130000000E+03 0. -1.
       11    1    1    2    0    0  0.86320833630E-01 -0.26763017596E-01  0.11204240283E+01  0.11240630809E+01  0.51109989000E-03 0. -1.
     -623    1    1    2    0    0 -0.87210857345E-01  0.34131793805E-01  0.19365365397E-01  0.17130002670E+03  0.17130000000E+03 0. -1.
      622    1    1    2    0    0  0.89002371548E-03 -0.73687762093E-02  0.28602105737E+01  0.28759102240E+01  0.30000000000E+00 0. -1.
</event>
<event>
 5   0  0.5137000E+05  0.9118800E+02  0.7818608E-02  0.1180000E+00
       11   -1    0    0    0    0  0.00000000000E+00  0.00000000000E+00  0.39999999673E+01  0.40000000000E+01  0.51109989000E-03 0.  1.
     -623   -1    0    0    0    0  0.00000000000E+00  0.00000000000E+00  0.12525980253E-10  0.17130000000E+03  0.17130000000E+03 0.  1.
       11    1    1    2    0    0 -0.13584225033E-01  0.12149911212E-02  0.97416586423E-01  0.98367982121E-01  0.51109989000E-03 0.  1.
     -623    1    1    2    0    0  0.21947605762E-01  0.56285837818E-02  0.12519067900E-01  0.17130000196E+03  0.17130000000E+03 0.  1.
      622    1    1    2    0    0 -0.83633807292E-02 -0.68435749030E-02  0.38900643131E+01  0.39016300620E+01  0.30000000000E+00 0.  1.
</event>
<event>
 5   0  0.5137000E+05  0.9118800E+02  0.7818608E-02  0.1180000E+00
       11   -1    0    0    0    0  0.00000000000E+00  0.00000000000E+00  0.39999999673E+01  0.40000000000E+01  0.51109989000E-03 0. -1.
     -623   -1    0    0    0    0  0.00000000000E+00  0.00000000000E+00  0.12525980253E-10  0.17130000000E+03  0.17130000000E+03 0.  1.
       11    1    1    2    0    0 -0.31035850558E-01 -0.91606165608E-02  0.26750203428E+00  0.26945266835E+00  0.51109989000E-03 0. -1.
     -623    1    1    2    0    0 -0.34492505823E-01  0.54108333982E-01  0.14894588114E-01  0.17130001267E+03  0.17130000000E+03 0.  1.
      622    1    1    2    0    0  0.65528356381E-01 -0.44947717421E-01  0.37176033450E+01  0.37305346659E+01  0.30000000000E+00 0.  0.
</event>
<event>
 5   0  0.5137000E+05  0.9118800E+02  0.7818608E-02  0.1180000E+00
       11   -1    0    0    0    0  0.00000000000E+00  0.00000000000E+00  0.39999999673E+01  0.40000000000E+01  0.51109989000E-03 0. -1.
     -623   -1    0    0    0    0  0.00000000000E+00  0.00000000000E+00  0.12525980253E-10  0.17130000000E+03  0.17130000000E+03 0. -1.
       11    1    1    2    0    0 -0.51179103593E-02  0.10540541035E-01  0.40487737151E-01  0.42152272708E-01  0.51109989000E-03 0. -1.
     -623    1    1    2    0    0  0.20639447461E-01  0.11777432123E-01  0.13146486635E-01  0.17130000215E+03  0.17130000000E+03 0. -1.
      622    1    1    2    0    0 -0.15521537102E-01 -0.22317973158E-01  0.39463657436E+01  0.39578455746E+01  0.30000000000E+00 0. -1.
</event>
<event>
 5   0  0.5137000E+05  0.9118800E+02  0.7818608E-02  0.1180000E+00
       11   -1    0    0    0    0  0.00000000000E+00  0.00000000000E+00  0.39999999673E+01  0.40000000000E+01  0.51109989000E-03 0.  1.
     -623   -1    0    0    0    0  0.00000000000E+00  0.00000000000E+00  0.12525980253E-10  0.17130000000E+03  0.17130000000E+03 0.  1.
       11    1    1    2    0    0 -0.71834794376E-02  0.18718152395E-01  0.85915662698E-01  0.88225472086E-01  0.51109989000E-03 0.  1.
     -623    1    1    2    0    0 -0.16477132558E-01 -0.17270715753E-01  0.13904743250E-01  0.17130000223E+03  0.17130000000E+03 0.  1.
      622    1    1    2    0    0  0.23660611996E-01 -0.14474366422E-02  0.39001795614E+01  0.39117723005E+01  0.30000000000E+00 0.  1.
</event>
<event>
 5   0  0.5137000E+05  0.9118800E+02  0.7818608E-02  0.1180000E+00
       11   -1    0    0    0    0  0.00000000000E+00  0.00000000000E+00  0.39999999673E+01  0.40000000000E+01  0.51109989000E-03 0. -1.
     -623   -1    0    0    0    0  0.00000000000E+00  0.00000000000E+00  0.12525980253E-10  0.17130000000E+03  0.17130000000E+03 0. -1.
       11    1    1    2    0    0 -0.22847826102E-01  0.13992427785E-01  0.30914443846E-01  0.40911798473E-01  0.51109989000E-03 0. -1.
     -623    1    1    2    0    0  0.16739590582E-01  0.11816552775E-01  0.21471609431E-01  0.17130000257E+03  0.17130000000E+03 0. -1.
      622    1    1    2    0    0  0.61082355206E-02 -0.25808980561E-01  0.39476139141E+01  0.39590856304E+01  0.30000000000E+00 0. -1.
</event>
<event>
 5   0  0.5137000E+05  0.9118800E+02  0.7818608E-02  0.1180000E+00
       11   -1    0    0    0    0  0.00000000000E+00  0.00000000000E+00  0.39999999673E+01  0.40000000000E+01  0.51109989000E-03 0.  1.
     -623   -1    0    0    0    0  0.00000000000E+00  0.00000000000E+00  0.12525980253E-10  0.17130000000E+03  0.17130000000E+03 0. -1.
       11    1    1    2    0    0  0.23484675173E-01  0.45116313108E-02  0.23073609095E-01  0.33234582048E-01  0.51109989000E-03 0.  1.
     -623    1    1    2    0    0 -0.96456593387E-02 -0.16975231373E-01  0.21567787642E-01  0.17130000247E+03  0.17130000000E+03 0. -1.
      622    1    1    2    0    0 -0.13839015834E-01  0.12463600062E-01  0.39553585706E+01  0.39667629475E+01  0.30000000000E+00 0.  1.
</event>
<event>
 5   0  0.5137000E+05  0.9118800E+02  0.7818608E-02  0.1180000E+00
       11   -1    0    0    0    0  0.00000000000E+00  0.00000000000E+00  0.39999999673E+01  0.40000000000E+01  0.51109989000E-03 0. -1.
     -623   -1    0    0    0    0  0.00000000000E+00  0.00000000000E+00  0.12525980253E-10  0.17130000000E+03  0.17130000000E+03 0. -1.
       11    1    1    2    0    0  0.41669242960E-01 -0.16207075189E-01  0.23663372731E-01  0.50588650181E-01  0.51109989000E-03 0. -1.
     -623    1    1    2    0    0 -0.31134048441E-01  0.33585056955E-01  0.38398723469E-01  0.17130001043E+03  0.17130000000E+03 0. -1.
      622    1    1    2    0    0 -0.10535194519E-01 -0.17377981766E-01  0.39379378712E+01  0.39494009244E+01  0.30000000000E+00 0. -1.
</event>
<event>
 5   0  0.5137000E+05  0.9118800E+02  0.7818608E-02  0.1180000E+00
       11   -1    0    0    0    0  0.00000000000E+00  0.00000000000E+00  0.39999999673E+01  0.40000000000E+01  0.51109989000E-03 0.  1.
     -623   -1    0    0    0    0  0.00000000000E+00  0.00000000000E+00  0.12525980253E-10  0.17130000000E+03  0.17130000000E+03 0. -1.
       11    1    1    2    0    0  0.15719050395E-02  0.26687735503E-02 -0.38231866039E-02  0.49468390535E-02  0.51109989000E-03 0.  1.
     -623    1    1    2    0    0  0.21858408306E-01  0.60126073966E-01  0.20626923747E-01  0.17130001319E+03  0.17130000000E+03 0. -1.
      622    1    1    2    0    0 -0.23430313345E-01 -0.62794847516E-01  0.39831962302E+01  0.39950399724E+01  0.30000000000E+00 0.  1.
</event>
<event>
 5   0  0.5137000E+05  0.9118800E+02  0.7818608E-02  0.1180000E+00
       11   -1    0    0    0    0  0.00000000000E+00  0.00000000000E+00  0.39999999673E+01  0.40000000000E+01  0.51109989000E-03 0. -1.
     -623   -1    0    0    0    0  0.00000000000E+00  0.00000000000E+00  0.12525980253E-10  0.17130000000E+03  0.17130000000E+03 0. -1.
       11    1    1    2    0    0  0.55498968383E-01 -0.40202381715E-01  0.30319869843E+00  0.31084735634E+00  0.51109989000E-03 0. -1.
     -623    1    1    2    0    0 -0.49437412923E-01  0.51245512922E-02  0.20047513927E-01  0.17130000838E+03  0.17130000000E+03 0. -1.
      622    1    1    2    0    0 -0.60615554610E-02  0.35077830422E-01  0.36767537550E+01  0.36891442601E+01  0.30000000000E+00 0. -1.
</event>
<event>
 5   0  0.5137000E+05  0.9118800E+02  0.7818608E-02  0.1180000E+00
       11   -1    0    0    0    0  0.00000000000E+00  0.00000000000E+00  0.39999999673E+01  0.40000000000E+01  0.51109989000E-03 0.  1.
     -623   -1    0    0    0    0  0.00000000000E+00  0.00000000000E+00  0.12525980253E-10  0.17130000000E+03  0.17130000000E+03 0. -1.
       11    1    1    2    0    0  0.14689396681E-01 -0.44734909785E-01  0.96260245555E-01  0.10716009810E+00  0.51109989000E-03 0.  1.
     -623    1    1    2    0    0 -0.36740508112E-02  0.28105796039E-01  0.22531811750E-01  0.17130000383E+03  0.17130000000E+03 0. -1.
      622    1    1    2    0    0 -0.11015345869E-01  0.16629113746E-01  0.38812079101E+01  0.38928360749E+01  0.30000000000E+00 0.  1.
</event>
<event>
 5   0  0.5137000E+05  0.9118800E+02  0.7818608E-02  0.1180000E+00
       11   -1    0    0    0    0  0.00000000000E+00  0.00000000000E+00  0.39999999673E+01  0.40000000000E+01  0.51109989000E-03 0.  1.
     -623   -1    0    0    0    0  0.00000000000E+00  0.00000000000E+00  0.12525980253E-10  0.17130000000E+03  0.17130000000E+03 0.  1.
       11    1    1    2    0    0  0.53394560206E-02  0.93116771320E-03  0.37856620202E+00  0.37860534518E+00  0.51109989000E-03 0.  1.
     -623    1    1    2    0    0  0.63165525043E-01 -0.92110666616E-01  0.14326259184E-01  0.17130003701E+03  0.17130000000E+03 0.  1.
      622    1    1    2    0    0 -0.68504981063E-01  0.91179498903E-01  0.36071075062E+01  0.36213576452E+01  0.30000000000E+00 0.  1.
</event>
<event>
 5   0  0.5137000E+05  0.9118800E+02  0.7818608E-02  0.1180000E+00
       11   -1    0    0    0    0  0.00000000000E+00  0.00000000000E+00  0.39999999673E+01  0.40000000000E+01  0.51109989000E-03 0. -1.
     -623   -1    0    0    0    0  0.00000000000E+00  0.00000000000E+00  0.12525980253E-10  0.17130000000E+03  0.17130000000E+03 0.  1.
       11    1    1    2    0    0 -0.14207740573E+00  0.22238784848E-02  0.33660048813E+00  0.36536431775E+00  0.51109989000E-03 0. -1.
     -623    1    1    2    0    0 -0.38300872671E-01  0.33241536853E-01  0.45847371457E-01  0.17130001364E+03  0.17130000000E+03 0.  1.
      622    1    1    2    0    0  0.18037827840E+00 -0.35465415338E-01  0.36175521078E+01  0.36346220397E+01  0.30000000000E+00 0. -1.
</event>
<event>
 5   0  0.5137000E+05  0.9118800E+02  0.7818608E-02  0.1180000E+00
       11   -1    0    0    0    0  0.00000000000E+00  0.00000000000E+00  0.39999999673E+01  0.40000000000E+01  0.51109989000E-03 0.  1.
     -623   -1    0    0    0    0  0.00000000000E+00  0.00000000000E+00  0.12525980253E-10  0.17130000000E+03  0.17130000000E+03 0.  1.
       11    1    1    2    0    0 -0.48590165178E-01  0.58468702885E-01  0.39368110820E-01  0.85613683145E-01  0.51109989000E-03 0.  1.
     -623    1    1    2    0    0  0.26397692127E-01 -0.74350323890E-02  0.58167405157E-01  0.17130001207E+03  0.17130000000E+03 0.  1.
      622    1    1    2    0    0  0.22192473051E-01 -0.51033670496E-01  0.39024644514E+01  0.39143742457E+01  0.30000000000E+00 0.  1.
</event>
<event>
 5   0  0.5137000E+05  0.9118800E+02  0.7818608E-02  0.1180000E+00
       11   -1    0    0    0    0  0.00000000000E+00  0.00000000000E+00  0.39999999673E+01  0.40000000000E+01  0.51109989000E-03 0. -1.
     -623   -1    0    0    0    0  0.00000000000E+00  0.00000000000E+00  0.12525980253E-10  0.17130000000E+03  0.17130000000E+03 0.  1.
       11    1    1    2    0    0 -0.17435979537E-01 -0.95198718825E-02  0.33859075547E-01  0.39259897645E-01  0.51109989000E-03 0. -1.
     -623    1    1    2    0    0  0.15089873470E-01 -0.83695897998E-02  0.16821558793E-01  0.17130000170E+03  0.17130000000E+03 0.  1.
      622    1    1    2    0    0  0.23461060670E-02  0.17889461682E-01  0.39493193330E+01  0.39607384073E+01  0.30000000000E+00 0. -1.
</event>
<event>
 5   0  0.5137000E+05  0.9118800E+02  0.7818608E-02  0.1180000E+00
       11   -1    0    0    0    0  0.00000000000E+00  0.00000000000E+00  0.39999999673E+01  0.40000000000E+01  0.51109989000E-03 0. -1.
     -623   -1    0    0    0    0  0.00000000000E+00  0.00000000000E+00  0.12525980253E-10  0.17130000000E+03  0.17130000000E+03 0. -1.
       11    1    1    2    0    0  0.45450307585E-01 -0.19487366676E-01  0.37899903112E+00  0.38221200234E+00  0.51109989000E-03 0. -1.
     -623    1    1    2    0    0 -0.58953632107E-01 -0.25103806957E-01  0.15986765042E-01  0.17130001273E+03  0.17130000000E+03 0. -1.
      622    1    1    2    0    0  0.13503324521E-01  0.44591173633E-01  0.36050141712E+01  0.36177752676E+01  0.30000000000E+00 0. -1.
</event>
<event>
 5   0  0.5137000E+05  0.9118800E+02  0.7818608E-02  0.1180000E+00
       11   -1    0    0    0    0  0.00000000000E+00  0.00000000000E+00  0.39999999673E+01  0.40000000000E+01  0.51109989000E-03 0. -1.
     -623   -1    0    0    0    0  0.00000000000E+00  0.00000000000E+00  0.12525980253E-10  0.17130000000E+03  0.17130000000E+03 0. -1.
       11    1    1    2    0    0  0.13618563430E-01 -0.99893574368E-02 -0.21285895232E-02  0.17030697236E-01  0.51109989000E-03 0. -1.
     -623    1    1    2    0    0 -0.13228144726E-01 -0.10148000781E-01  0.30528039633E-01  0.17130000353E+03  0.17130000000E+03 0. -1.
      622    1    1    2    0    0 -0.39041870382E-03  0.20137358218E-01  0.39716005172E+01  0.39829657712E+01  0.30000000000E+00 0. -1.
</event>
<event>
 5   0  0.5137000E+05  0.9118800E+02  0.7818608E-02  0.1180000E+00
       11   -1    0    0    0    0  0.00000000000E+00  0.00000000000E+00  0.39999999673E+01  0.40000000000E+01  0.51109989000E-03 0.  1.
     -623   -1    0    0    0    0  0.00000000000E+00  0.00000000000E+00  0.12525980253E-10  0.17130000000E+03  0.17130000000E+03 0.  1.
       11    1    1    2    0    0  0.15784529124E-01  0.51739559941E-03  0.18021767800E+00  0.18090907037E+00  0.51109989000E-03 0.  1.
     -623    1    1    2    0    0 -0.35518141312E-02  0.45314357924E-01  0.12794552438E-01  0.17130000651E+03  0.17130000000E+03 0.  1.
      622    1    1    2    0    0 -0.12232714993E-01 -0.45831753523E-01  0.38069877369E+01  0.38190844214E+01  0.30000000000E+00 0.  1.
</event>
<event>
 5   0  0.5137000E+05  0.9118800E+02  0.7818608E-02  0.1180000E+00
       11   -1    0    0    0    0  0.00000000000E+00  0.00000000000E+00  0.39999999673E+01  0.40000000000E+01  0.51109989000E-03 0.  1.
     -623   -1    0    0    0    0  0.00000000000E+00  0.00000000000E+00  0.12525980253E-10  0.17130000000E+03  0.17130000000E+03 0. -1.
       11    1    1    2    0    0 -0.12111255556E-01  0.23248251744E-01  0.88053756800E-01  0.91874311045E-01  0.51109989000E-03 0.  1.
     -623    1    1    2    0    0  0.53322036132E-02 -0.22441007315E-02  0.15415306570E-01  0.17130000079E+03  0.17130000000E+03 0. -1.
      622    1    1    2    0    0  0.67790519429E-02 -0.21004151013E-01  0.38965309040E+01  0.39081248977E+01  0.30000000000E+00 0.  1.
</event>
<event>
 5   0  0.5137000E+05  0.9118800E+02  0.7818608E-02  0.1180000E+00
       11   -1    0    0    0    0  0.00000000000E+00  0.00000000000E+00  0.39999999673E+01  0.40000000000E+01  0.51109989000E-03 0.  1.
     -623   -1    0    0    0    0  0.00000000000E+00  0.00000000000E+00  0.12525980253E-10  0.17130000000E+03  0.17130000000E+03 0. -1.
       11    1    1    2    0    0  0.41833860560E-02  0.65966195106E-03  0.75296677891E-02  0.86540737194E-02  0.51109989000E-03 0.  1.
     -623    1    1    2    0    0 -0.14108372351E-01  0.14226839990E-01  0.12456578411E-01  0.17130000162E+03  0.17130000000E+03 0. -1.
      622    1    1    2    0    0  0.99249862947E-02 -0.14886501941E-01  0.39800137212E+01  0.39913443016E+01  0.30000000000E+00 0.  1.
</event>
<event>
 5   0  0.5137000E+05  0.9118800E+02  0.7818608E-02  0.1180000E+00
       11   -1    0    0    0    0  0.00000000000E+00  0.00000000000E+00  0.39999999673E+01  0.40000000000E+01  0.51109989000E-03 0.  1.
     -623   -1    0    0    0    0  0.00000000000E+00  0.00000000000E+00  0.12525980253E-10  0.17130000000E+03  0.17130000000E+03 0.  1.
       11    1    1    2    0    0  0.18330019934E-01  0.16116009577E-01  0.18718697660E-01  0.30763066503E-01  0.51109989000E-03 0.  1.
     -623    1    1    2    0    0 -0.14107846000E-01 -0.15198921287E-01  0.23402985693E-01  0.17130000285E+03  0.17130000000E+03 0.  1.
      622    1    1    2    0    0 -0.42221739338E-02 -0.91708829020E-03  0.39578782840E+01  0.39692340796E+01  0.30000000000E+00 0.  1.
</event>
<event>
 5   0  0.5137000E+05  0.9118800E+02  0.7818608E-02  0.1180000E+00
       11   -1    0    0    0    0  0.00000000000E+00  0.00000000000E+00  0.39999999673E+01  0.40000000000E+01  0.51109989000E-03 0.  1.
     -623   -1    0    0    0    0  0.00000000000E+00  0.00000000000E+00  0.12525980253E-10  0.17130000000E+03  0.17130000000E+03 0. -1.
       11    1    1    2    0    0  0.11417302301E-01  0.43330557295E-02  0.91236215373E-02  0.15252273726E-01  0.51109989000E-03 0.  1.
     -623    1    1    2    0    0 -0.20893520657E-01  0.15937335373E-01  0.17503651937E-01  0.17130000291E+03  0.17130000000E+03 0. -1.
      622    1    1    2    0    0  0.94762183561E-02 -0.20270391102E-01  0.39733726939E+01  0.39847448164E+01  0.30000000000E+00 0.  1.
</event>
<event>
 5   0  0.5137000E+05  0.9118800E+02  0.7818608E-02  0.1180000E+00
       11   -1    0    0    0    0  0.00000000000E+00  0.00000000000E+00  0.39999999673E+01  0.40000000000E+01  0.51109989000E-03 0.  1.
     -623   -1    0    0    0    0  0.00000000000E+00  0.00000000000E+00  0.12525980253E-10  0.17130000000E+03  0.17130000000E+03 0. -1.
       11    1    1    2    0    0  0.30530511808E-01  0.35781462185E-01  0.63811784460E+00  0.63984925569E+00  0.51109989000E-03 0.  1.
     -623    1    1    2    0    0  0.62106881735E-02 -0.27325856789E-02  0.15516145327E-01  0.17130000084E+03  0.17130000000E+03 0. -1.
      622    1    1    2    0    0 -0.36741199981E-01 -0.33048876506E-01  0.33463659774E+01  0.33601499072E+01  0.30000000000E+00 0.  1.
</event>
<event>
 5   0  0.5137000E+05  0.9118800E+02  0.7818608E-02  0.1180000E+00
       11   -1    0    0    0    0  0.00000000000E+00  0.00000000000E+00  0.39999999673E+01  0.40000000000E+01  0.51109989000E-03 0. -1.
     -623   -1    0    0    0    0  0.00000000000E+00  0.00000000000E+00  0.12525980253E-10  0.17130000000E+03  0.17130000000E+03 0. -1.
       11    1    1    2    0    0 -0.47897214357E-02  0.11764053092E-01  0.30576561053E-02  0.13074588351E-01  0.51109989000E-03 0. -1.
     -623    1    1    2    0    0  0.30139581093E-02 -0.10484074686E-01  0.21322096071E-01  0.17130000167E+03  0.17130000000E+03 0. -1.
      622    1    1    2    0    0  0.17757633264E-02 -0.12799784058E-02  0.39756202152E+01  0.39869237373E+01  0.30000000000E+00 0. -1.
</event>
<event>
 5   0  0.5137000E+05  0.9118800E+02  0.7818608E-02  0.1180000E+00
       11   -1    0    0    0    0  0.00000000000E+00  0.00000000000E+00  0.39999999673E+01  0.40000000000E+01  0.51109989000E-03 0. -1.
     -623   -1    0    0    0    0  0.00000000000E+00  0.00000000000E+00  0.12525980253E-10  0.17130000000E+03  0.17130000000E+03 0. -1.
       11    1    1    2    0    0  0.46710498670E-02 -0.43723225893E-02  0.11004239583E-01  0.12739325808E-01  0.51109989000E-03 0. -1.
     -623    1    1    2    0    0 -0.21057737016E-01 -0.18883141267E-01  0.13141643089E-01  0.17130000284E+03  0.17130000000E+03 0. -1.
      622    1    1    2    0    0  0.16386687149E-01  0.23255463856E-01  0.39758540847E+01  0.39872578350E+01  0.30000000000E+00 0. -1.
</event>
<event>
 5   0  0.5137000E+05  0.9118800E+02  0.7818608E-02  0.1180000E+00
       11   -1    0    0    0    0  0.00000000000E+00  0.00000000000E+00  0.39999999673E+01  0.40000000000E+01  0.51109989000E-03 0. -1.
     -623   -1    0    0    0    0  0.00000000000E+00  0.00000000000E+00  0.12525980253E-10  0.17130000000E+03  0.17130000000E+03 0. -1.
       11    1    1    2    0    0 -0.66204371475E-02  0.34495490630E-02  0.35854146416E-02  0.82973488544E-02  0.51109989000E-03 0. -1.
     -623    1    1    2    0    0  0.16262480047E-02 -0.39167402573E-02  0.16005213648E-01  0.17130000080E+03  0.17130000000E+03 0. -1.
      622    1    1    2    0    0  0.49941891428E-02  0.46719119432E-03  0.39804093391E+01  0.39917018510E+01  0.30000000000E+00 0. -1.
</event>
<event>
 5   0  0.5137000E+05  0.9118800E+02  0.7818608E-02  0.1180000E+00
       11   -1    0    0    0    0  0.00000000000E+00  0.00000000000E+00  0.39999999673E+01  0.40000000000E+01  0.51109989000E-03 0. -1.
     -623   -1    0    0    0    0  0.00000000000E+00  0.00000000000E+00  0.12525980253E-10  0.17130000000E+03  0.17130000000E+03 0. -1.
       11    1    1    2    0    0  0.42182352140E-01 -0.34246586114E-01  0.42978449274E+00  0.43320566815E+00  0.51109989000E-03 0. -1.
     -623    1    1    2    0    0 -0.47171953341E-01  0.19973599069E-01  0.16100513852E-01  0.17130000842E+03  0.17130000000E+03 0. -1.
      622    1    1    2    0    0  0.49896012009E-02  0.14272987045E-01  0.35541149608E+01  0.35667859157E+01  0.30000000000E+00 0. -1.
</event>
<event>
 5   0  0.5137000E+05  0.9118800E+02  0.7818608E-02  0.1180000E+00
       11   -1    0    0    0    0  0.00000000000E+00  0.00000000000E+00  0.39999999673E+01  0.40000000000E+01  0.51109989000E-03 0.  1.
     -623   -1    0    0    0    0  0.00000000000E+00  0.00000000000E+00  0.12525980253E-10  0.17130000000E+03  0.17130000000E+03 0.  1.
       11    1    1    2    0    0 -0.27292237982E-01  0.82431206643E-02  0.12083164148E+00  0.12415056222E+00  0.51109989000E-03 0.  1.
     -623    1    1    2    0    0  0.15314199165E-01  0.30466070126E-02  0.14983115876E-01  0.17130000137E+03  0.17130000000E+03 0.  1.
      622    1    1    2    0    0  0.11978038818E-01 -0.11289727677E-01  0.38641852100E+01  0.38758480709E+01  0.30000000000E+00 0.  1.
</event>
<event>
 5   0  0.5137000E+05  0.9118800E+02  0.7818608E-02  0.1180000E+00
       11   -1    0    0    0    0  0.00000000000E+00  0.00000000000E+00  0.39999999673E+01  0.40000000000E+01  0.51109989000E-03 0.  1.
     -623   -1    0    0    0    0  0.00000000000E+00  0.00000000000E+00  0.12525980253E-10  0.17130000000E+03  0.17130000000E+03 0.  1.
       11    1    1    2    0    0  0.34757869323E-01  0.19169813824E-01  0.34723193597E-01  0.52740426986E-01  0.51109989000E-03 0.  1.
     -623    1    1    2    0    0 -0.23104018349E-01 -0.11763824786E-01  0.29462755770E-01  0.17130000450E+03  0.17130000000E+03 0.  1.
      622    1    1    2    0    0 -0.11653850974E-01 -0.74059890382E-02  0.39358140180E+01  0.39472550773E+01  0.30000000000E+00 0.  1.
</event>
<event>
 5   0  0.5137000E+05  0.9118800E+02  0.7818608E-02  0.1180000E+00
       11   -1    0    0    0    0  0.00000000000E+00  0.00000000000E+00  0.39999999673E+01  0.40000000000E+01  0.51109989000E-03 0.  1.
     -623   -1    0    0    0    0  0.00000000000E+00  0.00000000000E+00  0.12525980253E-10  0.17130000000E+03  0.17130000000E+03 0.  1.
       11    1    1    2    0    0  0.94585839869E-01  0.64820115408E-01  0.90321627653E-01  0.14596707201E+00  0.51109989000E-03 0.  1.
     -623    1    1    2    0    0  0.11330555869E+00  0.40343404911E-01  0.74467603891E-01  0.17130005841E+03  0.17130000000E+03 0.  1.
      622    1    1    2    0    0 -0.20789139856E+00 -0.10516352032E+00  0.38352107358E+01  0.38539745183E+01  0.30000000000E+00 0.  1.
</event>
<event>
 5   0  0.5137000E+05  0.9118800E+02  0.7818608E-02  0.1180000E+00
       11   -1    0    0    0    0  0.00000000000E+00  0.00000000000E+00  0.39999999673E+01  0.40000000000E+01  0.51109989000E-03 0. -1.
     -623   -1    0    0    0    0  0.00000000000E+00  0.00000000000E+00  0.12525980253E-10  0.17130000000E+03  0.17130000000E+03 0. -1.
       11    1    1    2    0    0 -0.49892093988E-01  0.27634146419E-01  0.21454073191E-01  0.60937718782E-01  0.51109989000E-03 0. -1.
     -623    1    1    2    0    0 -0.40093900672E-01  0.30514284052E-02  0.52087820595E-01  0.17130001264E+03  0.17130000000E+03 0. -1.
      622    1    1    2    0    0  0.89985994660E-01 -0.30685574824E-01  0.39264580736E+01  0.39390496427E+01  0.30000000000E+00 0. -1.
</event>
<event>
 5   0  0.5137000E+05  0.9118800E+02  0.7818608E-02  0.1180000E+00
       11   -1    0    0    0    0  0.00000000000E+00  0.00000000000E+00  0.39999999673E+01  0.40000000000E+01  0.51109989000E-03 0.  1.
     -623   -1    0    0    0    0  0.00000000000E+00  0.00000000000E+00  0.12525980253E-10  0.17130000000E+03  0.17130000000E+03 0. -1.
       11    1    1    2    0    0  0.48629189736E-02 -0.44134790442E-03 -0.20401011943E-02  0.53165783073E-02  0.51109989000E-03 0.  1.
     -623    1    1    2    0    0 -0.13236525001E-01 -0.40682083140E-02  0.18650481420E-01  0.17130000158E+03  0.17130000000E+03 0. -1.
      622    1    1    2    0    0  0.83736060274E-02  0.45095562185E-02  0.39833895871E+01  0.39946818467E+01  0.30000000000E+00 0.  1.
</event>
<event>
 5   0  0.5137000E+05  0.9118800E+02  0.7818608E-02  0.1180000E+00
       11   -1    0    0    0    0  0.00000000000E+00  0.00000000000E+00  0.39999999673E+01  0.40000000000E+01  0.51109989000E-03 0. -1.
     -623   -1    0    0    0    0  0.00000000000E+00  0.00000000000E+00  0.12525980253E-10  0.17130000000E+03  0.17130000000E+03 0.  1.
       11    1    1    2    0    0  0.23844920267E-01  0.81785749727E-01  0.11051543810E+01  0.11084331086E+01  0.51109989000E-03 0. -1.
     -623    1    1    2    0    0 -0.96136267540E-03 -0.21869590113E-01  0.19601090687E-01  0.17130000252E+03  0.17130000000E+03 0.  1.
      622    1    1    2    0    0 -0.22883557591E-01 -0.59916159614E-01  0.28752444957E+01  0.28915643713E+01  0.30000000000E+00 0.  0.
</event>
<event>
 5   0  0.5137000E+05  0.9118800E+02  0.7818608E-02  0.1180000E+00
       11   -1    0    0    0    0  0.00000000000E+00  0.00000000000E+00  0.39999999673E+01  0.40000000000E+01  0.51109989000E-03 0. -1.
     -623   -1    0    0    0    0  0.00000000000E+00  0.00000000000E+00  0.12525980253E-10  0.17130000000E+03  0.17130000000E+03 0.  1.
       11    1    1    2    0    0 -0.88453480706E-02  0.27979002092E-02  0.83661927873E-02  0.12502912895E-01  0.51109989000E-03 0. -1.
     -623    1    1    2    0    0  0.12879903899E-01 -0.26829929279E-01  0.15515946648E-01  0.17130000329E+03  0.17130000000E+03 0.  1.
      622    1    1    2    0    0 -0.40345558284E-02  0.24032029070E-01  0.39761178279E+01  0.39874937991E+01  0.30000000000E+00 0. -1.
</event>
<event>
 5   0  0.5137000E+05  0.9118800E+02  0.7818608E-02  0.1180000E+00
       11   -1    0    0    0    0  0.00000000000E+00  0.00000000000E+00  0.39999999673E+01  0.40000000000E+01  0.51109989000E-03 0. -1.
     -623   -1    0    0    0    0  0.00000000000E+00  0.00000000000E+00  0.12525980253E-10  0.17130000000E+03  0.17130000000E+03 0.  1.
       11    1    1    2    0    0 -0.42130691610E-01 -0.47714383370E-01  0.10244092447E+01  0.10263850250E+01  0.51109989000E-03 0. -1.
     -623    1    1    2    0    0  0.18608782780E-01 -0.49300845603E-02  0.17711512638E-01  0.17130000200E+03  0.17130000000E+03 0.  1.
      622    1    1    2    0    0  0.23521908830E-01  0.52644467931E-01  0.29578792100E+01  0.29736129777E+01  0.30000000000E+00 0.  0.
</event>
<event>
 5   0  0.5137000E+05  0.9118800E+02  0.7818608E-02  0.1180000E+00
       11   -1    0    0    0    0  0.00000000000E+00  0.00000000000E+00  0.39999999673E+01  0.40000000000E+01  0.51109989000E-03 0. -1.
     -623   -1    0    0    0    0  0.00000000000E+00  0.00000000000E+00  0.12525980253E-10  0.17130000000E+03  0.17130000000E+03 0. -1.
       11    1    1    2    0    0  0.29208781315E-02 -0.65434297342E-01  0.36144300896E+00  0.36733021758E+00  0.51109989000E-03 0. -1.
     -623    1    1    2    0    0  0.12255287045E-02  0.30166972880E-01  0.18473782119E-01  0.17130000366E+03  0.17130000000E+03 0. -1.
      622    1    1    2    0    0 -0.41464068360E-02  0.35267324462E-01  0.36200831763E+01  0.36326661256E+01  0.30000000000E+00 0.  0.
</event>
<event>
 5   0  0.5137000E+05  0.9118800E+02  0.7818608E-02  0.1180000E+00
       11   -1    0    0    0    0  0.00000000000E+00  0.00000000000E+00  0.39999999673E+01  0.40000000000E+01  0.51109989000E-03 0.  1.
     -623   -1    0    0    0    0  0.00000000000E+00  0.00000000000E+00  0.12525980253E-10  0.17130000000E+03  0.17130000000E+03 0.  1.
       11    1    1    2    0    0  0.95102491863E-01  0.19985838244E-01  0.31602233999E+00  0.33062712878E+00  0.51109989000E-03 0.  1.
     -623    1    1    2    0    0 -0.18364130677E+00 -0.17856038271E-01  0.28063579553E-01  0.17130010167E+03  0.17130000000E+03 0.  1.
      622    1    1    2    0    0  0.88538814906E-01 -0.21297999722E-02  0.36559140478E+01  0.36692712060E+01  0.30000000000E+00 0.  1.
</event>
<event>
 5   0  0.5137000E+05  0.9118800E+02  0.7818608E-02  0.1180000E+00
       11   -1    0    0    0    0  0.00000000000E+00  0.00000000000E+00  0.39999999673E+01  0.40000000000E+01  0.51109989000E-03 0. -1.
     -623   -1    0    0    0    0  0.00000000000E+00  0.00000000000E+00  0.12525980253E-10  0.17130000000E+03  0.17130000000E+03 0.  1.
       11    1    1    2    0    0  0.28162860800E-01 -0.21619417473E-01  0.43158070372E+00  0.43303892548E+00  0.51109989000E-03 0. -1.
     -623    1    1    2    0    0 -0.11555167111E-01  0.65936117700E-01  0.14425189416E-01  0.17130001369E+03  0.17130000000E+03 0.  1.
      622    1    1    2    0    0 -0.16607693689E-01 -0.44316700227E-01  0.35539940742E+01  0.35669473875E+01  0.30000000000E+00 0. -1.
</event>
<event>
 5   0  0.5137000E+05  0.9118800E+02  0.7818608E-02  0.1180000E+00
       11   -1    0    0    0    0  0.00000000000E+00  0.00000000000E+00  0.39999999673E+01  0.40000000000E+01  0.51109989000E-03 0.  1.
     -623   -1    0    0    0    0  0.00000000000E+00  0.00000000000E+00  0.12525980253E-10  0.17130000000E+03  0.17130000000E+03 0. -1.
       11    1    1    2    0    0 -0.33159789133E-02  0.18254817340E-01  0.14322975565E-01  0.23444464686E-01  0.51109989000E-03 0.  1.
     -623    1    1    2    0    0  0.14375813386E-01 -0.22204820731E-01  0.20474597437E-01  0.17130000327E+03  0.17130000000E+03 0. -1.
      622    1    1    2    0    0 -0.11059834473E-01  0.39500033908E-02  0.39652023943E+01  0.39765522693E+01  0.30000000000E+00 0.  1.
</event>
<event>
 5   0  0.5137000E+05  0.9118800E+02  0.7818608E-02  0.1180000E+00
       11   -1    0    0    0    0  0.00000000000E+00  0.00000000000E+00  0.39999999673E+01  0.40000000000E+01  0.51109989000E-03 0.  1.
     -623   -1    0    0    0    0  0.00000000000E+00  0.00000000000E+00  0.12525980253E-10  0.17130000000E+03  0.17130000000E+03 0.  1.
       11    1    1    2    0    0 -0.65238823746E-02 -0.10692898090E-01  0.88736393265E-02  0.15359095312E-01  0.51109989000E-03 0.  1.
     -623    1    1    2    0    0  0.25589731937E-01 -0.23211865824E-03  0.17858450747E-01  0.17130000284E+03  0.17130000000E+03 0.  1.
      622    1    1    2    0    0 -0.19065849562E-01  0.10925016748E-01  0.39732678773E+01  0.39846380623E+01  0.30000000000E+00 0.  1.
</event>
<event>
 5   0  0.5137000E+05  0.9118800E+02  0.7818608E-02  0.1180000E+00
       11   -1    0    0    0    0  0.00000000000E+00  0.00000000000E+00  0.39999999673E+01  0.40000000000E+01  0.51109989000E-03 0.  1.
     -623   -1    0    0    0    0  0.00000000000E+00  0.00000000000E+00  0.12525980253E-10  0.17130000000E+03  0.17130000000E+03 0.  1.
       11    1    1    2    0    0  0.10277451323E-01 -0.31954493936E-01  0.26859826461E-01  0.42993338868E-01  0.51109989000E-03 0.  1.
     -623    1    1    2    0    0  0.24494356040E-01  0.44056575793E-02  0.27775573400E-01  0.17130000406E+03  0.17130000000E+03 0.  1.
      622    1    1    2    0    0 -0.34771807363E-01  0.27548836357E-01  0.39453645675E+01  0.39570026014E+01  0.30000000000E+00 0.  1.
</event>
<event>
 5   0  0.5137000E+05  0.9118800E+02  0.7818608E-02  0.1180000E+00
       11   -1    0    0    0    0  0.00000000000E+00  0.00000000000E+00  0.39999999673E+01  0.40000000000E+01  0.51109989000E-03 0. -1.
     -623   -1    0    0    0    0  0.00000000000E+00  0.00000000000E+00  0.12525980253E-10  0.17130000000E+03  0.17130000000E+03 0.  1.
       11    1    1    2    0    0 -0.11455853032E-01 -0.27480503176E-01  0.22070417333E+00  0.22270385711E+00  0.51109989000E-03 0. -1.
     -623    1    1    2    0    0  0.82506222929E-02  0.56134863695E-02  0.13997506397E-01  0.17130000086E+03  0.17130000000E+03 0.  1.
      622    1    1    2    0    0  0.32052307386E-02  0.21867016807E-01  0.37652982877E+01  0.37772952803E+01  0.30000000000E+00 0. -1.
</event>
<event>
 5   0  0.5137000E+05  0.9118800E+02  0.7818608E-02  0.1180000E+00
       11   -1    0    0    0    0  0.00000000000E+00  0.00000000000E+00  0.39999999673E+01  0.40000000000E+01  0.51109989000E-03 0. -1.
     -623   -1    0    0    0    0  0.00000000000E+00  0.00000000000E+00  0.12525980253E-10  0.17130000000E+03  0.17130000000E+03 0.  1.
       11    1    1    2    0    0  0.39433458858E-01  0.30928926707E-04  0.78193429712E-01  0.87575523444E-01  0.51109989000E-03 0. -1.
     -623    1    1    2    0    0 -0.14905776988E-01 -0.30820878967E-01  0.21104201708E-01  0.17130000472E+03  0.17130000000E+03 0.  1.
      622    1    1    2    0    0 -0.24527681871E-01  0.30789950040E-01  0.39007023359E+01  0.39124197553E+01  0.30000000000E+00 0. -1.
</event>
<event>
 5   0  0.5137000E+05  0.9118800E+02  0.7818608E-02  0.1180000E+00
       11   -1    0    0    0    0  0.00000000000E+00  0.00000000000E+00  0.39999999673E+01  0.40000000000E+01  0.51109989000E-03 0.  1.
     -623   -1    0    0    0    0  0.00000000000E+00  0.00000000000E+00  0.12525980253E-10  0.17130000000E+03  0.17130000000E+03 0.  1.
       11    1    1    2    0    0  0.45571844091E-01 -0.98984023594E-02  0.20080081306E+00  0.20614557742E+00  0.51109989000E-03 0.  1.
     -623    1    1    2    0    0 -0.19466710976E-01 -0.24590376644E-01  0.17475753925E-01  0.17130000376E+03  0.17130000000E+03 0.  1.
      622    1    1    2    0    0 -0.26105133115E-01  0.34488779003E-01  0.37817234004E+01  0.37938506601E+01  0.30000000000E+00 0.  1.
</event>
<event>
 5   0  0.5137000E+05  0.9118800E+02  0.7818608E-02  0.1180000E+00
       11   -1    0    0    0    0  0.00000000000E+00  0.00000000000E+00  0.39999999673E+01  0.40000000000E+01  0.51109989000E-03 0. -1.
     -623   -1    0    0    0    0  0.00000000000E+00  0.00000000000E+00  0.12525980253E-10  0.17130000000E+03  0.17130000000E+03 0.  1.
       11    1    1    2    0    0  0.12859817403E-01 -0.94858957575E-01  0.37285882411E+00  0.38495137443E+00  0.51109989000E-03 0. -1.
     -623    1    1    2    0    0 -0.18996064441E-01  0.67528996641E-02  0.25647873170E-01  0.17130000311E+03  0.17130000000E+03 0.  1.
      622    1    1    2    0    0  0.61362470378E-02  0.88106057911E-01  0.36014932701E+01  0.36150455191E+01  0.30000000000E+00 0. -1.
</event>
<event>
 5   0  0.5137000E+05  0.9118800E+02  0.7818608E-02  0.1180000E+00
       11   -1    0    0    0    0  0.00000000000E+00  0.00000000000E+00  0.39999999673E+01  0.40000000000E+01  0.51109989000E-03 0.  1.
     -623   -1    0    0    0    0  0.00000000000E+00  0.00000000000E+00  0.12525980253E-10  0.17130000000E+03  0.17130000000E+03 0. -1.
       11    1    1    2    0    0  0.48138478291E-01  0.47631238894E-01  0.42991816308E+00  0.43521941154E+00  0.51109989000E-03 0.  1.
     -623    1    1    2    0    0 -0.25604579059E-01  0.94431779926E-02  0.18480366577E-01  0.17130000317E+03  0.17130000000E+03 0. -1.
      622    1    1    2    0    0 -0.22533899232E-01 -0.57074416886E-01  0.35516014377E+01  0.35647774177E+01  0.30000000000E+00 0.  1.
</event>
<event>
 5   0  0.5137000E+05  0.9118800E+02  0.7818608E-02  0.1180000E+00
       11   -1    0    0    0    0  0.00000000000E+00  0.00000000000E+00  0.39999999673E+01  0.40000000000E+01  0.51109989000E-03 0. -1.
     -623   -1    0    0    0    0  0.00000000000E+00  0.00000000000E+00  0.12525980253E-10  0.17130000000E+03  0.17130000000E+03 0. -1.
       11    1    1    2    0    0 -0.18796477112E-01 -0.85028781037E-02  0.62087781500E+00  0.62122067647E+00  0.51109989000E-03 0. -1.
     -623    1    1    2    0    0  0.37423649306E-01  0.12365399739E-01  0.13746473644E-01  0.17130000509E+03  0.17130000000E+03 0. -1.
      622    1    1    2    0    0 -0.18627172194E-01 -0.38625216350E-02  0.33653756787E+01  0.33787742377E+01  0.30000000000E+00 0. -1.
</event>
<event>
 5   0  0.5137000E+05  0.9118800E+02  0.7818608E-02  0.1180000E+00
       11   -1    0    0    0    0  0.00000000000E+00  0.00000000000E+00  0.39999999673E+01  0.40000000000E+01  0.51109989000E-03 0.  1.
     -623   -1    0    0    0    0  0.00000000000E+00  0.00000000000E+00  0.12525980253E-10  0.17130000000E+03  0.17130000000E+03 0. -1.
       11    1    1    2    0    0 -0.53101969964E-01 -0.85640127975E-01  0.35524856545E+00  0.36926393705E+00  0.51109989000E-03 0.  1.
     -623    1    1    2    0    0  0.20149364905E-01 -0.20167910409E-01  0.28132934027E-01  0.17130000468E+03  0.17130000000E+03 0. -1.
      622    1    1    2    0    0  0.32952605059E-01  0.10580803838E+00  0.36166184679E+01  0.36307313805E+01  0.30000000000E+00 0.  1.
</event>
<event>
 5   0  0.5137000E+05  0.9118800E+02  0.7818608E-02  0.1180000E+00
       11   -1    0    0    0    0  0.00000000000E+00  0.00000000000E+00  0.39999999673E+01  0.40000000000E+01  0.51109989000E-03 0.  1.
     -623   -1    0    0    0    0  0.00000000000E+00  0.00000000000E+00  0.12525980253E-10  0.17130000000E+03  0.17130000000E+03 0. -1.
       11    1    1    2    0    0 -0.29841840714E-01 -0.12502645010E-01  0.19935347407E-01  0.38006984718E-01  0.51109989000E-03 0.  1.
     -623    1    1    2    0    0  0.59649590267E-01  0.73758474942E-02  0.29574766237E-01  0.17130001310E+03  0.17130000000E+03 0. -1.
      622    1    1    2    0    0 -0.29807749553E-01  0.51267975159E-02  0.39504898537E+01  0.39619799180E+01  0.30000000000E+00 0.  1.
</event>
<event>
 5   0  0.5137000E+05  0.9118800E+02  0.7818608E-02  0.1180000E+00
       11   -1    0    0    0    0  0.00000000000E+00  0.00000000000E+00  0.39999999673E+01  0.40000000000E+01  0.51109989000E-03 0.  1.
     -623   -1    0    0    0    0  0.00000000000E+00  0.00000000000E+00  0.12525980253E-10  0.17130000000E+03  0.17130000000E+03 0.  1.
       11    1    1    2    0    0 -0.10962895700E-02 -0.11700516063E-01  0.36366067884E-01  0.38221146547E-01  0.51109989000E-03 0.  1.
     -623    1    1    2    0    0  0.24570387210E-01  0.51756914783E-02  0.13307406688E-01  0.17130000236E+03  0.17130000000E+03 0.  1.
      622    1    1    2    0    0 -0.23474097640E-01  0.65248245842E-02  0.39503264928E+01  0.39617764963E+01  0.30000000000E+00 0.  1.
</event>
<event>
 5   0  0.5137000E+05  0.9118800E+02  0.7818608E-02  0.1180000E+00
       11   -1    0    0    0    0  0.00000000000E+00  0.00000000000E+00  0.39999999673E+01  0.40000000000E+01  0.51109989000E-03 0.  1.
     -623   -1    0    0    0    0  0.00000000000E+00  0.00000000000E+00  0.12525980253E-10  0.17130000000E+03  0.17130000000E+03 0. -1.
       11    1    1    2    0    0  0.29370280231E-01 -0.31996239423E-01  0.82003838412E-01  0.92796893452E-01  0.51109989000E-03 0.  1.
     -623    1    1    2    0    0 -0.43587698106E-01 -0.23095044515E-01  0.22751383871E-01  0.17130000861E+03  0.17130000000E+03 0. -1.
      622    1    1    2    0    0  0.14217417874E-01  0.55091283938E-01  0.38952447451E+01  0.39071944933E+01  0.30000000000E+00 0.  1.
</event>
<event>
 5   0  0.5137000E+05  0.9118800E+02  0.7818608E-02  0.1180000E+00
       11   -1    0    0    0    0  0.00000000000E+00  0.00000000000E+00  0.39999999673E+01  0.40000000000E+01  0.51109989000E-03 0.  1.
     -623   -1    0    0    0    0  0.00000000000E+00  0.00000000000E+00  0.12525980253E-10  0.17130000000E+03  0.17130000000E+03 0.  1.
       11    1    1    2    0    0 -0.82501455303E-03  0.13361712692E-01  0.73243327942E-02  0.15268368906E-01  0.51109989000E-03 0.  1.
     -623    1    1    2    0    0 -0.17166916697E-01 -0.18792440859E-01  0.19300591374E-01  0.17130000298E+03  0.17130000000E+03 0.  1.
      622    1    1    2    0    0  0.17991931250E-01  0.54307281674E-02  0.39733750432E+01  0.39847286528E+01  0.30000000000E+00 0.  1.
</event>
<event>
 5   0  0.5137000E+05  0.9118800E+02  0.7818608E-02  0.1180000E+00
       11   -1    0    0    0    0  0.00000000000E+00  0.00000000000E+00  0.39999999673E+01  0.40000000000E+01  0.51109989000E-03 0. -1.
     -623   -1    0    0    0    0  0.00000000000E+00  0.00000000000E+00  0.12525980253E-10  0.17130000000E+03  0.17130000000E+03 0.  1.
       11    1    1    2    0    0 -0.72528319419E-02 -0.60431973970E-01  0.55234993465E+00  0.55569356536E+00  0.51109989000E-03 0. -1.
     -623    1    1    2    0    0 -0.42361411215E-02  0.15636253317E-01  0.16746762901E-01  0.17130000158E+03  0.17130000000E+03 0.  1.
      622    1    1    2    0    0  0.11488973063E-01  0.44795720653E-01  0.34309032698E+01  0.34443048500E+01  0.30000000000E+00 0. -1.
</event>
<event>
 5   0  0.5137000E+05  0.9118800E+02  0.7818608E-02  0.1180000E+00
       11   -1    0    0    0    0  0.00000000000E+00  0.00000000000E+00  0.39999999673E+01  0.40000000000E+01  0.51109989000E-03 0. -1.
     -623   -1    0    0    0    0  0.00000000000E+00  0.00000000000E+00  0.12525980253E-10  0.17130000000E+03  0.17130000000E+03 0. -1.
       11    1    1    2    0    0 -0.24220292609E-01 -0.11596470626E-01  0.32078718100E-01  0.41837854657E-01  0.51109989000E-03 0. -1.
     -623    1    1    2    0    0  0.26411201932E-01  0.32852786053E-01  0.21208758201E-01  0.17130000650E+03  0.17130000000E+03 0. -1.
      622    1    1    2    0    0 -0.21909093236E-02 -0.21256315427E-01  0.39467124911E+01  0.39581556460E+01  0.30000000000E+00 0. -1.
</event>
<event>
 5   0  0.5137000E+05  0.9118800E+02  0.7818608E-02  0.1180000E+00
       11   -1    0    0    0    0  0.00000000000E+00  0.00000000000E+00  0.39999999673E+01  0.40000000000E+01  0.51109989000E-03 0.  1.
     -623   -1    0    0    0    0  0.00000000000E+00  0.00000000000E+00  0.12525980253E-10  0.17130000000E+03  0.17130000000E+03 0. -1.
       11    1    1    2    0    0  0.69928156265E-02 -0.11353219760E-01  0.47108308034E-01  0.48961709276E-01  0.51109989000E-03 0.  1.
     -623    1    1    2    0    0 -0.26110231042E-02 -0.44493932959E-02  0.13293968959E-01  0.17130000059E+03  0.17130000000E+03 0. -1.
      622    1    1    2    0    0 -0.43817925223E-02  0.15802613056E-01  0.39395976904E+01  0.39510376972E+01  0.30000000000E+00 0.  1.
</event>
<event>
 5   0  0.5137000E+05  0.9118800E+02  0.7818608E-02  0.1180000E+00
       11   -1    0    0    0    0  0.00000000000E+00  0.00000000000E+00  0.39999999673E+01  0.40000000000E+01  0.51109989000E-03 0. -1.
     -623   -1    0    0    0    0  0.00000000000E+00  0.00000000000E+00  0.12525980253E-10  0.17130000000E+03  0.17130000000E+03 0. -1.
       11    1    1    2    0    0  0.14081404266E-01 -0.14010653710E-01  0.10571394934E+00  0.10756525773E+00  0.51109989000E-03 0. -1.
     -623    1    1    2    0    0 -0.32991098705E-02  0.45026301316E-01  0.13574808415E-01  0.17130000649E+03  0.17130000000E+03 0. -1.
      622    1    1    2    0    0 -0.10782294396E-01 -0.31015647606E-01  0.38807112096E+01  0.38924282550E+01  0.30000000000E+00 0. -1.
</event>
<event>
 5   0  0.5137000E+05  0.9118800E+02  0.7818608E-02  0.1180000E+00
       11   -1    0    0    0    0  0.00000000000E+00  0.00000000000E+00  0.39999999673E+01  0.40000000000E+01  0.51109989000E-03 0.  1.
     -623   -1    0    0    0    0  0.00000000000E+00  0.00000000000E+00  0.12525980253E-10  0.17130000000E+03  0.17130000000E+03 0. -1.
       11    1    1    2    0    0 -0.11825985837E-01  0.12573964910E-01  0.19901786233E-01  0.26349589215E-01  0.51109989000E-03 0.  1.
     -623    1    1    2    0    0 -0.55597084073E-02 -0.17080778998E-01  0.17831133957E-01  0.17130000187E+03  0.17130000000E+03 0. -1.
      622    1    1    2    0    0  0.17385694244E-01  0.45068140879E-02  0.39622670472E+01  0.39736485409E+01  0.30000000000E+00 0.  1.
</event>
<event>
 5   0  0.5137000E+05  0.9118800E+02  0.7818608E-02  0.1180000E+00
       11   -1    0    0    0    0  0.00000000000E+00  0.00000000000E+00  0.39999999673E+01  0.40000000000E+01  0.51109989000E-03 0. -1.
     -623   -1    0    0    0    0  0.00000000000E+00  0.00000000000E+00  0.12525980253E-10  0.17130000000E+03  0.17130000000E+03 0.  1.
       11    1    1    2    0    0 -0.12884750766E-01 -0.31356466772E-01  0.21687423839E+00  0.21950840830E+00  0.51109989000E-03 0. -1.
     -623    1    1    2    0    0  0.22134618506E-01  0.24549661504E-01  0.14577470173E-01  0.17130000381E+03  0.17130000000E+03 0.  1.
      622    1    1    2    0    0 -0.92498677401E-02  0.68068052685E-02  0.37685482588E+01  0.37804877822E+01  0.30000000000E+00 0. -1.
</event>
<event>
 5   0  0.5137000E+05  0.9118800E+02  0.7818608E-02  0.1180000E+00
       11   -1    0    0    0    0  0.00000000000E+00  0.00000000000E+00  0.39999999673E+01  0.40000000000E+01  0.51109989000E-03 0.  1.
     -623   -1    0    0    0    0  0.00000000000E+00  0.00000000000E+00  0.12525980253E-10  0.17130000000E+03  0.17130000000E+03 0.  1.
       11    1    1    2    0    0 -0.10183208682E+00  0.11119283028E+00  0.25771819832E+00  0.29858424335E+00  0.51109989000E-03 0.  1.
     -623    1    1    2    0    0  0.57611553733E-01  0.21195045288E-01  0.55705020396E-01  0.17130002006E+03  0.17130000000E+03 0.  1.
      622    1    1    2    0    0  0.44220533085E-01 -0.13238787557E+00  0.36865767486E+01  0.37013957001E+01  0.30000000000E+00 0.  1.
</event>
<event>
 5   0  0.5137000E+05  0.9118800E+02  0.7818608E-02  0.1180000E+00
       11   -1    0    0    0    0  0.00000000000E+00  0.00000000000E+00  0.39999999673E+01  0.40000000000E+01  0.51109989000E-03 0. -1.
     -623   -1    0    0    0    0  0.00000000000E+00  0.00000000000E+00  0.12525980253E-10  0.17130000000E+03  0.17130000000E+03 0.  1.
       11    1    1    2    0    0  0.10200161490E-01 -0.43717904049E-02  0.12764881567E+00  0.12813132798E+00  0.51109989000E-03 0. -1.
     -623    1    1    2    0    0  0.10516433224E-01  0.15832739745E-02  0.12179633375E-01  0.17130000076E+03  0.17130000000E+03 0.  1.
      622    1    1    2    0    0 -0.20716594714E-01  0.27885164303E-02  0.38601715183E+01  0.38718679089E+01  0.30000000000E+00 0. -1.
</event>
<event>
 5   0  0.5137000E+05  0.9118800E+02  0.7818608E-02  0.1180000E+00
       11   -1    0    0    0    0  0.00000000000E+00  0.00000000000E+00  0.39999999673E+01  0.40000000000E+01  0.51109989000E-03 0. -1.
     -623   -1    0    0    0    0  0.00000000000E+00  0.00000000000E+00  0.12525980253E-10  0.17130000000E+03  0.17130000000E+03 0. -1.
       11    1    1    2    0    0 -0.89138296465E-02 -0.14808172955E-01  0.57734884931E-02  0.18229995527E-01  0.51109989000E-03 0. -1.
     -623    1    1    2    0    0 -0.33044002642E-01 -0.23057626924E-01  0.24182806838E-01  0.17130000645E+03  0.17130000000E+03 0. -1.
      622    1    1    2    0    0  0.41957832289E-01  0.37865799878E-01  0.39700436720E+01  0.39817635586E+01  0.30000000000E+00 0. -1.
</event>
<event>
 5   0  0.5137000E+05  0.9118800E+02  0.7818608E-02  0.1180000E+00
       11   -1    0    0    0    0  0.00000000000E+00  0.00000000000E+00  0.39999999673E+01  0.40000000000E+01  0.51109989000E-03 0.  1.
     -623   -1    0    0    0    0  0.00000000000E+00  0.00000000000E+00  0.12525980253E-10  0.17130000000E+03  0.17130000000E+03 0. -1.
       11    1    1    2    0    0  0.59075010965E-02 -0.31014937737E-01  0.30630084321E+00  0.30792416714E+00  0.51109989000E-03 0.  1.
     -623    1    1    2    0    0 -0.18509108378E-01  0.46474120495E-02  0.13949422697E-01  0.17130000163E+03  0.17130000000E+03 0. -1.
      622    1    1    2    0    0  0.12601607281E-01  0.26367525688E-01  0.36797497015E+01  0.36920742019E+01  0.30000000000E+00 0.  1.
</event>
<event>
 5   0  0.5137000E+05  0.9118800E+02  0.7818608E-02  0.1180000E+00
       11   -1    0    0    0    0  0.00000000000E+00  0.00000000000E+00  0.39999999673E+01  0.40000000000E+01  0.51109989000E-03 0. -1.
     -623   -1    0    0    0    0  0.00000000000E+00  0.00000000000E+00  0.12525980253E-10  0.17130000000E+03  0.17130000000E+03 0.  1.
       11    1    1    2    0    0  0.27754575565E-01 -0.34812384052E-01  0.40269706273E+00  0.40515108799E+00  0.51109989000E-03 0. -1.
     -623    1    1    2    0    0  0.98186818091E-03  0.12449335455E-01  0.15179972272E-01  0.17130000113E+03  0.17130000000E+03 0.  1.
      622    1    1    2    0    0 -0.28736443746E-01  0.22363048597E-01  0.35821229324E+01  0.35948477842E+01  0.30000000000E+00 0. -1.
</event>
<event>
 5   0  0.5137000E+05  0.9118800E+02  0.7818608E-02  0.1180000E+00
       11   -1    0    0    0    0  0.00000000000E+00  0.00000000000E+00  0.39999999673E+01  0.40000000000E+01  0.51109989000E-03 0.  1.
     -623   -1    0    0    0    0  0.00000000000E+00  0.00000000000E+00  0.12525980253E-10  0.17130000000E+03  0.17130000000E+03 0.  1.
       11    1    1    2    0    0  0.98253750583E-02 -0.13540108699E-01  0.51987487032E-01  0.54615314406E-01  0.51109989000E-03 0.  1.
     -623    1    1    2    0    0 -0.20737593628E-01  0.19635562474E-02  0.14084079619E-01  0.17130000185E+03  0.17130000000E+03 0.  1.
      622    1    1    2    0    0  0.10912218569E-01  0.11576552452E-01  0.39339284007E+01  0.39453828401E+01  0.30000000000E+00 0.  1.
</event>
<event>
 5   0  0.5137000E+05  0.9118800E+02  0.7818608E-02  0.1180000E+00
       11   -1    0    0    0    0  0.00000000000E+00  0.00000000000E+00  0.39999999673E+01  0.40000000000E+01  0.51109989000E-03 0. -1.
     -623   -1    0    0    0    0  0.00000000000E+00  0.00000000000E+00  0.12525980253E-10  0.17130000000E+03  0.17130000000E+03 0. -1.
       11    1    1    2    0    0  0.60877993135E-01  0.89973125966E-01  0.19348184612E+00  0.22189362191E+00  0.51109989000E-03 0. -1.
     -623    1    1    2    0    0  0.68438288930E-01 -0.57175087276E-01  0.42733627784E-01  0.17130002854E+03  0.17130000000E+03 0. -1.
      622    1    1    2    0    0 -0.12931628207E+00 -0.32798038690E-01  0.37637844935E+01  0.37780778347E+01  0.30000000000E+00 0. -1.
</event>
<event>
 5   0  0.5137000E+05  0.9118800E+02  0.7818608E-02  0.1180000E+00
       11   -1    0    0    0    0  0.00000000000E+00  0.00000000000E+00  0.39999999673E+01  0.40000000000E+01  0.51109989000E-03 0.  1.
     -623   -1    0    0    0    0  0.00000000000E+00  0.00000000000E+00  0.12525980253E-10  0.17130000000E+03  0.17130000000E+03 0.  1.
       11    1    1    2    0    0  0.11718934410E-01 -0.10251284443E-01  0.53608317519E-02  0.16474889882E-01  0.51109989000E-03 0.  1.
     -623    1    1    2    0    0 -0.19831418404E-02 -0.12137405314E-01  0.22503567656E-01  0.17130000192E+03  0.17130000000E+03 0.  1.
      622    1    1    2    0    0 -0.97357925698E-02  0.22388689757E-01  0.39721355680E+01  0.39835231905E+01  0.30000000000E+00 0.  1.
</event>
<event>
 5   0  0.5137000E+05  0.9118800E+02  0.7818608E-02  0.1180000E+00
       11   -1    0    0    0    0  0.00000000000E+00  0.00000000000E+00  0.39999999673E+01  0.40000000000E+01  0.51109989000E-03 0.  1.
     -623   -1    0    0    0    0  0.00000000000E+00  0.00000000000E+00  0.12525980253E-10  0.17130000000E+03  0.17130000000E+03 0.  1.
       11    1    1    2    0    0  0.52600167200E-01  0.24822247343E-01  0.72361463166E+00  0.72594856424E+00  0.51109989000E-03 0.  1.
     -623    1    1    2    0    0  0.22780686374E-01 -0.72574804273E-02  0.17028720971E-01  0.17130000251E+03  0.17130000000E+03 0.  1.
      622    1    1    2    0    0 -0.75380853574E-01 -0.17564766915E-01  0.32593566147E+01  0.32740489209E+01  0.30000000000E+00 0.  1.
</event>
<event>
 5   0  0.5137000E+05  0.9118800E+02  0.7818608E-02  0.1180000E+00
       11   -1    0    0    0    0  0.00000000000E+00  0.00000000000E+00  0.39999999673E+01  0.40000000000E+01  0.51109989000E-03 0. -1.
     -623   -1    0    0    0    0  0.00000000000E+00  0.00000000000E+00  0.12525980253E-10  0.17130000000E+03  0.17130000000E+03 0.  1.
       11    1    1    2    0    0  0.88357457738E-02  0.26204540157E-02  0.16244007990E+00  0.16270211419E+00  0.51109989000E-03 0. -1.
     -623    1    1    2    0    0 -0.17199578954E-01  0.20384944242E-01  0.12087804984E-01  0.17130000250E+03  0.17130000000E+03 0.  1.
      622    1    1    2    0    0  0.83638331801E-02 -0.23005398257E-01  0.38254720825E+01  0.38372953829E+01  0.30000000000E+00 0. -1.
</event>
<event>
 5   0  0.5137000E+05  0.9118800E+02  0.7818608E-02  0.1180000E+00
       11   -1    0    0    0    0  0.00000000000E+00  0.00000000000E+00  0.39999999673E+01  0.40000000000E+01  0.51109989000E-03 0. -1.
     -623   -1    0    0    0    0  0.00000000000E+00  0.00000000000E+00  0.12525980253E-10  0.17130000000E+03  0.17130000000E+03 0.  1.
       11    1    1    2    0    0 -0.16388100123E-02 -0.38886786180E-02  0.10833058442E-01  0.11637177405E-01  0.51109989000E-03 0. -1.
     -623    1    1    2    0    0  0.31515235865E-01  0.28895379229E-01  0.12299551078E-01  0.17130000578E+03  0.17130000000E+03 0.  1.
      622    1    1    2    0    0 -0.29876425853E-01 -0.25006700611E-01  0.39768673579E+01  0.39883570449E+01  0.30000000000E+00 0. -1.
</event>
<event>
 5   0  0.5137000E+05  0.9118800E+02  0.7818608E-02  0.1180000E+00
       11   -1    0    0    0    0  0.00000000000E+00  0.00000000000E+00  0.39999999673E+01  0.40000000000E+01  0.51109989000E-03 0.  1.
     -623   -1    0    0    0    0  0.00000000000E+00  0.00000000000E+00  0.12525980253E-10  0.17130000000E+03  0.17130000000E+03 0. -1.
       11    1    1    2    0    0  0.35434173084E-02  0.88456308491E-03  0.41549555042E-02  0.55554599535E-02  0.51109989000E-03 0.  1.
     -623    1    1    2    0    0 -0.18039235580E-01 -0.72020668572E-02  0.12715014439E-01  0.17130000157E+03  0.17130000000E+03 0. -1.
      622    1    1    2    0    0  0.14495818271E-01  0.63175037723E-02  0.39831299974E+01  0.39944429669E+01  0.30000000000E+00 0.  1.
</event>
<event>
 5   0  0.5137000E+05  0.9118800E+02  0.7818608E-02  0.1180000E+00
       11   -1    0    0    0    0  0.00000000000E+00  0.00000000000E+00  0.39999999673E+01  0.40000000000E+01  0.51109989000E-03 0. -1.
     -623   -1    0    0    0    0  0.00000000000E+00  0.00000000000E+00  0.12525980253E-10  0.17130000000E+03  0.17130000000E+03 0.  1.
       11    1    1    2    0    0  0.61213332158E-02 -0.14201116525E-01  0.60401083374E-02  0.16609833314E-01  0.51109989000E-03 0. -1.
     -623    1    1    2    0    0 -0.22893189177E-01 -0.88556306234E-02  0.21988175136E-01  0.17130000317E+03  0.17130000000E+03 0.  1.
      622    1    1    2    0    0  0.16771855961E-01  0.23056747149E-01  0.39719716839E+01  0.39833869968E+01  0.30000000000E+00 0. -1.
</event>
<event>
 5   0  0.5137000E+05  0.9118800E+02  0.7818608E-02  0.1180000E+00
       11   -1    0    0    0    0  0.00000000000E+00  0.00000000000E+00  0.39999999673E+01  0.40000000000E+01  0.51109989000E-03 0. -1.
     -623   -1    0    0    0    0  0.00000000000E+00  0.00000000000E+00  0.12525980253E-10  0.17130000000E+03  0.17130000000E+03 0. -1.
       11    1    1    2    0    0  0.55273702403E-02  0.30015485115E-01  0.26857718199E-01  0.40658079374E-01  0.51109989000E-03 0. -1.
     -623    1    1    2    0    0 -0.78835911711E-02 -0.52531561941E-02  0.25262705124E-01  0.17130000212E+03  0.17130000000E+03 0. -1.
      622    1    1    2    0    0  0.23562209308E-02 -0.24762328921E-01  0.39478795441E+01  0.39593397959E+01  0.30000000000E+00 0. -1.
</event>
<event>
 5   0  0.5137000E+05  0.9118800E+02  0.7818608E-02  0.1180000E+00
       11   -1    0    0    0    0  0.00000000000E+00  0.00000000000E+00  0.39999999673E+01  0.40000000000E+01  0.51109989000E-03 0.  1.
     -623   -1    0    0    0    0  0.00000000000E+00  0.00000000000E+00  0.12525980253E-10  0.17130000000E+03  0.17130000000E+03 0.  1.
       11    1    1    2    0    0 -0.20581955927E-02 -0.13652943904E-01  0.33009419707E+00  0.33038323082E+00  0.51109989000E-03 0.  1.
     -623    1    1    2    0    0 -0.19329447063E-01  0.16144924557E-01  0.12638131459E-01  0.17130000232E+03  0.17130000000E+03 0.  1.
      622    1    1    2    0    0  0.21387642656E-01 -0.24919806532E-02  0.36572676388E+01  0.36696144516E+01  0.30000000000E+00 0.  1.
</event>
<event>
 5   0  0.5137000E+05  0.9118800E+02  0.7818608E-02  0.1180000E+00
       11   -1    0    0    0    0  0.00000000000E+00  0.00000000000E+00  0.39999999673E+01  0.40000000000E+01  0.51109989000E-03 0. -1.
     -623   -1    0    0    0    0  0.00000000000E+00  0.00000000000E+00  0.12525980253E-10  0.17130000000E+03  0.17130000000E+03 0. -1.
       11    1    1    2    0    0 -0.17672299576E-01 -0.17592996849E-01  0.11338641800E+00  0.11609722099E+00  0.51109989000E-03 0. -1.
     -623    1    1    2    0    0  0.23973586583E-01  0.28049116430E-01  0.14338219549E-01  0.17130000457E+03  0.17130000000E+03 0. -1.
      622    1    1    2    0    0 -0.63012870071E-02 -0.10456119582E-01  0.38722753298E+01  0.38838982050E+01  0.30000000000E+00 0. -1.
</event>
<event>
 5   0  0.5137000E+05  0.9118800E+02  0.7818608E-02  0.1180000E+00
       11   -1    0    0    0    0  0.00000000000E+00  0.00000000000E+00  0.39999999673E+01  0.40000000000E+01  0.51109989000E-03 0.  1.
     -623   -1    0    0    0    0  0.00000000000E+00  0.00000000000E+00  0.12525980253E-10  0.17130000000E+03  0.17130000000E+03 0.  1.
       11    1    1    2    0    0 -0.63674600950E-02  0.11910352563E-01  0.30014610586E+00  0.30045024070E+00  0.51109989000E-03 0.  1.
     -623    1    1    2    0    0 -0.59066005185E-02 -0.16038202405E-02  0.12523207987E-01  0.17130000057E+03  0.17130000000E+03 0.  1.
      622    1    1    2    0    0  0.12274060614E-01 -0.10306532323E-01  0.36873306535E+01  0.36995491922E+01  0.30000000000E+00 0.  1.
</event>
<event>
 5   0  0.5137000E+05  0.9118800E+02  0.7818608E-02  0.1180000E+00
       11   -1    0    0    0    0  0.00000000000E+00  0.00000000000E+00  0.39999999673E+01  0.40000000000E+01  0.51109989000E-03 0. -1.
     -623   -1    0    0    0    0  0.00000000000E+00  0.00000000000E+00  0.12525980253E-10  0.17130000000E+03  0.17130000000E+03 0. -1.
       11    1    1    2    0    0  0.16114710348E-01 -0.17587205350E-01  0.19619661416E-01  0.30889901566E-01  0.51109989000E-03 0. -1.
     -623    1    1    2    0    0 -0.25856039242E-02  0.55497163180E-02  0.22667044199E-01  0.17130000161E+03  0.17130000000E+03 0. -1.
      622    1    1    2    0    0 -0.13529106424E-01  0.12037489032E-01  0.39577132617E+01  0.39691084893E+01  0.30000000000E+00 0. -1.
</event>
<event>
 5   0  0.5137000E+05  0.9118800E+02  0.7818608E-02  0.1180000E+00
       11   -1    0    0    0    0  0.00000000000E+00  0.00000000000E+00  0.39999999673E+01  0.40000000000E+01  0.51109989000E-03 0.  1.
     -623   -1    0    0    0    0  0.00000000000E+00  0.00000000000E+00  0.12525980253E-10  0.17130000000E+03  0.17130000000E+03 0. -1.
       11    1    1    2    0    0  0.14138128673E-02 -0.81931303419E-02  0.48359964324E-02  0.96319435326E-02  0.51109989000E-03 0.  1.
     -623    1    1    2    0    0  0.14073656370E-01 -0.74506907370E-02  0.16151448791E-01  0.17130000150E+03  0.17130000000E+03 0. -1.
      622    1    1    2    0    0 -0.15487469238E-01  0.15643821079E-01  0.39790125221E+01  0.39903665549E+01  0.30000000000E+00 0.  1.
</event>
<event>
 5   0  0.5137000E+05  0.9118800E+02  0.7818608E-02  0.1180000E+00
       11   -1    0    0    0    0  0.00000000000E+00  0.00000000000E+00  0.39999999673E+01  0.40000000000E+01  0.51109989000E-03 0. -1.
     -623   -1    0    0    0    0  0.00000000000E+00  0.00000000000E+00  0.12525980253E-10  0.17130000000E+03  0.17130000000E+03 0.  1.
       11    1    1    2    0    0  0.13669423669E-01 -0.18909275698E-01  0.12877312439E-01  0.26655210553E-01  0.51109989000E-03 0. -1.
     -623    1    1    2    0    0  0.23928246462E-01  0.37658513436E-01  0.25349994096E-01  0.17130000769E+03  0.17130000000E+03 0.  1.
      622    1    1    2    0    0 -0.37597670131E-01 -0.18749237738E-01  0.39617726608E+01  0.39733371031E+01  0.30000000000E+00 0. -1.
</event>
<event>
 5   0  0.5137000E+05  0.9118800E+02  0.7818608E-02  0.1180000E+00
       11   -1    0    0    0    0  0.00000000000E+00  0.00000000000E+00  0.39999999673E+01  0.40000000000E+01  0.51109989000E-03 0.  1.
     -623   -1    0    0    0    0  0.00000000000E+00  0.00000000000E+00  0.12525980253E-10  0.17130000000E+03  0.17130000000E+03 0.  1.
       11    1    1    2    0    0 -0.41703401047E-01  0.20461802109E-02  0.10071352905E+00  0.10902677043E+00  0.51109989000E-03 0.  1.
     -623    1    1    2    0    0  0.22257199451E-02 -0.21665598984E-01  0.20148741814E-01  0.17130000257E+03  0.17130000000E+03 0.  1.
      622    1    1    2    0    0  0.39477681102E-01  0.19619418773E-01  0.38791376965E+01  0.38909706600E+01  0.30000000000E+00 0.  1.
</event>
<event>
 5   0  0.5137000E+05  0.9118800E+02  0.7818608E-02  0.1180000E+00
       11   -1    0    0    0    0  0.00000000000E+00  0.00000000000E+00  0.39999999673E+01  0.40000000000E+01  0.51109989000E-03 0.  1.
     -623   -1    0    0    0    0  0.00000000000E+00  0.00000000000E+00  0.12525980253E-10  0.17130000000E+03  0.17130000000E+03 0.  1.
       11    1    1    2    0    0  0.12521292927E-01  0.28799907635E-01  0.57627494513E-01  0.65630837286E-01  0.51109989000E-03 0.  1.
     -623    1    1    2    0    0  0.87081688796E-02 -0.20543215162E-01  0.19526356339E-01  0.17130000257E+03  0.17130000000E+03 0.  1.
      622    1    1    2    0    0 -0.21229461807E-01 -0.82566924734E-02  0.39228461165E+01  0.39343665966E+01  0.30000000000E+00 0.  1.
</event>
<event>
 5   0  0.5137000E+05  0.9118800E+02  0.7818608E-02  0.1180000E+00
       11   -1    0    0    0    0  0.00000000000E+00  0.00000000000E+00  0.39999999673E+01  0.40000000000E+01  0.51109989000E-03 0. -1.
     -623   -1    0    0    0    0  0.00000000000E+00  0.00000000000E+00  0.12525980253E-10  0.17130000000E+03  0.17130000000E+03 0.  1.
       11    1    1    2    0    0  0.14855956923E-01 -0.64875797934E-01  0.39685123174E-01  0.77490249939E-01  0.51109989000E-03 0. -1.
     -623    1    1    2    0    0 -0.47612147065E-01  0.73872860082E-01  0.49471468104E-01  0.17130002969E+03  0.17130000000E+03 0.  1.
      622    1    1    2    0    0  0.32756190142E-01 -0.89970621484E-02  0.39108433761E+01  0.39224800608E+01  0.30000000000E+00 0. -1.
</event>
<event>
 5   0  0.5137000E+05  0.9118800E+02  0.7818608E-02  0.1180000E+00
       11   -1    0    0    0    0  0.00000000000E+00  0.00000000000E+00  0.39999999673E+01  0.40000000000E+01  0.51109989000E-03 0. -1.
     -623   -1    0    0    0    0  0.00000000000E+00  0.00000000000E+00  0.12525980253E-10  0.17130000000E+03  0.17130000000E+03 0.  1.
       11    1    1    2    0    0 -0.43893739048E-01 -0.37788572886E-01  0.11607397520E+00  0.12972303384E+00  0.51109989000E-03 0. -1.
     -623    1    1    2    0    0  0.65824609893E-01  0.40715047065E-01  0.25376475889E-01  0.17130001937E+03  0.17130000000E+03 0.  1.
      622    1    1    2    0    0 -0.21930870845E-01 -0.29264741792E-02  0.38585495163E+01  0.38702576008E+01  0.30000000000E+00 0. -1.
</event>
<event>
 5   0  0.5137000E+05  0.9118800E+02  0.7818608E-02  0.1180000E+00
       11   -1    0    0    0    0  0.00000000000E+00  0.00000000000E+00  0.39999999673E+01  0.40000000000E+01  0.51109989000E-03 0.  1.
     -623   -1    0    0    0    0  0.00000000000E+00  0.00000000000E+00  0.12525980253E-10  0.17130000000E+03  0.17130000000E+03 0.  1.
       11    1    1    2    0    0 -0.16459457382E-02 -0.49185249206E-01  0.33069362657E+00  0.33433580986E+00  0.51109989000E-03 0.  1.
     -623    1    1    2    0    0  0.46464126058E-01  0.72435481224E-02  0.16461824693E-01  0.17130000725E+03  0.17130000000E+03 0.  1.
      622    1    1    2    0    0 -0.44818180319E-01  0.41941701083E-01  0.36528445161E+01  0.36656569444E+01  0.30000000000E+00 0.  1.
</event>
<event>
 5   0  0.5137000E+05  0.9118800E+02  0.7818608E-02  0.1180000E+00
       11   -1    0    0    0    0  0.00000000000E+00  0.00000000000E+00  0.39999999673E+01  0.40000000000E+01  0.51109989000E-03 0.  1.
     -623   -1    0    0    0    0  0.00000000000E+00  0.00000000000E+00  0.12525980253E-10  0.17130000000E+03  0.17130000000E+03 0. -1.
       11    1    1    2    0    0  0.10015440179E-01 -0.47987072079E-01  0.70649596615E+00  0.70819480338E+00  0.51109989000E-03 0.  1.
     -623    1    1    2    0    0  0.30018337616E-01  0.24819831963E-01  0.15729127938E-01  0.17130000515E+03  0.17130000000E+03 0. -1.
      622    1    1    2    0    0 -0.40033777795E-01  0.23167240116E-01  0.32777748733E+01  0.32918000462E+01  0.30000000000E+00 0.  1.
</event>
<event>
 5   0  0.5137000E+05  0.9118800E+02  0.7818608E-02  0.1180000E+00
       11   -1    0    0    0    0  0.00000000000E+00  0.00000000000E+00  0.39999999673E+01  0.40000000000E+01  0.51109989000E-03 0. -1.
     -623   -1    0    0    0    0  0.00000000000E+00  0.00000000000E+00  0.12525980253E-10  0.17130000000E+03  0.17130000000E+03 0.  1.
       11    1    1    2    0    0 -0.12181166518E-02 -0.35375249095E-01  0.16290764215E+00  0.16670948729E+00  0.51109989000E-03 0. -1.
     -623    1    1    2    0    0  0.45909695879E-02 -0.40189164656E-03  0.15728856039E-01  0.17130000078E+03  0.17130000000E+03 0.  1.
      622    1    1    2    0    0 -0.33728529361E-02  0.35777140742E-01  0.38213634692E+01  0.38332897286E+01  0.30000000000E+00 0. -1.
</event>
<event>
 5   0  0.5137000E+05  0.9118800E+02  0.7818608E-02  0.1180000E+00
       11   -1    0    0    0    0  0.00000000000E+00  0.00000000000E+00  0.39999999673E+01  0.40000000000E+01  0.51109989000E-03 0.  1.
     -623   -1    0    0    0    0  0.00000000000E+00  0.00000000000E+00  0.12525980253E-10  0.17130000000E+03  0.17130000000E+03 0.  1.
       11    1    1    2    0    0  0.53779839264E-02 -0.17631934593E-02  0.28131248128E-01  0.28699475674E-01  0.51109989000E-03 0.  1.
     -623    1    1    2    0    0 -0.67612886818E-02 -0.68865676716E-02  0.11926085061E-01  0.17130000069E+03  0.17130000000E+03 0.  1.
      622    1    1    2    0    0  0.13833047554E-02  0.86497611309E-02  0.39599426342E+01  0.39712998373E+01  0.30000000000E+00 0.  1.
</event>
<event>
 5   0  0.5137000E+05  0.9118800E+02  0.7818608E-02  0.1180000E+00
       11   -1    0    0    0    0  0.00000000000E+00  0.00000000000E+00  0.39999999673E+01  0.40000000000E+01  0.51109989000E-03 0.  1.
     -623   -1    0    0    0    0  0.00000000000E+00  0.00000000000E+00  0.12525980253E-10  0.17130000000E+03  0.17130000000E+03 0. -1.
       11    1    1    2    0    0 -0.65897528062E-01 -0.77181940776E-01  0.80136863511E+00  0.80776945148E+00  0.51109989000E-03 0.  1.
     -623    1    1    2    0    0  0.46013229423E-01  0.39525250108E-02  0.21442381610E-01  0.17130000757E+03  0.17130000000E+03 0. -1.
      622    1    1    2    0    0  0.19884298639E-01  0.73229415765E-01  0.31771889506E+01  0.31922229810E+01  0.30000000000E+00 0.  1.
</event>
<event>
 5   0  0.5137000E+05  0.9118800E+02  0.7818608E-02  0.1180000E+00
       11   -1    0    0    0    0  0.00000000000E+00  0.00000000000E+00  0.39999999673E+01  0.40000000000E+01  0.51109989000E-03 0.  1.
     -623   -1    0    0    0    0  0.00000000000E+00  0.00000000000E+00  0.12525980253E-10  0.17130000000E+03  0.17130000000E+03 0.  1.
       11    1    1    2    0    0 -0.40419433464E-01 -0.55061672521E-01  0.10739216390E+01  0.10760917555E+01  0.51109989000E-03 0.  1.
     -623    1    1    2    0    0 -0.18931613614E-01  0.24317667327E-02  0.18685202142E-01  0.17130000208E+03  0.17130000000E+03 0.  1.
      622    1    1    2    0    0  0.59351047078E-01  0.52629905789E-01  0.29073931263E+01  0.29239061620E+01  0.30000000000E+00 0.  1.
</event>
<event>
 5   0  0.5137000E+05  0.9118800E+02  0.7818608E-02  0.1180000E+00
       11   -1    0    0    0    0  0.00000000000E+00  0.00000000000E+00  0.39999999673E+01  0.40000000000E+01  0.51109989000E-03 0.  1.
     -623   -1    0    0    0    0  0.00000000000E+00  0.00000000000E+00  0.12525980253E-10  0.17130000000E+03  0.17130000000E+03 0.  1.
       11    1    1    2    0    0 -0.17973674233E-01 -0.27495794101E-02 -0.23802860192E-02  0.18345030307E-01  0.51109989000E-03 0.  1.
     -623    1    1    2    0    0  0.15080350390E-01 -0.39919334024E-01  0.32281924467E-01  0.17130000836E+03  0.17130000000E+03 0.  1.
      622    1    1    2    0    0  0.28933238427E-02  0.42668913434E-01  0.39700983289E+01  0.39816466127E+01  0.30000000000E+00 0.  1.
</event>
<event>
 5   0  0.5137000E+05  0.9118800E+02  0.7818608E-02  0.1180000E+00
       11   -1    0    0    0    0  0.00000000000E+00  0.00000000000E+00  0.39999999673E+01  0.40000000000E+01  0.51109989000E-03 0. -1.
     -623   -1    0    0    0    0  0.00000000000E+00  0.00000000000E+00  0.12525980253E-10  0.17130000000E+03  0.17130000000E+03 0.  1.
       11    1    1    2    0    0  0.16688702457E-01  0.47615096641E-01  0.12900663157E+00  0.13852321982E+00  0.51109989000E-03 0. -1.
     -623    1    1    2    0    0 -0.27777083708E-01 -0.18880025430E-01  0.21315609393E-01  0.17130000462E+03  0.17130000000E+03 0.  1.
      622    1    1    2    0    0  0.11088381251E-01 -0.28735071211E-01  0.38496777264E+01  0.38614721614E+01  0.30000000000E+00 0. -1.
</event>
<event>
 5   0  0.5137000E+05  0.9118800E+02  0.7818608E-02  0.1180000E+00
       11   -1    0    0    0    0  0.00000000000E+00  0.00000000000E+00  0.39999999673E+01  0.40000000000E+01  0.51109989000E-03 0. -1.
     -623   -1    0    0    0    0  0.00000000000E+00  0.00000000000E+00  0.12525980253E-10  0.17130000000E+03  0.17130000000E+03 0.  1.
       11    1    1    2    0    0 -0.23897931961E-01 -0.21364555701E-02  0.36779722145E-01  0.43916793810E-01  0.51109989000E-03 0. -1.
     -623    1    1    2    0    0  0.47592217145E-01  0.32966521045E-01  0.18730809117E-01  0.17130001081E+03  0.17130000000E+03 0.  1.
      622    1    1    2    0    0 -0.23694285184E-01 -0.30830065475E-01  0.39444894361E+01  0.39560723987E+01  0.30000000000E+00 0. -1.
</event>
<event>
 5   0  0.5137000E+05  0.9118800E+02  0.7818608E-02  0.1180000E+00
       11   -1    0    0    0    0  0.00000000000E+00  0.00000000000E+00  0.39999999673E+01  0.40000000000E+01  0.51109989000E-03 0.  1.
     -623   -1    0    0    0    0  0.00000000000E+00  0.00000000000E+00  0.12525980253E-10  0.17130000000E+03  0.17130000000E+03 0.  1.
       11    1    1    2    0    0  0.73710053808E-01 -0.30082794966E-01  0.39310491946E+00  0.40108588296E+00  0.51109989000E-03 0.  1.
     -623    1    1    2    0    0 -0.69102628455E-01  0.30883677371E-01  0.20527562974E-01  0.17130001795E+03  0.17130000000E+03 0.  1.
      622    1    1    2    0    0 -0.46074253523E-02 -0.80088240451E-03  0.35863674849E+01  0.35988961650E+01  0.30000000000E+00 0.  1.
</event>
<event>
 5   0  0.5137000E+05  0.9118800E+02  0.7818608E-02  0.1180000E+00
       11   -1    0    0    0    0  0.00000000000E+00  0.00000000000E+00  0.39999999673E+01  0.40000000000E+01  0.51109989000E-03 0.  1.
     -623   -1    0    0    0    0  0.00000000000E+00  0.00000000000E+00  0.12525980253E-10  0.17130000000E+03  0.17130000000E+03 0. -1.
       11    1    1    2    0    0 -0.72491605625E-02  0.55948010720E-02  0.19655665378E-01  0.21690056052E-01  0.51109989000E-03 0.  1.
     -623    1    1    2    0    0  0.18510913587E-01 -0.14342993737E-01  0.13389581683E-01  0.17130000212E+03  0.17130000000E+03 0. -1.
      622    1    1    2    0    0 -0.11261753024E-01  0.87481926654E-02  0.39669547203E+01  0.39783078200E+01  0.30000000000E+00 0.  1.
</event>
<event>
 5   0  0.5137000E+05  0.9118800E+02  0.7818608E-02  0.1180000E+00
       11   -1    0    0    0    0  0.00000000000E+00  0.00000000000E+00  0.39999999673E+01  0.40000000000E+01  0.51109989000E-03 0. -1.
     -623   -1    0    0    0    0  0.00000000000E+00  0.00000000000E+00  0.12525980253E-10  0.17130000000E+03  0.17130000000E+03 0. -1.
       11    1    1    2    0    0 -0.41454775610E-01  0.12495351848E-01  0.11963446823E+01  0.11971280183E+01  0.51109989000E-03 0. -1.
     -623    1    1    2    0    0  0.17234633533E-01 -0.16343296649E-01  0.16994924154E-01  0.17130000249E+03  0.17130000000E+03 0. -1.
      622    1    1    2    0    0  0.24220142077E-01  0.38479448012E-02  0.27866603609E+01  0.28028694920E+01  0.30000000000E+00 0. -1.
</event>
<event>
 5   0  0.5137000E+05  0.9118800E+02  0.7818608E-02  0.1180000E+00
       11   -1    0    0    0    0  0.00000000000E+00  0.00000000000E+00  0.39999999673E+01  0.40000000000E+01  0.51109989000E-03 0.  1.
     -623   -1    0    0    0    0  0.00000000000E+00  0.00000000000E+00  0.12525980253E-10  0.17130000000E+03  0.17130000000E+03 0. -1.
       11    1    1    2    0    0  0.39300297094E-01 -0.28088656028E-01  0.65657958146E+00  0.65835438327E+00  0.51109989000E-03 0.  1.
     -623    1    1    2    0    0 -0.38331492003E-01 -0.78410997531E-02  0.15467710026E-01  0.17130000517E+03  0.17130000000E+03 0. -1.
      622    1    1    2    0    0 -0.96880509099E-03  0.35929755781E-01  0.33279526759E+01  0.33416404503E+01  0.30000000000E+00 0.  1.
</event>
<event>
 5   0  0.5137000E+05  0.9118800E+02  0.7818608E-02  0.1180000E+00
       11   -1    0    0    0    0  0.00000000000E+00  0.00000000000E+00  0.39999999673E+01  0.40000000000E+01  0.51109989000E-03 0.  1.
     -623   -1    0    0    0    0  0.00000000000E+00  0.00000000000E+00  0.12525980253E-10  0.17130000000E+03  0.17130000000E+03 0. -1.
       11    1    1    2    0    0 -0.12282958839E-01 -0.50785696030E-02 -0.22993433209E-02  0.13498561029E-01  0.51109989000E-03 0.  1.
     -623    1    1    2    0    0  0.43334020001E-02  0.10525107486E-01  0.27116203453E-01  0.17130000252E+03  0.17130000000E+03 0. -1.
      622    1    1    2    0    0  0.79495568387E-02 -0.54465378831E-02  0.39751831072E+01  0.39864989146E+01  0.30000000000E+00 0.  1.
</event>
<event>
 5   0  0.5137000E+05  0.9118800E+02  0.7818608E-02  0.1180000E+00
       11   -1    0    0    0    0  0.00000000000E+00  0.00000000000E+00  0.39999999673E+01  0.40000000000E+01  0.51109989000E-03 0.  1.
     -623   -1    0    0    0    0  0.00000000000E+00  0.00000000000E+00  0.12525980253E-10  0.17130000000E+03  0.17130000000E+03 0. -1.
       11    1    1    2    0    0 -0.47670202934E-02  0.68693087973E-02  0.28126926502E+00  0.28139398101E+00  0.51109989000E-03 0.  1.
     -623    1    1    2    0    0  0.11199234743E-01 -0.19800716184E-01  0.12275842957E-01  0.17130000195E+03  0.17130000000E+03 0. -1.
      622    1    1    2    0    0 -0.64322144500E-02  0.12931407386E-01  0.37064548594E+01  0.37186040686E+01  0.30000000000E+00 0.  1.
</event>
<event>
 5   0  0.5137000E+05  0.9118800E+02  0.7818608E-02  0.1180000E+00
       11   -1    0    0    0    0  0.00000000000E+00  0.00000000000E+00  0.39999999673E+01  0.40000000000E+01  0.51109989000E-03 0.  1.
     -623   -1    0    0    0    0  0.00000000000E+00  0.00000000000E+00  0.12525980253E-10  0.17130000000E+03  0.17130000000E+03 0.  1.
       11    1    1    2    0    0 -0.37418204309E-02  0.91371225080E-02  0.16250969727E-01  0.19022183577E-01  0.51109989000E-03 0.  1.
     -623    1    1    2    0    0  0.29675550957E-03 -0.99720145805E-02  0.14093486097E-01  0.17130000087E+03  0.17130000000E+03 0.  1.
      622    1    1    2    0    0  0.34450649214E-02  0.83489207253E-03  0.39696555115E+01  0.39809769461E+01  0.30000000000E+00 0.  1.
</event>
<event>
 5   0  0.5137000E+05  0.9118800E+02  0.7818608E-02  0.1180000E+00
       11   -1    0    0    0    0  0.00000000000E+00  0.00000000000E+00  0.39999999673E+01  0.40000000000E+01  0.51109989000E-03 0. -1.
     -623   -1    0    0    0    0  0.00000000000E+00  0.00000000000E+00  0.12525980253E-10  0.17130000000E+03  0.17130000000E+03 0.  1.
       11    1    1    2    0    0  0.80144223129E-01 -0.55994282438E-01  0.83247360666E+00  0.83819509852E+00  0.51109989000E-03 0. -1.
     -623    1    1    2    0    0  0.33607796476E-02  0.25534056108E-01  0.21244626508E-01  0.17130000325E+03  0.17130000000E+03 0.  1.
      622    1    1    2    0    0 -0.83505002777E-01  0.30460226330E-01  0.31462817342E+01  0.31618016481E+01  0.30000000000E+00 0.  0.
</event>
<event>
 5   0  0.5137000E+05  0.9118800E+02  0.7818608E-02  0.1180000E+00
       11   -1    0    0    0    0  0.00000000000E+00  0.00000000000E+00  0.39999999673E+01  0.40000000000E+01  0.51109989000E-03 0.  1.
     -623   -1    0    0    0    0  0.00000000000E+00  0.00000000000E+00  0.12525980253E-10  0.17130000000E+03  0.17130000000E+03 0. -1.
       11    1    1    2    0    0  0.52807895273E-02 -0.74303587445E-01  0.14367209991E+00  0.16183585314E+00  0.51109989000E-03 0.  1.
     -623    1    1    2    0    0 -0.13327024404E+00 -0.65527255788E-01  0.34672603049E-01  0.17130006788E+03  0.17130000000E+03 0. -1.
      622    1    1    2    0    0  0.12798945452E+00  0.13983084323E+00  0.38216552644E+01  0.38380962631E+01  0.30000000000E+00 0.  1.
</event>
<event>
 5   0  0.5137000E+05  0.9118800E+02  0.7818608E-02  0.1180000E+00
       11   -1    0    0    0    0  0.00000000000E+00  0.00000000000E+00  0.39999999673E+01  0.40000000000E+01  0.51109989000E-03 0.  1.
     -623   -1    0    0    0    0  0.00000000000E+00  0.00000000000E+00  0.12525980253E-10  0.17130000000E+03  0.17130000000E+03 0.  1.
       11    1    1    2    0    0 -0.12921819213E-01 -0.33808103915E-02  0.17144012454E-01  0.21738943783E-01  0.51109989000E-03 0.  1.
     -623    1    1    2    0    0  0.64302436008E-02  0.34199289680E-03  0.15929840120E-01  0.17130000086E+03  0.17130000000E+03 0.  1.
      622    1    1    2    0    0  0.64915756120E-02  0.30388174947E-02  0.39669261148E+01  0.39782601945E+01  0.30000000000E+00 0.  1.
</event>
<event>
 5   0  0.5137000E+05  0.9118800E+02  0.7818608E-02  0.1180000E+00
       11   -1    0    0    0    0  0.00000000000E+00  0.00000000000E+00  0.39999999673E+01  0.40000000000E+01  0.51109989000E-03 0.  1.
     -623   -1    0    0    0    0  0.00000000000E+00  0.00000000000E+00  0.12525980253E-10  0.17130000000E+03  0.17130000000E+03 0.  1.
       11    1    1    2    0    0 -0.14379082472E-01  0.12380337642E-01  0.29759229608E-01  0.35297361698E-01  0.51109989000E-03 0.  1.
     -623    1    1    2    0    0  0.14704442073E-01 -0.61429664524E-02  0.16911064844E-01  0.17130000158E+03  0.17130000000E+03 0.  1.
      622    1    1    2    0    0 -0.32535960097E-03 -0.62373711899E-02  0.39533296729E+01  0.39647010623E+01  0.30000000000E+00 0.  1.
</event>
<event>
 5   0  0.5137000E+05  0.9118800E+02  0.7818608E-02  0.1180000E+00
       11   -1    0    0    0    0  0.00000000000E+00  0.00000000000E+00  0.39999999673E+01  0.40000000000E+01  0.51109989000E-03 0.  1.
     -623   -1    0    0    0    0  0.00000000000E+00  0.00000000000E+00  0.12525980253E-10  0.17130000000E+03  0.17130000000E+03 0.  1.
       11    1    1    2    0    0  0.43511356688E-02 -0.29772823949E-02  0.59248816758E-03  0.53299960031E-02  0.51109989000E-03 0.  1.
     -623    1    1    2    0    0  0.62155399205E-02 -0.14249406004E-01  0.16071142844E-01  0.17130000146E+03  0.17130000000E+03 0.  1.
      622    1    1    2    0    0 -0.10566675589E-01  0.17226688399E-01  0.39833363363E+01  0.39946685447E+01  0.30000000000E+00 0.  1.
</event>
<event>
 5   0  0.5137000E+05  0.9118800E+02  0.7818608E-02  0.1180000E+00
       11   -1    0    0    0    0  0.00000000000E+00  0.00000000000E+00  0.39999999673E+01  0.40000000000E+01  0.51109989000E-03 0.  1.
     -623   -1    0    0    0    0  0.00000000000E+00  0.00000000000E+00  0.12525980253E-10  0.17130000000E+03  0.17130000000E+03 0. -1.
       11    1    1    2    0    0  0.33647529069E-01 -0.32570248244E-01  0.17694327900E+00  0.18303595955E+00  0.51109989000E-03 0.  1.
     -623    1    1    2    0    0  0.67398081629E-02  0.30964471076E-01  0.18118964966E-01  0.17130000389E+03  0.17130000000E+03 0. -1.
      622    1    1    2    0    0 -0.40387337232E-01  0.16057771689E-02  0.38049377234E+01  0.38169601510E+01  0.30000000000E+00 0.  1.
</event>
<event>
 5   0  0.5137000E+05  0.9118800E+02  0.7818608E-02  0.1180000E+00
       11   -1    0    0    0    0  0.00000000000E+00  0.00000000000E+00  0.39999999673E+01  0.40000000000E+01  0.51109989000E-03 0. -1.
     -623   -1    0    0    0    0  0.00000000000E+00  0.00000000000E+00  0.12525980253E-10  0.17130000000E+03  0.17130000000E+03 0. -1.
       11    1    1    2    0    0  0.63693958972E-02 -0.97660878223E-02  0.19452538862E+00  0.19487517471E+00  0.51109989000E-03 0. -1.
     -623    1    1    2    0    0 -0.70651284277E-02  0.10067971121E-01  0.12195298643E-01  0.17130000088E+03  0.17130000000E+03 0. -1.
      622    1    1    2    0    0  0.69573253053E-03 -0.30188329827E-03  0.37932792801E+01  0.38051239496E+01  0.30000000000E+00 0. -1.
</event>
<event>
 5   0  0.5137000E+05  0.9118800E+02  0.7818608E-02  0.1180000E+00
       11   -1    0    0    0    0  0.00000000000E+00  0.00000000000E+00  0.39999999673E+01  0.40000000000E+01  0.51109989000E-03 0.  1.
     -623   -1    0    0    0    0  0.00000000000E+00  0.00000000000E+00  0.12525980253E-10  0.17130000000E+03  0.17130000000E+03 0. -1.
       11    1    1    2    0    0 -0.18961931070E-02  0.27092290433E-01  0.12771612276E+00  0.13057280339E+00  0.51109989000E-03 0.  1.
     -623    1    1    2    0    0  0.96241394864E-01  0.45982451814E-01  0.16384099205E-01  0.17130003399E+03  0.17130000000E+03 0. -1.
      622    1    1    2    0    0 -0.94345201757E-01 -0.73074742246E-01  0.38558997454E+01  0.38693932059E+01  0.30000000000E+00 0.  1.
</event>
<event>
 5   0  0.5137000E+05  0.9118800E+02  0.7818608E-02  0.1180000E+00
       11   -1    0    0    0    0  0.00000000000E+00  0.00000000000E+00  0.39999999673E+01  0.40000000000E+01  0.51109989000E-03 0.  1.
     -623   -1    0    0    0    0  0.00000000000E+00  0.00000000000E+00  0.12525980253E-10  0.17130000000E+03  0.17130000000E+03 0. -1.
       11    1    1    2    0    0  0.13036576862E-01  0.49127432722E-01  0.34901438868E+00  0.35269641579E+00  0.51109989000E-03 0.  1.
     -623    1    1    2    0    0 -0.33318551579E-01 -0.36415993533E-01  0.16127522869E-01  0.17130000787E+03  0.17130000000E+03 0. -1.
      622    1    1    2    0    0  0.20281974717E-01 -0.12711439189E-01  0.36348580558E+01  0.36472957140E+01  0.30000000000E+00 0.  1.
</event>
<event>
 5   0  0.5137000E+05  0.9118800E+02  0.7818608E-02  0.1180000E+00
       11   -1    0    0    0    0  0.00000000000E+00  0.00000000000E+00  0.39999999673E+01  0.40000000000E+01  0.51109989000E-03 0.  1.
     -623   -1    0    0    0    0  0.00000000000E+00  0.00000000000E+00  0.12525980253E-10  0.17130000000E+03  0.17130000000E+03 0. -1.
       11    1    1    2    0    0  0.52893855423E-01  0.50840906102E-01  0.24947079066E+00  0.26003556351E+00  0.51109989000E-03 0.  1.
     -623    1    1    2    0    0 -0.22677983191E-01  0.34096305487E-02  0.23136697092E-01  0.17130000310E+03  0.17130000000E+03 0. -1.
      622    1    1    2    0    0 -0.30215872231E-01 -0.54250536651E-01  0.37273924796E+01  0.37399613389E+01  0.30000000000E+00 0.  1.
</event>
<event>
 5   0  0.5137000E+05  0.9118800E+02  0.7818608E-02  0.1180000E+00
       11   -1    0    0    0    0  0.00000000000E+00  0.00000000000E+00  0.39999999673E+01  0.40000000000E+01  0.51109989000E-03 0.  1.
     -623   -1    0    0    0    0  0.00000000000E+00  0.00000000000E+00  0.12525980253E-10  0.17130000000E+03  0.17130000000E+03 0. -1.
       11    1    1    2    0    0 -0.16826866689E-01  0.49465180813E-03  0.66548784316E+00  0.66570092290E+00  0.51109989000E-03 0.  1.
     -623    1    1    2    0    0  0.13136604366E-01 -0.57274588989E-02  0.13743890645E-01  0.17130000115E+03  0.17130000000E+03 0. -1.
      622    1    1    2    0    0  0.36902623238E-02  0.52328070908E-02  0.33207682336E+01  0.33342979263E+01  0.30000000000E+00 0.  1.
</event>
<event>
 5   0  0.5137000E+05  0.9118800E+02  0.7818608E-02  0.1180000E+00
       11   -1    0    0    0    0  0.00000000000E+00  0.00000000000E+00  0.39999999673E+01  0.40000000000E+01  0.51109989000E-03 0.  1.
     -623   -1    0    0    0    0  0.00000000000E+00  0.00000000000E+00  0.12525980253E-10  0.17130000000E+03  0.17130000000E+03 0. -1.
       11    1    1    2    0    0 -0.84669083712E-02  0.20247910967E-01  0.67865665275E-01  0.71327948115E-01  0.51109989000E-03 0.  1.
     -623    1    1    2    0    0 -0.46541501687E-03 -0.16543989394E-01  0.14946639996E-01  0.17130000145E+03  0.17130000000E+03 0. -1.
      622    1    1    2    0    0  0.89323233881E-02 -0.37039215728E-02  0.39171876621E+01  0.39286706003E+01  0.30000000000E+00 0.  1.
</event>
<event>
 5   0  0.5137000E+05  0.9118800E+02  0.7818608E-02  0.1180000E+00
       11   -1    0    0    0    0  0.00000000000E+00  0.00000000000E+00  0.39999999673E+01  0.40000000000E+01  0.51109989000E-03 0. -1.
     -623   -1    0    0    0    0  0.00000000000E+00  0.00000000000E+00  0.12525980253E-10  0.17130000000E+03  0.17130000000E+03 0.  1.
       11    1    1    2    0    0 -0.25547526846E-02  0.33747414983E-02  0.44928457729E-02  0.61937490824E-02  0.51109989000E-03 0. -1.
     -623    1    1    2    0    0 -0.84031140228E-02 -0.42900110100E-02  0.13000192325E-01  0.17130000075E+03  0.17130000000E+03 0.  1.
      622    1    1    2    0    0  0.10957866707E-01  0.91526951166E-03  0.39825069293E+01  0.39938054978E+01  0.30000000000E+00 0. -1.
</event>
<event>
 5   0  0.5137000E+05  0.9118800E+02  0.7818608E-02  0.1180000E+00
       11   -1    0    0    0    0  0.00000000000E+00  0.00000000000E+00  0.39999999673E+01  0.40000000000E+01  0.51109989000E-03 0.  1.
     -623   -1    0    0    0    0  0.00000000000E+00  0.00000000000E+00  0.12525980253E-10  0.17130000000E+03  0.17130000000E+03 0.  1.
       11    1    1    2    0    0 -0.46695048889E-01  0.77304150421E-01  0.64716840070E+00  0.65343979015E+00  0.51109989000E-03 0.  1.
     -623    1    1    2    0    0 -0.67757511656E-01 -0.66407079460E-02  0.22475413782E-01  0.17130001500E+03  0.17130000000E+03 0.  1.
      622    1    1    2    0    0  0.11445256054E+00 -0.70663442475E-01  0.33303561529E+01  0.33465452060E+01  0.30000000000E+00 0.  1.
</event>
<event>
 5   0  0.5137000E+05  0.9118800E+02  0.7818608E-02  0.1180000E+00
       11   -1    0    0    0    0  0.00000000000E+00  0.00000000000E+00  0.39999999673E+01  0.40000000000E+01  0.51109989000E-03 0.  1.
     -623   -1    0    0    0    0  0.00000000000E+00  0.00000000000E+00  0.12525980253E-10  0.17130000000E+03  0.17130000000E+03 0. -1.
       11    1    1    2    0    0  0.67758016066E-01  0.44122301419E-01  0.39745150005E+00  0.40559324740E+00  0.51109989000E-03 0.  1.
     -623    1    1    2    0    0 -0.21356912311E-02  0.36139032252E-01  0.22189002032E-01  0.17130000526E+03  0.17130000000E+03 0. -1.
      622    1    1    2    0    0 -0.65622324835E-01 -0.80261333671E-01  0.35803594653E+01  0.35944014901E+01  0.30000000000E+00 0.  1.
</event>
<event>
 5   0  0.5137000E+05  0.9118800E+02  0.7818608E-02  0.1180000E+00
       11   -1    0    0    0    0  0.00000000000E+00  0.00000000000E+00  0.39999999673E+01  0.40000000000E+01  0.51109989000E-03 0.  1.
     -623   -1    0    0    0    0  0.00000000000E+00  0.00000000000E+00  0.12525980253E-10  0.17130000000E+03  0.17130000000E+03 0.  1.
       11    1    1    2    0    0 -0.25870329057E-01  0.11151242274E-01  0.56037233820E-01  0.62722060921E-01  0.51109989000E-03 0.  1.
     -623    1    1    2    0    0  0.58318659467E-02 -0.32770322013E-01  0.18245534286E-01  0.17130000421E+03  0.17130000000E+03 0.  1.
      622    1    1    2    0    0  0.20038463110E-01  0.21619079739E-01  0.39257171993E+01  0.39372737336E+01  0.30000000000E+00 0.  1.
</event>
<event>
 5   0  0.5137000E+05  0.9118800E+02  0.7818608E-02  0.1180000E+00
       11   -1    0    0    0    0  0.00000000000E+00  0.00000000000E+00  0.39999999673E+01  0.40000000000E+01  0.51109989000E-03 0. -1.
     -623   -1    0    0    0    0  0.00000000000E+00  0.00000000000E+00  0.12525980253E-10  0.17130000000E+03  0.17130000000E+03 0. -1.
       11    1    1    2    0    0  0.55574507443E-02 -0.20432223497E-01  0.27996620999E+00  0.28076627463E+00  0.51109989000E-03 0. -1.
     -623    1    1    2    0    0  0.54858892160E-03 -0.12327104707E-01  0.13069766181E-01  0.17130000094E+03  0.17130000000E+03 0. -1.
      622    1    1    2    0    0 -0.61060396659E-02  0.32759328204E-01  0.37069639912E+01  0.37192327824E+01  0.30000000000E+00 0. -1.
</event>
<event>
 5   0  0.5137000E+05  0.9118800E+02  0.7818608E-02  0.1180000E+00
       11   -1    0    0    0    0  0.00000000000E+00  0.00000000000E+00  0.39999999673E+01  0.40000000000E+01  0.51109989000E-03 0.  1.
     -623   -1    0    0    0    0  0.00000000000E+00  0.00000000000E+00  0.12525980253E-10  0.17130000000E+03  0.17130000000E+03 0. -1.
       11    1    1    2    0    0 -0.99951713725E-02 -0.42975404285E-01  0.15133506162E+00  0.15763676894E+00  0.51109989000E-03 0.  1.
     -623    1    1    2    0    0  0.19040498456E-01 -0.14683891380E-01  0.18478466462E-01  0.17130000268E+03  0.17130000000E+03 0. -1.
      622    1    1    2    0    0 -0.90453270839E-02  0.57659295665E-01  0.38301864393E+01  0.38423605468E+01  0.30000000000E+00 0.  1.
</event>
<event>
 5   0  0.5137000E+05  0.9118800E+02  0.7818608E-02  0.1180000E+00
       11   -1    0    0    0    0  0.00000000000E+00  0.00000000000E+00  0.39999999673E+01  0.40000000000E+01  0.51109989000E-03 0. -1.
     -623   -1    0    0    0    0  0.00000000000E+00  0.00000000000E+00  0.12525980253E-10  0.17130000000E+03  0.17130000000E+03 0. -1.
       11    1    1    2    0    0  0.42477109844E-01 -0.56103394102E-01  0.16806686159E+00  0.18220490356E+00  0.51109989000E-03 0. -1.
     -623    1    1    2    0    0  0.45985421515E-01  0.76007379184E-01  0.27048689728E-01  0.17130002517E+03  0.17130000000E+03 0. -1.
      622    1    1    2    0    0 -0.88462531359E-01 -0.19903985081E-01  0.38048844160E+01  0.38177699260E+01  0.30000000000E+00 0. -1.
</event>
<event>
 5   0  0.5137000E+05  0.9118800E+02  0.7818608E-02  0.1180000E+00
       11   -1    0    0    0    0  0.00000000000E+00  0.00000000000E+00  0.39999999673E+01  0.40000000000E+01  0.51109989000E-03 0.  1.
     -623   -1    0    0    0    0  0.00000000000E+00  0.00000000000E+00  0.12525980253E-10  0.17130000000E+03  0.17130000000E+03 0.  1.
       11    1    1    2    0    0 -0.74076341805E-02 -0.20077309626E-01  0.38191184792E-01  0.43781265684E-01  0.51109989000E-03 0.  1.
     -623    1    1    2    0    0 -0.17357180074E-01  0.93789568991E-02  0.17075179425E-01  0.17130000199E+03  0.17130000000E+03 0.  1.
      622    1    1    2    0    0  0.24764814254E-01  0.10698352727E-01  0.39447336032E+01  0.39562167472E+01  0.30000000000E+00 0.  1.
</event>
<event>
 5   0  0.5137000E+05  0.9118800E+02  0.7818608E-02  0.1180000E+00
       11   -1    0    0    0    0  0.00000000000E+00  0.00000000000E+00  0.39999999673E+01  0.40000000000E+01  0.51109989000E-03 0. -1.
     -623   -1    0    0    0    0  0.00000000000E+00  0.00000000000E+00  0.12525980253E-10  0.17130000000E+03  0.17130000000E+03 0.  1.
       11    1    1    2    0    0 -0.56270494671E-01  0.14264331604E-01  0.19854690614E+00  0.20685979524E+00  0.51109989000E-03 0. -1.
     -623    1    1    2    0    0  0.15951334707E-01 -0.45932995970E-01  0.20550739117E-01  0.17130000813E+03  0.17130000000E+03 0.  1.
      622    1    1    2    0    0  0.40319159964E-01  0.31668664366E-01  0.37809023221E+01  0.37931320710E+01  0.30000000000E+00 0. -1.
</event>
<event>
 5   0  0.5137000E+05  0.9118800E+02  0.7818608E-02  0.1180000E+00
       11   -1    0    0    0    0  0.00000000000E+00  0.00000000000E+00  0.39999999673E+01  0.40000000000E+01  0.51109989000E-03 0. -1.
     -623   -1    0    0    0    0  0.00000000000E+00  0.00000000000E+00  0.12525980253E-10  0.17130000000E+03  0.17130000000E+03 0. -1.
       11    1    1    2    0    0 -0.20579679627E-01 -0.11544070850E-01  0.51370215538E-01  0.56532725490E-01  0.51109989000E-03 0. -1.
     -623    1    1    2    0    0  0.41669345363E-01  0.26754330480E-01  0.16684284121E-01  0.17130000797E+03  0.17130000000E+03 0. -1.
      622    1    1    2    0    0 -0.21089665737E-01 -0.15210259630E-01  0.39319454677E+01  0.39434593046E+01  0.30000000000E+00 0. -1.
</event>
<event>
 5   0  0.5137000E+05  0.9118800E+02  0.7818608E-02  0.1180000E+00
       11   -1    0    0    0    0  0.00000000000E+00  0.00000000000E+00  0.39999999673E+01  0.40000000000E+01  0.51109989000E-03 0.  1.
     -623   -1    0    0    0    0  0.00000000000E+00  0.00000000000E+00  0.12525980253E-10  0.17130000000E+03  0.17130000000E+03 0. -1.
       11    1    1    2    0    0 -0.82354270076E-01 -0.41417074770E-02  0.40504916664E+00  0.41335755486E+00  0.51109989000E-03 0.  1.
     -623    1    1    2    0    0  0.97645636864E-02 -0.14818712871E-01  0.21666758987E-01  0.17130000229E+03  0.17130000000E+03 0. -1.
      622    1    1    2    0    0  0.72589706389E-01  0.18960420348E-01  0.35732840417E+01  0.35866401556E+01  0.30000000000E+00 0.  1.
</event>
<event>
 5   0  0.5137000E+05  0.9118800E+02  0.7818608E-02  0.1180000E+00
       11   -1    0    0    0    0  0.00000000000E+00  0.00000000000E+00  0.39999999673E+01  0.40000000000E+01  0.51109989000E-03 0. -1.
     -623   -1    0    0    0    0  0.00000000000E+00  0.00000000000E+00  0.12525980253E-10  0.17130000000E+03  0.17130000000E+03 0. -1.
       11    1    1    2    0    0 -0.34492134326E-03 -0.26908228584E-02  0.19911424322E-01  0.20101878955E-01  0.51109989000E-03 0. -1.
     -623    1    1    2    0    0 -0.70050288896E-02 -0.92196506484E-02  0.11538812422E-01  0.17130000078E+03  0.17130000000E+03 0. -1.
      622    1    1    2    0    0  0.73499502329E-02  0.11910473507E-01  0.39685497306E+01  0.39798973411E+01  0.30000000000E+00 0. -1.
</event>
<event>
 5   0  0.5137000E+05  0.9118800E+02  0.7818608E-02  0.1180000E+00
       11   -1    0    0    0    0  0.00000000000E+00  0.00000000000E+00  0.39999999673E+01  0.40000000000E+01  0.51109989000E-03 0.  1.
     -623   -1    0    0    0    0  0.00000000000E+00  0.00000000000E+00  0.12525980253E-10  0.17130000000E+03  0.17130000000E+03 0. -1.
       11    1    1    2    0    0  0.91281626908E-02 -0.15904857798E-01  0.54327619017E-01  0.57341427144E-01  0.51109989000E-03 0.  1.
     -623    1    1    2    0    0 -0.50180096204E-01 -0.79926345095E-02  0.14739145540E-01  0.17130000817E+03  0.17130000000E+03 0. -1.
      622    1    1    2    0    0  0.41051933513E-01  0.23897492307E-01  0.39309332028E+01  0.39426504025E+01  0.30000000000E+00 0.  1.
</event>
<event>
 5   0  0.5137000E+05  0.9118800E+02  0.7818608E-02  0.1180000E+00
       11   -1    0    0    0    0  0.00000000000E+00  0.00000000000E+00  0.39999999673E+01  0.40000000000E+01  0.51109989000E-03 0.  1.
     -623   -1    0    0    0    0  0.00000000000E+00  0.00000000000E+00  0.12525980253E-10  0.17130000000E+03  0.17130000000E+03 0.  1.
       11    1    1    2    0    0 -0.28892582562E-01 -0.18736767136E-01  0.99628011050E-01  0.10541275814E+00  0.51109989000E-03 0.  1.
     -623    1    1    2    0    0  0.95273718659E-02  0.41593656572E-01  0.17478190895E-01  0.17130000621E+03  0.17130000000E+03 0.  1.
      622    1    1    2    0    0  0.19365210697E-01 -0.22856889436E-01  0.38828937654E+01  0.38945810355E+01  0.30000000000E+00 0.  1.
</event>
<event>
 5   0  0.5137000E+05  0.9118800E+02  0.7818608E-02  0.1180000E+00
       11   -1    0    0    0    0  0.00000000000E+00  0.00000000000E+00  0.39999999673E+01  0.40000000000E+01  0.51109989000E-03 0.  1.
     -623   -1    0    0    0    0  0.00000000000E+00  0.00000000000E+00  0.12525980253E-10  0.17130000000E+03  0.17130000000E+03 0.  1.
       11    1    1    2    0    0  0.40327048384E-01  0.45893210036E-01  0.11295758348E+00  0.12842170551E+00  0.51109989000E-03 0.  1.
     -623    1    1    2    0    0 -0.47615162418E-01 -0.30972164298E-02  0.27357746148E-01  0.17130000883E+03  0.17130000000E+03 0.  1.
      622    1    1    2    0    0  0.72881140340E-02 -0.42795993606E-01  0.38596846378E+01  0.38715694643E+01  0.30000000000E+00 0.  1.
</event>
<event>
 5   0  0.5137000E+05  0.9118800E+02  0.7818608E-02  0.1180000E+00
       11   -1    0    0    0    0  0.00000000000E+00  0.00000000000E+00  0.39999999673E+01  0.40000000000E+01  0.51109989000E-03 0. -1.
     -623   -1    0    0    0    0  0.00000000000E+00  0.00000000000E+00  0.12525980253E-10  0.17130000000E+03  0.17130000000E+03 0.  1.
       11    1    1    2    0    0 -0.17754022289E-01  0.58737868810E-02  0.50715742061E-01  0.54056030151E-01  0.51109989000E-03 0. -1.
     -623    1    1    2    0    0  0.47339545078E-02  0.11908384657E-01  0.14823748856E-01  0.17130000112E+03  0.17130000000E+03 0.  1.
      622    1    1    2    0    0  0.13020067782E-01 -0.17782171538E-01  0.39344604765E+01  0.39459428491E+01  0.30000000000E+00 0. -1.
</event>
<event>
 5   0  0.5137000E+05  0.9118800E+02  0.7818608E-02  0.1180000E+00
       11   -1    0    0    0    0  0.00000000000E+00  0.00000000000E+00  0.39999999673E+01  0.40000000000E+01  0.51109989000E-03 0.  1.
     -623   -1    0    0    0    0  0.00000000000E+00  0.00000000000E+00  0.12525980253E-10  0.17130000000E+03  0.17130000000E+03 0. -1.
       11    1    1    2    0    0 -0.47264746267E-02 -0.19737252330E-01 -0.34927836710E-05  0.20301722271E-01  0.51109989000E-03 0.  1.
     -623    1    1    2    0    0  0.29496932124E-01 -0.51838699934E-01  0.32365030441E-01  0.17130001344E+03  0.17130000000E+03 0. -1.
      622    1    1    2    0    0 -0.24770457497E-01  0.71575952264E-01  0.39676384297E+01  0.39796848369E+01  0.30000000000E+00 0.  1.
</event>
<event>
 5   0  0.5137000E+05  0.9118800E+02  0.7818608E-02  0.1180000E+00
       11   -1    0    0    0    0  0.00000000000E+00  0.00000000000E+00  0.39999999673E+01  0.40000000000E+01  0.51109989000E-03 0. -1.
     -623   -1    0    0    0    0  0.00000000000E+00  0.00000000000E+00  0.12525980253E-10  0.17130000000E+03  0.17130000000E+03 0.  1.
       11    1    1    2    0    0  0.74515916643E-01 -0.44314871458E-02  0.10263795786E+01  0.10290906473E+01  0.51109989000E-03 0. -1.
     -623    1    1    2    0    0 -0.23490688955E-01  0.22974973417E-01  0.18399525531E-01  0.17130000414E+03  0.17130000000E+03 0.  1.
      622    1    1    2    0    0 -0.51025227688E-01 -0.18543486272E-01  0.29552208633E+01  0.29709052132E+01  0.30000000000E+00 0. -1.
</event>
<event>
 5   0  0.5137000E+05  0.9118800E+02  0.7818608E-02  0.1180000E+00
       11   -1    0    0    0    0  0.00000000000E+00  0.00000000000E+00  0.39999999673E+01  0.40000000000E+01  0.51109989000E-03 0. -1.
     -623   -1    0    0    0    0  0.00000000000E+00  0.00000000000E+00  0.12525980253E-10  0.17130000000E+03  0.17130000000E+03 0.  1.
       11    1    1    2    0    0  0.62854820164E-01 -0.43426497174E-01  0.10609328732E+00  0.13073880798E+00  0.51109989000E-03 0. -1.
     -623    1    1    2    0    0 -0.10735613190E+00  0.87459667037E-01  0.36861296508E-01  0.17130005993E+03  0.17130000000E+03 0.  1.
      622    1    1    2    0    0  0.44501311741E-01 -0.44033169863E-01  0.38570453835E+01  0.38692012583E+01  0.30000000000E+00 0. -1.
</event>
<event>
 5   0  0.5137000E+05  0.9118800E+02  0.7818608E-02  0.1180000E+00
       11   -1    0    0    0    0  0.00000000000E+00  0.00000000000E+00  0.39999999673E+01  0.40000000000E+01  0.51109989000E-03 0. -1.
     -623   -1    0    0    0    0  0.00000000000E+00  0.00000000000E+00  0.12525980253E-10  0.17130000000E+03  0.17130000000E+03 0.  1.
       11    1    1    2    0    0  0.69722598882E-02  0.28726460260E-01  0.17419251669E+00  0.17668366088E+00  0.51109989000E-03 0. -1.
     -623    1    1    2    0    0 -0.33383990175E-01  0.11530344261E-01  0.14587560978E-01  0.17130000426E+03  0.17130000000E+03 0.  1.
      622    1    1    2    0    0  0.26411730287E-01 -0.40256804521E-01  0.38112198897E+01  0.38233120769E+01  0.30000000000E+00 0. -1.
</event>
<event>
 5   0  0.5137000E+05  0.9118800E+02  0.7818608E-02  0.1180000E+00
       11   -1    0    0    0    0  0.00000000000E+00  0.00000000000E+00  0.39999999673E+01  0.40000000000E+01  0.51109989000E-03 0.  1.
     -623   -1    0    0    0    0  0.00000000000E+00  0.00000000000E+00  0.12525980253E-10  0.17130000000E+03  0.17130000000E+03 0.  1.
       11    1    1    2    0    0 -0.37682643018E-01 -0.62766262279E-02  0.40441946633E+00  0.40622006793E+00  0.51109989000E-03 0.  1.
     -623    1    1    2    0    0  0.18555013820E-01 -0.16318767378E-01  0.14468860734E-01  0.17130000239E+03  0.17130000000E+03 0.  1.
      622    1    1    2    0    0  0.19127629198E-01  0.22595393606E-01  0.35811116403E+01  0.35937775388E+01  0.30000000000E+00 0.  1.
</event>
<event>
 5   0  0.5137000E+05  0.9118800E+02  0.7818608E-02  0.1180000E+00
       11   -1    0    0    0    0  0.00000000000E+00  0.00000000000E+00  0.39999999673E+01  0.40000000000E+01  0.51109989000E-03 0.  1.
     -623   -1    0    0    0    0  0.00000000000E+00  0.00000000000E+00  0.12525980253E-10  0.17130000000E+03  0.17130000000E+03 0.  1.
       11    1    1    2    0    0  0.31358363148E-01 -0.13958621508E-01  0.13327379354E+00  0.13762396347E+00  0.51109989000E-03 0.  1.
     -623    1    1    2    0    0 -0.13209453694E-03  0.23050111379E-01  0.16158287704E-01  0.17130000231E+03  0.17130000000E+03 0.  1.
      622    1    1    2    0    0 -0.31226268611E-01 -0.90914898709E-02  0.38505678861E+01  0.38623737236E+01  0.30000000000E+00 0.  1.
</event>
<event>
 5   0  0.5137000E+05  0.9118800E+02  0.7818608E-02  0.1180000E+00
       11   -1    0    0    0    0  0.00000000000E+00  0.00000000000E+00  0.39999999673E+01  0.40000000000E+01  0.51109989000E-03 0.  1.
     -623   -1    0    0    0    0  0.00000000000E+00  0.00000000000E+00  0.12525980253E-10  0.17130000000E+03  0.17130000000E+03 0.  1.
       11    1    1    2    0    0  0.25176998673E-01  0.27656738592E-02  0.36949911138E+00  0.37036655457E+00  0.51109989000E-03 0.  1.
     -623    1    1    2    0    0  0.15675351492E-01 -0.66231937654E-02  0.13520742162E-01  0.17130000138E+03  0.17130000000E+03 0.  1.
      622    1    1    2    0    0 -0.40852350165E-01  0.38575199062E-02  0.36169801138E+01  0.36296320666E+01  0.30000000000E+00 0.  1.
</event>
<event>
 5   0  0.5137000E+05  0.9118800E+02  0.7818608E-02  0.1180000E+00
       11   -1    0    0    0    0  0.00000000000E+00  0.00000000000E+00  0.39999999673E+01  0.40000000000E+01  0.51109989000E-03 0.  1.
     -623   -1    0    0    0    0  0.00000000000E+00  0.00000000000E+00  0.12525980253E-10  0.17130000000E+03  0.17130000000E+03 0.  1.
       11    1    1    2    0    0 -0.10403072472E-01  0.74719847623E-02  0.95513067575E-02  0.15985717282E-01  0.51109989000E-03 0.  1.
     -623    1    1    2    0    0  0.21372943910E-02 -0.77746028263E-02  0.17755298882E-01  0.17130000111E+03  0.17130000000E+03 0.  1.
      622    1    1    2    0    0  0.82657780812E-02  0.30261806404E-03  0.39726933617E+01  0.39840131728E+01  0.30000000000E+00 0.  1.
</event>
<event>
 5   0  0.5137000E+05  0.9118800E+02  0.7818608E-02  0.1180000E+00
       11   -1    0    0    0    0  0.00000000000E+00  0.00000000000E+00  0.39999999673E+01  0.40000000000E+01  0.51109989000E-03 0.  1.
     -623   -1    0    0    0    0  0.00000000000E+00  0.00000000000E+00  0.12525980253E-10  0.17130000000E+03  0.17130000000E+03 0.  1.
       11    1    1    2    0    0  0.12248974410E+00  0.72102652522E-01  0.11404095033E+01  0.11492330601E+01  0.51109989000E-03 0.  1.
     -623    1    1    2    0    0  0.24545685662E-01 -0.22096344589E-01  0.28915627415E-01  0.17130000562E+03  0.17130000000E+03 0.  1.
      622    1    1    2    0    0 -0.14703542976E+00 -0.50006307932E-01  0.28306748366E+01  0.28507613157E+01  0.30000000000E+00 0.  1.
</event>
<event>
 5   0  0.5137000E+05  0.9118800E+02  0.7818608E-02  0.1180000E+00
       11   -1    0    0    0    0  0.00000000000E+00  0.00000000000E+00  0.39999999673E+01  0.40000000000E+01  0.51109989000E-03 0.  1.
     -623   -1    0    0    0    0  0.00000000000E+00  0.00000000000E+00  0.12525980253E-10  0.17130000000E+03  0.17130000000E+03 0. -1.
       11    1    1    2    0    0  0.15441541043E-01 -0.54185171370E-01  0.39804506000E+00  0.40201319008E+00  0.51109989000E-03 0.  1.
     -623    1    1    2    0    0 -0.85793480537E-01  0.96667904815E-02  0.17486352945E-01  0.17130002265E+03  0.17130000000E+03 0. -1.
      622    1    1    2    0    0  0.70351939493E-01  0.44518380889E-01  0.35844685544E+01  0.35979641604E+01  0.30000000000E+00 0.  1.
</event>
<event>
 5   0  0.5137000E+05  0.9118800E+02  0.7818608E-02  0.1180000E+00
       11   -1    0    0    0    0  0.00000000000E+00  0.00000000000E+00  0.39999999673E+01  0.40000000000E+01  0.51109989000E-03 0. -1.
     -623   -1    0    0    0    0  0.00000000000E+00  0.00000000000E+00  0.12525980253E-10  0.17130000000E+03  0.17130000000E+03 0. -1.
       11    1    1    2    0    0 -0.31344376023E-01  0.49480320776E-01  0.99217672314E-01  0.11521796637E+00  0.51109989000E-03 0. -1.
     -623    1    1    2    0    0 -0.16331929924E-01  0.76746995382E-02  0.28319751729E-01  0.17130000329E+03  0.17130000000E+03 0. -1.
      622    1    1    2    0    0  0.47676305947E-01 -0.57155020315E-01  0.38724625433E+01  0.38847787422E+01  0.30000000000E+00 0. -1.
</event>
<event>
 5   0  0.5137000E+05  0.9118800E+02  0.7818608E-02  0.1180000E+00
       11   -1    0    0    0    0  0.00000000000E+00  0.00000000000E+00  0.39999999673E+01  0.40000000000E+01  0.51109989000E-03 0. -1.
     -623   -1    0    0    0    0  0.00000000000E+00  0.00000000000E+00  0.12525980253E-10  0.17130000000E+03  0.17130000000E+03 0.  1.
       11    1    1    2    0    0  0.36893423997E-01  0.26963340874E-01  0.18262587533E+00  0.18825678753E+00  0.51109989000E-03 0. -1.
     -623    1    1    2    0    0 -0.10102255611E-01 -0.14940581461E-01  0.17570163268E-01  0.17130000185E+03  0.17130000000E+03 0.  1.
      622    1    1    2    0    0 -0.26791168386E-01 -0.12022759413E-01  0.37998039288E+01  0.38117413620E+01  0.30000000000E+00 0. -1.
</event>
<event>
 5   0  0.5137000E+05  0.9118800E+02  0.7818608E-02  0.1180000E+00
       11   -1    0    0    0    0  0.00000000000E+00  0.00000000000E+00  0.39999999673E+01  0.40000000000E+01  0.51109989000E-03 0.  1.
     -623   -1    0    0    0    0  0.00000000000E+00  0.00000000000E+00  0.12525980253E-10  0.17130000000E+03  0.17130000000E+03 0.  1.
       11    1    1    2    0    0  0.74006001608E-02 -0.20838512764E-01  0.54051323865E-01  0.58402220263E-01  0.51109989000E-03 0.  1.
     -623    1    1    2    0    0  0.28325714488E-02  0.15002465045E-01  0.15803204722E-01  0.17130000141E+03  0.17130000000E+03 0.  1.
      622    1    1    2    0    0 -0.10233171610E-01  0.58360477187E-02  0.39301454388E+01  0.39415963704E+01  0.30000000000E+00 0.  1.
</event>
<event>
 5   0  0.5137000E+05  0.9118800E+02  0.7818608E-02  0.1180000E+00
       11   -1    0    0    0    0  0.00000000000E+00  0.00000000000E+00  0.39999999673E+01  0.40000000000E+01  0.51109989000E-03 0.  1.
     -623   -1    0    0    0    0  0.00000000000E+00  0.00000000000E+00  0.12525980253E-10  0.17130000000E+03  0.17130000000E+03 0.  1.
       11    1    1    2    0    0  0.51383962029E-02 -0.28150511476E-01  0.14408267385E+00  0.14689769412E+00  0.51109989000E-03 0.  1.
     -623    1    1    2    0    0  0.54770702060E-01  0.14191058661E-01  0.15014230840E-01  0.17130001000E+03  0.17130000000E+03 0.  1.
      622    1    1    2    0    0 -0.59909098263E-01  0.13959452815E-01  0.38409030627E+01  0.38530923040E+01  0.30000000000E+00 0.  1.
</event>
<event>
 5   0  0.5137000E+05  0.9118800E+02  0.7818608E-02  0.1180000E+00
       11   -1    0    0    0    0  0.00000000000E+00  0.00000000000E+00  0.39999999673E+01  0.40000000000E+01  0.51109989000E-03 0.  1.
     -623   -1    0    0    0    0  0.00000000000E+00  0.00000000000E+00  0.12525980253E-10  0.17130000000E+03  0.17130000000E+03 0.  1.
       11    1    1    2    0    0  0.53577874760E-02 -0.53719374122E-02  0.35625607386E-02  0.83974197738E-02  0.51109989000E-03 0.  1.
     -623    1    1    2    0    0 -0.59422523261E-02  0.37501261129E-02  0.16125738334E-01  0.17130000090E+03  0.17130000000E+03 0.  1.
      622    1    1    2    0    0  0.58446485006E-03  0.16218112993E-02  0.39803116683E+01  0.39916016771E+01  0.30000000000E+00 0.  1.
</event>
<event>
 5   0  0.5137000E+05  0.9118800E+02  0.7818608E-02  0.1180000E+00
       11   -1    0    0    0    0  0.00000000000E+00  0.00000000000E+00  0.39999999673E+01  0.40000000000E+01  0.51109989000E-03 0. -1.
     -623   -1    0    0    0    0  0.00000000000E+00  0.00000000000E+00  0.12525980253E-10  0.17130000000E+03  0.17130000000E+03 0.  1.
       11    1    1    2    0    0  0.46909546242E-01  0.29923609340E-01  0.23091698309E+00  0.23752650847E+00  0.51109989000E-03 0. -1.
     -623    1    1    2    0    0 -0.35435176440E-01 -0.41460718048E-02  0.18699671264E-01  0.17130000474E+03  0.17130000000E+03 0.  1.
      622    1    1    2    0    0 -0.11474369802E-01 -0.25777537535E-01  0.37503833130E+01  0.37624687557E+01  0.30000000000E+00 0. -1.
</event>
<event>
 5   0  0.5137000E+05  0.9118800E+02  0.7818608E-02  0.1180000E+00
       11   -1    0    0    0    0  0.00000000000E+00  0.00000000000E+00  0.39999999673E+01  0.40000000000E+01  0.51109989000E-03 0.  1.
     -623   -1    0    0    0    0  0.00000000000E+00  0.00000000000E+00  0.12525980253E-10  0.17130000000E+03  0.17130000000E+03 0. -1.
       11    1    1    2    0    0 -0.55494117293E-01  0.47050842160E-01  0.45816402458E+00  0.46390506943E+00  0.51109989000E-03 0.  1.
     -623    1    1    2    0    0  0.20693066732E-01  0.10081845199E-01  0.19127664913E-01  0.17130000261E+03  0.17130000000E+03 0. -1.
      622    1    1    2    0    0  0.34801050560E-01 -0.57132687358E-01  0.35227082779E+01  0.35360923161E+01  0.30000000000E+00 0.  1.
</event>
<event>
 5   0  0.5137000E+05  0.9118800E+02  0.7818608E-02  0.1180000E+00
       11   -1    0    0    0    0  0.00000000000E+00  0.00000000000E+00  0.39999999673E+01  0.40000000000E+01  0.51109989000E-03 0.  1.
     -623   -1    0    0    0    0  0.00000000000E+00  0.00000000000E+00  0.12525980253E-10  0.17130000000E+03  0.17130000000E+03 0.  1.
       11    1    1    2    0    0  0.82914398212E-02  0.18490184178E-01  0.47634814939E-01  0.51768443116E-01  0.51109989000E-03 0.  1.
     -623    1    1    2    0    0 -0.32204524982E-03 -0.20039303680E-02  0.15590911823E-01  0.17130000072E+03  0.17130000000E+03 0.  1.
      622    1    1    2    0    0 -0.79693945714E-02 -0.16486253810E-01  0.39367742406E+01  0.39482308353E+01  0.30000000000E+00 0.  1.
</event>
<event>
 5   0  0.5137000E+05  0.9118800E+02  0.7818608E-02  0.1180000E+00
       11   -1    0    0    0    0  0.00000000000E+00  0.00000000000E+00  0.39999999673E+01  0.40000000000E+01  0.51109989000E-03 0.  1.
     -623   -1    0    0    0    0  0.00000000000E+00  0.00000000000E+00  0.12525980253E-10  0.17130000000E+03  0.17130000000E+03 0. -1.
       11    1    1    2    0    0 -0.29646720146E-01  0.10263687957E+00  0.26243693645E+00  0.28334901429E+00  0.51109989000E-03 0.  1.
     -623    1    1    2    0    0 -0.24013074695E-01  0.19253047892E-01  0.35440637444E-01  0.17130000643E+03  0.17130000000E+03 0. -1.
      622    1    1    2    0    0  0.53659794841E-01 -0.12188992746E+00  0.37021223935E+01  0.37166445545E+01  0.30000000000E+00 0.  1.
</event>
<event>
 5   0  0.5137000E+05  0.9118800E+02  0.7818608E-02  0.1180000E+00
       11   -1    0    0    0    0  0.00000000000E+00  0.00000000000E+00  0.39999999673E+01  0.40000000000E+01  0.51109989000E-03 0.  1.
     -623   -1    0    0    0    0  0.00000000000E+00  0.00000000000E+00  0.12525980253E-10  0.17130000000E+03  0.17130000000E+03 0.  1.
       11    1    1    2    0    0 -0.15242051264E-01  0.22260725509E-02  0.46558678856E-01  0.49043320907E-01  0.51109989000E-03 0.  1.
     -623    1    1    2    0    0  0.22281192898E-01 -0.10588224432E-01  0.13908231506E-01  0.17130000234E+03  0.17130000000E+03 0.  1.
      622    1    1    2    0    0 -0.70391416343E-02  0.83621518811E-02  0.39395330570E+01  0.39509543381E+01  0.30000000000E+00 0.  1.
</event>
<event>
 5   0  0.5137000E+05  0.9118800E+02  0.7818608E-02  0.1180000E+00
       11   -1    0    0    0    0  0.00000000000E+00  0.00000000000E+00  0.39999999673E+01  0.40000000000E+01  0.51109989000E-03 0. -1.
     -623   -1    0    0    0    0  0.00000000000E+00  0.00000000000E+00  0.12525980253E-10  0.17130000000E+03  0.17130000000E+03 0.  1.
       11    1    1    2    0    0 -0.17634637703E-01  0.19886829333E-01  0.53397995917E-02  0.27115329809E-01  0.51109989000E-03 0. -1.
     -623    1    1    2    0    0  0.19572573150E-01 -0.37041379486E-01  0.33164446063E-01  0.17130000833E+03  0.17130000000E+03 0.  1.
      622    1    1    2    0    0 -0.19379354467E-02  0.17154550153E-01  0.39614957217E+01  0.39728763368E+01  0.30000000000E+00 0. -1.
</event>
<event>
 5   0  0.5137000E+05  0.9118800E+02  0.7818608E-02  0.1180000E+00
       11   -1    0    0    0    0  0.00000000000E+00  0.00000000000E+00  0.39999999673E+01  0.40000000000E+01  0.51109989000E-03 0.  1.
     -623   -1    0    0    0    0  0.00000000000E+00  0.00000000000E+00  0.12525980253E-10  0.17130000000E+03  0.17130000000E+03 0. -1.
       11    1    1    2    0    0  0.77574121578E-03  0.23664693244E-01  0.14850166735E+00  0.15037827606E+00  0.51109989000E-03 0.  1.
     -623    1    1    2    0    0 -0.27745793198E-01 -0.23961908503E-01  0.13683096778E-01  0.17130000447E+03  0.17130000000E+03 0. -1.
      622    1    1    2    0    0  0.26970051982E-01  0.29721525931E-03  0.38378152033E+01  0.38496172545E+01  0.30000000000E+00 0.  1.
</event>
<event>
 5   0  0.5137000E+05  0.9118800E+02  0.7818608E-02  0.1180000E+00
       11   -1    0    0    0    0  0.00000000000E+00  0.00000000000E+00  0.39999999673E+01  0.40000000000E+01  0.51109989000E-03 0.  1.
     -623   -1    0    0    0    0  0.00000000000E+00  0.00000000000E+00  0.12525980253E-10  0.17130000000E+03  0.17130000000E+03 0. -1.
       11    1    1    2    0    0 -0.23358380524E-02  0.17866083975E-01  0.12806676821E-01  0.22111655079E-01  0.51109989000E-03 0.  1.
     -623    1    1    2    0    0 -0.75345801616E-01  0.42704367182E-02  0.21474155171E-01  0.17130001797E+03  0.17130000000E+03 0. -1.
      622    1    1    2    0    0  0.77681639668E-01 -0.22136520693E-01  0.39657191354E+01  0.39778703754E+01  0.30000000000E+00 0.  1.
</event>
<event>
 5   0  0.5137000E+05  0.9118800E+02  0.7818608E-02  0.1180000E+00
       11   -1    0    0    0    0  0.00000000000E+00  0.00000000000E+00  0.39999999673E+01  0.40000000000E+01  0.51109989000E-03 0.  1.
     -623   -1    0    0    0    0  0.00000000000E+00  0.00000000000E+00  0.12525980253E-10  0.17130000000E+03  0.17130000000E+03 0. -1.
       11    1    1    2    0    0 -0.28768790978E-02  0.63739482330E-02  0.38443699560E-01  0.39077908172E-01  0.51109989000E-03 0.  1.
     -623    1    1    2    0    0 -0.10632919773E-01 -0.15853218013E-01  0.12047480026E-01  0.17130000149E+03  0.17130000000E+03 0. -1.
      622    1    1    2    0    0  0.13509798870E-01  0.94792697800E-02  0.39495087878E+01  0.39609206046E+01  0.30000000000E+00 0.  1.
</event>
<event>
 5   0  0.5137000E+05  0.9118800E+02  0.7818608E-02  0.1180000E+00
       11   -1    0    0    0    0  0.00000000000E+00  0.00000000000E+00  0.39999999673E+01  0.40000000000E+01  0.51109989000E-03 0. -1.
     -623   -1    0    0    0    0  0.00000000000E+00  0.00000000000E+00  0.12525980253E-10  0.17130000000E+03  0.17130000000E+03 0. -1.
       11    1    1    2    0    0  0.58559517564E-02 -0.10456147042E-01  0.77777162882E-01  0.78696705572E-01  0.51109989000E-03 0. -1.
     -623    1    1    2    0    0  0.10269596752E-02  0.16539385549E-01  0.12424174499E-01  0.17130000125E+03  0.17130000000E+03 0. -1.
      622    1    1    2    0    0 -0.68829114315E-02 -0.60832385068E-02  0.39097986300E+01  0.39213020423E+01  0.30000000000E+00 0. -1.
</event>
<event>
 5   0  0.5137000E+05  0.9118800E+02  0.7818608E-02  0.1180000E+00
       11   -1    0    0    0    0  0.00000000000E+00  0.00000000000E+00  0.39999999673E+01  0.40000000000E+01  0.51109989000E-03 0.  1.
     -623   -1    0    0    0    0  0.00000000000E+00  0.00000000000E+00  0.12525980253E-10  0.17130000000E+03  0.17130000000E+03 0.  1.
       11    1    1    2    0    0 -0.34418223050E-02 -0.11881675941E-01 -0.45928772956E-02  0.13205154564E-01  0.51109989000E-03 0.  1.
     -623    1    1    2    0    0  0.17836209696E-01  0.14601008095E-02  0.29144428488E-01  0.17130000341E+03  0.17130000000E+03 0.  1.
      622    1    1    2    0    0 -0.14394387391E-01  0.10421575131E-01  0.39754484162E+01  0.39867914314E+01  0.30000000000E+00 0.  1.
</event>
<event>
 5   0  0.5137000E+05  0.9118800E+02  0.7818608E-02  0.1180000E+00
       11   -1    0    0    0    0  0.00000000000E+00  0.00000000000E+00  0.39999999673E+01  0.40000000000E+01  0.51109989000E-03 0.  1.
     -623   -1    0    0    0    0  0.00000000000E+00  0.00000000000E+00  0.12525980253E-10  0.17130000000E+03  0.17130000000E+03 0.  1.
       11    1    1    2    0    0  0.12952156420E+00  0.73075245981E-01  0.60028222259E+00  0.61842932915E+00  0.51109989000E-03 0.  1.
     -623    1    1    2    0    0 -0.65958448120E-01 -0.12934980473E+00  0.32615735491E-01  0.17130006464E+03  0.17130000000E+03 0.  1.
      622    1    1    2    0    0 -0.63563116080E-01  0.56274558751E-01  0.33671020093E+01  0.33815060308E+01  0.30000000000E+00 0.  1.
</event>
<event>
 5   0  0.5137000E+05  0.9118800E+02  0.7818608E-02  0.1180000E+00
       11   -1    0    0    0    0  0.00000000000E+00  0.00000000000E+00  0.39999999673E+01  0.40000000000E+01  0.51109989000E-03 0. -1.
     -623   -1    0    0    0    0  0.00000000000E+00  0.00000000000E+00  0.12525980253E-10  0.17130000000E+03  0.17130000000E+03 0. -1.
       11    1    1    2    0    0  0.15595422410E-01  0.23956915487E-01  0.37198298932E-01  0.46916155707E-01  0.51109989000E-03 0. -1.
     -623    1    1    2    0    0 -0.89472704912E-02 -0.35964258937E-01  0.21147004443E-01  0.17130000531E+03  0.17130000000E+03 0. -1.
      622    1    1    2    0    0 -0.66481519190E-02  0.12007343450E-01  0.39416546640E+01  0.39530785300E+01  0.30000000000E+00 0. -1.
</event>
<event>
 5   0  0.5137000E+05  0.9118800E+02  0.7818608E-02  0.1180000E+00
       11   -1    0    0    0    0  0.00000000000E+00  0.00000000000E+00  0.39999999673E+01  0.40000000000E+01  0.51109989000E-03 0.  1.
     -623   -1    0    0    0    0  0.00000000000E+00  0.00000000000E+00  0.12525980253E-10  0.17130000000E+03  0.17130000000E+03 0.  1.
       11    1    1    2    0    0 -0.12889627757E-01  0.51575284006E-01  0.19288111299E+00  0.20007382986E+00  0.51109989000E-03 0.  1.
     -623    1    1    2    0    0  0.32473570064E-01 -0.34097495391E-01  0.19152041588E-01  0.17130000754E+03  0.17130000000E+03 0.  1.
      622    1    1    2    0    0 -0.19583942306E-01 -0.17477788615E-01  0.37879668128E+01  0.37999186279E+01  0.30000000000E+00 0.  1.
</event>
<event>
 5   0  0.5137000E+05  0.9118800E+02  0.7818608E-02  0.1180000E+00
       11   -1    0    0    0    0  0.00000000000E+00  0.00000000000E+00  0.39999999673E+01  0.40000000000E+01  0.51109989000E-03 0.  1.
     -623   -1    0    0    0    0  0.00000000000E+00  0.00000000000E+00  0.12525980253E-10  0.17130000000E+03  0.17130000000E+03 0.  1.
       11    1    1    2    0    0  0.15293279536E-01  0.10215075207E-01  0.64441079331E-01  0.67016013675E-01  0.51109989000E-03 0.  1.
     -623    1    1    2    0    0 -0.14922198779E-01  0.96436337026E-02  0.14085092629E-01  0.17130000150E+03  0.17130000000E+03 0.  1.
      622    1    1    2    0    0 -0.37108075722E-03 -0.19858708910E-01  0.39214737954E+01  0.39329824859E+01  0.30000000000E+00 0.  1.
</event>
<event>
 5   0  0.5137000E+05  0.9118800E+02  0.7818608E-02  0.1180000E+00
       11   -1    0    0    0    0  0.00000000000E+00  0.00000000000E+00  0.39999999673E+01  0.40000000000E+01  0.51109989000E-03 0.  1.
     -623   -1    0    0    0    0  0.00000000000E+00  0.00000000000E+00  0.12525980253E-10  0.17130000000E+03  0.17130000000E+03 0. -1.
       11    1    1    2    0    0  0.20200676873E-01 -0.89595701916E-02  0.18579842425E-01  0.28875820539E-01  0.51109989000E-03 0.  1.
     -623    1    1    2    0    0  0.97544739767E-02  0.26607353389E-01  0.21800337859E-01  0.17130000373E+03  0.17130000000E+03 0. -1.
      622    1    1    2    0    0 -0.29955150850E-01 -0.17647783197E-01  0.39596197871E+01  0.39711204481E+01  0.30000000000E+00 0.  1.
</event>
<event>
 5   0  0.5137000E+05  0.9118800E+02  0.7818608E-02  0.1180000E+00
       11   -1    0    0    0    0  0.00000000000E+00  0.00000000000E+00  0.39999999673E+01  0.40000000000E+01  0.51109989000E-03 0.  1.
     -623   -1    0    0    0    0  0.00000000000E+00  0.00000000000E+00  0.12525980253E-10  0.17130000000E+03  0.17130000000E+03 0.  1.
       11    1    1    2    0    0 -0.65703645170E-01  0.60001915808E-01  0.15374863396E+00  0.17764037423E+00  0.51109989000E-03 0.  1.
     -623    1    1    2    0    0 -0.19832512776E-01 -0.20646537749E-01  0.36852531035E-01  0.17130000636E+03  0.17130000000E+03 0.  1.
      622    1    1    2    0    0  0.85536157946E-01 -0.39355378059E-01  0.38093988024E+01  0.38223532693E+01  0.30000000000E+00 0.  1.
</event>
<event>
 5   0  0.5137000E+05  0.9118800E+02  0.7818608E-02  0.1180000E+00
       11   -1    0    0    0    0  0.00000000000E+00  0.00000000000E+00  0.39999999673E+01  0.40000000000E+01  0.51109989000E-03 0.  1.
     -623   -1    0    0    0    0  0.00000000000E+00  0.00000000000E+00  0.12525980253E-10  0.17130000000E+03  0.17130000000E+03 0.  1.
       11    1    1    2    0    0 -0.59585425724E-02 -0.64245397993E-02  0.14035498774E+00  0.14062916749E+00  0.51109989000E-03 0.  1.
     -623    1    1    2    0    0 -0.91349485959E-02 -0.10103369595E-03  0.11987548349E-01  0.17130000066E+03  0.17130000000E+03 0.  1.
      622    1    1    2    0    0  0.15093491168E-01  0.65255734953E-02  0.38476574313E+01  0.38593701695E+01  0.30000000000E+00 0.  1.
</event>
<event>
 5   0  0.5137000E+05  0.9118800E+02  0.7818608E-02  0.1180000E+00
       11   -1    0    0    0    0  0.00000000000E+00  0.00000000000E+00  0.39999999673E+01  0.40000000000E+01  0.51109989000E-03 0.  1.
     -623   -1    0    0    0    0  0.00000000000E+00  0.00000000000E+00  0.12525980253E-10  0.17130000000E+03  0.17130000000E+03 0.  1.
       11    1    1    2    0    0 -0.27817093984E-01  0.49876892106E-01  0.44066714274E+00  0.44435266062E+00  0.51109989000E-03 0.  1.
     -623    1    1    2    0    0 -0.27754312836E-01  0.21967672380E-01  0.17533028932E-01  0.17130000455E+03  0.17130000000E+03 0.  1.
      622    1    1    2    0    0  0.55571406820E-01 -0.71844564486E-01  0.35417997957E+01  0.35556427851E+01  0.30000000000E+00 0.  0.
</event>
<event>
 5   0  0.5137000E+05  0.9118800E+02  0.7818608E-02  0.1180000E+00
       11   -1    0    0    0    0  0.00000000000E+00  0.00000000000E+00  0.39999999673E+01  0.40000000000E+01  0.51109989000E-03 0.  1.
     -623   -1    0    0    0    0  0.00000000000E+00  0.00000000000E+00  0.12525980253E-10  0.17130000000E+03  0.17130000000E+03 0. -1.
       11    1    1    2    0    0 -0.31444854692E-01 -0.93985134635E-02  0.88731534292E-01  0.94607913743E-01  0.51109989000E-03 0.  1.
     -623    1    1    2    0    0  0.18907077842E-01  0.22993340179E-01  0.17463330600E-01  0.17130000348E+03  0.17130000000E+03 0. -1.
      622    1    1    2    0    0  0.12537776850E-01 -0.13594826715E-01  0.38938051025E+01  0.39053886095E+01  0.30000000000E+00 0.  1.
</event>
<event>
 5   0  0.5137000E+05  0.9118800E+02  0.7818608E-02  0.1180000E+00
       11   -1    0    0    0    0  0.00000000000E+00  0.00000000000E+00  0.39999999673E+01  0.40000000000E+01  0.51109989000E-03 0.  1.
     -623   -1    0    0    0    0  0.00000000000E+00  0.00000000000E+00  0.12525980253E-10  0.17130000000E+03  0.17130000000E+03 0.  1.
       11    1    1    2    0    0 -0.62723057469E-02 -0.36013999202E-01  0.34685357753E+00  0.34877502122E+00  0.51109989000E-03 0.  1.
     -623    1    1    2    0    0  0.20396987799E-01  0.27285098122E-01  0.14308794499E-01  0.17130000398E+03  0.17130000000E+03 0.  1.
      622    1    1    2    0    0 -0.14124682052E-01  0.87289010800E-02  0.36388375953E+01  0.36512209938E+01  0.30000000000E+00 0.  1.
</event>
<event>
 5   0  0.5137000E+05  0.9118800E+02  0.7818608E-02  0.1180000E+00
       11   -1    0    0    0    0  0.00000000000E+00  0.00000000000E+00  0.39999999673E+01  0.40000000000E+01  0.51109989000E-03 0.  1.
     -623   -1    0    0    0    0  0.00000000000E+00  0.00000000000E+00  0.12525980253E-10  0.17130000000E+03  0.17130000000E+03 0. -1.
       11    1    1    2    0    0 -0.46957976065E-02 -0.30812724860E-02 -0.19625685306E-02  0.59714029866E-02  0.51109989000E-03 0.  1.
     -623    1    1    2    0    0 -0.19002261331E-01 -0.15393800516E-02  0.19292033174E-01  0.17130000215E+03  0.17130000000E+03 0. -1.
      622    1    1    2    0    0  0.23698058938E-01  0.46206525376E-02  0.39826705027E+01  0.39940264498E+01  0.30000000000E+00 0.  1.
</event>
<event>
 5   0  0.5137000E+05  0.9118800E+02  0.7818608E-02  0.1180000E+00
       11   -1    0    0    0    0  0.00000000000E+00  0.00000000000E+00  0.39999999673E+01  0.40000000000E+01  0.51109989000E-03 0.  1.
     -623   -1    0    0    0    0  0.00000000000E+00  0.00000000000E+00  0.12525980253E-10  0.17130000000E+03  0.17130000000E+03 0. -1.
       11    1    1    2    0    0 -0.78373331235E-03  0.11825394987E-01  0.16139728249E-01  0.20030133672E-01  0.51109989000E-03 0.  1.
     -623    1    1    2    0    0  0.18053919299E-01 -0.67817234150E-02  0.15255649325E-01  0.17130000176E+03  0.17130000000E+03 0. -1.
      622    1    1    2    0    0 -0.17270185987E-01 -0.50436715724E-02  0.39686045898E+01  0.39799681014E+01  0.30000000000E+00 0.  1.
</event>
<event>
 5   0  0.5137000E+05  0.9118800E+02  0.7818608E-02  0.1180000E+00
       11   -1    0    0    0    0  0.00000000000E+00  0.00000000000E+00  0.39999999673E+01  0.40000000000E+01  0.51109989000E-03 0.  1.
     -623   -1    0    0    0    0  0.00000000000E+00  0.00000000000E+00  0.12525980253E-10  0.17130000000E+03  0.17130000000E+03 0. -1.
       11    1    1    2    0    0 -0.78458423448E-02  0.19468181675E-01  0.19995255649E+00  0.20105186746E+00  0.51109989000E-03 0.  1.
     -623    1    1    2    0    0  0.27684836253E-01 -0.58203249489E-02  0.13042586131E-01  0.17130000283E+03  0.17130000000E+03 0. -1.
      622    1    1    2    0    0 -0.19838993909E-01 -0.13647856726E-01  0.37870048247E+01  0.37989453000E+01  0.30000000000E+00 0.  1.
</event>
<event>
 5   0  0.5137000E+05  0.9118800E+02  0.7818608E-02  0.1180000E+00
       11   -1    0    0    0    0  0.00000000000E+00  0.00000000000E+00  0.39999999673E+01  0.40000000000E+01  0.51109989000E-03 0. -1.
     -623   -1    0    0    0    0  0.00000000000E+00  0.00000000000E+00  0.12525980253E-10  0.17130000000E+03  0.17130000000E+03 0.  1.
       11    1    1    2    0    0 -0.31927803093E-01  0.27296664471E-01  0.10667243907E+00  0.11464625150E+00  0.51109989000E-03 0. -1.
     -623    1    1    2    0    0  0.47038249013E-01 -0.48745702553E-01  0.19676472362E-01  0.17130001452E+03  0.17130000000E+03 0.  1.
      622    1    1    2    0    0 -0.15110445920E-01  0.21449038083E-01  0.38736510559E+01  0.38853392246E+01  0.30000000000E+00 0. -1.
</event>
<event>
 5   0  0.5137000E+05  0.9118800E+02  0.7818608E-02  0.1180000E+00
       11   -1    0    0    0    0  0.00000000000E+00  0.00000000000E+00  0.39999999673E+01  0.40000000000E+01  0.51109989000E-03 0. -1.
     -623   -1    0    0    0    0  0.00000000000E+00  0.00000000000E+00  0.12525980253E-10  0.17130000000E+03  0.17130000000E+03 0.  1.
       11    1    1    2    0    0 -0.27385074047E-01 -0.12423361518E-01  0.10040556544E-01  0.31707352314E-01  0.51109989000E-03 0. -1.
     -623    1    1    2    0    0 -0.82595039799E-02  0.64305366911E-01  0.33539207405E-01  0.17130001555E+03  0.17130000000E+03 0.  1.
      622    1    1    2    0    0  0.35644578027E-01 -0.51882005393E-01  0.39564202034E+01  0.39682770952E+01  0.30000000000E+00 0. -1.
</event>
<event>
 5   0  0.5137000E+05  0.9118800E+02  0.7818608E-02  0.1180000E+00
       11   -1    0    0    0    0  0.00000000000E+00  0.00000000000E+00  0.39999999673E+01  0.40000000000E+01  0.51109989000E-03 0.  1.
     -623   -1    0    0    0    0  0.00000000000E+00  0.00000000000E+00  0.12525980253E-10  0.17130000000E+03  0.17130000000E+03 0. -1.
       11    1    1    2    0    0  0.25987872964E-01  0.76349763672E-02  0.10451882938E+00  0.10797272491E+00  0.51109989000E-03 0.  1.
     -623    1    1    2    0    0  0.21340038326E-02  0.13917412319E-01  0.15196198231E-01  0.17130000125E+03  0.17130000000E+03 0. -1.
      622    1    1    2    0    0 -0.28121876797E-01 -0.21552388686E-01  0.38802849398E+01  0.38920260224E+01  0.30000000000E+00 0.  1.
</event>
<event>
 5   0  0.5137000E+05  0.9118800E+02  0.7818608E-02  0.1180000E+00
       11   -1    0    0    0    0  0.00000000000E+00  0.00000000000E+00  0.39999999673E+01  0.40000000000E+01  0.51109989000E-03 0. -1.
     -623   -1    0    0    0    0  0.00000000000E+00  0.00000000000E+00  0.12525980253E-10  0.17130000000E+03  0.17130000000E+03 0. -1.
       11    1    1    2    0    0  0.23032734272E-01  0.39990600261E-01  0.75788260824E+00  0.75928654937E+00  0.51109989000E-03 0. -1.
     -623    1    1    2    0    0 -0.31995627798E-01  0.14316581627E-02  0.15601665474E-01  0.17130000370E+03  0.17130000000E+03 0. -1.
      622    1    1    2    0    0  0.89628935260E-02 -0.41422258424E-01  0.32265156936E+01  0.32407097461E+01  0.30000000000E+00 0. -1.
</event>
</LesHouchesEvents>
