<LesHouchesEvents version="1.0">
<header>
<!--
#*********************************************************************
#                                                                    *
#                       MadGraph/MadEvent                            *
#                                                                    *
#                      The new web generation                        *
#                                                                    *
#                   http://madgraph.hep.uiuc.edu                     *
#                   http://madgraph.phys.ucl.ac.be                   *
#                   http://madgraph.roma2.infn.it                    *
#                                                                    *
#            CP3 team                      Tim Stelzer               *
#      Universite de Louvain          University of Illinois         *
#                                                                    *
#....................................................................*
#                                                                    *
# This file contains all the information necessary to reproduce      *
# the events generated:                                              *
#                                                                    *
# 1. software version                                                *
# 2. proc_card.dat      : code generation info including model       *
# 3. param_card.dat     : model primary parameters in the LH format  *
# 4. run_card.dat       : running parameters (collider and cuts)     *
# 5. pythia_card.dat    : present only in the pythia event file      *
# 6. pgs_card.dat       : present only in the pgs event file         *
#                                                                    *
#                                                                    *
#*********************************************************************
-->
<MGVersion>
# MG/ME version    : 4.4.17
# madgraph version : 4.4.2
# template version : 2.4.8
# helas version    : 3.5
# model version    : usrmod_1.0.4
</MGVersion>
<MGProcCard>
#*********************************************************************
#                        MadGraph/MadEvent                           *
#                   http://madgraph.hep.uiuc.edu                     *
#                                                                    *
#                          proc_card.dat                             *
#                                                                    *
# This file is used to generate the code for a specific process.     *
# Some notation/conventions:                                         *
#                                                                    *
# 0. Do not modify the TAGS and their order.                         *
# 1. hash/pound is a comment.                                        *
# 2. The number after the @ is used as an identifier for the class   *
#    of processes. It can be any positive integer.                   *
# 3. The number of lines for the max couplings depends on how many   *
#    different classes of couplings are present in the model         *
#    In the SM these are just two: QED (which include EW) and QCD    *
# 4. Write "end_coup" after  the couplings list,                     *
#    to tell MG that the couplings input is over.                    *
# 5. Write "done" after the proc list to                             *
#    to tell MG that the proc input is over.                         *
# 6. Some model names available at present are:                      *
#    sm     =  Standard Model                                        *
#    smckm =  Standard Model with Cabibbo matrix                     *
#    mssm   =  Minimal Supersymmetric Standard Model                 *
#    2hdm   =  Generic Two Higgs Doublet model                       *
#    heft   =  Higgs EFT (+Standard Model)                           *
#    usrmod =  User Model                                            *
# 7. Don't leave spaces between the particles name in the            *
#    definition of the multiparticles.                               *
#*********************************************************************
#*********************************************************************
# Process(es) requested : mg2 input                                  *
#*********************************************************************
# Begin PROCESS # This is TAG. Do not modify this line
e- N+ > e- N+ x      # Radiative
QCD=0             # Max QCD couplings
QED=1             # Max QED couplings
QFD=0 
QND=1
QWD=9
QDS=2
end_coup           # End the couplings input
done               # this tells MG there are no more procs
# End PROCESS  # This is TAG. Do not modify this line
#*********************************************************************
# Model information                                                  *
#*********************************************************************
# Begin MODEL  # This is TAG. Do not modify this line
fixedAP2     
# End   MODEL  # This is TAG. Do not modify this line
#*********************************************************************
# Start multiparticle definitions                                    *
#*********************************************************************
# Begin MULTIPARTICLES # This is TAG. Do not modify this line
P uu~cc~dd~ss~gf+f-
J uu~cc~dd~ss~gf+f-
L+ e+mu+
L- e-mu-
vl vevm
vl~ ve~vm~
# End  MULTIPARTICLES # This is TAG. Do not modify this line
</MGProcCard>
<slha>
#*********************************************************************
#                        MadGraph/MadEvent                           *
#                   http://madgraph.hep.uiuc.edu                     *
#                                                                    *
#                         param_card.dat                             *
#                                                                    *
#   Les Houches friendly file for the SM parameters of MadGraph      *
#        Spectrum and decay widths produced by SMCalc                *
#                                                                    *
#  Please note the following IMPORTANT issues:                       *
#                                                                    *
# 0. REFRAIN from editing this file by hand! Some of the parame-     *
#    ters are not independent                                        *
#    (such as G_Fermi, alpha_em, sin(theta_W),MZ,MW) and serious     *
#    problems might be encountered (such as violation of unitarity   *
#    or gauge invariance).  Always use a calculator.                 *
#                                                                    *
# 1. alpha_S(MZ) has been used in the calculation of the parameters  *
#    but, for consistency, it will be reset by madgraph to the       *
#    value expected IF the pdfs for collisions with hadrons are      *
#    used. This value is KEPT by madgraph when no pdf are used       *
#    lpp(i)=0 .                                                      *
#                                                                    *
#  2. Values of the charm and bottom kinematic (pole) masses are     *
#     those used in the matrix elements and phase space UNLESS they  *
#     are set to ZERO from the start in the model (particles.dat)    *
#     This happens, for example,  when using 5-flavor QCD where      *
#     charm and bottom are treated as partons in the initial state   *
#     and a zero mass might be hardwired in the model definition.    *
#                                                                    *
##********************************************************************
Block MODSEL # Select Model
     0   1   #  0 1 = SM
Block SMINPUTS      # Standard Model inputs
     1         1.27900000E+02   # alpha_em(MZ)(-1) SM MSbar
     2         1.16600000E-05   # G_Fermi
     3         1.18000000E-01   # alpha_s(MZ) SM MSbar
     4         9.15445065E+01   # Z mass (as input parameter)
Block MGYUKAWA     # Yukawa masses m/v=y/sqrt(2)
#    PDG          YMASS
     5         4.20000000E+00   # mbottom for the Yukawa  y_b
     4         1.25000000E+00   # mcharm  for the Yukawa  y_c
     6         1.74300000E+02   # mtop    for the Yukawa  y_t
    15         1.77700000E+00   # mtau    for the Yukawa  y_ta
Block MGCKM     # CKM elements for MadGraph
     1   1     9.75000000E-01   # Vud for Cabibbo matrix
#===========================================================
# QUANTUM NUMBERS OF NEW STATE(S) (NON SM PDG CODE) IF ANY
# (see below for masses and decay tables)
# These blocks are automatically created by the MadGraph
# qnumbers.pl script from the particles.dat model file
#===========================================================
BLOCK QNUMBERS 611 # f-
         1  -3 # 3 times electric charge
         2  2 # number of spin states (2S+1)
         3  1 # colour rep (1: singlet, 3: triplet, 8: octet)
         4  1 # Particle/Antiparticle distinction (0=own anti)
BLOCK QNUMBERS 622 # x
         1  0 # 3 times electric charge
         2  3 # number of spin states (2S+1)
         3  1 # colour rep (1: singlet, 3: triplet, 8: octet)
         4  0 # Particle/Antiparticle distinction (0=own anti)
BLOCK QNUMBERS 623 # N-
         1  0 # 3 times electric charge
         2  2 # number of spin states (2S+1)
         3  1 # colour rep (1: singlet, 3: triplet, 8: octet)
         4  1 # Particle/Antiparticle distinction (0=own anti)
# END of QNUMBERS blocks
#===========================================================
Block MASS      #  Mass spectrum (kinematic masses)
#       PDG       Mass
         4     1.40000000E+00   # charm    pole mass
         5     4.20000000E+00   # bottom   pole mass
         6     1.74300000E+02   # top      pole mass
        11     0.51109989E-03   # electron mass
        13     0.10565837E+00   # muon     mass
        15     1.77700000E+00   # tau      mass
        23     9.15445065E+01   # Z        mass
        24     8.02673592E+01   # W        mass
        25     1.20000000E+02   # H        mass
       611 0.0075 # FMASS
       622 0.0225 # APMASS
       623     1.71300000e+02   # HPMASS (tungsten)
#            PDG       Width
DECAY       611     0.00000000e+00   # ELWIDTH
DECAY 622 0.000683242993125 # APWIDTH
DECAY       623     0.00000000e+00   # HPWIDTH
DECAY         6     1.51013490E+00   # top width
DECAY        23     2.44639985E+00   # Z   width
DECAY        24     2.03535570E+00   # W   width
DECAY        25     6.79485838E-03   # H   width
#        BR           NDA        ID1       ID2
     7.00588389E-02    2           4        -4   # BR( H -> c  cbar  )
     7.61074375E-01    2           5        -5   # BR( H -> b  bbar  )
     0.00000000E+00    2           6        -6   # BR( H -> t  tbar  )
     3.65529942E-02    2          15       -15   # BR( H -> tau- tau+)
     5.84716539E-03    2          23        23   # BR( H -> Z   Z^(*))
     6.31545979E-02    2          24       -24   # BR( H -> W   W^(*))
     2.55499652E-02    2          21        21   # BR( H -> g   g    )
     1.20906932E-03    2          22        22   # BR( H -> A   A    )
BLOCK MGUSER
         1     1.00000000e-00   # epsilon ,mixing coefficient
         2     74.0000000e+00   # Znuc    ,nuclear charge
</slha>
<MGRunCard>
#*********************************************************************
#                       MadGraph/MadEvent                            *
#                  http://madgraph.hep.uiuc.edu                      *
#                                                                    *
#                        run_card.dat                                *
#                                                                    *
#  This file is used to set the parameters of the run.               *
#                                                                    *
#  Some notation/conventions:                                        *
#                                                                    *
#   Lines starting with a '# ' are info or comments                  *
#                                                                    *
#   mind the format:   value    = variable     ! comment             *
#*********************************************************************
#
#*******************                                                 
# Running parameters
#*******************                                                 
#                                                                    
#*********************************************************************
# Tag name for the run (one word)                                    *
#*********************************************************************
  'HPS'     = run_tag ! name of the run 
#*********************************************************************
# Run to generate the grid pack                                      *
#*********************************************************************
  .false.     = gridpack  !True = setting up the grid pack
#*********************************************************************
# Number of events and rnd seed                                      *
#*********************************************************************
   1000      = nevents ! Number of unweighted events requested 
188707 = iseed ! rnd seed (0=assigned automatically=default))
#*********************************************************************
# Collider type and energy                                           *
#*********************************************************************
        0     = lpp1  ! beam 1 type (0=NO PDF)
        0     = lpp2  ! beam 2 type (0=NO PDF)
4 = ebeam1  ! beam 1 energy in GeV
    171.3    = ebeam2  ! beam 2 energy in GeV
    0.000511  = mbeam1  ! beam 1 energy in GeV
    171.3    = mbeam2  ! beam 2 energy in GeV
#*********************************************************************
# Beam polarization from -100 (left-handed) to 100 (right-handed)    *
#*********************************************************************
        0     = polbeam1 ! beam polarization for beam 1
        0     = polbeam2 ! beam polarization for beam 2
#*********************************************************************
# PDF CHOICE: this automatically fixes also alpha_s and its evol.    *
#*********************************************************************
 'cteq6l1'    = pdlabel     ! PDF set                                     
#*********************************************************************
# Renormalization and factorization scales                           *
#*********************************************************************
 F        = fixed_ren_scale  ! if .true. use fixed ren scale
 F        = fixed_fac_scale  ! if .true. use fixed fac scale
 91.1880  = scale            ! fixed ren scale
 91.1880  = dsqrt_q2fact1    ! fixed fact scale for pdf1
 91.1880  = dsqrt_q2fact2    ! fixed fact scale for pdf2
 1        = scalefact        ! scale factor for event-by-event scales
 F        = fixed_couplings  ! if .false. calc. coupl. for every event
#*********************************************************************
# Matching - Warning! ickkw > 0 is still beta
#*********************************************************************
 0        = ickkw            ! 0 no matching, 1 MLM, 2 CKKW matching
#*********************************************************************
#                                                                    
#**********************************
32.9311829414 = bwcutoff*Gamma)
#**********************************
32.9311829414 = bwcutoff
#*******************                                                 
# Fixed-Target Cuts
#*******************                                                 
#
 0.0 = ef        ! minimum E for all f's
 100.0 = efmax     ! maximum E for all f's
 0.0 = thetafmin ! min angle for both f's
 100.0 = thetafmax ! max angle for both f's
 0.0 = thetaxfmin ! min angle (x direction) for both f's
 100.0 = thetaxfmax ! max angle (x direction) for both f's 
 0.0 = thetayfmin ! min angle (y direction) for both f's
 100.0 = thetayfmax ! max angle (y direction) for both f's 
 0.0 = xthetaxfmin ! min angle (x direction) for >=1 f's
 100.0 = xthetaxfmax ! max angle (x direction) for >=1 f's 
 0.0 = xthetayfmin ! min angle (y direction) for >=1 f's
 100.0 = xthetayfmax ! max angle (y direction) for >=1 f's 
 0.0 = mmff      ! min invariant mass of f+f- lepton pair
 100.0 = mmffmax  ! max invariant mass of f+f- lepton pair
 0.0 = xef       ! min. energy for at least one f
 0.0 = xthetaf   ! minimum angle for at least one f
 0.0 = eftot     ! minimum energy for the two f's
 0d0 = efrat     ! min. ratio Emin/Emax for the two f's
 0.0  = el     !!! 0.2 = el  !!! was 0.05 with normal cuts! minimum E for the charged leptons 
 0.0  = drll  !!! was 0.1  ! min distance between leptons 
 0.0  = mmll    ! min invariant mass of l+l- (same flavour) lepton pair
#
#*******************                                                 
# Standard Cuts
#*******************                                                 
#                                                                    
#*********************************************************************
# Minimum and maximum pt's                                           *
#*********************************************************************
  0  = ptj       ! minimum pt for the jets 
  0  = ptb       ! minimum pt for the b 
  0  = pta       ! minimum pt for the photons 
  0  = ptl       ! minimum pt for the charged leptons 
  0  = misset    ! minimum missing Et (sum of neutrino's momenta)
  0  = ptheavy   ! minimum pt for one heavy final state
 1.0 = ptonium   ! minimum pt for the quarkonium states
 1d5 = ptjmax    ! maximum pt for the jets
 1d5 = ptbmax    ! maximum pt for the b
 1d5 = ptamax    ! maximum pt for the photons
 1d9 = ptlmax    ! maximum pt for the charged leptons
 1d9 = missetmax ! maximum missing Et (sum of neutrino's momenta)
#*********************************************************************
# Minimum and maximum E's (in the lab frame)                         *
#*********************************************************************
  0  = ej     ! minimum E for the jets 
  0  = eb     ! minimum E for the b 
  0  = ea     ! minimum E for the photons 
 1d5  = ejmax ! maximum E for the jets
 1d5  = ebmax ! maximum E for the b
 1d5  = eamax ! maximum E for the photons
 1.2  = elmax ! maximum E for the charged leptons
#*********************************************************************
# Maximum and minimum rapidity                                       *
#*********************************************************************
 1d5  = etaj    ! max rap for the jets 
 1d5  = etab    ! max rap for the b 
 1d5  = etaa    ! max rap for the photons 
 1d5  = etal     !!! 1(2) wth cuts ! max rap for the charged leptons 
 1d5  = etafl     !!! 0(1) wth cuts ! max rap for the charged leptons 
 0.0  = etaonium ! max rap for the quarkonium states
 0d0  = etajmin ! min rap for the jets
 0d0  = etabmin ! min rap for the b
 0d0  = etaamin ! min rap for the photons
 0d0  = etalmin ! main rap for the charged lepton
#*********************************************************************
# Minimum and maximum DeltaR distance                                *
#*********************************************************************
 0   = drjj    ! min distance between jets 
 0   = drbb    ! min distance between b's 
 0   = draa    ! min distance between gammas 
 0   = drbj    ! min distance between b and jet 
 0   = draj    ! min distance between gamma and jet 
 0   = drjl    ! min distance between jet and lepton 
 0   = drab    ! min distance between gamma and b 
 0   = drbl    ! min distance between b and lepton 
 0   = dral    ! min distance between gamma and lepton 
 1d2 = drjjmax ! max distance between jets
 1d2 = drbbmax ! max distance between b's
 1d9 = drllmax ! max distance between leptons
 1d2 = draamax ! max distance between gammas
 1d2 = drbjmax ! max distance between b and jet
 1d2 = drajmax ! max distance between gamma and jet
 1d2 = drjlmax ! max distance between jet and lepton
 1d2 = drabmax ! max distance between gamma and b
 1d2 = drblmax ! max distance between b and lepton
 1d2 = dralmax ! maxdistance between gamma and lepton
#*********************************************************************
# Minimum and maximum invariant mass for pairs                       *
#*********************************************************************
 0   = mmjj    ! min invariant mass of a jet pair 
 0   = mmbb    ! min invariant mass of a b pair 
 0   = mmaa    ! min invariant mass of gamma gamma pair
 1d5 = mmjjmax ! max invariant mass of a jet pair
 1d5 = mmbbmax ! max invariant mass of a b pair
 1d5 = mmaamax ! max invariant mass of gamma gamma pair
 1d5 = mmllmax ! max invariant mass of l+l- (same flavour) lepton pair
#*********************************************************************
# Minimum and maximum invariant mass for all letpons                 *
#*********************************************************************
 0   = mmnl    ! min invariant mass for all letpons (l+- and vl) 
 1d9 = mmnlmax ! max invariant mass for all letpons (l+- and vl) 
#*********************************************************************
# Inclusive cuts                                                     *
#*********************************************************************
 0  = xptj ! minimum pt for at least one jet  
 0  = xptb ! minimum pt for at least one b 
 0  = xpta ! minimum pt for at least one photon 
 0  = xptl ! minimum pt for at least one charged lepton 
#*********************************************************************
# Control the pt's of the jets sorted by pt                          *
#*********************************************************************
 0   = ptj1min ! minimum pt for the leading jet in pt
 0   = ptj2min ! minimum pt for the second jet in pt
 0   = ptj3min ! minimum pt for the third jet in pt
 0   = ptj4min ! minimum pt for the fourth jet in pt
 1d5 = ptj1max ! maximum pt for the leading jet in pt 
 1d5 = ptj2max ! maximum pt for the second jet in pt
 1d5 = ptj3max ! maximum pt for the third jet in pt
 1d5 = ptj4max ! maximum pt for the fourth jet in pt
 0   = cutuse  ! reject event if fails any (0) / all (1) jet pt cuts
#*********************************************************************
# Control the Ht(k)=Sum of k leading jets                            *
#*********************************************************************
 0   = htjmin ! minimum jet HT=Sum(jet pt)
 1d5 = htjmax ! maximum jet HT=Sum(jet pt)
 0   = ht2min ! minimum Ht for the two leading jets
 0   = ht3min ! minimum Ht for the three leading jets
 0   = ht4min ! minimum Ht for the four leading jets
 1d5 = ht2max ! maximum Ht for the two leading jets
 1d5 = ht3max ! maximum Ht for the three leading jets
 1d5 = ht4max ! maximum Ht for the four leading jets
#*********************************************************************
# WBF cuts                                                           *
#*********************************************************************
 0   = xetamin ! minimum rapidity for two jets in the WBF case  
 0   = deltaeta ! minimum rapidity for two jets in the WBF case 
#*********************************************************************
# maximal pdg code for quark to be considered as a jet               *
# otherwise b cuts are applied                                       *
#*********************************************************************
 4 = maxjetflavor
#*********************************************************************
# Jet measure cuts                                                   *
#*********************************************************************
 0   = xqcut   ! minimum kt jet measure between partons
#*********************************************************************
</MGRunCard>
<MGGenerationInfo>
#  Number of Events        :        1000
#  Integrated weight (pb)  :  .99088E+11
#  Truncated wgt (pb)      :  .26304E+09
#  Unit wgt                :  .99088E+08
</MGGenerationInfo>
</header>
<init>
       11     -623  0.40000000000E+01  0.17130000000E+03 0 0     0     0 3  1
  0.99088408150E+11  0.99557410082E+09  0.99088000000E+08   0
</init>
<event>
 5   0  0.9908800E+08  0.9118800E+02  0.7818608E-02  0.1180000E+00
       11   -1    0    0    0    0  0.00000000000E+00  0.00000000000E+00  0.39999999673E+01  0.40000000000E+01  0.51109989000E-03 0.  1.
     -623   -1    0    0    0    0  0.00000000000E+00  0.00000000000E+00  0.12525980253E-10  0.17130000000E+03  0.17130000000E+03 0.  1.
       11    1    1    2    0    0  0.10030479520E-03  0.32838658938E-03  0.88843212243E-02  0.89056322357E-02  0.51109989000E-03 0.  1.
     -623    1    1    2    0    0 -0.17770750748E-03 -0.49545907702E-03  0.84706406667E-04  0.17130000000E+03  0.17130000000E+03 0.  1.
      622    1    1    2    0    0  0.77402712371E-04  0.16707248789E-03  0.39910309418E+01  0.39910943690E+01  0.22500000000E-01 0.  1.
</event>
<event>
 5   0  0.9908800E+08  0.9118800E+02  0.7818608E-02  0.1180000E+00
       11   -1    0    0    0    0  0.00000000000E+00  0.00000000000E+00  0.39999999673E+01  0.40000000000E+01  0.51109989000E-03 0.  1.
     -623   -1    0    0    0    0  0.00000000000E+00  0.00000000000E+00  0.12525980253E-10  0.17130000000E+03  0.17130000000E+03 0.  1.
       11    1    1    2    0    0  0.37313571362E-03 -0.86140333577E-05  0.10534249056E-02  0.12289148024E-02  0.51109989000E-03 0. -1.
     -623    1    1    2    0    0  0.16846011231E-02  0.30328577855E-02  0.24046683874E-03  0.17130000004E+03  0.17130000000E+03 0.  1.
      622    1    1    2    0    0 -0.20577368371E-02 -0.30242437529E-02  0.39987060766E+01  0.39987710509E+01  0.22500000000E-01 0.  1.
</event>
<event>
 5   0  0.9908800E+08  0.9118800E+02  0.7818608E-02  0.1180000E+00
       11   -1    0    0    0    0  0.00000000000E+00  0.00000000000E+00  0.39999999673E+01  0.40000000000E+01  0.51109989000E-03 0.  1.
     -623   -1    0    0    0    0  0.00000000000E+00  0.00000000000E+00  0.12525980253E-10  0.17130000000E+03  0.17130000000E+03 0.  1.
       11    1    1    2    0    0 -0.42679486653E-02 -0.39165144190E-02  0.63972612921E-02  0.86452672683E-02  0.51109989000E-03 0.  1.
     -623    1    1    2    0    0  0.13333201740E-02 -0.35623523582E-02  0.23195358915E-02  0.17130000006E+03  0.17130000000E+03 0.  1.
      622    1    1    2    0    0  0.29346284914E-02  0.74788667771E-02  0.39912831701E+01  0.39913546747E+01  0.22500000000E-01 0.  1.
</event>
<event>
 5   0  0.9908800E+08  0.9118800E+02  0.7818608E-02  0.1180000E+00
       11   -1    0    0    0    0  0.00000000000E+00  0.00000000000E+00  0.39999999673E+01  0.40000000000E+01  0.51109989000E-03 0.  1.
     -623   -1    0    0    0    0  0.00000000000E+00  0.00000000000E+00  0.12525980253E-10  0.17130000000E+03  0.17130000000E+03 0.  1.
       11    1    1    2    0    0  0.66790620740E-03  0.14078760081E-01  0.59195257292E+00  0.59212056830E+00  0.51109989000E-03 0.  1.
     -623    1    1    2    0    0 -0.30385359700E-02 -0.16402412534E-01  0.24466913059E-03  0.17130000081E+03  0.17130000000E+03 0.  1.
      622    1    1    2    0    0  0.23706297631E-02  0.23236524554E-02  0.34078027260E+01  0.34078786199E+01  0.22500000000E-01 0.  1.
</event>
<event>
 5   0  0.9908800E+08  0.9118800E+02  0.7818608E-02  0.1180000E+00
       11   -1    0    0    0    0  0.00000000000E+00  0.00000000000E+00  0.39999999673E+01  0.40000000000E+01  0.51109989000E-03 0. -1.
     -623   -1    0    0    0    0  0.00000000000E+00  0.00000000000E+00  0.12525980253E-10  0.17130000000E+03  0.17130000000E+03 0.  1.
       11    1    1    2    0    0 -0.38117737501E-03 -0.27376333985E-03  0.91464857707E-02  0.91727676384E-02  0.51109989000E-03 0. -1.
     -623    1    1    2    0    0 -0.24816144507E-03 -0.29031966112E-03  0.89766369057E-04  0.17130000000E+03  0.17130000000E+03 0.  1.
      622    1    1    2    0    0  0.62933882009E-03  0.56408300097E-03  0.39907637152E+01  0.39908272319E+01  0.22500000000E-01 0. -1.
</event>
<event>
 5   0  0.9908800E+08  0.9118800E+02  0.7818608E-02  0.1180000E+00
       11   -1    0    0    0    0  0.00000000000E+00  0.00000000000E+00  0.39999999673E+01  0.40000000000E+01  0.51109989000E-03 0.  1.
     -623   -1    0    0    0    0  0.00000000000E+00  0.00000000000E+00  0.12525980253E-10  0.17130000000E+03  0.17130000000E+03 0. -1.
       11    1    1    2    0    0 -0.13548686401E-01  0.12715109884E-02  0.40888892534E-01  0.43096941877E-01  0.51109989000E-03 0.  1.
     -623    1    1    2    0    0  0.11355646275E-01  0.36004056932E-02  0.22760241033E-02  0.17130000043E+03  0.17130000000E+03 0. -1.
      622    1    1    2    0    0  0.21930401257E-02 -0.48719166816E-02  0.39568350508E+01  0.39569026288E+01  0.22500000000E-01 0.  1.
</event>
<event>
 5   0  0.9908800E+08  0.9118800E+02  0.7818608E-02  0.1180000E+00
       11   -1    0    0    0    0  0.00000000000E+00  0.00000000000E+00  0.39999999673E+01  0.40000000000E+01  0.51109989000E-03 0.  1.
     -623   -1    0    0    0    0  0.00000000000E+00  0.00000000000E+00  0.12525980253E-10  0.17130000000E+03  0.17130000000E+03 0. -1.
       11    1    1    2    0    0  0.73631866026E-02  0.16522259315E-02  0.73411913819E-02  0.10540430801E-01  0.51109989000E-03 0.  1.
     -623    1    1    2    0    0 -0.33465635124E-02  0.36600468870E-02  0.32683176269E-02  0.17130000010E+03  0.17130000000E+03 0. -1.
      622    1    1    2    0    0 -0.40166230902E-02 -0.53122728186E-02  0.39893904584E+01  0.39894594662E+01  0.22500000000E-01 0.  1.
</event>
<event>
 5   0  0.9908800E+08  0.9118800E+02  0.7818608E-02  0.1180000E+00
       11   -1    0    0    0    0  0.00000000000E+00  0.00000000000E+00  0.39999999673E+01  0.40000000000E+01  0.51109989000E-03 0. -1.
     -623   -1    0    0    0    0  0.00000000000E+00  0.00000000000E+00  0.12525980253E-10  0.17130000000E+03  0.17130000000E+03 0. -1.
       11    1    1    2    0    0 -0.11449976443E-02 -0.99881966549E-03  0.85672694252E-01  0.85687691203E-01  0.51109989000E-03 0. -1.
     -623    1    1    2    0    0  0.16692614524E-02  0.31736132089E-02  0.80308205549E-04  0.17130000004E+03  0.17130000000E+03 0. -1.
      622    1    1    2    0    0 -0.52426380681E-03 -0.21747935409E-02  0.39142469618E+01  0.39143122681E+01  0.22500000000E-01 0. -1.
</event>
<event>
 5   0  0.9908800E+08  0.9118800E+02  0.7818608E-02  0.1180000E+00
       11   -1    0    0    0    0  0.00000000000E+00  0.00000000000E+00  0.39999999673E+01  0.40000000000E+01  0.51109989000E-03 0. -1.
     -623   -1    0    0    0    0  0.00000000000E+00  0.00000000000E+00  0.12525980253E-10  0.17130000000E+03  0.17130000000E+03 0. -1.
       11    1    1    2    0    0  0.11607221990E-02  0.21706764594E-02  0.43502919040E-01  0.43575501149E-01  0.51109989000E-03 0. -1.
     -623    1    1    2    0    0  0.59823355361E-02 -0.64367776423E-02  0.14550198253E-03  0.17130000023E+03  0.17130000000E+03 0. -1.
      622    1    1    2    0    0 -0.71430577400E-02  0.42661011883E-02  0.39563515497E+01  0.39564242767E+01  0.22500000000E-01 0. -1.
</event>
<event>
 5   0  0.9908800E+08  0.9118800E+02  0.7818608E-02  0.1180000E+00
       11   -1    0    0    0    0  0.00000000000E+00  0.00000000000E+00  0.39999999673E+01  0.40000000000E+01  0.51109989000E-03 0.  1.
     -623   -1    0    0    0    0  0.00000000000E+00  0.00000000000E+00  0.12525980253E-10  0.17130000000E+03  0.17130000000E+03 0.  1.
       11    1    1    2    0    0  0.11285928235E-02 -0.24853748500E-02  0.37253673061E-01  0.37357036655E-01  0.51109989000E-03 0.  1.
     -623    1    1    2    0    0 -0.36571958968E-03  0.10574948016E-03  0.16799774106E-03  0.17130000000E+03  0.17130000000E+03 0.  1.
      622    1    1    2    0    0 -0.76287323377E-03  0.23796253698E-02  0.39625782966E+01  0.39626429628E+01  0.22500000000E-01 0.  1.
</event>
<event>
 5   0  0.9908800E+08  0.9118800E+02  0.7818608E-02  0.1180000E+00
       11   -1    0    0    0    0  0.00000000000E+00  0.00000000000E+00  0.39999999673E+01  0.40000000000E+01  0.51109989000E-03 0. -1.
     -623   -1    0    0    0    0  0.00000000000E+00  0.00000000000E+00  0.12525980253E-10  0.17130000000E+03  0.17130000000E+03 0.  1.
       11    1    1    2    0    0 -0.45549705059E-02 -0.25114989370E-02  0.73722436298E+00  0.73724288940E+00  0.51109989000E-03 0. -1.
     -623    1    1    2    0    0  0.14355991093E-02 -0.10220359083E-02  0.99488511050E-04  0.17130000001E+03  0.17130000000E+03 0.  1.
      622    1    1    2    0    0  0.31193713965E-02  0.35335348453E-02  0.32626761159E+01  0.32627571015E+01  0.22500000000E-01 0. -1.
</event>
<event>
 5   0  0.9908800E+08  0.9118800E+02  0.7818608E-02  0.1180000E+00
       11   -1    0    0    0    0  0.00000000000E+00  0.00000000000E+00  0.39999999673E+01  0.40000000000E+01  0.51109989000E-03 0. -1.
     -623   -1    0    0    0    0  0.00000000000E+00  0.00000000000E+00  0.12525980253E-10  0.17130000000E+03  0.17130000000E+03 0. -1.
       11    1    1    2    0    0 -0.84634868981E-03 -0.26862009444E-03  0.30365844689E-01  0.30383123728E-01  0.51109989000E-03 0. -1.
     -623    1    1    2    0    0  0.49653223230E-03 -0.62943994873E-03  0.81131406923E-04  0.17130000000E+03  0.17130000000E+03 0. -1.
      622    1    1    2    0    0  0.34981645752E-03  0.89806004317E-03  0.39695529913E+01  0.39696168744E+01  0.22500000000E-01 0. -1.
</event>
<event>
 5   0  0.9908800E+08  0.9118800E+02  0.7818608E-02  0.1180000E+00
       11   -1    0    0    0    0  0.00000000000E+00  0.00000000000E+00  0.39999999673E+01  0.40000000000E+01  0.51109989000E-03 0.  1.
     -623   -1    0    0    0    0  0.00000000000E+00  0.00000000000E+00  0.12525980253E-10  0.17130000000E+03  0.17130000000E+03 0.  1.
       11    1    1    2    0    0 -0.57950809798E-02  0.85433727097E-02  0.73272326275E+00  0.73279616072E+00  0.51109989000E-03 0.  1.
     -623    1    1    2    0    0  0.35943662522E-02  0.21028276781E-02  0.16847846662E-03  0.17130000005E+03  0.17130000000E+03 0.  1.
      622    1    1    2    0    0  0.22007147276E-02 -0.10646200388E-01  0.32671082261E+01  0.32672037886E+01  0.22500000000E-01 0.  1.
</event>
<event>
 5   0  0.9908800E+08  0.9118800E+02  0.7818608E-02  0.1180000E+00
       11   -1    0    0    0    0  0.00000000000E+00  0.00000000000E+00  0.39999999673E+01  0.40000000000E+01  0.51109989000E-03 0. -1.
     -623   -1    0    0    0    0  0.00000000000E+00  0.00000000000E+00  0.12525980253E-10  0.17130000000E+03  0.17130000000E+03 0.  1.
       11    1    1    2    0    0 -0.18562113579E-03  0.62489528387E-03  0.29202912870E-02  0.30355022024E-02  0.51109989000E-03 0. -1.
     -623    1    1    2    0    0  0.24874602659E-03  0.29865877708E-04  0.17856249111E-03  0.17130000000E+03  0.17130000000E+03 0.  1.
      622    1    1    2    0    0 -0.63124891020E-04 -0.65476116160E-03  0.39969011170E+01  0.39969645009E+01  0.22500000000E-01 0. -1.
</event>
<event>
 5   0  0.9908800E+08  0.9118800E+02  0.7818608E-02  0.1180000E+00
       11   -1    0    0    0    0  0.00000000000E+00  0.00000000000E+00  0.39999999673E+01  0.40000000000E+01  0.51109989000E-03 0.  1.
     -623   -1    0    0    0    0  0.00000000000E+00  0.00000000000E+00  0.12525980253E-10  0.17130000000E+03  0.17130000000E+03 0.  1.
       11    1    1    2    0    0  0.94415345459E-02  0.20653204160E-01  0.60183112055E+00  0.60225962532E+00  0.51109989000E-03 0.  1.
     -623    1    1    2    0    0  0.58804771287E-02 -0.49319739408E-02  0.57406407726E-03  0.17130000017E+03  0.17130000000E+03 0.  1.
      622    1    1    2    0    0 -0.15322011675E-01 -0.15721230219E-01  0.33975947827E+01  0.33977402018E+01  0.22500000000E-01 0.  1.
</event>
<event>
 5   0  0.9908800E+08  0.9118800E+02  0.7818608E-02  0.1180000E+00
       11   -1    0    0    0    0  0.00000000000E+00  0.00000000000E+00  0.39999999673E+01  0.40000000000E+01  0.51109989000E-03 0. -1.
     -623   -1    0    0    0    0  0.00000000000E+00  0.00000000000E+00  0.12525980253E-10  0.17130000000E+03  0.17130000000E+03 0.  1.
       11    1    1    2    0    0 -0.14401530199E-02 -0.35976399329E-02  0.94335167779E-01  0.94416111744E-01  0.51109989000E-03 0. -1.
     -623    1    1    2    0    0  0.16762826042E-02  0.94379558347E-03  0.14664257592E-03  0.17130000001E+03  0.17130000000E+03 0.  1.
      622    1    1    2    0    0 -0.23612958399E-03  0.26538443496E-02  0.39055181563E+01  0.39055838767E+01  0.22500000000E-01 0. -1.
</event>
<event>
 5   0  0.9908800E+08  0.9118800E+02  0.7818608E-02  0.1180000E+00
       11   -1    0    0    0    0  0.00000000000E+00  0.00000000000E+00  0.39999999673E+01  0.40000000000E+01  0.51109989000E-03 0. -1.
     -623   -1    0    0    0    0  0.00000000000E+00  0.00000000000E+00  0.12525980253E-10  0.17130000000E+03  0.17130000000E+03 0. -1.
       11    1    1    2    0    0  0.50048051097E-02 -0.24756205183E-02  0.20616042477E+00  0.20623665710E+00  0.51109989000E-03 0. -1.
     -623    1    1    2    0    0  0.40944247186E-02 -0.40512277910E-02  0.15954543353E-03  0.17130000010E+03  0.17130000000E+03 0. -1.
      622    1    1    2    0    0 -0.90992298283E-02  0.65268483092E-02  0.37936799972E+01  0.37937632460E+01  0.22500000000E-01 0.  0.
</event>
<event>
 5   0  0.9908800E+08  0.9118800E+02  0.7818608E-02  0.1180000E+00
       11   -1    0    0    0    0  0.00000000000E+00  0.00000000000E+00  0.39999999673E+01  0.40000000000E+01  0.51109989000E-03 0. -1.
     -623   -1    0    0    0    0  0.00000000000E+00  0.00000000000E+00  0.12525980253E-10  0.17130000000E+03  0.17130000000E+03 0. -1.
       11    1    1    2    0    0 -0.64400679508E-02 -0.11979463619E-02  0.31526166420E+00  0.31533012493E+00  0.51109989000E-03 0. -1.
     -623    1    1    2    0    0  0.11389159495E-01  0.52518359457E-02  0.14313857203E-03  0.17130000046E+03  0.17130000000E+03 0. -1.
      622    1    1    2    0    0 -0.49490915442E-02 -0.40538895837E-02  0.36845951646E+01  0.36846694159E+01  0.22500000000E-01 0. -1.
</event>
<event>
 5   0  0.9908800E+08  0.9118800E+02  0.7818608E-02  0.1180000E+00
       11   -1    0    0    0    0  0.00000000000E+00  0.00000000000E+00  0.39999999673E+01  0.40000000000E+01  0.51109989000E-03 0.  1.
     -623   -1    0    0    0    0  0.00000000000E+00  0.00000000000E+00  0.12525980253E-10  0.17130000000E+03  0.17130000000E+03 0. -1.
       11    1    1    2    0    0 -0.16856301324E-02 -0.79302742176E-03  0.99654411774E-01  0.99673132032E-01  0.51109989000E-03 0.  1.
     -623    1    1    2    0    0  0.11174228702E-03 -0.72124115818E-04  0.84000148147E-04  0.17130000000E+03  0.17130000000E+03 0. -1.
      622    1    1    2    0    0  0.15738878454E-02  0.86515153758E-03  0.39002615554E+01  0.39003268679E+01  0.22500000000E-01 0.  1.
</event>
<event>
 5   0  0.9908800E+08  0.9118800E+02  0.7818608E-02  0.1180000E+00
       11   -1    0    0    0    0  0.00000000000E+00  0.00000000000E+00  0.39999999673E+01  0.40000000000E+01  0.51109989000E-03 0. -1.
     -623   -1    0    0    0    0  0.00000000000E+00  0.00000000000E+00  0.12525980253E-10  0.17130000000E+03  0.17130000000E+03 0.  1.
       11    1    1    2    0    0 -0.36966573845E-02  0.17627635482E-02  0.46636777635E-02  0.62276580289E-02  0.51109989000E-03 0. -1.
     -623    1    1    2    0    0  0.44603280478E-02  0.29608812646E-02  0.16302859840E-02  0.17130000009E+03  0.17130000000E+03 0.  1.
      622    1    1    2    0    0 -0.76367066332E-03 -0.47236448128E-02  0.39937060037E+01  0.39937722506E+01  0.22500000000E-01 0. -1.
</event>
<event>
 5   0  0.9908800E+08  0.9118800E+02  0.7818608E-02  0.1180000E+00
       11   -1    0    0    0    0  0.00000000000E+00  0.00000000000E+00  0.39999999673E+01  0.40000000000E+01  0.51109989000E-03 0. -1.
     -623   -1    0    0    0    0  0.00000000000E+00  0.00000000000E+00  0.12525980253E-10  0.17130000000E+03  0.17130000000E+03 0.  1.
       11    1    1    2    0    0  0.75856073489E-02 -0.21539606158E-01  0.24459136443E+00  0.24565563874E+00  0.51109989000E-03 0. -1.
     -623    1    1    2    0    0  0.17084577306E-01  0.82736833141E-02  0.12372164325E-02  0.17130000106E+03  0.17130000000E+03 0.  1.
      622    1    1    2    0    0 -0.24670184655E-01  0.13265922844E-01  0.37541713865E+01  0.37543433050E+01  0.22500000000E-01 0. -1.
</event>
<event>
 5   0  0.9908800E+08  0.9118800E+02  0.7818608E-02  0.1180000E+00
       11   -1    0    0    0    0  0.00000000000E+00  0.00000000000E+00  0.39999999673E+01  0.40000000000E+01  0.51109989000E-03 0.  1.
     -623   -1    0    0    0    0  0.00000000000E+00  0.00000000000E+00  0.12525980253E-10  0.17130000000E+03  0.17130000000E+03 0. -1.
       11    1    1    2    0    0  0.14748686055E-02 -0.70659373822E-04  0.11865306364E+00  0.11866335139E+00  0.51109989000E-03 0.  1.
     -623    1    1    2    0    0 -0.57162908424E-02 -0.28566784054E-02  0.79012238682E-04  0.17130000012E+03  0.17130000000E+03 0. -1.
      622    1    1    2    0    0  0.42414222368E-02  0.29273377793E-02  0.38812678915E+01  0.38813365294E+01  0.22500000000E-01 0.  1.
</event>
<event>
 5   0  0.9908800E+08  0.9118800E+02  0.7818608E-02  0.1180000E+00
       11   -1    0    0    0    0  0.00000000000E+00  0.00000000000E+00  0.39999999673E+01  0.40000000000E+01  0.51109989000E-03 0. -1.
     -623   -1    0    0    0    0  0.00000000000E+00  0.00000000000E+00  0.12525980253E-10  0.17130000000E+03  0.17130000000E+03 0.  1.
       11    1    1    2    0    0  0.12549889505E-01 -0.11151041880E-02  0.63423407000E+00  0.63435940913E+00  0.51109989000E-03 0. -1.
     -623    1    1    2    0    0 -0.22853996916E-02  0.32401898479E-02  0.21688548560E-03  0.17130000005E+03  0.17130000000E+03 0.  1.
      622    1    1    2    0    0 -0.10264489814E-01 -0.21250856598E-02  0.33655490117E+01  0.33656405447E+01  0.22500000000E-01 0. -1.
</event>
<event>
 5   0  0.9908800E+08  0.9118800E+02  0.7818608E-02  0.1180000E+00
       11   -1    0    0    0    0  0.00000000000E+00  0.00000000000E+00  0.39999999673E+01  0.40000000000E+01  0.51109989000E-03 0.  1.
     -623   -1    0    0    0    0  0.00000000000E+00  0.00000000000E+00  0.12525980253E-10  0.17130000000E+03  0.17130000000E+03 0. -1.
       11    1    1    2    0    0 -0.94837959425E-02 -0.99511647921E-02  0.72322257223E+00  0.72335338409E+00  0.51109989000E-03 0.  1.
     -623    1    1    2    0    0 -0.24669855458E-02  0.16786688683E-01  0.23779635559E-03  0.17130000084E+03  0.17130000000E+03 0. -1.
      622    1    1    2    0    0  0.11950781488E-01 -0.68355238897E-02  0.32765395985E+01  0.32766457752E+01  0.22500000000E-01 0.  1.
</event>
<event>
 5   0  0.9908800E+08  0.9118800E+02  0.7818608E-02  0.1180000E+00
       11   -1    0    0    0    0  0.00000000000E+00  0.00000000000E+00  0.39999999673E+01  0.40000000000E+01  0.51109989000E-03 0.  1.
     -623   -1    0    0    0    0  0.00000000000E+00  0.00000000000E+00  0.12525980253E-10  0.17130000000E+03  0.17130000000E+03 0.  1.
       11    1    1    2    0    0 -0.64155414032E-04 -0.57822799917E-05  0.18799974808E-02  0.19492977811E-02  0.51109989000E-03 0.  1.
     -623    1    1    2    0    0  0.12905928624E-02 -0.16391192289E-03  0.13277697110E-03  0.17130000000E+03  0.17130000000E+03 0.  1.
      622    1    1    2    0    0 -0.12264374484E-02  0.16969420288E-03  0.39979871929E+01  0.39980506972E+01  0.22500000000E-01 0.  1.
</event>
<event>
 5   0  0.9908800E+08  0.9118800E+02  0.7818608E-02  0.1180000E+00
       11   -1    0    0    0    0  0.00000000000E+00  0.00000000000E+00  0.39999999673E+01  0.40000000000E+01  0.51109989000E-03 0. -1.
     -623   -1    0    0    0    0  0.00000000000E+00  0.00000000000E+00  0.12525980253E-10  0.17130000000E+03  0.17130000000E+03 0.  1.
       11    1    1    2    0    0  0.66945965365E-03 -0.64496485530E-03  0.90053418621E-02  0.90676104835E-02  0.51109989000E-03 0. -1.
     -623    1    1    2    0    0 -0.20439782556E-02  0.11401716784E-02  0.12594497625E-03  0.17130000002E+03  0.17130000000E+03 0.  1.
      622    1    1    2    0    0  0.13745186019E-02 -0.49520682311E-03  0.39908686805E+01  0.39909323735E+01  0.22500000000E-01 0. -1.
</event>
<event>
 5   0  0.9908800E+08  0.9118800E+02  0.7818608E-02  0.1180000E+00
       11   -1    0    0    0    0  0.00000000000E+00  0.00000000000E+00  0.39999999673E+01  0.40000000000E+01  0.51109989000E-03 0.  1.
     -623   -1    0    0    0    0  0.00000000000E+00  0.00000000000E+00  0.12525980253E-10  0.17130000000E+03  0.17130000000E+03 0.  1.
       11    1    1    2    0    0 -0.13301270053E-01  0.14100373139E-02  0.28951045322E+00  0.28981972972E+00  0.51109989000E-03 0.  1.
     -623    1    1    2    0    0  0.43632569430E-03  0.10143947517E-02  0.40056999830E-03  0.17130000000E+03  0.17130000000E+03 0.  1.
      622    1    1    2    0    0  0.12864944358E-01 -0.24244320656E-02  0.37100889441E+01  0.37101802663E+01  0.22500000000E-01 0.  1.
</event>
<event>
 5   0  0.9908800E+08  0.9118800E+02  0.7818608E-02  0.1180000E+00
       11   -1    0    0    0    0  0.00000000000E+00  0.00000000000E+00  0.39999999673E+01  0.40000000000E+01  0.51109989000E-03 0.  1.
     -623   -1    0    0    0    0  0.00000000000E+00  0.00000000000E+00  0.12525980253E-10  0.17130000000E+03  0.17130000000E+03 0. -1.
       11    1    1    2    0    0 -0.15393098161E-02 -0.75016376374E-03  0.58687792674E-01  0.58714993421E-01  0.51109989000E-03 0.  1.
     -623    1    1    2    0    0 -0.24331897475E-03  0.42930989561E-03  0.91809548232E-04  0.17130000000E+03  0.17130000000E+03 0. -1.
      622    1    1    2    0    0  0.17826287910E-02  0.32085386794E-03  0.39412203668E+01  0.39412850075E+01  0.22500000000E-01 0.  1.
</event>
<event>
 5   0  0.9908800E+08  0.9118800E+02  0.7818608E-02  0.1180000E+00
       11   -1    0    0    0    0  0.00000000000E+00  0.00000000000E+00  0.39999999673E+01  0.40000000000E+01  0.51109989000E-03 0.  1.
     -623   -1    0    0    0    0  0.00000000000E+00  0.00000000000E+00  0.12525980253E-10  0.17130000000E+03  0.17130000000E+03 0.  1.
       11    1    1    2    0    0 -0.13097659798E-02 -0.69071345245E-02  0.37619693706E+00  0.37626296744E+00  0.51109989000E-03 0.  1.
     -623    1    1    2    0    0 -0.72483793037E-02  0.17961540104E-02  0.14972362126E-03  0.17130000016E+03  0.17130000000E+03 0.  1.
      622    1    1    2    0    0  0.85581452835E-02  0.51109805142E-02  0.36236533067E+01  0.36237368697E+01  0.22500000000E-01 0.  1.
</event>
<event>
 5   0  0.9908800E+08  0.9118800E+02  0.7818608E-02  0.1180000E+00
       11   -1    0    0    0    0  0.00000000000E+00  0.00000000000E+00  0.39999999673E+01  0.40000000000E+01  0.51109989000E-03 0. -1.
     -623   -1    0    0    0    0  0.00000000000E+00  0.00000000000E+00  0.12525980253E-10  0.17130000000E+03  0.17130000000E+03 0. -1.
       11    1    1    2    0    0 -0.96741116830E-03 -0.31889708977E-02  0.23398691119E+00  0.23401119899E+00  0.51109989000E-03 0. -1.
     -623    1    1    2    0    0 -0.23416888874E-03  0.59306977499E-04  0.92961518821E-04  0.17130000000E+03  0.17130000000E+03 0. -1.
      622    1    1    2    0    0  0.12015800573E-02  0.31296639201E-02  0.37659200985E+01  0.37659888046E+01  0.22500000000E-01 0. -1.
</event>
<event>
 5   0  0.9908800E+08  0.9118800E+02  0.7818608E-02  0.1180000E+00
       11   -1    0    0    0    0  0.00000000000E+00  0.00000000000E+00  0.39999999673E+01  0.40000000000E+01  0.51109989000E-03 0.  1.
     -623   -1    0    0    0    0  0.00000000000E+00  0.00000000000E+00  0.12525980253E-10  0.17130000000E+03  0.17130000000E+03 0. -1.
       11    1    1    2    0    0 -0.22004255405E-02 -0.39115817081E-03  0.32923162511E-01  0.33002889691E-01  0.51109989000E-03 0.  1.
     -623    1    1    2    0    0  0.44627273075E-02  0.63559001067E-04  0.14421957912E-03  0.17130000006E+03  0.17130000000E+03 0. -1.
      622    1    1    2    0    0 -0.22623017669E-02  0.32759916974E-03  0.39669325853E+01  0.39669970521E+01  0.22500000000E-01 0.  1.
</event>
<event>
 5   0  0.9908800E+08  0.9118800E+02  0.7818608E-02  0.1180000E+00
       11   -1    0    0    0    0  0.00000000000E+00  0.00000000000E+00  0.39999999673E+01  0.40000000000E+01  0.51109989000E-03 0. -1.
     -623   -1    0    0    0    0  0.00000000000E+00  0.00000000000E+00  0.12525980253E-10  0.17130000000E+03  0.17130000000E+03 0.  1.
       11    1    1    2    0    0  0.15275236331E-02 -0.11836878698E-02  0.13526712291E-01  0.13673610128E-01  0.51109989000E-03 0. -1.
     -623    1    1    2    0    0 -0.51268921835E-04  0.94314540008E-03  0.21064736102E-03  0.17130000000E+03  0.17130000000E+03 0.  1.
      622    1    1    2    0    0 -0.14762547113E-02  0.24054246972E-03  0.39862626076E+01  0.39863263870E+01  0.22500000000E-01 0. -1.
</event>
<event>
 5   0  0.9908800E+08  0.9118800E+02  0.7818608E-02  0.1180000E+00
       11   -1    0    0    0    0  0.00000000000E+00  0.00000000000E+00  0.39999999673E+01  0.40000000000E+01  0.51109989000E-03 0. -1.
     -623   -1    0    0    0    0  0.00000000000E+00  0.00000000000E+00  0.12525980253E-10  0.17130000000E+03  0.17130000000E+03 0. -1.
       11    1    1    2    0    0 -0.10720402598E-02  0.27377134335E-02  0.86314619857E-01  0.86366192264E-01  0.51109989000E-03 0. -1.
     -623    1    1    2    0    0  0.13680484741E-02 -0.40107612158E-02  0.11648875096E-03  0.17130000005E+03  0.17130000000E+03 0. -1.
      622    1    1    2    0    0 -0.29600821429E-03  0.12730477823E-02  0.39135688588E+01  0.39136337553E+01  0.22500000000E-01 0. -1.
</event>
<event>
 5   0  0.9908800E+08  0.9118800E+02  0.7818608E-02  0.1180000E+00
       11   -1    0    0    0    0  0.00000000000E+00  0.00000000000E+00  0.39999999673E+01  0.40000000000E+01  0.51109989000E-03 0. -1.
     -623   -1    0    0    0    0  0.00000000000E+00  0.00000000000E+00  0.12525980253E-10  0.17130000000E+03  0.17130000000E+03 0.  1.
       11    1    1    2    0    0 -0.28437636111E-01  0.48139173993E-01  0.11055941762E+01  0.11070071467E+01  0.51109989000E-03 0. -1.
     -623    1    1    2    0    0  0.32942167004E-01 -0.39828978523E-01  0.15236829935E-02  0.17130000780E+03  0.17130000000E+03 0.  1.
      622    1    1    2    0    0 -0.45045308933E-02 -0.83101954705E-02  0.28928821081E+01  0.28929850487E+01  0.22500000000E-01 0. -1.
</event>
<event>
 5   0  0.9908800E+08  0.9118800E+02  0.7818608E-02  0.1180000E+00
       11   -1    0    0    0    0  0.00000000000E+00  0.00000000000E+00  0.39999999673E+01  0.40000000000E+01  0.51109989000E-03 0.  1.
     -623   -1    0    0    0    0  0.00000000000E+00  0.00000000000E+00  0.12525980253E-10  0.17130000000E+03  0.17130000000E+03 0. -1.
       11    1    1    2    0    0  0.10524089686E-02  0.55295024792E-02  0.12232145336E+00  0.12245195848E+00  0.51109989000E-03 0.  1.
     -623    1    1    2    0    0  0.21683211939E-02 -0.79757550403E-02  0.19806147133E-03  0.17130000020E+03  0.17130000000E+03 0. -1.
      622    1    1    2    0    0 -0.32207301625E-02  0.24462525610E-02  0.38774804525E+01  0.38775478420E+01  0.22500000000E-01 0.  1.
</event>
<event>
 5   0  0.9908800E+08  0.9118800E+02  0.7818608E-02  0.1180000E+00
       11   -1    0    0    0    0  0.00000000000E+00  0.00000000000E+00  0.39999999673E+01  0.40000000000E+01  0.51109989000E-03 0.  1.
     -623   -1    0    0    0    0  0.00000000000E+00  0.00000000000E+00  0.12525980253E-10  0.17130000000E+03  0.17130000000E+03 0. -1.
       11    1    1    2    0    0  0.37698130773E-02  0.10546415295E-02  0.53142839269E+00  0.53144305578E+00  0.51109989000E-03 0.  1.
     -623    1    1    2    0    0 -0.32335474601E-04  0.33306885005E-02  0.92426598117E-04  0.17130000003E+03  0.17130000000E+03 0. -1.
      622    1    1    2    0    0 -0.37374776027E-02 -0.43853300300E-02  0.34684791481E+01  0.34685569118E+01  0.22500000000E-01 0.  1.
</event>
<event>
 5   0  0.9908800E+08  0.9118800E+02  0.7818608E-02  0.1180000E+00
       11   -1    0    0    0    0  0.00000000000E+00  0.00000000000E+00  0.39999999673E+01  0.40000000000E+01  0.51109989000E-03 0.  1.
     -623   -1    0    0    0    0  0.00000000000E+00  0.00000000000E+00  0.12525980253E-10  0.17130000000E+03  0.17130000000E+03 0. -1.
       11    1    1    2    0    0  0.18992847428E-03  0.61095711190E-03  0.93883215233E-02  0.94239665503E-02  0.51109989000E-03 0.  1.
     -623    1    1    2    0    0  0.15956561531E-03 -0.11260855338E-03  0.99090145393E-04  0.17130000000E+03  0.17130000000E+03 0. -1.
      622    1    1    2    0    0 -0.34949408961E-03 -0.49834855850E-03  0.39905125565E+01  0.39905760341E+01  0.22500000000E-01 0.  1.
</event>
<event>
 5   0  0.9908800E+08  0.9118800E+02  0.7818608E-02  0.1180000E+00
       11   -1    0    0    0    0  0.00000000000E+00  0.00000000000E+00  0.39999999673E+01  0.40000000000E+01  0.51109989000E-03 0. -1.
     -623   -1    0    0    0    0  0.00000000000E+00  0.00000000000E+00  0.12525980253E-10  0.17130000000E+03  0.17130000000E+03 0. -1.
       11    1    1    2    0    0  0.25506558518E-02  0.31714208028E-02  0.77399295789E-01  0.77507909048E-01  0.51109989000E-03 0. -1.
     -623    1    1    2    0    0 -0.26943848372E-02 -0.55258774384E-02  0.17393250801E-03  0.17130000011E+03  0.17130000000E+03 0. -1.
      622    1    1    2    0    0  0.14372898542E-03  0.23544566356E-02  0.39224267391E+01  0.39224919805E+01  0.22500000000E-01 0. -1.
</event>
<event>
 5   0  0.9908800E+08  0.9118800E+02  0.7818608E-02  0.1180000E+00
       11   -1    0    0    0    0  0.00000000000E+00  0.00000000000E+00  0.39999999673E+01  0.40000000000E+01  0.51109989000E-03 0.  1.
     -623   -1    0    0    0    0  0.00000000000E+00  0.00000000000E+00  0.12525980253E-10  0.17130000000E+03  0.17130000000E+03 0.  1.
       11    1    1    2    0    0  0.29577920919E-02 -0.44270411599E-03  0.90797092144E-01  0.90847772038E-01  0.51109989000E-03 0.  1.
     -623    1    1    2    0    0  0.10006385937E-02  0.86378376752E-03  0.11743170027E-03  0.17130000001E+03  0.17130000000E+03 0.  1.
      622    1    1    2    0    0 -0.39584306855E-02 -0.42107965153E-03  0.39090854435E+01  0.39091522228E+01  0.22500000000E-01 0.  1.
</event>
<event>
 5   0  0.9908800E+08  0.9118800E+02  0.7818608E-02  0.1180000E+00
       11   -1    0    0    0    0  0.00000000000E+00  0.00000000000E+00  0.39999999673E+01  0.40000000000E+01  0.51109989000E-03 0. -1.
     -623   -1    0    0    0    0  0.00000000000E+00  0.00000000000E+00  0.12525980253E-10  0.17130000000E+03  0.17130000000E+03 0. -1.
       11    1    1    2    0    0 -0.15110063256E-03  0.15027777261E-02  0.18818023625E-01  0.18885454891E-01  0.51109989000E-03 0. -1.
     -623    1    1    2    0    0 -0.17963529533E-03 -0.10456351828E-03  0.13124002727E-03  0.17130000000E+03  0.17130000000E+03 0. -1.
      622    1    1    2    0    0  0.33073592789E-03 -0.13982142078E-02  0.39810507037E+01  0.39811145449E+01  0.22500000000E-01 0. -1.
</event>
<event>
 5   0  0.9908800E+08  0.9118800E+02  0.7818608E-02  0.1180000E+00
       11   -1    0    0    0    0  0.00000000000E+00  0.00000000000E+00  0.39999999673E+01  0.40000000000E+01  0.51109989000E-03 0.  1.
     -623   -1    0    0    0    0  0.00000000000E+00  0.00000000000E+00  0.12525980253E-10  0.17130000000E+03  0.17130000000E+03 0. -1.
       11    1    1    2    0    0 -0.26496776825E-01  0.12949764691E-01  0.11428203870E+00  0.11802720525E+00  0.51109989000E-03 0.  1.
     -623    1    1    2    0    0  0.12273310636E-01  0.20207559621E-02  0.38657598083E-02  0.17130000050E+03  0.17130000000E+03 0. -1.
      622    1    1    2    0    0  0.14223466189E-01 -0.14970520653E-01  0.38818521689E+01  0.38819722996E+01  0.22500000000E-01 0.  1.
</event>
<event>
 5   0  0.9908800E+08  0.9118800E+02  0.7818608E-02  0.1180000E+00
       11   -1    0    0    0    0  0.00000000000E+00  0.00000000000E+00  0.39999999673E+01  0.40000000000E+01  0.51109989000E-03 0. -1.
     -623   -1    0    0    0    0  0.00000000000E+00  0.00000000000E+00  0.12525980253E-10  0.17130000000E+03  0.17130000000E+03 0.  1.
       11    1    1    2    0    0  0.26019006531E-02  0.20395560430E-02  0.62432840393E+00  0.62433736621E+00  0.51109989000E-03 0. -1.
     -623    1    1    2    0    0  0.26064569703E-02 -0.46927480437E-02  0.89060702057E-04  0.17130000008E+03  0.17130000000E+03 0.  1.
      622    1    1    2    0    0 -0.52083576234E-02  0.26531920008E-02  0.33755825027E+01  0.33756625497E+01  0.22500000000E-01 0. -1.
</event>
<event>
 5   0  0.9908800E+08  0.9118800E+02  0.7818608E-02  0.1180000E+00
       11   -1    0    0    0    0  0.00000000000E+00  0.00000000000E+00  0.39999999673E+01  0.40000000000E+01  0.51109989000E-03 0.  1.
     -623   -1    0    0    0    0  0.00000000000E+00  0.00000000000E+00  0.12525980253E-10  0.17130000000E+03  0.17130000000E+03 0. -1.
       11    1    1    2    0    0 -0.59853710410E-03  0.16895051604E-02  0.23659770782E-01  0.23733070827E-01  0.51109989000E-03 0.  1.
     -623    1    1    2    0    0  0.69761328499E-03 -0.17144375405E-02  0.13693823783E-03  0.17130000001E+03  0.17130000000E+03 0. -1.
      622    1    1    2    0    0 -0.99076181381E-04  0.24932381379E-04  0.39762032611E+01  0.39762669219E+01  0.22500000000E-01 0.  1.
</event>
<event>
 5   0  0.9908800E+08  0.9118800E+02  0.7818608E-02  0.1180000E+00
       11   -1    0    0    0    0  0.00000000000E+00  0.00000000000E+00  0.39999999673E+01  0.40000000000E+01  0.51109989000E-03 0.  1.
     -623   -1    0    0    0    0  0.00000000000E+00  0.00000000000E+00  0.12525980253E-10  0.17130000000E+03  0.17130000000E+03 0. -1.
       11    1    1    2    0    0  0.17639477074E-02  0.29798102878E-02  0.10914333944E+01  0.10914390072E+01  0.51109989000E-03 0.  1.
     -623    1    1    2    0    0  0.30438808646E-03  0.40527961847E-03  0.95315144004E-04  0.17130000000E+03  0.17130000000E+03 0. -1.
      622    1    1    2    0    0 -0.20683357938E-02 -0.33850899062E-02  0.29084712578E+01  0.29085609920E+01  0.22500000000E-01 0.  1.
</event>
<event>
 5   0  0.9908800E+08  0.9118800E+02  0.7818608E-02  0.1180000E+00
       11   -1    0    0    0    0  0.00000000000E+00  0.00000000000E+00  0.39999999673E+01  0.40000000000E+01  0.51109989000E-03 0. -1.
     -623   -1    0    0    0    0  0.00000000000E+00  0.00000000000E+00  0.12525980253E-10  0.17130000000E+03  0.17130000000E+03 0.  1.
       11    1    1    2    0    0 -0.22630093138E-02 -0.33717375174E-02  0.22636596976E+00  0.22640296667E+00  0.51109989000E-03 0. -1.
     -623    1    1    2    0    0 -0.67535045105E-04  0.75908266931E-04  0.10620180827E-03  0.17130000000E+03  0.17130000000E+03 0.  1.
      622    1    1    2    0    0  0.23305443589E-02  0.32958292504E-02  0.37735277979E+01  0.37735970353E+01  0.22500000000E-01 0. -1.
</event>
<event>
 5   0  0.9908800E+08  0.9118800E+02  0.7818608E-02  0.1180000E+00
       11   -1    0    0    0    0  0.00000000000E+00  0.00000000000E+00  0.39999999673E+01  0.40000000000E+01  0.51109989000E-03 0. -1.
     -623   -1    0    0    0    0  0.00000000000E+00  0.00000000000E+00  0.12525980253E-10  0.17130000000E+03  0.17130000000E+03 0.  1.
       11    1    1    2    0    0  0.92232041530E-02 -0.11714109632E-01  0.17777387430E+00  0.17839870926E+00  0.51109989000E-03 0. -1.
     -623    1    1    2    0    0  0.21775825365E-02 -0.70670980920E-02  0.75435680211E-03  0.17130000016E+03  0.17130000000E+03 0.  1.
      622    1    1    2    0    0 -0.11400786690E-01  0.18781207724E-01  0.38214717363E+01  0.38216011295E+01  0.22500000000E-01 0. -1.
</event>
<event>
 5   0  0.9908800E+08  0.9118800E+02  0.7818608E-02  0.1180000E+00
       11   -1    0    0    0    0  0.00000000000E+00  0.00000000000E+00  0.39999999673E+01  0.40000000000E+01  0.51109989000E-03 0.  1.
     -623   -1    0    0    0    0  0.00000000000E+00  0.00000000000E+00  0.12525980253E-10  0.17130000000E+03  0.17130000000E+03 0.  1.
       11    1    1    2    0    0 -0.23364937177E-02  0.75068396089E-03  0.55327212658E+00  0.55327780545E+00  0.51109989000E-03 0.  1.
     -623    1    1    2    0    0  0.83872874645E-03  0.50940929055E-03  0.79644956633E-04  0.17130000000E+03  0.17130000000E+03 0.  1.
      622    1    1    2    0    0  0.14977649703E-02 -0.12600932520E-02  0.34466482005E+01  0.34467221964E+01  0.22500000000E-01 0. -1.
</event>
<event>
 5   0  0.9908800E+08  0.9118800E+02  0.7818608E-02  0.1180000E+00
       11   -1    0    0    0    0  0.00000000000E+00  0.00000000000E+00  0.39999999673E+01  0.40000000000E+01  0.51109989000E-03 0. -1.
     -623   -1    0    0    0    0  0.00000000000E+00  0.00000000000E+00  0.12525980253E-10  0.17130000000E+03  0.17130000000E+03 0. -1.
       11    1    1    2    0    0  0.21385951649E-02 -0.96798585512E-02  0.34350353491E-02  0.10503996419E-01  0.51109989000E-03 0. -1.
     -623    1    1    2    0    0  0.49296813344E-02  0.21611544436E-01  0.71580650608E-02  0.17130000158E+03  0.17130000000E+03 0. -1.
      622    1    1    2    0    0 -0.70682764992E-02 -0.11931685884E-01  0.39894068669E+01  0.39894944198E+01  0.22500000000E-01 0. -1.
</event>
<event>
 5   0  0.9908800E+08  0.9118800E+02  0.7818608E-02  0.1180000E+00
       11   -1    0    0    0    0  0.00000000000E+00  0.00000000000E+00  0.39999999673E+01  0.40000000000E+01  0.51109989000E-03 0.  1.
     -623   -1    0    0    0    0  0.00000000000E+00  0.00000000000E+00  0.12525980253E-10  0.17130000000E+03  0.17130000000E+03 0.  1.
       11    1    1    2    0    0 -0.73809561607E-02 -0.28423675269E-02  0.20201304090E-01  0.21700494857E-01  0.51109989000E-03 0.  1.
     -623    1    1    2    0    0 -0.34446564846E-02 -0.78570247276E-03  0.15792125590E-02  0.17130000004E+03  0.17130000000E+03 0.  1.
      622    1    1    2    0    0  0.10825612645E-01  0.36280699997E-02  0.39782194509E+01  0.39782994616E+01  0.22500000000E-01 0.  1.
</event>
<event>
 5   0  0.9908800E+08  0.9118800E+02  0.7818608E-02  0.1180000E+00
       11   -1    0    0    0    0  0.00000000000E+00  0.00000000000E+00  0.39999999673E+01  0.40000000000E+01  0.51109989000E-03 0.  1.
     -623   -1    0    0    0    0  0.00000000000E+00  0.00000000000E+00  0.12525980253E-10  0.17130000000E+03  0.17130000000E+03 0. -1.
       11    1    1    2    0    0 -0.86122621586E-03  0.10600831832E-03  0.27776620248E-01  0.27794870062E-01  0.51109989000E-03 0.  1.
     -623    1    1    2    0    0  0.13482207396E-02 -0.68254264220E-04  0.81977107824E-04  0.17130000001E+03  0.17130000000E+03 0. -1.
      622    1    1    2    0    0 -0.48699452374E-03 -0.37754054095E-04  0.39721413700E+01  0.39722051246E+01  0.22500000000E-01 0.  1.
</event>
<event>
 5   0  0.9908800E+08  0.9118800E+02  0.7818608E-02  0.1180000E+00
       11   -1    0    0    0    0  0.00000000000E+00  0.00000000000E+00  0.39999999673E+01  0.40000000000E+01  0.51109989000E-03 0.  1.
     -623   -1    0    0    0    0  0.00000000000E+00  0.00000000000E+00  0.12525980253E-10  0.17130000000E+03  0.17130000000E+03 0. -1.
       11    1    1    2    0    0  0.10071076753E-02  0.12155894231E-02  0.20029809477E-01  0.20098418204E-01  0.51109989000E-03 0.  1.
     -623    1    1    2    0    0  0.26594276272E-03 -0.14840066482E-03  0.13252442705E-03  0.17130000000E+03  0.17130000000E+03 0. -1.
      622    1    1    2    0    0 -0.12730504380E-02 -0.10671887583E-02  0.39798376339E+01  0.39799015819E+01  0.22500000000E-01 0.  1.
</event>
<event>
 5   0  0.9908800E+08  0.9118800E+02  0.7818608E-02  0.1180000E+00
       11   -1    0    0    0    0  0.00000000000E+00  0.00000000000E+00  0.39999999673E+01  0.40000000000E+01  0.51109989000E-03 0. -1.
     -623   -1    0    0    0    0  0.00000000000E+00  0.00000000000E+00  0.12525980253E-10  0.17130000000E+03  0.17130000000E+03 0.  1.
       11    1    1    2    0    0  0.13212999654E-02 -0.12469565082E-02  0.47864128864E-01  0.47901323459E-01  0.51109989000E-03 0. -1.
     -623    1    1    2    0    0  0.16563578141E-02  0.64900065312E-03  0.10238698472E-03  0.17130000001E+03  0.17130000000E+03 0.  1.
      622    1    1    2    0    0 -0.29776577800E-02  0.59795585486E-03  0.39520334526E+01  0.39520986684E+01  0.22500000000E-01 0. -1.
</event>
<event>
 5   0  0.9908800E+08  0.9118800E+02  0.7818608E-02  0.1180000E+00
       11   -1    0    0    0    0  0.00000000000E+00  0.00000000000E+00  0.39999999673E+01  0.40000000000E+01  0.51109989000E-03 0.  1.
     -623   -1    0    0    0    0  0.00000000000E+00  0.00000000000E+00  0.12525980253E-10  0.17130000000E+03  0.17130000000E+03 0. -1.
       11    1    1    2    0    0 -0.78072090929E-02 -0.15621504114E-03  0.15144045187E+00  0.15164250262E+00  0.51109989000E-03 0.  1.
     -623    1    1    2    0    0  0.60873010124E-04  0.21897663883E-03  0.27559078714E-03  0.17130000000E+03  0.17130000000E+03 0. -1.
      622    1    1    2    0    0  0.77463360828E-02 -0.62761597686E-04  0.38482839247E+01  0.38483574970E+01  0.22500000000E-01 0.  1.
</event>
<event>
 5   0  0.9908800E+08  0.9118800E+02  0.7818608E-02  0.1180000E+00
       11   -1    0    0    0    0  0.00000000000E+00  0.00000000000E+00  0.39999999673E+01  0.40000000000E+01  0.51109989000E-03 0. -1.
     -623   -1    0    0    0    0  0.00000000000E+00  0.00000000000E+00  0.12525980253E-10  0.17130000000E+03  0.17130000000E+03 0. -1.
       11    1    1    2    0    0  0.90194826902E-03  0.25137857857E-02  0.19258501248E-01  0.19449517296E-01  0.51109989000E-03 0. -1.
     -623    1    1    2    0    0  0.10776349037E-02 -0.57497171307E-03  0.25554333628E-03  0.17130000000E+03  0.17130000000E+03 0. -1.
      622    1    1    2    0    0 -0.19795831725E-02 -0.19388140727E-02  0.39804859219E+01  0.39805504773E+01  0.22500000000E-01 0. -1.
</event>
<event>
 5   0  0.9908800E+08  0.9118800E+02  0.7818608E-02  0.1180000E+00
       11   -1    0    0    0    0  0.00000000000E+00  0.00000000000E+00  0.39999999673E+01  0.40000000000E+01  0.51109989000E-03 0. -1.
     -623   -1    0    0    0    0  0.00000000000E+00  0.00000000000E+00  0.12525980253E-10  0.17130000000E+03  0.17130000000E+03 0. -1.
       11    1    1    2    0    0  0.21801216154E-02  0.67989434685E-03  0.14802633622E+00  0.14804483316E+00  0.51109989000E-03 0. -1.
     -623    1    1    2    0    0  0.33983376387E-03 -0.36581929830E-02  0.86193370559E-04  0.17130000004E+03  0.17130000000E+03 0. -1.
      622    1    1    2    0    0 -0.25199553794E-02  0.29782986371E-02  0.38518874388E+01  0.38519551285E+01  0.22500000000E-01 0. -1.
</event>
<event>
 5   0  0.9908800E+08  0.9118800E+02  0.7818608E-02  0.1180000E+00
       11   -1    0    0    0    0  0.00000000000E+00  0.00000000000E+00  0.39999999673E+01  0.40000000000E+01  0.51109989000E-03 0. -1.
     -623   -1    0    0    0    0  0.00000000000E+00  0.00000000000E+00  0.12525980253E-10  0.17130000000E+03  0.17130000000E+03 0. -1.
       11    1    1    2    0    0 -0.25343106187E-02 -0.27204966346E-02  0.23795114781E-01  0.24089261981E-01  0.51109989000E-03 0. -1.
     -623    1    1    2    0    0 -0.62748246328E-03  0.74407978201E-03  0.35953132377E-03  0.17130000000E+03  0.17130000000E+03 0. -1.
      622    1    1    2    0    0  0.31617930820E-02  0.19764168527E-02  0.39758453212E+01  0.39759107348E+01  0.22500000000E-01 0. -1.
</event>
<event>
 5   0  0.9908800E+08  0.9118800E+02  0.7818608E-02  0.1180000E+00
       11   -1    0    0    0    0  0.00000000000E+00  0.00000000000E+00  0.39999999673E+01  0.40000000000E+01  0.51109989000E-03 0.  1.
     -623   -1    0    0    0    0  0.00000000000E+00  0.00000000000E+00  0.12525980253E-10  0.17130000000E+03  0.17130000000E+03 0. -1.
       11    1    1    2    0    0  0.60685415904E-02 -0.80510408623E-02  0.82821207732E+00  0.82827359773E+00  0.51109989000E-03 0.  1.
     -623    1    1    2    0    0  0.16022496483E-03  0.10496165757E-03  0.15736584354E-03  0.17130000000E+03  0.17130000000E+03 0. -1.
      622    1    1    2    0    0 -0.62287665553E-02  0.79460792048E-02  0.31716305242E+01  0.31717264021E+01  0.22500000000E-01 0.  1.
</event>
<event>
 5   0  0.9908800E+08  0.9118800E+02  0.7818608E-02  0.1180000E+00
       11   -1    0    0    0    0  0.00000000000E+00  0.00000000000E+00  0.39999999673E+01  0.40000000000E+01  0.51109989000E-03 0. -1.
     -623   -1    0    0    0    0  0.00000000000E+00  0.00000000000E+00  0.12525980253E-10  0.17130000000E+03  0.17130000000E+03 0. -1.
       11    1    1    2    0    0 -0.60505948869E-02 -0.69192298788E-02  0.60897919020E-01  0.61589797876E-01  0.51109989000E-03 0. -1.
     -623    1    1    2    0    0 -0.60139354553E-03 -0.16528035102E-02  0.77107485750E-03  0.17130000001E+03  0.17130000000E+03 0. -1.
      622    1    1    2    0    0  0.66519884324E-02  0.85720333890E-02  0.39383309735E+01  0.39384101914E+01  0.22500000000E-01 0. -1.
</event>
<event>
 5   0  0.9908800E+08  0.9118800E+02  0.7818608E-02  0.1180000E+00
       11   -1    0    0    0    0  0.00000000000E+00  0.00000000000E+00  0.39999999673E+01  0.40000000000E+01  0.51109989000E-03 0. -1.
     -623   -1    0    0    0    0  0.00000000000E+00  0.00000000000E+00  0.12525980253E-10  0.17130000000E+03  0.17130000000E+03 0.  1.
       11    1    1    2    0    0 -0.55677720995E-02  0.13806617548E-02  0.93792977764E+00  0.93794745872E+00  0.51109989000E-03 0. -1.
     -623    1    1    2    0    0  0.23917405406E-04 -0.55778908586E-04  0.10562009137E-03  0.17130000000E+03  0.17130000000E+03 0.  1.
      622    1    1    2    0    0  0.55438546940E-02 -0.13248828463E-02  0.30619645696E+01  0.30620525412E+01  0.22500000000E-01 0. -1.
</event>
<event>
 5   0  0.9908800E+08  0.9118800E+02  0.7818608E-02  0.1180000E+00
       11   -1    0    0    0    0  0.00000000000E+00  0.00000000000E+00  0.39999999673E+01  0.40000000000E+01  0.51109989000E-03 0.  1.
     -623   -1    0    0    0    0  0.00000000000E+00  0.00000000000E+00  0.12525980253E-10  0.17130000000E+03  0.17130000000E+03 0.  1.
       11    1    1    2    0    0  0.47382642644E-02  0.10062757202E-02  0.13369435484E+00  0.13378305378E+00  0.51109989000E-03 0.  1.
     -623    1    1    2    0    0  0.23826933842E-02 -0.98756406658E-03  0.16071531946E-03  0.17130000002E+03  0.17130000000E+03 0.  1.
      622    1    1    2    0    0 -0.71209576485E-02 -0.18711653613E-04  0.38661448972E+01  0.38662169267E+01  0.22500000000E-01 0.  1.
</event>
<event>
 5   0  0.9908800E+08  0.9118800E+02  0.7818608E-02  0.1180000E+00
       11   -1    0    0    0    0  0.00000000000E+00  0.00000000000E+00  0.39999999673E+01  0.40000000000E+01  0.51109989000E-03 0.  1.
     -623   -1    0    0    0    0  0.00000000000E+00  0.00000000000E+00  0.12525980253E-10  0.17130000000E+03  0.17130000000E+03 0. -1.
       11    1    1    2    0    0 -0.95288467699E-02 -0.17294143555E-01  0.54067501539E+00  0.54103569181E+00  0.51109989000E-03 0.  1.
     -623    1    1    2    0    0  0.15703882136E-02 -0.11998214881E-02  0.49243394049E-03  0.17130000001E+03  0.17130000000E+03 0. -1.
      622    1    1    2    0    0  0.79584585563E-02  0.18493965043E-01  0.34588325180E+01  0.34589642961E+01  0.22500000000E-01 0.  1.
</event>
<event>
 5   0  0.9908800E+08  0.9118800E+02  0.7818608E-02  0.1180000E+00
       11   -1    0    0    0    0  0.00000000000E+00  0.00000000000E+00  0.39999999673E+01  0.40000000000E+01  0.51109989000E-03 0. -1.
     -623   -1    0    0    0    0  0.00000000000E+00  0.00000000000E+00  0.12525980253E-10  0.17130000000E+03  0.17130000000E+03 0.  1.
       11    1    1    2    0    0  0.64449990314E-03  0.14383126632E-03  0.30921520340E-01  0.30932793453E-01  0.51109989000E-03 0. -1.
     -623    1    1    2    0    0 -0.40062648748E-03 -0.12810532091E-03  0.75023471596E-04  0.17130000000E+03  0.17130000000E+03 0.  1.
      622    1    1    2    0    0 -0.24387341542E-03 -0.15725945336E-04  0.39690034259E+01  0.39690672084E+01  0.22500000000E-01 0. -1.
</event>
<event>
 5   0  0.9908800E+08  0.9118800E+02  0.7818608E-02  0.1180000E+00
       11   -1    0    0    0    0  0.00000000000E+00  0.00000000000E+00  0.39999999673E+01  0.40000000000E+01  0.51109989000E-03 0. -1.
     -623   -1    0    0    0    0  0.00000000000E+00  0.00000000000E+00  0.12525980253E-10  0.17130000000E+03  0.17130000000E+03 0. -1.
       11    1    1    2    0    0 -0.40177249553E-03 -0.16364294918E-03  0.26860749770E-02  0.27684692580E-02  0.51109989000E-03 0. -1.
     -623    1    1    2    0    0  0.10500838998E-03  0.47724507412E-03  0.14571129831E-03  0.17130000000E+03  0.17130000000E+03 0. -1.
      622    1    1    2    0    0  0.29676410556E-03 -0.31360212489E-03  0.39971681806E+01  0.39972315295E+01  0.22500000000E-01 0. -1.
</event>
<event>
 5   0  0.9908800E+08  0.9118800E+02  0.7818608E-02  0.1180000E+00
       11   -1    0    0    0    0  0.00000000000E+00  0.00000000000E+00  0.39999999673E+01  0.40000000000E+01  0.51109989000E-03 0.  1.
     -623   -1    0    0    0    0  0.00000000000E+00  0.00000000000E+00  0.12525980253E-10  0.17130000000E+03  0.17130000000E+03 0.  1.
       11    1    1    2    0    0  0.23658477364E-02  0.12774738109E-02  0.53665583917E+00  0.53666281790E+00  0.51109989000E-03 0.  1.
     -623    1    1    2    0    0  0.30935172789E-04  0.21087771802E-03  0.81183200320E-04  0.17130000000E+03  0.17130000000E+03 0.  1.
      622    1    1    2    0    0 -0.23967829092E-02 -0.14883515289E-02  0.34632629450E+01  0.34633371820E+01  0.22500000000E-01 0.  1.
</event>
<event>
 5   0  0.9908800E+08  0.9118800E+02  0.7818608E-02  0.1180000E+00
       11   -1    0    0    0    0  0.00000000000E+00  0.00000000000E+00  0.39999999673E+01  0.40000000000E+01  0.51109989000E-03 0.  1.
     -623   -1    0    0    0    0  0.00000000000E+00  0.00000000000E+00  0.12525980253E-10  0.17130000000E+03  0.17130000000E+03 0. -1.
       11    1    1    2    0    0  0.10035101836E-02  0.14879410797E-02  0.43975064946E-02  0.47770582784E-02  0.51109989000E-03 0.  1.
     -623    1    1    2    0    0  0.24321427587E-03  0.16539064882E-03  0.44341401525E-03  0.17130000000E+03  0.17130000000E+03 0. -1.
      622    1    1    2    0    0 -0.12467244595E-02 -0.16533317285E-02  0.39951590468E+01  0.39952229409E+01  0.22500000000E-01 0.  1.
</event>
<event>
 5   0  0.9908800E+08  0.9118800E+02  0.7818608E-02  0.1180000E+00
       11   -1    0    0    0    0  0.00000000000E+00  0.00000000000E+00  0.39999999673E+01  0.40000000000E+01  0.51109989000E-03 0.  1.
     -623   -1    0    0    0    0  0.00000000000E+00  0.00000000000E+00  0.12525980253E-10  0.17130000000E+03  0.17130000000E+03 0.  1.
       11    1    1    2    0    0  0.20210051636E-03 -0.44273423845E-03  0.10687113850E+01  0.10687116180E+01  0.51109989000E-03 0.  1.
     -623    1    1    2    0    0 -0.28323068458E-03 -0.19474198334E-03  0.86625282133E-04  0.17130000000E+03  0.17130000000E+03 0.  1.
      622    1    1    2    0    0  0.81130168218E-04  0.63747622179E-03  0.29312019571E+01  0.29312883816E+01  0.22500000000E-01 0.  1.
</event>
<event>
 5   0  0.9908800E+08  0.9118800E+02  0.7818608E-02  0.1180000E+00
       11   -1    0    0    0    0  0.00000000000E+00  0.00000000000E+00  0.39999999673E+01  0.40000000000E+01  0.51109989000E-03 0.  1.
     -623   -1    0    0    0    0  0.00000000000E+00  0.00000000000E+00  0.12525980253E-10  0.17130000000E+03  0.17130000000E+03 0.  1.
       11    1    1    2    0    0  0.25632837129E-03  0.11770631705E-03  0.66527712645E-02  0.66783341940E-02  0.51109989000E-03 0. -1.
     -623    1    1    2    0    0  0.29466944059E-03 -0.30976287290E-03  0.88961061332E-04  0.17130000000E+03  0.17130000000E+03 0.  1.
      622    1    1    2    0    0 -0.55099781218E-03  0.19205655616E-03  0.39932582390E+01  0.39933216692E+01  0.22500000000E-01 0.  1.
</event>
<event>
 5   0  0.9908800E+08  0.9118800E+02  0.7818608E-02  0.1180000E+00
       11   -1    0    0    0    0  0.00000000000E+00  0.00000000000E+00  0.39999999673E+01  0.40000000000E+01  0.51109989000E-03 0.  1.
     -623   -1    0    0    0    0  0.00000000000E+00  0.00000000000E+00  0.12525980253E-10  0.17130000000E+03  0.17130000000E+03 0. -1.
       11    1    1    2    0    0  0.47649543915E-02  0.13225299766E-03  0.79367200372E-02  0.92722720654E-02  0.51109989000E-03 0.  1.
     -623    1    1    2    0    0 -0.51129095131E-02 -0.45407262758E-02  0.14015405780E-02  0.17130000014E+03  0.17130000000E+03 0. -1.
      622    1    1    2    0    0  0.34795512145E-03  0.44084732781E-02  0.39906617067E+01  0.39907275856E+01  0.22500000000E-01 0.  1.
</event>
<event>
 5   0  0.9908800E+08  0.9118800E+02  0.7818608E-02  0.1180000E+00
       11   -1    0    0    0    0  0.00000000000E+00  0.00000000000E+00  0.39999999673E+01  0.40000000000E+01  0.51109989000E-03 0.  1.
     -623   -1    0    0    0    0  0.00000000000E+00  0.00000000000E+00  0.12525980253E-10  0.17130000000E+03  0.17130000000E+03 0. -1.
       11    1    1    2    0    0 -0.13451342044E-02  0.14140020870E-01  0.58533871883E+00  0.58551125229E+00  0.51109989000E-03 0.  1.
     -623    1    1    2    0    0  0.73082200989E-02  0.36267095201E-03  0.28279807213E-03  0.17130000016E+03  0.17130000000E+03 0. -1.
      622    1    1    2    0    0 -0.59630858945E-02 -0.14502691822E-01  0.34143784505E+01  0.34144885912E+01  0.22500000000E-01 0.  1.
</event>
<event>
 5   0  0.9908800E+08  0.9118800E+02  0.7818608E-02  0.1180000E+00
       11   -1    0    0    0    0  0.00000000000E+00  0.00000000000E+00  0.39999999673E+01  0.40000000000E+01  0.51109989000E-03 0. -1.
     -623   -1    0    0    0    0  0.00000000000E+00  0.00000000000E+00  0.12525980253E-10  0.17130000000E+03  0.17130000000E+03 0.  1.
       11    1    1    2    0    0 -0.62055367703E-03 -0.44015371807E-03  0.19402551902E-02  0.21458414346E-02  0.51109989000E-03 0. -1.
     -623    1    1    2    0    0 -0.33232999486E-03  0.88826863663E-03  0.26901083426E-03  0.17130000000E+03  0.17130000000E+03 0.  1.
      622    1    1    2    0    0  0.95288367191E-03 -0.44811491859E-03  0.39977907015E+01  0.39978541559E+01  0.22500000000E-01 0. -1.
</event>
<event>
 5   0  0.9908800E+08  0.9118800E+02  0.7818608E-02  0.1180000E+00
       11   -1    0    0    0    0  0.00000000000E+00  0.00000000000E+00  0.39999999673E+01  0.40000000000E+01  0.51109989000E-03 0. -1.
     -623   -1    0    0    0    0  0.00000000000E+00  0.00000000000E+00  0.12525980253E-10  0.17130000000E+03  0.17130000000E+03 0.  1.
       11    1    1    2    0    0 -0.84974705083E-04  0.17435149771E-02  0.18578496261E-01  0.18667319302E-01  0.51109989000E-03 0. -1.
     -623    1    1    2    0    0  0.26499076980E-02 -0.30616290061E-02  0.15346122123E-03  0.17130000005E+03  0.17130000000E+03 0.  1.
      622    1    1    2    0    0 -0.25649329930E-02  0.13181140291E-02  0.39812680099E+01  0.39813326328E+01  0.22500000000E-01 0. -1.
</event>
<event>
 5   0  0.9908800E+08  0.9118800E+02  0.7818608E-02  0.1180000E+00
       11   -1    0    0    0    0  0.00000000000E+00  0.00000000000E+00  0.39999999673E+01  0.40000000000E+01  0.51109989000E-03 0.  1.
     -623   -1    0    0    0    0  0.00000000000E+00  0.00000000000E+00  0.12525980253E-10  0.17130000000E+03  0.17130000000E+03 0. -1.
       11    1    1    2    0    0 -0.50867108203E-02 -0.53989666876E-02  0.70575406057E+00  0.70579322659E+00  0.51109989000E-03 0.  1.
     -623    1    1    2    0    0 -0.10835373940E-02 -0.12041402286E-02  0.12837819293E-03  0.17130000001E+03  0.17130000000E+03 0. -1.
      622    1    1    2    0    0  0.61702482152E-02  0.66031069172E-02  0.32941175321E+01  0.32942067692E+01  0.22500000000E-01 0.  0.
</event>
<event>
 5   0  0.9908800E+08  0.9118800E+02  0.7818608E-02  0.1180000E+00
       11   -1    0    0    0    0  0.00000000000E+00  0.00000000000E+00  0.39999999673E+01  0.40000000000E+01  0.51109989000E-03 0. -1.
     -623   -1    0    0    0    0  0.00000000000E+00  0.00000000000E+00  0.12525980253E-10  0.17130000000E+03  0.17130000000E+03 0.  1.
       11    1    1    2    0    0  0.78596981024E-04  0.27139363658E-04  0.11223254965E-01  0.11235194149E-01  0.51109989000E-03 0. -1.
     -623    1    1    2    0    0 -0.55895196987E-03 -0.91533252886E-03  0.75497732666E-04  0.17130000000E+03  0.17130000000E+03 0.  1.
      622    1    1    2    0    0  0.48035498885E-03  0.88819316520E-03  0.39887012147E+01  0.39887648025E+01  0.22500000000E-01 0. -1.
</event>
<event>
 5   0  0.9908800E+08  0.9118800E+02  0.7818608E-02  0.1180000E+00
       11   -1    0    0    0    0  0.00000000000E+00  0.00000000000E+00  0.39999999673E+01  0.40000000000E+01  0.51109989000E-03 0. -1.
     -623   -1    0    0    0    0  0.00000000000E+00  0.00000000000E+00  0.12525980253E-10  0.17130000000E+03  0.17130000000E+03 0.  1.
       11    1    1    2    0    0  0.74319689472E-02  0.57119750414E-02  0.15909857337E+00  0.15937527441E+00  0.51109989000E-03 0. -1.
     -623    1    1    2    0    0 -0.92337802365E-03  0.46143245244E-03  0.35305639225E-03  0.17130000000E+03  0.17130000000E+03 0.  1.
      622    1    1    2    0    0 -0.65085909237E-02 -0.61734074937E-02  0.38405483370E+01  0.38406247216E+01  0.22500000000E-01 0. -1.
</event>
<event>
 5   0  0.9908800E+08  0.9118800E+02  0.7818608E-02  0.1180000E+00
       11   -1    0    0    0    0  0.00000000000E+00  0.00000000000E+00  0.39999999673E+01  0.40000000000E+01  0.51109989000E-03 0.  1.
     -623   -1    0    0    0    0  0.00000000000E+00  0.00000000000E+00  0.12525980253E-10  0.17130000000E+03  0.17130000000E+03 0.  1.
       11    1    1    2    0    0 -0.10344554301E-01 -0.11503351583E-01  0.39860555096E+00  0.39890598313E+00  0.51109989000E-03 0.  1.
     -623    1    1    2    0    0 -0.29468605224E-04 -0.25599106325E-02  0.41311524852E-03  0.17130000002E+03  0.17130000000E+03 0.  1.
      622    1    1    2    0    0  0.10374022906E-01  0.14063262216E-01  0.36009813014E+01  0.36010939975E+01  0.22500000000E-01 0.  1.
</event>
<event>
 5   0  0.9908800E+08  0.9118800E+02  0.7818608E-02  0.1180000E+00
       11   -1    0    0    0    0  0.00000000000E+00  0.00000000000E+00  0.39999999673E+01  0.40000000000E+01  0.51109989000E-03 0.  1.
     -623   -1    0    0    0    0  0.00000000000E+00  0.00000000000E+00  0.12525980253E-10  0.17130000000E+03  0.17130000000E+03 0. -1.
       11    1    1    2    0    0  0.64933625870E-02  0.23209206118E-02  0.22571361328E+00  0.22581950065E+00  0.51109989000E-03 0.  1.
     -623    1    1    2    0    0 -0.28562273570E-03  0.42784476348E-03  0.17903003116E-03  0.17130000000E+03  0.17130000000E+03 0. -1.
      622    1    1    2    0    0 -0.62077398513E-02 -0.27487653753E-02  0.37741073240E+01  0.37741804985E+01  0.22500000000E-01 0.  1.
</event>
<event>
 5   0  0.9908800E+08  0.9118800E+02  0.7818608E-02  0.1180000E+00
       11   -1    0    0    0    0  0.00000000000E+00  0.00000000000E+00  0.39999999673E+01  0.40000000000E+01  0.51109989000E-03 0.  1.
     -623   -1    0    0    0    0  0.00000000000E+00  0.00000000000E+00  0.12525980253E-10  0.17130000000E+03  0.17130000000E+03 0. -1.
       11    1    1    2    0    0 -0.35086615373E-02  0.13087972455E-02  0.71580942519E+00  0.71581940325E+00  0.51109989000E-03 0.  1.
     -623    1    1    2    0    0  0.11374330456E-02 -0.28357712655E-03  0.88040454292E-04  0.17130000000E+03  0.17130000000E+03 0. -1.
      622    1    1    2    0    0  0.23712284917E-02 -0.10252201190E-02  0.32841025017E+01  0.32841805927E+01  0.22500000000E-01 0.  1.
</event>
<event>
 5   0  0.9908800E+08  0.9118800E+02  0.7818608E-02  0.1180000E+00
       11   -1    0    0    0    0  0.00000000000E+00  0.00000000000E+00  0.39999999673E+01  0.40000000000E+01  0.51109989000E-03 0. -1.
     -623   -1    0    0    0    0  0.00000000000E+00  0.00000000000E+00  0.12525980253E-10  0.17130000000E+03  0.17130000000E+03 0. -1.
       11    1    1    2    0    0 -0.58997209792E-02  0.27522455313E-02  0.46522177707E-01  0.46978248184E-01  0.51109989000E-03 0.  1.
     -623    1    1    2    0    0 -0.59381323575E-03  0.52172710280E-03  0.52676356711E-03  0.17130000000E+03  0.17130000000E+03 0. -1.
      622    1    1    2    0    0  0.64935342149E-02 -0.32739726341E-02  0.39529510261E+01  0.39530217492E+01  0.22500000000E-01 0. -1.
</event>
<event>
 5   0  0.9908800E+08  0.9118800E+02  0.7818608E-02  0.1180000E+00
       11   -1    0    0    0    0  0.00000000000E+00  0.00000000000E+00  0.39999999673E+01  0.40000000000E+01  0.51109989000E-03 0.  1.
     -623   -1    0    0    0    0  0.00000000000E+00  0.00000000000E+00  0.12525980253E-10  0.17130000000E+03  0.17130000000E+03 0. -1.
       11    1    1    2    0    0 -0.15447734016E-02 -0.21117115927E-02  0.16942897395E+00  0.16944994567E+00  0.51109989000E-03 0.  1.
     -623    1    1    2    0    0  0.20186278055E-03 -0.36314425442E-04  0.87858055369E-04  0.17130000000E+03  0.17130000000E+03 0. -1.
      622    1    1    2    0    0  0.13429106211E-02  0.21480260181E-02  0.38304831354E+01  0.38305500542E+01  0.22500000000E-01 0.  1.
</event>
<event>
 5   0  0.9908800E+08  0.9118800E+02  0.7818608E-02  0.1180000E+00
       11   -1    0    0    0    0  0.00000000000E+00  0.00000000000E+00  0.39999999673E+01  0.40000000000E+01  0.51109989000E-03 0.  1.
     -623   -1    0    0    0    0  0.00000000000E+00  0.00000000000E+00  0.12525980253E-10  0.17130000000E+03  0.17130000000E+03 0.  1.
       11    1    1    2    0    0  0.50981530508E-03 -0.12175809838E-02  0.19592366248E-01  0.19643432832E-01  0.51109989000E-03 0.  1.
     -623    1    1    2    0    0 -0.15257968887E-03 -0.11651511336E-03  0.11486775504E-03  0.17130000000E+03  0.17130000000E+03 0.  1.
      622    1    1    2    0    0 -0.35723561604E-03  0.13340960973E-02  0.39802927378E+01  0.39803565715E+01  0.22500000000E-01 0.  1.
</event>
<event>
 5   0  0.9908800E+08  0.9118800E+02  0.7818608E-02  0.1180000E+00
       11   -1    0    0    0    0  0.00000000000E+00  0.00000000000E+00  0.39999999673E+01  0.40000000000E+01  0.51109989000E-03 0.  1.
     -623   -1    0    0    0    0  0.00000000000E+00  0.00000000000E+00  0.12525980253E-10  0.17130000000E+03  0.17130000000E+03 0. -1.
       11    1    1    2    0    0  0.74000687435E-02 -0.45405788225E-02  0.32746289041E+00  0.32757836267E+00  0.51109989000E-03 0.  1.
     -623    1    1    2    0    0 -0.87510817464E-02  0.35335287911E-02  0.18501284559E-03  0.17130000026E+03  0.17130000000E+03 0. -1.
      622    1    1    2    0    0  0.13510130029E-02  0.10070500314E-02  0.36723520641E+01  0.36724213773E+01  0.22500000000E-01 0.  1.
</event>
<event>
 5   0  0.9908800E+08  0.9118800E+02  0.7818608E-02  0.1180000E+00
       11   -1    0    0    0    0  0.00000000000E+00  0.00000000000E+00  0.39999999673E+01  0.40000000000E+01  0.51109989000E-03 0.  1.
     -623   -1    0    0    0    0  0.00000000000E+00  0.00000000000E+00  0.12525980253E-10  0.17130000000E+03  0.17130000000E+03 0.  1.
       11    1    1    2    0    0 -0.10470743912E-02 -0.24822350656E-02  0.24046265470E+00  0.24047828880E+00  0.51109989000E-03 0.  1.
     -623    1    1    2    0    0 -0.24416680939E-02 -0.13532160068E-02  0.86529126013E-04  0.17130000002E+03  0.17130000000E+03 0.  1.
      622    1    1    2    0    0  0.34887424851E-02  0.38354510724E-02  0.37594507835E+01  0.37595216884E+01  0.22500000000E-01 0.  1.
</event>
<event>
 5   0  0.9908800E+08  0.9118800E+02  0.7818608E-02  0.1180000E+00
       11   -1    0    0    0    0  0.00000000000E+00  0.00000000000E+00  0.39999999673E+01  0.40000000000E+01  0.51109989000E-03 0.  1.
     -623   -1    0    0    0    0  0.00000000000E+00  0.00000000000E+00  0.12525980253E-10  0.17130000000E+03  0.17130000000E+03 0.  1.
       11    1    1    2    0    0 -0.35642177064E-03 -0.19816342701E-02  0.62941729099E-01  0.62975998571E-01  0.51109989000E-03 0.  1.
     -623    1    1    2    0    0  0.12050120411E-02  0.14582642145E-02  0.98667559046E-04  0.17130000001E+03  0.17130000000E+03 0.  1.
      622    1    1    2    0    0 -0.84859027073E-03  0.52337005527E-03  0.39369595716E+01  0.39370239919E+01  0.22500000000E-01 0.  1.
</event>
<event>
 5   0  0.9908800E+08  0.9118800E+02  0.7818608E-02  0.1180000E+00
       11   -1    0    0    0    0  0.00000000000E+00  0.00000000000E+00  0.39999999673E+01  0.40000000000E+01  0.51109989000E-03 0. -1.
     -623   -1    0    0    0    0  0.00000000000E+00  0.00000000000E+00  0.12525980253E-10  0.17130000000E+03  0.17130000000E+03 0. -1.
       11    1    1    2    0    0  0.10580191624E-02  0.71447153506E-03  0.15644115531E+00  0.15644719931E+00  0.51109989000E-03 0. -1.
     -623    1    1    2    0    0 -0.20495912917E-03  0.34481996286E-03  0.72110088491E-04  0.17130000000E+03  0.17130000000E+03 0. -1.
      622    1    1    2    0    0 -0.85306003335E-03 -0.10592914977E-02  0.38434866990E+01  0.38435527973E+01  0.22500000000E-01 0. -1.
</event>
<event>
 5   0  0.9908800E+08  0.9118800E+02  0.7818608E-02  0.1180000E+00
       11   -1    0    0    0    0  0.00000000000E+00  0.00000000000E+00  0.39999999673E+01  0.40000000000E+01  0.51109989000E-03 0. -1.
     -623   -1    0    0    0    0  0.00000000000E+00  0.00000000000E+00  0.12525980253E-10  0.17130000000E+03  0.17130000000E+03 0.  1.
       11    1    1    2    0    0 -0.26323482869E-03 -0.31361625086E-02  0.74897315304E+00  0.74897993966E+00  0.51109989000E-03 0. -1.
     -623    1    1    2    0    0  0.55000920635E-03  0.99054116593E-03  0.85339555813E-04  0.17130000000E+03  0.17130000000E+03 0.  1.
      622    1    1    2    0    0 -0.28677437766E-03  0.21456213427E-02  0.32509414748E+01  0.32510200566E+01  0.22500000000E-01 0. -1.
</event>
<event>
 5   0  0.9908800E+08  0.9118800E+02  0.7818608E-02  0.1180000E+00
       11   -1    0    0    0    0  0.00000000000E+00  0.00000000000E+00  0.39999999673E+01  0.40000000000E+01  0.51109989000E-03 0. -1.
     -623   -1    0    0    0    0  0.00000000000E+00  0.00000000000E+00  0.12525980253E-10  0.17130000000E+03  0.17130000000E+03 0.  1.
       11    1    1    2    0    0 -0.31497465814E-02  0.93855271105E-03  0.13859944394E+00  0.13863934819E+00  0.51109989000E-03 0. -1.
     -623    1    1    2    0    0  0.10319469056E-02  0.91190818572E-03  0.10645522777E-03  0.17130000001E+03  0.17130000000E+03 0.  1.
      622    1    1    2    0    0  0.21177996758E-02 -0.18504608968E-02  0.38612940682E+01  0.38613606462E+01  0.22500000000E-01 0. -1.
</event>
<event>
 5   0  0.9908800E+08  0.9118800E+02  0.7818608E-02  0.1180000E+00
       11   -1    0    0    0    0  0.00000000000E+00  0.00000000000E+00  0.39999999673E+01  0.40000000000E+01  0.51109989000E-03 0.  1.
     -623   -1    0    0    0    0  0.00000000000E+00  0.00000000000E+00  0.12525980253E-10  0.17130000000E+03  0.17130000000E+03 0. -1.
       11    1    1    2    0    0 -0.62155749498E-02  0.21086821686E-02  0.49192445144E+00  0.49196850210E+00  0.51109989000E-03 0.  1.
     -623    1    1    2    0    0  0.67867302081E-02  0.89107495812E-02  0.13389489854E-03  0.17130000037E+03  0.17130000000E+03 0. -1.
      622    1    1    2    0    0 -0.57115525836E-03 -0.11019431750E-01  0.35079416210E+01  0.35080311316E+01  0.22500000000E-01 0.  1.
</event>
<event>
 5   0  0.9908800E+08  0.9118800E+02  0.7818608E-02  0.1180000E+00
       11   -1    0    0    0    0  0.00000000000E+00  0.00000000000E+00  0.39999999673E+01  0.40000000000E+01  0.51109989000E-03 0. -1.
     -623   -1    0    0    0    0  0.00000000000E+00  0.00000000000E+00  0.12525980253E-10  0.17130000000E+03  0.17130000000E+03 0. -1.
       11    1    1    2    0    0 -0.19125852620E-02  0.32594044641E-02  0.36264695653E-01  0.36464655130E-01  0.51109989000E-03 0. -1.
     -623    1    1    2    0    0  0.66786305146E-03 -0.62250881778E-03  0.26486604327E-03  0.17130000000E+03  0.17130000000E+03 0. -1.
      622    1    1    2    0    0  0.12447222107E-02 -0.26368956464E-02  0.39634704047E+01  0.39635353412E+01  0.22500000000E-01 0. -1.
</event>
<event>
 5   0  0.9908800E+08  0.9118800E+02  0.7818608E-02  0.1180000E+00
       11   -1    0    0    0    0  0.00000000000E+00  0.00000000000E+00  0.39999999673E+01  0.40000000000E+01  0.51109989000E-03 0. -1.
     -623   -1    0    0    0    0  0.00000000000E+00  0.00000000000E+00  0.12525980253E-10  0.17130000000E+03  0.17130000000E+03 0.  1.
       11    1    1    2    0    0 -0.44502120508E-03  0.15668250940E-02  0.29556454312E-01  0.29605712276E-01  0.51109989000E-03 0.  1.
     -623    1    1    2    0    0 -0.15307974800E-03  0.32473317602E-03  0.11347500421E-03  0.17130000000E+03  0.17130000000E+03 0.  1.
      622    1    1    2    0    0  0.59810095311E-03 -0.18915582701E-02  0.39703300388E+01  0.39703942881E+01  0.22500000000E-01 0. -1.
</event>
<event>
 5   0  0.9908800E+08  0.9118800E+02  0.7818608E-02  0.1180000E+00
       11   -1    0    0    0    0  0.00000000000E+00  0.00000000000E+00  0.39999999673E+01  0.40000000000E+01  0.51109989000E-03 0.  1.
     -623   -1    0    0    0    0  0.00000000000E+00  0.00000000000E+00  0.12525980253E-10  0.17130000000E+03  0.17130000000E+03 0. -1.
       11    1    1    2    0    0 -0.23723245246E-02 -0.12144887235E-01  0.29282879550E+00  0.29309058481E+00  0.51109989000E-03 0.  1.
     -623    1    1    2    0    0 -0.54089749641E-03 -0.35346682422E-02  0.36438602655E-03  0.17130000004E+03  0.17130000000E+03 0. -1.
      622    1    1    2    0    0  0.29132220209E-02  0.15679555477E-01  0.37068067850E+01  0.37069093766E+01  0.22500000000E-01 0.  0.
</event>
<event>
 5   0  0.9908800E+08  0.9118800E+02  0.7818608E-02  0.1180000E+00
       11   -1    0    0    0    0  0.00000000000E+00  0.00000000000E+00  0.39999999673E+01  0.40000000000E+01  0.51109989000E-03 0. -1.
     -623   -1    0    0    0    0  0.00000000000E+00  0.00000000000E+00  0.12525980253E-10  0.17130000000E+03  0.17130000000E+03 0.  1.
       11    1    1    2    0    0 -0.44644391447E-03  0.10942059010E-02  0.10352050952E+01  0.10352058959E+01  0.51109989000E-03 0. -1.
     -623    1    1    2    0    0  0.14789890611E-02 -0.32802482847E-02  0.87169799381E-04  0.17130000004E+03  0.17130000000E+03 0.  1.
      622    1    1    2    0    0 -0.10325451467E-02  0.21860423836E-02  0.29647077024E+01  0.29647940663E+01  0.22500000000E-01 0. -1.
</event>
<event>
 5   0  0.9908800E+08  0.9118800E+02  0.7818608E-02  0.1180000E+00
       11   -1    0    0    0    0  0.00000000000E+00  0.00000000000E+00  0.39999999673E+01  0.40000000000E+01  0.51109989000E-03 0. -1.
     -623   -1    0    0    0    0  0.00000000000E+00  0.00000000000E+00  0.12525980253E-10  0.17130000000E+03  0.17130000000E+03 0. -1.
       11    1    1    2    0    0  0.47955114782E-02 -0.13083008164E-02  0.67239407150E-01  0.67424829820E-01  0.51109989000E-03 0. -1.
     -623    1    1    2    0    0  0.12696924894E-02  0.36259989695E-03  0.25455302360E-03  0.17130000001E+03  0.17130000000E+03 0. -1.
      622    1    1    2    0    0 -0.60652039676E-02  0.94570091946E-03  0.39325060072E+01  0.39325751649E+01  0.22500000000E-01 0. -1.
</event>
<event>
 5   0  0.9908800E+08  0.9118800E+02  0.7818608E-02  0.1180000E+00
       11   -1    0    0    0    0  0.00000000000E+00  0.00000000000E+00  0.39999999673E+01  0.40000000000E+01  0.51109989000E-03 0.  1.
     -623   -1    0    0    0    0  0.00000000000E+00  0.00000000000E+00  0.12525980253E-10  0.17130000000E+03  0.17130000000E+03 0.  1.
       11    1    1    2    0    0 -0.11476617941E-02 -0.25217568019E-02  0.64343030373E+00  0.64343647190E+00  0.51109989000E-03 0.  1.
     -623    1    1    2    0    0  0.14661505831E-04  0.10397950390E-03  0.82610396988E-04  0.17130000000E+03  0.17130000000E+03 0.  1.
      622    1    1    2    0    0  0.11330002882E-02  0.24177772980E-02  0.33564870532E+01  0.33565635281E+01  0.22500000000E-01 0.  1.
</event>
<event>
 5   0  0.9908800E+08  0.9118800E+02  0.7818608E-02  0.1180000E+00
       11   -1    0    0    0    0  0.00000000000E+00  0.00000000000E+00  0.39999999673E+01  0.40000000000E+01  0.51109989000E-03 0.  1.
     -623   -1    0    0    0    0  0.00000000000E+00  0.00000000000E+00  0.12525980253E-10  0.17130000000E+03  0.17130000000E+03 0. -1.
       11    1    1    2    0    0 -0.11867001523E-02 -0.13775801594E-02  0.36846283813E-01  0.36894658669E-01  0.51109989000E-03 0.  1.
     -623    1    1    2    0    0  0.25820477590E-02  0.24320876973E-02  0.11263580039E-03  0.17130000004E+03  0.17130000000E+03 0. -1.
      622    1    1    2    0    0 -0.13953476062E-02 -0.10545075374E-02  0.39630410469E+01  0.39631053038E+01  0.22500000000E-01 0.  1.
</event>
<event>
 5   0  0.9908800E+08  0.9118800E+02  0.7818608E-02  0.1180000E+00
       11   -1    0    0    0    0  0.00000000000E+00  0.00000000000E+00  0.39999999673E+01  0.40000000000E+01  0.51109989000E-03 0. -1.
     -623   -1    0    0    0    0  0.00000000000E+00  0.00000000000E+00  0.12525980253E-10  0.17130000000E+03  0.17130000000E+03 0.  1.
       11    1    1    2    0    0 -0.37050493963E-02 -0.50024587232E-03  0.52556558879E-01  0.52691847010E-01  0.51109989000E-03 0. -1.
     -623    1    1    2    0    0 -0.33674391427E-04 -0.40996817054E-03  0.20125815762E-03  0.17130000000E+03  0.17130000000E+03 0.  1.
      622    1    1    2    0    0  0.37387237877E-02  0.91021404288E-03  0.39472421506E+01  0.39473081526E+01  0.22500000000E-01 0. -1.
</event>
<event>
 5   0  0.9908800E+08  0.9118800E+02  0.7818608E-02  0.1180000E+00
       11   -1    0    0    0    0  0.00000000000E+00  0.00000000000E+00  0.39999999673E+01  0.40000000000E+01  0.51109989000E-03 0.  1.
     -623   -1    0    0    0    0  0.00000000000E+00  0.00000000000E+00  0.12525980253E-10  0.17130000000E+03  0.17130000000E+03 0. -1.
       11    1    1    2    0    0 -0.12561416666E-02  0.13014882024E-03  0.14973571127E+00  0.14974190891E+00  0.51109989000E-03 0.  1.
     -623    1    1    2    0    0 -0.12662000212E-03 -0.32864408617E-03  0.72161695654E-04  0.17130000000E+03  0.17130000000E+03 0. -1.
      622    1    1    2    0    0  0.13827616688E-02  0.19849526592E-03  0.38501920944E+01  0.38502580907E+01  0.22500000000E-01 0.  1.
</event>
<event>
 5   0  0.9908800E+08  0.9118800E+02  0.7818608E-02  0.1180000E+00
       11   -1    0    0    0    0  0.00000000000E+00  0.00000000000E+00  0.39999999673E+01  0.40000000000E+01  0.51109989000E-03 0.  1.
     -623   -1    0    0    0    0  0.00000000000E+00  0.00000000000E+00  0.12525980253E-10  0.17130000000E+03  0.17130000000E+03 0. -1.
       11    1    1    2    0    0  0.69432952568E-02  0.10345775272E-01  0.74499468616E-01  0.75535928278E-01  0.51109989000E-03 0.  1.
     -623    1    1    2    0    0  0.49415944045E-02 -0.32091093718E-03  0.11318029434E-02  0.17130000008E+03  0.17130000000E+03 0. -1.
      622    1    1    2    0    0 -0.11884889661E-01 -0.10024864335E-01  0.39243686958E+01  0.39244639964E+01  0.22500000000E-01 0.  1.
</event>
<event>
 5   0  0.9908800E+08  0.9118800E+02  0.7818608E-02  0.1180000E+00
       11   -1    0    0    0    0  0.00000000000E+00  0.00000000000E+00  0.39999999673E+01  0.40000000000E+01  0.51109989000E-03 0. -1.
     -623   -1    0    0    0    0  0.00000000000E+00  0.00000000000E+00  0.12525980253E-10  0.17130000000E+03  0.17130000000E+03 0.  1.
       11    1    1    2    0    0 -0.73440263700E-02 -0.22676837482E-02  0.66864703047E+00  0.66869140094E+00  0.51109989000E-03 0. -1.
     -623    1    1    2    0    0 -0.69600655040E-03 -0.48263042201E-03  0.13116229613E-03  0.17130000000E+03  0.17130000000E+03 0.  1.
      622    1    1    2    0    0  0.80400329204E-02  0.27503141702E-02  0.33312217746E+01  0.33313085969E+01  0.22500000000E-01 0.  0.
</event>
<event>
 5   0  0.9908800E+08  0.9118800E+02  0.7818608E-02  0.1180000E+00
       11   -1    0    0    0    0  0.00000000000E+00  0.00000000000E+00  0.39999999673E+01  0.40000000000E+01  0.51109989000E-03 0.  1.
     -623   -1    0    0    0    0  0.00000000000E+00  0.00000000000E+00  0.12525980253E-10  0.17130000000E+03  0.17130000000E+03 0.  1.
       11    1    1    2    0    0 -0.53478933485E-02  0.15518706593E-01  0.16247702982E+00  0.16330485804E+00  0.51109989000E-03 0.  1.
     -623    1    1    2    0    0 -0.33834185088E-02 -0.10619193591E-01  0.90719957512E-03  0.17130000036E+03  0.17130000000E+03 0.  1.
      622    1    1    2    0    0  0.87313118574E-02 -0.48995130021E-02  0.38366157380E+01  0.38366947770E+01  0.22500000000E-01 0.  1.
</event>
<event>
 5   0  0.9908800E+08  0.9118800E+02  0.7818608E-02  0.1180000E+00
       11   -1    0    0    0    0  0.00000000000E+00  0.00000000000E+00  0.39999999673E+01  0.40000000000E+01  0.51109989000E-03 0. -1.
     -623   -1    0    0    0    0  0.00000000000E+00  0.00000000000E+00  0.12525980253E-10  0.17130000000E+03  0.17130000000E+03 0.  1.
       11    1    1    2    0    0 -0.91954350070E-02  0.61692825662E-02  0.69065698096E+00  0.69074593206E+00  0.51109989000E-03 0. -1.
     -623    1    1    2    0    0  0.47660004635E-03  0.71137568691E-03  0.18405097838E-03  0.17130000000E+03  0.17130000000E+03 0.  1.
      622    1    1    2    0    0  0.87188349609E-02 -0.68806582527E-02  0.33091589335E+01  0.33092540638E+01  0.22500000000E-01 0. -1.
</event>
<event>
 5   0  0.9908800E+08  0.9118800E+02  0.7818608E-02  0.1180000E+00
       11   -1    0    0    0    0  0.00000000000E+00  0.00000000000E+00  0.39999999673E+01  0.40000000000E+01  0.51109989000E-03 0. -1.
     -623   -1    0    0    0    0  0.00000000000E+00  0.00000000000E+00  0.12525980253E-10  0.17130000000E+03  0.17130000000E+03 0.  1.
       11    1    1    2    0    0 -0.20456674831E-02 -0.22292525284E-03  0.14416761883E-01  0.14571846054E-01  0.51109989000E-03 0. -1.
     -623    1    1    2    0    0 -0.61954175418E-04 -0.79361945186E-04  0.21913359219E-03  0.17130000000E+03  0.17130000000E+03 0.  1.
      622    1    1    2    0    0  0.21076216585E-02  0.30228719803E-03  0.39853640719E+01  0.39854281538E+01  0.22500000000E-01 0. -1.
</event>
<event>
 5   0  0.9908800E+08  0.9118800E+02  0.7818608E-02  0.1180000E+00
       11   -1    0    0    0    0  0.00000000000E+00  0.00000000000E+00  0.39999999673E+01  0.40000000000E+01  0.51109989000E-03 0.  1.
     -623   -1    0    0    0    0  0.00000000000E+00  0.00000000000E+00  0.12525980253E-10  0.17130000000E+03  0.17130000000E+03 0. -1.
       11    1    1    2    0    0 -0.21783240934E-02 -0.36475803552E-02  0.10417961702E+00  0.10426746262E+00  0.51109989000E-03 0.  1.
     -623    1    1    2    0    0 -0.99409405336E-02 -0.95422154871E-02  0.19452302036E-03  0.17130000055E+03  0.17130000000E+03 0. -1.
      622    1    1    2    0    0  0.12119264627E-01  0.13189795842E-01  0.38956258273E+01  0.38957319831E+01  0.22500000000E-01 0.  1.
</event>
<event>
 5   0  0.9908800E+08  0.9118800E+02  0.7818608E-02  0.1180000E+00
       11   -1    0    0    0    0  0.00000000000E+00  0.00000000000E+00  0.39999999673E+01  0.40000000000E+01  0.51109989000E-03 0.  1.
     -623   -1    0    0    0    0  0.00000000000E+00  0.00000000000E+00  0.12525980253E-10  0.17130000000E+03  0.17130000000E+03 0.  1.
       11    1    1    2    0    0  0.67272449917E-02 -0.14850093828E-01  0.27016322238E+00  0.27065514785E+00  0.51109989000E-03 0. -1.
     -623    1    1    2    0    0 -0.59210597455E-02  0.95892633310E-02  0.56393679615E-03  0.17130000037E+03  0.17130000000E+03 0.  1.
      622    1    1    2    0    0 -0.80618524617E-03  0.52608304975E-02  0.37292728082E+01  0.37293444805E+01  0.22500000000E-01 0.  1.
</event>
<event>
 5   0  0.9908800E+08  0.9118800E+02  0.7818608E-02  0.1180000E+00
       11   -1    0    0    0    0  0.00000000000E+00  0.00000000000E+00  0.39999999673E+01  0.40000000000E+01  0.51109989000E-03 0.  1.
     -623   -1    0    0    0    0  0.00000000000E+00  0.00000000000E+00  0.12525980253E-10  0.17130000000E+03  0.17130000000E+03 0.  1.
       11    1    1    2    0    0 -0.69724026635E-03 -0.18391698584E-02  0.12516991887E+00  0.12518641501E+00  0.51109989000E-03 0.  1.
     -623    1    1    2    0    0  0.62906724850E-02  0.12321020256E-02  0.85994519663E-04  0.17130000012E+03  0.17130000000E+03 0.  1.
      622    1    1    2    0    0 -0.55934322215E-02  0.60706783226E-03  0.38747440558E+01  0.38748134669E+01  0.22500000000E-01 0.  0.
</event>
<event>
 5   0  0.9908800E+08  0.9118800E+02  0.7818608E-02  0.1180000E+00
       11   -1    0    0    0    0  0.00000000000E+00  0.00000000000E+00  0.39999999673E+01  0.40000000000E+01  0.51109989000E-03 0. -1.
     -623   -1    0    0    0    0  0.00000000000E+00  0.00000000000E+00  0.12525980253E-10  0.17130000000E+03  0.17130000000E+03 0.  1.
       11    1    1    2    0    0  0.30579636468E-03  0.14611958093E-02  0.22792720043E+00  0.22793266225E+00  0.51109989000E-03 0. -1.
     -623    1    1    2    0    0  0.73258921345E-03  0.14597275914E-02  0.73816557680E-04  0.17130000001E+03  0.17130000000E+03 0.  1.
      622    1    1    2    0    0 -0.10383855781E-02 -0.29209234007E-02  0.37719989504E+01  0.37720673299E+01  0.22500000000E-01 0. -1.
</event>
<event>
 5   0  0.9908800E+08  0.9118800E+02  0.7818608E-02  0.1180000E+00
       11   -1    0    0    0    0  0.00000000000E+00  0.00000000000E+00  0.39999999673E+01  0.40000000000E+01  0.51109989000E-03 0.  1.
     -623   -1    0    0    0    0  0.00000000000E+00  0.00000000000E+00  0.12525980253E-10  0.17130000000E+03  0.17130000000E+03 0.  1.
       11    1    1    2    0    0  0.26601050447E-02 -0.35607389664E-02  0.20224758050E-01  0.20713693107E-01  0.51109989000E-03 0.  1.
     -623    1    1    2    0    0 -0.71582724400E-02  0.47530298435E-02  0.55545100551E-03  0.17130000022E+03  0.17130000000E+03 0.  1.
      622    1    1    2    0    0  0.44981673961E-02 -0.11922908777E-02  0.39792197588E+01  0.39792860909E+01  0.22500000000E-01 0.  1.
</event>
<event>
 5   0  0.9908800E+08  0.9118800E+02  0.7818608E-02  0.1180000E+00
       11   -1    0    0    0    0  0.00000000000E+00  0.00000000000E+00  0.39999999673E+01  0.40000000000E+01  0.51109989000E-03 0. -1.
     -623   -1    0    0    0    0  0.00000000000E+00  0.00000000000E+00  0.12525980253E-10  0.17130000000E+03  0.17130000000E+03 0.  1.
       11    1    1    2    0    0 -0.10544629564E-03 -0.32374038266E-03  0.10254396339E-01  0.10272769387E-01  0.51109989000E-03 0. -1.
     -623    1    1    2    0    0  0.36517288798E-03 -0.55504727038E-03  0.81891645870E-04  0.17130000000E+03  0.17130000000E+03 0.  1.
      622    1    1    2    0    0 -0.25972659235E-03  0.87878765304E-03  0.39896636794E+01  0.39897272293E+01  0.22500000000E-01 0. -1.
</event>
<event>
 5   0  0.9908800E+08  0.9118800E+02  0.7818608E-02  0.1180000E+00
       11   -1    0    0    0    0  0.00000000000E+00  0.00000000000E+00  0.39999999673E+01  0.40000000000E+01  0.51109989000E-03 0. -1.
     -623   -1    0    0    0    0  0.00000000000E+00  0.00000000000E+00  0.12525980253E-10  0.17130000000E+03  0.17130000000E+03 0.  1.
       11    1    1    2    0    0  0.25007218968E-03  0.68015145797E-03  0.12160347057E-01  0.12192637358E-01  0.51109989000E-03 0. -1.
     -623    1    1    2    0    0 -0.24664868813E-03  0.12012439418E-03  0.95813446671E-04  0.17130000000E+03  0.17130000000E+03 0.  1.
      622    1    1    2    0    0 -0.34235016531E-05 -0.80027585210E-03  0.39877438053E+01  0.39878073608E+01  0.22500000000E-01 0. -1.
</event>
<event>
 5   0  0.9908800E+08  0.9118800E+02  0.7818608E-02  0.1180000E+00
       11   -1    0    0    0    0  0.00000000000E+00  0.00000000000E+00  0.39999999673E+01  0.40000000000E+01  0.51109989000E-03 0. -1.
     -623   -1    0    0    0    0  0.00000000000E+00  0.00000000000E+00  0.12525980253E-10  0.17130000000E+03  0.17130000000E+03 0. -1.
       11    1    1    2    0    0 -0.16669530062E-02 -0.11320856190E-01  0.27124439051E+00  0.27148613431E+00  0.51109989000E-03 0. -1.
     -623    1    1    2    0    0  0.94850569193E-02  0.14923585314E-01  0.32045119615E-03  0.17130000091E+03  0.17130000000E+03 0. -1.
      622    1    1    2    0    0 -0.78181039157E-02 -0.36027291280E-02  0.37284351267E+01  0.37285129538E+01  0.22500000000E-01 0. -1.
</event>
<event>
 5   0  0.9908800E+08  0.9118800E+02  0.7818608E-02  0.1180000E+00
       11   -1    0    0    0    0  0.00000000000E+00  0.00000000000E+00  0.39999999673E+01  0.40000000000E+01  0.51109989000E-03 0. -1.
     -623   -1    0    0    0    0  0.00000000000E+00  0.00000000000E+00  0.12525980253E-10  0.17130000000E+03  0.17130000000E+03 0. -1.
       11    1    1    2    0    0  0.64241454189E-02  0.13187017260E-01  0.82414081122E+00  0.82427149957E+00  0.51109989000E-03 0. -1.
     -623    1    1    2    0    0  0.55610371524E-03 -0.78582730799E-02  0.22268646253E-03  0.17130000018E+03  0.17130000000E+03 0. -1.
      622    1    1    2    0    0 -0.69802491342E-02 -0.53287441792E-02  0.31756364699E+01  0.31757283194E+01  0.22500000000E-01 0.  0.
</event>
<event>
 5   0  0.9908800E+08  0.9118800E+02  0.7818608E-02  0.1180000E+00
       11   -1    0    0    0    0  0.00000000000E+00  0.00000000000E+00  0.39999999673E+01  0.40000000000E+01  0.51109989000E-03 0.  1.
     -623   -1    0    0    0    0  0.00000000000E+00  0.00000000000E+00  0.12525980253E-10  0.17130000000E+03  0.17130000000E+03 0.  1.
       11    1    1    2    0    0 -0.17549090495E-02  0.81152877442E-03  0.19486265355E-01  0.19588620301E-01  0.51109989000E-03 0.  1.
     -623    1    1    2    0    0 -0.25092488807E-03  0.20972795474E-03  0.16655229915E-03  0.17130000000E+03  0.17130000000E+03 0.  1.
      622    1    1    2    0    0  0.20058339376E-02 -0.10212567292E-02  0.39803471499E+01  0.39804113795E+01  0.22500000000E-01 0.  1.
</event>
<event>
 5   0  0.9908800E+08  0.9118800E+02  0.7818608E-02  0.1180000E+00
       11   -1    0    0    0    0  0.00000000000E+00  0.00000000000E+00  0.39999999673E+01  0.40000000000E+01  0.51109989000E-03 0.  1.
     -623   -1    0    0    0    0  0.00000000000E+00  0.00000000000E+00  0.12525980253E-10  0.17130000000E+03  0.17130000000E+03 0.  1.
       11    1    1    2    0    0  0.12792612451E-02  0.10041940740E-02  0.23416860007E-01  0.23478830269E-01  0.51109989000E-03 0.  1.
     -623    1    1    2    0    0 -0.15284128496E-02 -0.87972799702E-04  0.12571326278E-03  0.17130000001E+03  0.17130000000E+03 0.  1.
      622    1    1    2    0    0  0.24915160503E-03 -0.91622127431E-03  0.39764573955E+01  0.39765211643E+01  0.22500000000E-01 0.  1.
</event>
<event>
 5   0  0.9908800E+08  0.9118800E+02  0.7818608E-02  0.1180000E+00
       11   -1    0    0    0    0  0.00000000000E+00  0.00000000000E+00  0.39999999673E+01  0.40000000000E+01  0.51109989000E-03 0. -1.
     -623   -1    0    0    0    0  0.00000000000E+00  0.00000000000E+00  0.12525980253E-10  0.17130000000E+03  0.17130000000E+03 0. -1.
       11    1    1    2    0    0  0.77455778940E-02  0.15587787165E-01  0.11183458980E+01  0.11184814625E+01  0.51109989000E-03 0. -1.
     -623    1    1    2    0    0 -0.22695438630E-05 -0.17560747989E-03  0.27500088438E-03  0.17130000000E+03  0.17130000000E+03 0. -1.
      622    1    1    2    0    0 -0.77433083501E-02 -0.15412179685E-01  0.28813790681E+01  0.28815185368E+01  0.22500000000E-01 0.  0.
</event>
<event>
 5   0  0.9908800E+08  0.9118800E+02  0.7818608E-02  0.1180000E+00
       11   -1    0    0    0    0  0.00000000000E+00  0.00000000000E+00  0.39999999673E+01  0.40000000000E+01  0.51109989000E-03 0. -1.
     -623   -1    0    0    0    0  0.00000000000E+00  0.00000000000E+00  0.12525980253E-10  0.17130000000E+03  0.17130000000E+03 0.  1.
       11    1    1    2    0    0  0.14529668163E-02 -0.33527083669E-02  0.98417064376E-01  0.98486199792E-01  0.51109989000E-03 0. -1.
     -623    1    1    2    0    0 -0.39533988790E-02  0.52046896011E-02  0.13534754290E-03  0.17130000012E+03  0.17130000000E+03 0.  1.
      622    1    1    2    0    0  0.25004320612E-02 -0.18519812323E-02  0.39014475539E+01  0.39015136739E+01  0.22500000000E-01 0. -1.
</event>
<event>
 5   0  0.9908800E+08  0.9118800E+02  0.7818608E-02  0.1180000E+00
       11   -1    0    0    0    0  0.00000000000E+00  0.00000000000E+00  0.39999999673E+01  0.40000000000E+01  0.51109989000E-03 0.  1.
     -623   -1    0    0    0    0  0.00000000000E+00  0.00000000000E+00  0.12525980253E-10  0.17130000000E+03  0.17130000000E+03 0. -1.
       11    1    1    2    0    0  0.12210422449E-01  0.72035357484E-02  0.28801613567E+00  0.28836529085E+00  0.51109989000E-03 0.  1.
     -623    1    1    2    0    0  0.20993022909E-02 -0.18682626018E-02  0.44876445955E-03  0.17130000002E+03  0.17130000000E+03 0. -1.
      622    1    1    2    0    0 -0.14309724740E-01 -0.53352731466E-02  0.37115350672E+01  0.37116346855E+01  0.22500000000E-01 0.  1.
</event>
<event>
 5   0  0.9908800E+08  0.9118800E+02  0.7818608E-02  0.1180000E+00
       11   -1    0    0    0    0  0.00000000000E+00  0.00000000000E+00  0.39999999673E+01  0.40000000000E+01  0.51109989000E-03 0. -1.
     -623   -1    0    0    0    0  0.00000000000E+00  0.00000000000E+00  0.12525980253E-10  0.17130000000E+03  0.17130000000E+03 0. -1.
       11    1    1    2    0    0 -0.11575250817E-02 -0.16305316029E-02  0.81047380767E-02  0.83634024184E-02  0.51109989000E-03 0. -1.
     -623    1    1    2    0    0 -0.36165840237E-03  0.99092112494E-03  0.32238994002E-03  0.17130000000E+03  0.17130000000E+03 0. -1.
      622    1    1    2    0    0  0.15191834841E-02  0.63961047795E-03  0.39915728394E+01  0.39916365940E+01  0.22500000000E-01 0. -1.
</event>
<event>
 5   0  0.9908800E+08  0.9118800E+02  0.7818608E-02  0.1180000E+00
       11   -1    0    0    0    0  0.00000000000E+00  0.00000000000E+00  0.39999999673E+01  0.40000000000E+01  0.51109989000E-03 0. -1.
     -623   -1    0    0    0    0  0.00000000000E+00  0.00000000000E+00  0.12525980253E-10  0.17130000000E+03  0.17130000000E+03 0. -1.
       11    1    1    2    0    0  0.99441949336E-03  0.88811233707E-03  0.51665342713E-02  0.53602156229E-02  0.51109989000E-03 0. -1.
     -623    1    1    2    0    0 -0.75965194862E-03 -0.15486784805E-02  0.25708577234E-03  0.17130000001E+03  0.17130000000E+03 0. -1.
      622    1    1    2    0    0 -0.23476754475E-03  0.66056614346E-03  0.39945763473E+01  0.39946397755E+01  0.22500000000E-01 0. -1.
</event>
<event>
 5   0  0.9908800E+08  0.9118800E+02  0.7818608E-02  0.1180000E+00
       11   -1    0    0    0    0  0.00000000000E+00  0.00000000000E+00  0.39999999673E+01  0.40000000000E+01  0.51109989000E-03 0.  1.
     -623   -1    0    0    0    0  0.00000000000E+00  0.00000000000E+00  0.12525980253E-10  0.17130000000E+03  0.17130000000E+03 0. -1.
       11    1    1    2    0    0 -0.20225705423E-02 -0.36764764183E-02  0.96124600844E-01  0.96217500373E-01  0.51109989000E-03 0.  1.
     -623    1    1    2    0    0 -0.19092336874E-02  0.10644893386E-02  0.16057629980E-03  0.17130000001E+03  0.17130000000E+03 0. -1.
      622    1    1    2    0    0  0.39318042297E-02  0.26119870797E-02  0.39037147902E+01  0.39037824856E+01  0.22500000000E-01 0.  1.
</event>
<event>
 5   0  0.9908800E+08  0.9118800E+02  0.7818608E-02  0.1180000E+00
       11   -1    0    0    0    0  0.00000000000E+00  0.00000000000E+00  0.39999999673E+01  0.40000000000E+01  0.51109989000E-03 0.  1.
     -623   -1    0    0    0    0  0.00000000000E+00  0.00000000000E+00  0.12525980253E-10  0.17130000000E+03  0.17130000000E+03 0.  1.
       11    1    1    2    0    0 -0.10020193337E-02 -0.93241991212E-03  0.33895023919E-01  0.33926498755E-01  0.51109989000E-03 0.  1.
     -623    1    1    2    0    0  0.16126254889E-02  0.13108121108E-03  0.95400907198E-04  0.17130000001E+03  0.17130000000E+03 0.  1.
      622    1    1    2    0    0 -0.61060615517E-03  0.80133870103E-03  0.39660095425E+01  0.39660734936E+01  0.22500000000E-01 0.  1.
</event>
<event>
 5   0  0.9908800E+08  0.9118800E+02  0.7818608E-02  0.1180000E+00
       11   -1    0    0    0    0  0.00000000000E+00  0.00000000000E+00  0.39999999673E+01  0.40000000000E+01  0.51109989000E-03 0. -1.
     -623   -1    0    0    0    0  0.00000000000E+00  0.00000000000E+00  0.12525980253E-10  0.17130000000E+03  0.17130000000E+03 0.  1.
       11    1    1    2    0    0  0.13593029306E-03  0.38553417434E-02  0.34925685201E-01  0.35141810523E-01  0.51109989000E-03 0.  1.
     -623    1    1    2    0    0  0.21145901085E-03  0.74609366644E-03  0.28262268857E-03  0.17130000000E+03  0.17130000000E+03 0.  1.
      622    1    1    2    0    0 -0.34738930395E-03 -0.46014354100E-02  0.39647916602E+01  0.39648581882E+01  0.22500000000E-01 0. -1.
</event>
<event>
 5   0  0.9908800E+08  0.9118800E+02  0.7818608E-02  0.1180000E+00
       11   -1    0    0    0    0  0.00000000000E+00  0.00000000000E+00  0.39999999673E+01  0.40000000000E+01  0.51109989000E-03 0. -1.
     -623   -1    0    0    0    0  0.00000000000E+00  0.00000000000E+00  0.12525980253E-10  0.17130000000E+03  0.17130000000E+03 0. -1.
       11    1    1    2    0    0  0.14423023649E-02  0.33148758425E-04  0.33006618756E-02  0.36382583966E-02  0.51109989000E-03 0.  1.
     -623    1    1    2    0    0 -0.57835272815E-03 -0.44877052626E-03  0.40102027748E-03  0.17130000000E+03  0.17130000000E+03 0. -1.
      622    1    1    2    0    0 -0.86394963670E-03  0.41562176784E-03  0.39962982852E+01  0.39963617396E+01  0.22500000000E-01 0. -1.
</event>
<event>
 5   0  0.9908800E+08  0.9118800E+02  0.7818608E-02  0.1180000E+00
       11   -1    0    0    0    0  0.00000000000E+00  0.00000000000E+00  0.39999999673E+01  0.40000000000E+01  0.51109989000E-03 0. -1.
     -623   -1    0    0    0    0  0.00000000000E+00  0.00000000000E+00  0.12525980253E-10  0.17130000000E+03  0.17130000000E+03 0. -1.
       11    1    1    2    0    0  0.35066512154E-04  0.20476216893E-02  0.30823691206E-02  0.37358005401E-02  0.51109989000E-03 0. -1.
     -623    1    1    2    0    0 -0.13791336785E-02 -0.47558096809E-03  0.71728263855E-03  0.17130000001E+03  0.17130000000E+03 0. -1.
      622    1    1    2    0    0  0.13440671664E-02 -0.15720407212E-02  0.39962003156E+01  0.39962641917E+01  0.22500000000E-01 0. -1.
</event>
<event>
 5   0  0.9908800E+08  0.9118800E+02  0.7818608E-02  0.1180000E+00
       11   -1    0    0    0    0  0.00000000000E+00  0.00000000000E+00  0.39999999673E+01  0.40000000000E+01  0.51109989000E-03 0.  1.
     -623   -1    0    0    0    0  0.00000000000E+00  0.00000000000E+00  0.12525980253E-10  0.17130000000E+03  0.17130000000E+03 0.  1.
       11    1    1    2    0    0  0.12356223146E-02  0.26159768256E-02  0.26692471133E+00  0.26694087892E+00  0.51109989000E-03 0.  1.
     -623    1    1    2    0    0 -0.41246598826E-02 -0.55668578023E-02  0.86366282873E-04  0.17130000014E+03  0.17130000000E+03 0.  1.
      622    1    1    2    0    0  0.28890375712E-02  0.29508809812E-02  0.37329888929E+01  0.37330589841E+01  0.22500000000E-01 0.  1.
</event>
<event>
 5   0  0.9908800E+08  0.9118800E+02  0.7818608E-02  0.1180000E+00
       11   -1    0    0    0    0  0.00000000000E+00  0.00000000000E+00  0.39999999673E+01  0.40000000000E+01  0.51109989000E-03 0. -1.
     -623   -1    0    0    0    0  0.00000000000E+00  0.00000000000E+00  0.12525980253E-10  0.17130000000E+03  0.17130000000E+03 0.  1.
       11    1    1    2    0    0 -0.79429522695E-02 -0.18887800757E-02  0.10113172203E+01  0.10113503050E+01  0.51109989000E-03 0. -1.
     -623    1    1    2    0    0  0.78096246659E-03 -0.12524290104E-02  0.12798760445E-03  0.17130000001E+03  0.17130000000E+03 0.  1.
      622    1    1    2    0    0  0.71619898030E-02  0.31412090859E-02  0.29885547588E+01  0.29886496880E+01  0.22500000000E-01 0. -1.
</event>
<event>
 5   0  0.9908800E+08  0.9118800E+02  0.7818608E-02  0.1180000E+00
       11   -1    0    0    0    0  0.00000000000E+00  0.00000000000E+00  0.39999999673E+01  0.40000000000E+01  0.51109989000E-03 0. -1.
     -623   -1    0    0    0    0  0.00000000000E+00  0.00000000000E+00  0.12525980253E-10  0.17130000000E+03  0.17130000000E+03 0. -1.
       11    1    1    2    0    0 -0.23290546286E-02  0.22454399376E-02  0.33676600495E+00  0.33678193213E+00  0.51109989000E-03 0. -1.
     -623    1    1    2    0    0 -0.34357085978E-03 -0.10855005682E-02  0.86156696463E-04  0.17130000000E+03  0.17130000000E+03 0. -1.
      622    1    1    2    0    0  0.26726254882E-02 -0.11599393700E-02  0.36631478037E+01  0.36632180621E+01  0.22500000000E-01 0. -1.
</event>
<event>
 5   0  0.9908800E+08  0.9118800E+02  0.7818608E-02  0.1180000E+00
       11   -1    0    0    0    0  0.00000000000E+00  0.00000000000E+00  0.39999999673E+01  0.40000000000E+01  0.51109989000E-03 0. -1.
     -623   -1    0    0    0    0  0.00000000000E+00  0.00000000000E+00  0.12525980253E-10  0.17130000000E+03  0.17130000000E+03 0. -1.
       11    1    1    2    0    0 -0.13232379297E+00  0.14013986125E+00  0.67357462841E+00  0.70060817021E+00  0.51109989000E-03 0. -1.
     -623    1    1    2    0    0  0.38083873849E-01  0.17281941780E-01  0.32223808695E-01  0.17130000814E+03  0.17130000000E+03 0. -1.
      622    1    1    2    0    0  0.94239919126E-01 -0.15742180303E+00  0.32942015303E+01  0.32993836937E+01  0.22500000000E-01 0. -1.
</event>
<event>
 5   0  0.9908800E+08  0.9118800E+02  0.7818608E-02  0.1180000E+00
       11   -1    0    0    0    0  0.00000000000E+00  0.00000000000E+00  0.39999999673E+01  0.40000000000E+01  0.51109989000E-03 0. -1.
     -623   -1    0    0    0    0  0.00000000000E+00  0.00000000000E+00  0.12525980253E-10  0.17130000000E+03  0.17130000000E+03 0. -1.
       11    1    1    2    0    0  0.34349762835E-03  0.22617187690E-02  0.31635606337E-01  0.31722329262E-01  0.51109989000E-03 0. -1.
     -623    1    1    2    0    0  0.81687082379E-03 -0.23504626978E-02  0.15066670398E-03  0.17130000002E+03  0.17130000000E+03 0. -1.
      622    1    1    2    0    0 -0.11603684524E-02  0.88743929758E-04  0.39682136958E+01  0.39682776541E+01  0.22500000000E-01 0. -1.
</event>
<event>
 5   0  0.9908800E+08  0.9118800E+02  0.7818608E-02  0.1180000E+00
       11   -1    0    0    0    0  0.00000000000E+00  0.00000000000E+00  0.39999999673E+01  0.40000000000E+01  0.51109989000E-03 0. -1.
     -623   -1    0    0    0    0  0.00000000000E+00  0.00000000000E+00  0.12525980253E-10  0.17130000000E+03  0.17130000000E+03 0. -1.
       11    1    1    2    0    0  0.67718326935E-03  0.35199922214E-03  0.22349996103E-01  0.22368862916E-01  0.51109989000E-03 0. -1.
     -623    1    1    2    0    0  0.18858903210E-03  0.61172538434E-04  0.82587621799E-04  0.17130000000E+03  0.17130000000E+03 0. -1.
      622    1    1    2    0    0 -0.86577230145E-03 -0.41317176057E-03  0.39775673836E+01  0.39776311369E+01  0.22500000000E-01 0. -1.
</event>
<event>
 5   0  0.9908800E+08  0.9118800E+02  0.7818608E-02  0.1180000E+00
       11   -1    0    0    0    0  0.00000000000E+00  0.00000000000E+00  0.39999999673E+01  0.40000000000E+01  0.51109989000E-03 0.  1.
     -623   -1    0    0    0    0  0.00000000000E+00  0.00000000000E+00  0.12525980253E-10  0.17130000000E+03  0.17130000000E+03 0. -1.
       11    1    1    2    0    0  0.47294040452E-02  0.48917850959E-03  0.10233240415E+00  0.10244407605E+00  0.51109989000E-03 0.  1.
     -623    1    1    2    0    0  0.89565831998E-03 -0.74304266353E-03  0.18065586289E-03  0.17130000000E+03  0.17130000000E+03 0. -1.
      622    1    1    2    0    0 -0.56250623652E-02  0.25386415394E-03  0.38974869073E+01  0.38975559199E+01  0.22500000000E-01 0.  1.
</event>
<event>
 5   0  0.9908800E+08  0.9118800E+02  0.7818608E-02  0.1180000E+00
       11   -1    0    0    0    0  0.00000000000E+00  0.00000000000E+00  0.39999999673E+01  0.40000000000E+01  0.51109989000E-03 0. -1.
     -623   -1    0    0    0    0  0.00000000000E+00  0.00000000000E+00  0.12525980253E-10  0.17130000000E+03  0.17130000000E+03 0. -1.
       11    1    1    2    0    0  0.35625248607E-02  0.98599829769E-02  0.77275376916E-01  0.77984972580E-01  0.51109989000E-03 0. -1.
     -623    1    1    2    0    0 -0.16739955343E-03 -0.67983896380E-02  0.77690435382E-03  0.17130000014E+03  0.17130000000E+03 0. -1.
      622    1    1    2    0    0 -0.33951253073E-02 -0.30615933390E-02  0.39219476860E+01  0.39220148906E+01  0.22500000000E-01 0. -1.
</event>
<event>
 5   0  0.9908800E+08  0.9118800E+02  0.7818608E-02  0.1180000E+00
       11   -1    0    0    0    0  0.00000000000E+00  0.00000000000E+00  0.39999999673E+01  0.40000000000E+01  0.51109989000E-03 0. -1.
     -623   -1    0    0    0    0  0.00000000000E+00  0.00000000000E+00  0.12525980253E-10  0.17130000000E+03  0.17130000000E+03 0. -1.
       11    1    1    2    0    0  0.15391458924E-02  0.14114349932E-02  0.13335747573E-01  0.13507942302E-01  0.51109989000E-03 0.  1.
     -623    1    1    2    0    0 -0.92242616364E-03 -0.75348383526E-03  0.23576457339E-03  0.17130000000E+03  0.17130000000E+03 0. -1.
      622    1    1    2    0    0 -0.61671972850E-03 -0.65795115773E-03  0.39864284563E+01  0.39864920545E+01  0.22500000000E-01 0. -1.
</event>
<event>
 5   0  0.9908800E+08  0.9118800E+02  0.7818608E-02  0.1180000E+00
       11   -1    0    0    0    0  0.00000000000E+00  0.00000000000E+00  0.39999999673E+01  0.40000000000E+01  0.51109989000E-03 0.  1.
     -623   -1    0    0    0    0  0.00000000000E+00  0.00000000000E+00  0.12525980253E-10  0.17130000000E+03  0.17130000000E+03 0. -1.
       11    1    1    2    0    0  0.67811877409E-03 -0.16717764919E-02  0.22053760189E-02  0.28947517245E-02  0.51109989000E-03 0.  1.
     -623    1    1    2    0    0 -0.52613272497E-03 -0.55814603065E-03  0.75329893897E-03  0.17130000000E+03  0.17130000000E+03 0. -1.
      622    1    1    2    0    0 -0.15198604913E-03  0.22299225225E-02  0.39970412924E+01  0.39971052449E+01  0.22500000000E-01 0.  1.
</event>
<event>
 5   0  0.9908800E+08  0.9118800E+02  0.7818608E-02  0.1180000E+00
       11   -1    0    0    0    0  0.00000000000E+00  0.00000000000E+00  0.39999999673E+01  0.40000000000E+01  0.51109989000E-03 0. -1.
     -623   -1    0    0    0    0  0.00000000000E+00  0.00000000000E+00  0.12525980253E-10  0.17130000000E+03  0.17130000000E+03 0. -1.
       11    1    1    2    0    0 -0.93486907319E-02  0.93789654985E-02  0.11381996478E+00  0.11458886777E+00  0.51109989000E-03 0. -1.
     -623    1    1    2    0    0 -0.24607164631E-02 -0.82157700687E-03  0.86141127021E-03  0.17130000002E+03  0.17130000000E+03 0. -1.
      622    1    1    2    0    0  0.11809407195E-01 -0.85573884916E-02  0.38853185913E+01  0.38854111104E+01  0.22500000000E-01 0. -1.
</event>
<event>
 5   0  0.9908800E+08  0.9118800E+02  0.7818608E-02  0.1180000E+00
       11   -1    0    0    0    0  0.00000000000E+00  0.00000000000E+00  0.39999999673E+01  0.40000000000E+01  0.51109989000E-03 0.  1.
     -623   -1    0    0    0    0  0.00000000000E+00  0.00000000000E+00  0.12525980253E-10  0.17130000000E+03  0.17130000000E+03 0. -1.
       11    1    1    2    0    0  0.84382448848E-03 -0.35980482797E-04  0.19501657635E-01  0.19526628116E-01  0.51109989000E-03 0.  1.
     -623    1    1    2    0    0 -0.12979219754E-03  0.28699118847E-03  0.88602302436E-04  0.17130000000E+03  0.17130000000E+03 0. -1.
      622    1    1    2    0    0 -0.71403229094E-03 -0.25101070567E-03  0.39804097074E+01  0.39804733716E+01  0.22500000000E-01 0.  1.
</event>
<event>
 5   0  0.9908800E+08  0.9118800E+02  0.7818608E-02  0.1180000E+00
       11   -1    0    0    0    0  0.00000000000E+00  0.00000000000E+00  0.39999999673E+01  0.40000000000E+01  0.51109989000E-03 0. -1.
     -623   -1    0    0    0    0  0.00000000000E+00  0.00000000000E+00  0.12525980253E-10  0.17130000000E+03  0.17130000000E+03 0. -1.
       11    1    1    2    0    0 -0.28562059511E-03 -0.14937108825E-02  0.94098571686E-02  0.95456475085E-02  0.51109989000E-03 0. -1.
     -623    1    1    2    0    0  0.28752002890E-03  0.14970182715E-02  0.19919773057E-03  0.17130000001E+03  0.17130000000E+03 0. -1.
      622    1    1    2    0    0 -0.18994339159E-05 -0.33073896663E-05  0.39903909143E+01  0.39904543475E+01  0.22500000000E-01 0. -1.
</event>
<event>
 5   0  0.9908800E+08  0.9118800E+02  0.7818608E-02  0.1180000E+00
       11   -1    0    0    0    0  0.00000000000E+00  0.00000000000E+00  0.39999999673E+01  0.40000000000E+01  0.51109989000E-03 0. -1.
     -623   -1    0    0    0    0  0.00000000000E+00  0.00000000000E+00  0.12525980253E-10  0.17130000000E+03  0.17130000000E+03 0. -1.
       11    1    1    2    0    0  0.58165424292E-03  0.67322963241E-03  0.32887844359E-01  0.32903846120E-01  0.51109989000E-03 0. -1.
     -623    1    1    2    0    0 -0.33169043215E-03 -0.11602608816E-02  0.79817791296E-04  0.17130000000E+03  0.17130000000E+03 0. -1.
      622    1    1    2    0    0 -0.24996381118E-03  0.48703124780E-03  0.39670323004E+01  0.39670961448E+01  0.22500000000E-01 0. -1.
</event>
<event>
 5   0  0.9908800E+08  0.9118800E+02  0.7818608E-02  0.1180000E+00
       11   -1    0    0    0    0  0.00000000000E+00  0.00000000000E+00  0.39999999673E+01  0.40000000000E+01  0.51109989000E-03 0.  1.
     -623   -1    0    0    0    0  0.00000000000E+00  0.00000000000E+00  0.12525980253E-10  0.17130000000E+03  0.17130000000E+03 0. -1.
       11    1    1    2    0    0 -0.20621924600E-02 -0.36165609893E-02  0.39112875021E-01  0.39337137239E-01  0.51109989000E-03 0.  1.
     -623    1    1    2    0    0  0.17616808172E-02  0.26165363385E-03  0.28958167624E-03  0.17130000001E+03  0.17130000000E+03 0. -1.
      622    1    1    2    0    0  0.30051164275E-03  0.33549073554E-02  0.39605975107E+01  0.39606628533E+01  0.22500000000E-01 0.  1.
</event>
<event>
 5   0  0.9908800E+08  0.9118800E+02  0.7818608E-02  0.1180000E+00
       11   -1    0    0    0    0  0.00000000000E+00  0.00000000000E+00  0.39999999673E+01  0.40000000000E+01  0.51109989000E-03 0. -1.
     -623   -1    0    0    0    0  0.00000000000E+00  0.00000000000E+00  0.12525980253E-10  0.17130000000E+03  0.17130000000E+03 0.  1.
       11    1    1    2    0    0 -0.13561286774E-02 -0.20135476508E-02  0.36991638961E-01  0.37074735809E-01  0.51109989000E-03 0. -1.
     -623    1    1    2    0    0 -0.32377156023E-03  0.49861071006E-03  0.14758472004E-03  0.17130000000E+03  0.17130000000E+03 0.  1.
      622    1    1    2    0    0  0.16799002378E-02  0.15149369405E-02  0.39628607455E+01  0.39629252649E+01  0.22500000000E-01 0. -1.
</event>
<event>
 5   0  0.9908800E+08  0.9118800E+02  0.7818608E-02  0.1180000E+00
       11   -1    0    0    0    0  0.00000000000E+00  0.00000000000E+00  0.39999999673E+01  0.40000000000E+01  0.51109989000E-03 0. -1.
     -623   -1    0    0    0    0  0.00000000000E+00  0.00000000000E+00  0.12525980253E-10  0.17130000000E+03  0.17130000000E+03 0. -1.
       11    1    1    2    0    0  0.13435363037E-02  0.52825176779E-02  0.10208244948E+01  0.10208391746E+01  0.51109989000E-03 0. -1.
     -623    1    1    2    0    0  0.39997937214E-03 -0.78171834387E-05  0.10479396720E-03  0.17130000000E+03  0.17130000000E+03 0. -1.
      622    1    1    2    0    0 -0.17435156759E-02 -0.52747004945E-02  0.29790706786E+01  0.29791608249E+01  0.22500000000E-01 0. -1.
</event>
<event>
 5   0  0.9908800E+08  0.9118800E+02  0.7818608E-02  0.1180000E+00
       11   -1    0    0    0    0  0.00000000000E+00  0.00000000000E+00  0.39999999673E+01  0.40000000000E+01  0.51109989000E-03 0. -1.
     -623   -1    0    0    0    0  0.00000000000E+00  0.00000000000E+00  0.12525980253E-10  0.17130000000E+03  0.17130000000E+03 0. -1.
       11    1    1    2    0    0 -0.60573510237E-02 -0.68317102652E-02  0.57020283362E-01  0.57748919502E-01  0.51109989000E-03 0. -1.
     -623    1    1    2    0    0  0.11666779812E-02  0.13234926537E-01  0.80156339539E-03  0.17130000052E+03  0.17130000000E+03 0. -1.
      622    1    1    2    0    0  0.48906730425E-02 -0.64032162723E-02  0.39421781206E+01  0.39422505634E+01  0.22500000000E-01 0. -1.
</event>
<event>
 5   0  0.9908800E+08  0.9118800E+02  0.7818608E-02  0.1180000E+00
       11   -1    0    0    0    0  0.00000000000E+00  0.00000000000E+00  0.39999999673E+01  0.40000000000E+01  0.51109989000E-03 0. -1.
     -623   -1    0    0    0    0  0.00000000000E+00  0.00000000000E+00  0.12525980253E-10  0.17130000000E+03  0.17130000000E+03 0. -1.
       11    1    1    2    0    0 -0.12787844220E-01  0.97026381964E-02  0.22940812115E-01  0.28003789567E-01  0.51109989000E-03 0. -1.
     -623    1    1    2    0    0  0.10148998300E-01 -0.39089422052E-02  0.51321969675E-02  0.17130000042E+03  0.17130000000E+03 0. -1.
      622    1    1    2    0    0  0.26388459201E-02 -0.57936959912E-02  0.39719269583E+01  0.39719957883E+01  0.22500000000E-01 0. -1.
</event>
<event>
 5   0  0.9908800E+08  0.9118800E+02  0.7818608E-02  0.1180000E+00
       11   -1    0    0    0    0  0.00000000000E+00  0.00000000000E+00  0.39999999673E+01  0.40000000000E+01  0.51109989000E-03 0.  1.
     -623   -1    0    0    0    0  0.00000000000E+00  0.00000000000E+00  0.12525980253E-10  0.17130000000E+03  0.17130000000E+03 0.  1.
       11    1    1    2    0    0  0.12478280600E-02 -0.69026279358E-03  0.26406651295E+00  0.26407085796E+00  0.51109989000E-03 0.  1.
     -623    1    1    2    0    0 -0.36591168903E-03 -0.98094034868E-03  0.72548320408E-04  0.17130000000E+03  0.17130000000E+03 0.  1.
      622    1    1    2    0    0 -0.88191637088E-03  0.16712031425E-02  0.37358609071E+01  0.37359291398E+01  0.22500000000E-01 0.  1.
</event>
<event>
 5   0  0.9908800E+08  0.9118800E+02  0.7818608E-02  0.1180000E+00
       11   -1    0    0    0    0  0.00000000000E+00  0.00000000000E+00  0.39999999673E+01  0.40000000000E+01  0.51109989000E-03 0. -1.
     -623   -1    0    0    0    0  0.00000000000E+00  0.00000000000E+00  0.12525980253E-10  0.17130000000E+03  0.17130000000E+03 0. -1.
       11    1    1    2    0    0  0.11423130867E-01  0.70767113073E-02  0.95255931009E+00  0.95265422280E+00  0.51109989000E-03 0. -1.
     -623    1    1    2    0    0 -0.12139765423E-01 -0.25130541602E-01  0.23378475547E-03  0.17130000227E+03  0.17130000000E+03 0. -1.
      622    1    1    2    0    0  0.71663455699E-03  0.18053830296E-01  0.30472068728E+01  0.30473435038E+01  0.22500000000E-01 0. -1.
</event>
<event>
 5   0  0.9908800E+08  0.9118800E+02  0.7818608E-02  0.1180000E+00
       11   -1    0    0    0    0  0.00000000000E+00  0.00000000000E+00  0.39999999673E+01  0.40000000000E+01  0.51109989000E-03 0. -1.
     -623   -1    0    0    0    0  0.00000000000E+00  0.00000000000E+00  0.12525980253E-10  0.17130000000E+03  0.17130000000E+03 0.  1.
       11    1    1    2    0    0 -0.10133690186E-01 -0.69044530357E-02  0.61831813275E-01  0.63038063925E-01  0.51109989000E-03 0. -1.
     -623    1    1    2    0    0  0.10022648914E-01  0.14556967762E-02  0.12745893458E-02  0.17130000030E+03  0.17130000000E+03 0.  1.
      622    1    1    2    0    0  0.11104127255E-03  0.54487562595E-02  0.39368935647E+01  0.39369616319E+01  0.22500000000E-01 0. -1.
</event>
<event>
 5   0  0.9908800E+08  0.9118800E+02  0.7818608E-02  0.1180000E+00
       11   -1    0    0    0    0  0.00000000000E+00  0.00000000000E+00  0.39999999673E+01  0.40000000000E+01  0.51109989000E-03 0. -1.
     -623   -1    0    0    0    0  0.00000000000E+00  0.00000000000E+00  0.12525980253E-10  0.17130000000E+03  0.17130000000E+03 0.  1.
       11    1    1    2    0    0 -0.22908871907E-03 -0.74273198713E-03  0.38832747391E-01  0.38843887844E-01  0.51109989000E-03 0. -1.
     -623    1    1    2    0    0  0.14509852592E-04  0.16659832467E-02  0.75131653827E-04  0.17130000001E+03  0.17130000000E+03 0.  1.
      622    1    1    2    0    0  0.21457886648E-03 -0.92325125952E-03  0.39610920883E+01  0.39611561040E+01  0.22500000000E-01 0. -1.
</event>
<event>
 5   0  0.9908800E+08  0.9118800E+02  0.7818608E-02  0.1180000E+00
       11   -1    0    0    0    0  0.00000000000E+00  0.00000000000E+00  0.39999999673E+01  0.40000000000E+01  0.51109989000E-03 0. -1.
     -623   -1    0    0    0    0  0.00000000000E+00  0.00000000000E+00  0.12525980253E-10  0.17130000000E+03  0.17130000000E+03 0.  1.
       11    1    1    2    0    0 -0.20662584338E-03 -0.41592540149E-03  0.12337698940E-01  0.12357011225E-01  0.51109989000E-03 0. -1.
     -623    1    1    2    0    0 -0.86501767018E-04  0.41139083642E-03  0.82768809699E-04  0.17130000000E+03  0.17130000000E+03 0.  1.
      622    1    1    2    0    0  0.29312761049E-03  0.45345646026E-05  0.39875795041E+01  0.39876429928E+01  0.22500000000E-01 0. -1.
</event>
<event>
 5   0  0.9908800E+08  0.9118800E+02  0.7818608E-02  0.1180000E+00
       11   -1    0    0    0    0  0.00000000000E+00  0.00000000000E+00  0.39999999673E+01  0.40000000000E+01  0.51109989000E-03 0. -1.
     -623   -1    0    0    0    0  0.00000000000E+00  0.00000000000E+00  0.12525980253E-10  0.17130000000E+03  0.17130000000E+03 0.  1.
       11    1    1    2    0    0  0.32977278758E-02 -0.21583250633E-02  0.78522396706E-01  0.78622906220E-01  0.51109989000E-03 0. -1.
     -623    1    1    2    0    0  0.37659692466E-05  0.42892621015E-03  0.16679922871E-03  0.17130000000E+03  0.17130000000E+03 0.  1.
      622    1    1    2    0    0 -0.33014938450E-02  0.17293988531E-02  0.39213107714E+01  0.39213770932E+01  0.22500000000E-01 0. -1.
</event>
<event>
 5   0  0.9908800E+08  0.9118800E+02  0.7818608E-02  0.1180000E+00
       11   -1    0    0    0    0  0.00000000000E+00  0.00000000000E+00  0.39999999673E+01  0.40000000000E+01  0.51109989000E-03 0.  1.
     -623   -1    0    0    0    0  0.00000000000E+00  0.00000000000E+00  0.12525980253E-10  0.17130000000E+03  0.17130000000E+03 0.  1.
       11    1    1    2    0    0 -0.26196472824E-02  0.64625299784E-03  0.18756792667E-01  0.18956758401E-01  0.51109989000E-03 0.  1.
     -623    1    1    2    0    0 -0.10014356507E-03  0.45925822810E-03  0.26459960576E-03  0.17130000000E+03  0.17130000000E+03 0.  1.
      622    1    1    2    0    0  0.27197908474E-02 -0.11055112260E-02  0.39809785757E+01  0.39810432414E+01  0.22500000000E-01 0.  1.
</event>
<event>
 5   0  0.9908800E+08  0.9118800E+02  0.7818608E-02  0.1180000E+00
       11   -1    0    0    0    0  0.00000000000E+00  0.00000000000E+00  0.39999999673E+01  0.40000000000E+01  0.51109989000E-03 0. -1.
     -623   -1    0    0    0    0  0.00000000000E+00  0.00000000000E+00  0.12525980253E-10  0.17130000000E+03  0.17130000000E+03 0. -1.
       11    1    1    2    0    0  0.26199489534E-02 -0.45994633717E-02  0.90754341290E+00  0.90755899352E+00  0.51109989000E-03 0. -1.
     -623    1    1    2    0    0 -0.23045645211E-04 -0.84701793634E-04  0.10204002748E-03  0.17130000000E+03  0.17130000000E+03 0. -1.
      622    1    1    2    0    0 -0.25969033082E-02  0.46841651653E-02  0.30923545144E+01  0.30924410064E+01  0.22500000000E-01 0.  0.
</event>
<event>
 5   0  0.9908800E+08  0.9118800E+02  0.7818608E-02  0.1180000E+00
       11   -1    0    0    0    0  0.00000000000E+00  0.00000000000E+00  0.39999999673E+01  0.40000000000E+01  0.51109989000E-03 0. -1.
     -623   -1    0    0    0    0  0.00000000000E+00  0.00000000000E+00  0.12525980253E-10  0.17130000000E+03  0.17130000000E+03 0. -1.
       11    1    1    2    0    0 -0.84920333406E-03  0.13722020894E-02  0.96115282534E-01  0.96130186958E-01  0.51109989000E-03 0. -1.
     -623    1    1    2    0    0  0.95227119663E-03 -0.10176348876E-02  0.79734981536E-04  0.17130000001E+03  0.17130000000E+03 0. -1.
      622    1    1    2    0    0 -0.10306786300E-03 -0.35456720140E-03  0.39038049516E+01  0.39038698091E+01  0.22500000000E-01 0. -1.
</event>
<event>
 5   0  0.9908800E+08  0.9118800E+02  0.7818608E-02  0.1180000E+00
       11   -1    0    0    0    0  0.00000000000E+00  0.00000000000E+00  0.39999999673E+01  0.40000000000E+01  0.51109989000E-03 0. -1.
     -623   -1    0    0    0    0  0.00000000000E+00  0.00000000000E+00  0.12525980253E-10  0.17130000000E+03  0.17130000000E+03 0.  1.
       11    1    1    2    0    0 -0.73959206413E-03  0.32521297838E-02  0.41628434229E+00  0.41629801609E+00  0.51109989000E-03 0. -1.
     -623    1    1    2    0    0 -0.68294480897E-04 -0.21968353217E-04  0.85821005321E-04  0.17130000000E+03  0.17130000000E+03 0.  1.
      622    1    1    2    0    0  0.80788654502E-03 -0.32301614306E-02  0.35836298041E+01  0.35837019839E+01  0.22500000000E-01 0. -1.
</event>
<event>
 5   0  0.9908800E+08  0.9118800E+02  0.7818608E-02  0.1180000E+00
       11   -1    0    0    0    0  0.00000000000E+00  0.00000000000E+00  0.39999999673E+01  0.40000000000E+01  0.51109989000E-03 0.  1.
     -623   -1    0    0    0    0  0.00000000000E+00  0.00000000000E+00  0.12525980253E-10  0.17130000000E+03  0.17130000000E+03 0.  1.
       11    1    1    2    0    0 -0.64906963974E-03  0.14024279359E-02  0.11166983738E-01  0.11284983056E-01  0.51109989000E-03 0.  1.
     -623    1    1    2    0    0  0.16803682725E-02  0.25766538442E-03  0.18191479541E-03  0.17130000001E+03  0.17130000000E+03 0.  1.
      622    1    1    2    0    0 -0.10312986327E-02 -0.16600933203E-02  0.39886510688E+01  0.39887150084E+01  0.22500000000E-01 0.  1.
</event>
<event>
 5   0  0.9908800E+08  0.9118800E+02  0.7818608E-02  0.1180000E+00
       11   -1    0    0    0    0  0.00000000000E+00  0.00000000000E+00  0.39999999673E+01  0.40000000000E+01  0.51109989000E-03 0.  1.
     -623   -1    0    0    0    0  0.00000000000E+00  0.00000000000E+00  0.12525980253E-10  0.17130000000E+03  0.17130000000E+03 0. -1.
       11    1    1    2    0    0 -0.64079116751E-02 -0.15358430816E-01  0.79530051813E+00  0.79547477527E+00  0.51109989000E-03 0.  1.
     -623    1    1    2    0    0  0.13034273741E-02  0.47638869071E-03  0.29184448000E-03  0.17130000001E+03  0.17130000000E+03 0. -1.
      622    1    1    2    0    0  0.51044843010E-02  0.14882042126E-01  0.32044076048E+01  0.32045252189E+01  0.22500000000E-01 0.  1.
</event>
<event>
 5   0  0.9908800E+08  0.9118800E+02  0.7818608E-02  0.1180000E+00
       11   -1    0    0    0    0  0.00000000000E+00  0.00000000000E+00  0.39999999673E+01  0.40000000000E+01  0.51109989000E-03 0. -1.
     -623   -1    0    0    0    0  0.00000000000E+00  0.00000000000E+00  0.12525980253E-10  0.17130000000E+03  0.17130000000E+03 0.  1.
       11    1    1    2    0    0  0.44285565133E-03  0.15552621741E-02  0.32820679148E+00  0.32821117312E+00  0.51109989000E-03 0. -1.
     -623    1    1    2    0    0  0.52840630753E-03 -0.69500033440E-02  0.77520877502E-04  0.17130000014E+03  0.17130000000E+03 0.  1.
      622    1    1    2    0    0 -0.97126195886E-03  0.53947411699E-02  0.36717156550E+01  0.36717886851E+01  0.22500000000E-01 0. -1.
</event>
<event>
 5   0  0.9908800E+08  0.9118800E+02  0.7818608E-02  0.1180000E+00
       11   -1    0    0    0    0  0.00000000000E+00  0.00000000000E+00  0.39999999673E+01  0.40000000000E+01  0.51109989000E-03 0.  1.
     -623   -1    0    0    0    0  0.00000000000E+00  0.00000000000E+00  0.12525980253E-10  0.17130000000E+03  0.17130000000E+03 0. -1.
       11    1    1    2    0    0 -0.21516623520E-03 -0.20775287801E-03  0.37254191927E-01  0.37258898197E-01  0.51109989000E-03 0.  1.
     -623    1    1    2    0    0 -0.57555317810E-03 -0.43359842967E-03  0.68682705335E-04  0.17130000000E+03  0.17130000000E+03 0. -1.
      622    1    1    2    0    0  0.79071941330E-03  0.64135130768E-03  0.39626770927E+01  0.39627411003E+01  0.22500000000E-01 0.  1.
</event>
<event>
 5   0  0.9908800E+08  0.9118800E+02  0.7818608E-02  0.1180000E+00
       11   -1    0    0    0    0  0.00000000000E+00  0.00000000000E+00  0.39999999673E+01  0.40000000000E+01  0.51109989000E-03 0.  1.
     -623   -1    0    0    0    0  0.00000000000E+00  0.00000000000E+00  0.12525980253E-10  0.17130000000E+03  0.17130000000E+03 0. -1.
       11    1    1    2    0    0  0.68562246103E-02 -0.43884588614E-03  0.50388760177E-01  0.50857534109E-01  0.51109989000E-03 0.  1.
     -623    1    1    2    0    0 -0.10021347191E-02  0.50341302106E-02  0.53992841661E-03  0.17130000008E+03  0.17130000000E+03 0. -1.
      622    1    1    2    0    0 -0.58540898912E-02 -0.45952843244E-02  0.39490712788E+01  0.39491423881E+01  0.22500000000E-01 0.  1.
</event>
<event>
 5   0  0.9908800E+08  0.9118800E+02  0.7818608E-02  0.1180000E+00
       11   -1    0    0    0    0  0.00000000000E+00  0.00000000000E+00  0.39999999673E+01  0.40000000000E+01  0.51109989000E-03 0.  1.
     -623   -1    0    0    0    0  0.00000000000E+00  0.00000000000E+00  0.12525980253E-10  0.17130000000E+03  0.17130000000E+03 0. -1.
       11    1    1    2    0    0 -0.15224659238E-02  0.12597898193E-02  0.24264782663E-01  0.24350479947E-01  0.51109989000E-03 0.  1.
     -623    1    1    2    0    0 -0.40659466488E-03 -0.41106928044E-03  0.14989364658E-03  0.17130000000E+03  0.17130000000E+03 0. -1.
      622    1    1    2    0    0  0.19290605888E-02 -0.84872053868E-03  0.39755852928E+01  0.39756495207E+01  0.22500000000E-01 0.  1.
</event>
<event>
 5   0  0.9908800E+08  0.9118800E+02  0.7818608E-02  0.1180000E+00
       11   -1    0    0    0    0  0.00000000000E+00  0.00000000000E+00  0.39999999673E+01  0.40000000000E+01  0.51109989000E-03 0.  1.
     -623   -1    0    0    0    0  0.00000000000E+00  0.00000000000E+00  0.12525980253E-10  0.17130000000E+03  0.17130000000E+03 0.  1.
       11    1    1    2    0    0 -0.13317026677E-02 -0.17882583896E-02  0.12376888119E-01  0.12586496045E-01  0.51109989000E-03 0.  1.
     -623    1    1    2    0    0  0.97486090357E-03  0.71229110156E-04  0.27344545853E-03  0.17130000000E+03  0.17130000000E+03 0.  1.
      622    1    1    2    0    0  0.35684176370E-03  0.17170292795E-02  0.39873496357E+01  0.39874135029E+01  0.22500000000E-01 0.  1.
</event>
<event>
 5   0  0.9908800E+08  0.9118800E+02  0.7818608E-02  0.1180000E+00
       11   -1    0    0    0    0  0.00000000000E+00  0.00000000000E+00  0.39999999673E+01  0.40000000000E+01  0.51109989000E-03 0.  1.
     -623   -1    0    0    0    0  0.00000000000E+00  0.00000000000E+00  0.12525980253E-10  0.17130000000E+03  0.17130000000E+03 0.  1.
       11    1    1    2    0    0  0.10336848677E-01 -0.49462866368E-02  0.13866339929E+00  0.13913703934E+00  0.51109989000E-03 0.  1.
     -623    1    1    2    0    0  0.34340864828E-02  0.31218487728E-02  0.56422420495E-03  0.17130000006E+03  0.17130000000E+03 0.  1.
      622    1    1    2    0    0 -0.13770935160E-01  0.18244378640E-02  0.38607723439E+01  0.38608628969E+01  0.22500000000E-01 0.  1.
</event>
<event>
 5   0  0.9908800E+08  0.9118800E+02  0.7818608E-02  0.1180000E+00
       11   -1    0    0    0    0  0.00000000000E+00  0.00000000000E+00  0.39999999673E+01  0.40000000000E+01  0.51109989000E-03 0. -1.
     -623   -1    0    0    0    0  0.00000000000E+00  0.00000000000E+00  0.12525980253E-10  0.17130000000E+03  0.17130000000E+03 0.  1.
       11    1    1    2    0    0 -0.13007679740E-03  0.15527515695E-02  0.66265269694E-01  0.66285557614E-01  0.51109989000E-03 0. -1.
     -623    1    1    2    0    0  0.66607226336E-03 -0.12598310041E-02  0.84656756467E-04  0.17130000001E+03  0.17130000000E+03 0.  1.
      622    1    1    2    0    0 -0.53599546596E-03 -0.29292056533E-03  0.39336500409E+01  0.39337144364E+01  0.22500000000E-01 0. -1.
</event>
<event>
 5   0  0.9908800E+08  0.9118800E+02  0.7818608E-02  0.1180000E+00
       11   -1    0    0    0    0  0.00000000000E+00  0.00000000000E+00  0.39999999673E+01  0.40000000000E+01  0.51109989000E-03 0.  1.
     -623   -1    0    0    0    0  0.00000000000E+00  0.00000000000E+00  0.12525980253E-10  0.17130000000E+03  0.17130000000E+03 0. -1.
       11    1    1    2    0    0 -0.40001243873E-04 -0.17432593012E-03  0.22543483620E-01  0.22549985937E-01  0.51109989000E-03 0.  1.
     -623    1    1    2    0    0  0.28787894544E-03  0.71469762458E-03  0.70156385422E-04  0.17130000000E+03  0.17130000000E+03 0. -1.
      622    1    1    2    0    0 -0.24787770156E-03 -0.54037169446E-03  0.39773863274E+01  0.39774500123E+01  0.22500000000E-01 0.  1.
</event>
<event>
 5   0  0.9908800E+08  0.9118800E+02  0.7818608E-02  0.1180000E+00
       11   -1    0    0    0    0  0.00000000000E+00  0.00000000000E+00  0.39999999673E+01  0.40000000000E+01  0.51109989000E-03 0.  1.
     -623   -1    0    0    0    0  0.00000000000E+00  0.00000000000E+00  0.12525980253E-10  0.17130000000E+03  0.17130000000E+03 0. -1.
       11    1    1    2    0    0 -0.46728838131E-03 -0.62179571388E-03  0.24573519438E-02  0.26276967128E-02  0.51109989000E-03 0.  1.
     -623    1    1    2    0    0 -0.69650254609E-04  0.93910088651E-03  0.23368688235E-03  0.17130000000E+03  0.17130000000E+03 0. -1.
      622    1    1    2    0    0  0.53693863594E-03 -0.31730517296E-03  0.39973089300E+01  0.39973723020E+01  0.22500000000E-01 0.  1.
</event>
<event>
 5   0  0.9908800E+08  0.9118800E+02  0.7818608E-02  0.1180000E+00
       11   -1    0    0    0    0  0.00000000000E+00  0.00000000000E+00  0.39999999673E+01  0.40000000000E+01  0.51109989000E-03 0. -1.
     -623   -1    0    0    0    0  0.00000000000E+00  0.00000000000E+00  0.12525980253E-10  0.17130000000E+03  0.17130000000E+03 0.  1.
       11    1    1    2    0    0 -0.64530108702E-02  0.86294269670E-03  0.64091221790E-01  0.64423070027E-01  0.51109989000E-03 0. -1.
     -623    1    1    2    0    0  0.71515736998E-02  0.11408893512E-02  0.39685893625E-03  0.17130000015E+03  0.17130000000E+03 0.  1.
      622    1    1    2    0    0 -0.69856282968E-03 -0.20038320479E-02  0.39355118866E+01  0.39355767764E+01  0.22500000000E-01 0. -1.
</event>
<event>
 5   0  0.9908800E+08  0.9118800E+02  0.7818608E-02  0.1180000E+00
       11   -1    0    0    0    0  0.00000000000E+00  0.00000000000E+00  0.39999999673E+01  0.40000000000E+01  0.51109989000E-03 0.  1.
     -623   -1    0    0    0    0  0.00000000000E+00  0.00000000000E+00  0.12525980253E-10  0.17130000000E+03  0.17130000000E+03 0. -1.
       11    1    1    2    0    0 -0.18862961286E-01 -0.33220401046E-02  0.11898439206E+01  0.11899981780E+01  0.51109989000E-03 0.  1.
     -623    1    1    2    0    0  0.14649485444E-02  0.39342970741E-03  0.29970127079E-03  0.17130000001E+03  0.17130000000E+03 0. -1.
      622    1    1    2    0    0  0.17398012742E-01  0.29286103972E-02  0.28098563455E+01  0.28100018150E+01  0.22500000000E-01 0.  0.
</event>
<event>
 5   0  0.9908800E+08  0.9118800E+02  0.7818608E-02  0.1180000E+00
       11   -1    0    0    0    0  0.00000000000E+00  0.00000000000E+00  0.39999999673E+01  0.40000000000E+01  0.51109989000E-03 0.  1.
     -623   -1    0    0    0    0  0.00000000000E+00  0.00000000000E+00  0.12525980253E-10  0.17130000000E+03  0.17130000000E+03 0.  1.
       11    1    1    2    0    0  0.98496145897E-03 -0.45085985477E-03  0.11076637409E-01  0.11141209174E-01  0.51109989000E-03 0. -1.
     -623    1    1    2    0    0 -0.75934487104E-03  0.50325745554E-03  0.12800682440E-03  0.17130000000E+03  0.17130000000E+03 0.  1.
      622    1    1    2    0    0 -0.22561658793E-03 -0.52397600765E-04  0.39887953231E+01  0.39888587884E+01  0.22500000000E-01 0.  1.
</event>
<event>
 5   0  0.9908800E+08  0.9118800E+02  0.7818608E-02  0.1180000E+00
       11   -1    0    0    0    0  0.00000000000E+00  0.00000000000E+00  0.39999999673E+01  0.40000000000E+01  0.51109989000E-03 0. -1.
     -623   -1    0    0    0    0  0.00000000000E+00  0.00000000000E+00  0.12525980253E-10  0.17130000000E+03  0.17130000000E+03 0.  1.
       11    1    1    2    0    0 -0.77941319096E-03  0.31484324583E-03  0.38043986373E-02  0.39295398306E-02  0.51109989000E-03 0. -1.
     -623    1    1    2    0    0 -0.15283605826E-03 -0.32564599458E-03  0.18856177372E-03  0.17130000000E+03  0.17130000000E+03 0.  1.
      622    1    1    2    0    0  0.93224924921E-03  0.10802748738E-04  0.39960070068E+01  0.39960704596E+01  0.22500000000E-01 0. -1.
</event>
<event>
 5   0  0.9908800E+08  0.9118800E+02  0.7818608E-02  0.1180000E+00
       11   -1    0    0    0    0  0.00000000000E+00  0.00000000000E+00  0.39999999673E+01  0.40000000000E+01  0.51109989000E-03 0. -1.
     -623   -1    0    0    0    0  0.00000000000E+00  0.00000000000E+00  0.12525980253E-10  0.17130000000E+03  0.17130000000E+03 0.  1.
       11    1    1    2    0    0  0.69212260683E-04 -0.11613880939E-02  0.21115837367E+00  0.21116219739E+00  0.51109989000E-03 0. -1.
     -623    1    1    2    0    0  0.39642052740E-03  0.12292543015E-03  0.70771198771E-04  0.17130000000E+03  0.17130000000E+03 0.  1.
      622    1    1    2    0    0 -0.46563278808E-03  0.10384626637E-02  0.37887708225E+01  0.37888378021E+01  0.22500000000E-01 0. -1.
</event>
<event>
 5   0  0.9908800E+08  0.9118800E+02  0.7818608E-02  0.1180000E+00
       11   -1    0    0    0    0  0.00000000000E+00  0.00000000000E+00  0.39999999673E+01  0.40000000000E+01  0.51109989000E-03 0.  1.
     -623   -1    0    0    0    0  0.00000000000E+00  0.00000000000E+00  0.12525980253E-10  0.17130000000E+03  0.17130000000E+03 0.  1.
       11    1    1    2    0    0 -0.15382155280E-01  0.11225404598E-02  0.52718309543E+00  0.52740890031E+00  0.51109989000E-03 0.  1.
     -623    1    1    2    0    0  0.18263080326E-03  0.14749957080E-04  0.33211692384E-03  0.17130000000E+03  0.17130000000E+03 0.  1.
      622    1    1    2    0    0  0.15199524476E-01 -0.11372904169E-02  0.34724847550E+01  0.34725910993E+01  0.22500000000E-01 0.  1.
</event>
<event>
 5   0  0.9908800E+08  0.9118800E+02  0.7818608E-02  0.1180000E+00
       11   -1    0    0    0    0  0.00000000000E+00  0.00000000000E+00  0.39999999673E+01  0.40000000000E+01  0.51109989000E-03 0. -1.
     -623   -1    0    0    0    0  0.00000000000E+00  0.00000000000E+00  0.12525980253E-10  0.17130000000E+03  0.17130000000E+03 0.  1.
       11    1    1    2    0    0 -0.30234482337E-03  0.34518763730E-03  0.68754818254E-02  0.69097061986E-02  0.51109989000E-03 0. -1.
     -623    1    1    2    0    0 -0.67631822121E-04  0.60516070351E-04  0.97620791626E-04  0.17130000000E+03  0.17130000000E+03 0.  1.
      622    1    1    2    0    0  0.36997664549E-03 -0.40570370766E-03  0.39930268647E+01  0.39930902937E+01  0.22500000000E-01 0. -1.
</event>
<event>
 5   0  0.9908800E+08  0.9118800E+02  0.7818608E-02  0.1180000E+00
       11   -1    0    0    0    0  0.00000000000E+00  0.00000000000E+00  0.39999999673E+01  0.40000000000E+01  0.51109989000E-03 0. -1.
     -623   -1    0    0    0    0  0.00000000000E+00  0.00000000000E+00  0.12525980253E-10  0.17130000000E+03  0.17130000000E+03 0. -1.
       11    1    1    2    0    0 -0.35509979564E-03 -0.11504700305E-02  0.41061760983E-02  0.43094758075E-02  0.51109989000E-03 0.  1.
     -623    1    1    2    0    0 -0.49646178847E-04  0.46353920077E-03  0.26669746293E-03  0.17130000000E+03  0.17130000000E+03 0. -1.
      622    1    1    2    0    0  0.40474597449E-03  0.68693082973E-03  0.39956270938E+01  0.39956905234E+01  0.22500000000E-01 0. -1.
</event>
<event>
 5   0  0.9908800E+08  0.9118800E+02  0.7818608E-02  0.1180000E+00
       11   -1    0    0    0    0  0.00000000000E+00  0.00000000000E+00  0.39999999673E+01  0.40000000000E+01  0.51109989000E-03 0.  1.
     -623   -1    0    0    0    0  0.00000000000E+00  0.00000000000E+00  0.12525980253E-10  0.17130000000E+03  0.17130000000E+03 0.  1.
       11    1    1    2    0    0 -0.95519495835E-03  0.31435104575E-02  0.52865710449E-02  0.62452470722E-02  0.51109989000E-03 0. -1.
     -623    1    1    2    0    0  0.52498808984E-04 -0.25782655247E-02  0.10221885767E-02  0.17130000002E+03  0.17130000000E+03 0.  1.
      622    1    1    2    0    0  0.90269614937E-03 -0.56524493284E-03  0.39936912077E+01  0.39937547305E+01  0.22500000000E-01 0.  1.
</event>
<event>
 5   0  0.9908800E+08  0.9118800E+02  0.7818608E-02  0.1180000E+00
       11   -1    0    0    0    0  0.00000000000E+00  0.00000000000E+00  0.39999999673E+01  0.40000000000E+01  0.51109989000E-03 0.  1.
     -623   -1    0    0    0    0  0.00000000000E+00  0.00000000000E+00  0.12525980253E-10  0.17130000000E+03  0.17130000000E+03 0.  1.
       11    1    1    2    0    0 -0.80612156108E-03 -0.85407612197E-03  0.57343055770E-01  0.57357358256E-01  0.51109989000E-03 0.  1.
     -623    1    1    2    0    0  0.69044722535E-03  0.10470273013E-02  0.78483259042E-04  0.17130000000E+03  0.17130000000E+03 0.  1.
      622    1    1    2    0    0  0.11567433600E-03 -0.19295117896E-03  0.39425784268E+01  0.39426426356E+01  0.22500000000E-01 0.  1.
</event>
<event>
 5   0  0.9908800E+08  0.9118800E+02  0.7818608E-02  0.1180000E+00
       11   -1    0    0    0    0  0.00000000000E+00  0.00000000000E+00  0.39999999673E+01  0.40000000000E+01  0.51109989000E-03 0.  1.
     -623   -1    0    0    0    0  0.00000000000E+00  0.00000000000E+00  0.12525980253E-10  0.17130000000E+03  0.17130000000E+03 0.  1.
       11    1    1    2    0    0 -0.46157642934E-03 -0.21539501232E-03  0.77311094183E-02  0.77647101522E-02  0.51109989000E-03 0.  1.
     -623    1    1    2    0    0  0.33054363817E-03  0.42947827152E-03  0.96981701598E-04  0.17130000000E+03  0.17130000000E+03 0.  1.
      622    1    1    2    0    0  0.13103279108E-03 -0.21408325931E-03  0.39921718773E+01  0.39922352900E+01  0.22500000000E-01 0.  1.
</event>
<event>
 5   0  0.9908800E+08  0.9118800E+02  0.7818608E-02  0.1180000E+00
       11   -1    0    0    0    0  0.00000000000E+00  0.00000000000E+00  0.39999999673E+01  0.40000000000E+01  0.51109989000E-03 0.  1.
     -623   -1    0    0    0    0  0.00000000000E+00  0.00000000000E+00  0.12525980253E-10  0.17130000000E+03  0.17130000000E+03 0.  1.
       11    1    1    2    0    0  0.63038951909E-02 -0.11334938506E-01  0.46960738600E-01  0.48721577545E-01  0.51109989000E-03 0.  1.
     -623    1    1    2    0    0 -0.58557591409E-02  0.36211884752E-02  0.18325715330E-02  0.17130000015E+03  0.17130000000E+03 0.  1.
      622    1    1    2    0    0 -0.44813604994E-03  0.77137500306E-02  0.39512066573E+01  0.39512782744E+01  0.22500000000E-01 0.  1.
</event>
<event>
 5   0  0.9908800E+08  0.9118800E+02  0.7818608E-02  0.1180000E+00
       11   -1    0    0    0    0  0.00000000000E+00  0.00000000000E+00  0.39999999673E+01  0.40000000000E+01  0.51109989000E-03 0.  1.
     -623   -1    0    0    0    0  0.00000000000E+00  0.00000000000E+00  0.12525980253E-10  0.17130000000E+03  0.17130000000E+03 0.  1.
       11    1    1    2    0    0 -0.21050595185E-02 -0.11013165390E-01  0.90487009016E-01  0.91180486455E-01  0.51109989000E-03 0.  1.
     -623    1    1    2    0    0 -0.87554993131E-02  0.77640282479E-02  0.77504280314E-03  0.17130000040E+03  0.17130000000E+03 0.  1.
      622    1    1    2    0    0  0.10860558832E-01  0.32491371421E-02  0.39087379155E+01  0.39088191121E+01  0.22500000000E-01 0.  1.
</event>
<event>
 5   0  0.9908800E+08  0.9118800E+02  0.7818608E-02  0.1180000E+00
       11   -1    0    0    0    0  0.00000000000E+00  0.00000000000E+00  0.39999999673E+01  0.40000000000E+01  0.51109989000E-03 0.  1.
     -623   -1    0    0    0    0  0.00000000000E+00  0.00000000000E+00  0.12525980253E-10  0.17130000000E+03  0.17130000000E+03 0.  1.
       11    1    1    2    0    0 -0.13565873372E-02  0.17422466997E-02  0.10206696939E+00  0.10209213102E+00  0.51109989000E-03 0.  1.
     -623    1    1    2    0    0  0.41915179082E-02 -0.28820340038E-02  0.91341340084E-04  0.17130000008E+03  0.17130000000E+03 0.  1.
      622    1    1    2    0    0 -0.28349305710E-02  0.11397873041E-02  0.38978416566E+01  0.38979077934E+01  0.22500000000E-01 0.  1.
</event>
<event>
 5   0  0.9908800E+08  0.9118800E+02  0.7818608E-02  0.1180000E+00
       11   -1    0    0    0    0  0.00000000000E+00  0.00000000000E+00  0.39999999673E+01  0.40000000000E+01  0.51109989000E-03 0.  1.
     -623   -1    0    0    0    0  0.00000000000E+00  0.00000000000E+00  0.12525980253E-10  0.17130000000E+03  0.17130000000E+03 0.  1.
       11    1    1    2    0    0 -0.54924921577E-02 -0.72557591205E-03  0.10748010830E+00  0.10762401606E+00  0.51109989000E-03 0.  1.
     -623    1    1    2    0    0  0.12780005815E-03 -0.28726578936E-03  0.21273585401E-03  0.17130000000E+03  0.17130000000E+03 0.  1.
      622    1    1    2    0    0  0.53646920996E-02  0.10128417014E-02  0.38923071232E+01  0.38923759835E+01  0.22500000000E-01 0.  1.
</event>
<event>
 5   0  0.9908800E+08  0.9118800E+02  0.7818608E-02  0.1180000E+00
       11   -1    0    0    0    0  0.00000000000E+00  0.00000000000E+00  0.39999999673E+01  0.40000000000E+01  0.51109989000E-03 0.  1.
     -623   -1    0    0    0    0  0.00000000000E+00  0.00000000000E+00  0.12525980253E-10  0.17130000000E+03  0.17130000000E+03 0.  1.
       11    1    1    2    0    0 -0.40038725465E-02 -0.28109972292E-02  0.22597954074E-01  0.23127071847E-01  0.51109989000E-03 0.  1.
     -623    1    1    2    0    0  0.22196167206E-02 -0.46706990593E-02  0.60025205585E-03  0.17130000008E+03  0.17130000000E+03 0.  1.
      622    1    1    2    0    0  0.17842558257E-02  0.74816962888E-02  0.39768017615E+01  0.39768728493E+01  0.22500000000E-01 0.  1.
</event>
<event>
 5   0  0.9908800E+08  0.9118800E+02  0.7818608E-02  0.1180000E+00
       11   -1    0    0    0    0  0.00000000000E+00  0.00000000000E+00  0.39999999673E+01  0.40000000000E+01  0.51109989000E-03 0.  1.
     -623   -1    0    0    0    0  0.00000000000E+00  0.00000000000E+00  0.12525980253E-10  0.17130000000E+03  0.17130000000E+03 0. -1.
       11    1    1    2    0    0 -0.41856162907E-02  0.81970502194E-02  0.10620782272E+00  0.10660710035E+00  0.51109989000E-03 0.  1.
     -623    1    1    2    0    0  0.34519606277E-02  0.13970889631E-01  0.52804470773E-03  0.17130000061E+03  0.17130000000E+03 0. -1.
      622    1    1    2    0    0  0.73365566296E-03 -0.22167939851E-01  0.38932640999E+01  0.38933922943E+01  0.22500000000E-01 0.  1.
</event>
<event>
 5   0  0.9908800E+08  0.9118800E+02  0.7818608E-02  0.1180000E+00
       11   -1    0    0    0    0  0.00000000000E+00  0.00000000000E+00  0.39999999673E+01  0.40000000000E+01  0.51109989000E-03 0. -1.
     -623   -1    0    0    0    0  0.00000000000E+00  0.00000000000E+00  0.12525980253E-10  0.17130000000E+03  0.17130000000E+03 0. -1.
       11    1    1    2    0    0 -0.45410370146E-02  0.29248924218E-02  0.17168166176E+00  0.17176737240E+00  0.51109989000E-03 0. -1.
     -623    1    1    2    0    0  0.20463234791E-03  0.21087028956E-03  0.15553983988E-03  0.17130000000E+03  0.17130000000E+03 0. -1.
      622    1    1    2    0    0  0.43364046666E-02 -0.31357627115E-02  0.38281627671E+01  0.38282326286E+01  0.22500000000E-01 0. -1.
</event>
<event>
 5   0  0.9908800E+08  0.9118800E+02  0.7818608E-02  0.1180000E+00
       11   -1    0    0    0    0  0.00000000000E+00  0.00000000000E+00  0.39999999673E+01  0.40000000000E+01  0.51109989000E-03 0.  1.
     -623   -1    0    0    0    0  0.00000000000E+00  0.00000000000E+00  0.12525980253E-10  0.17130000000E+03  0.17130000000E+03 0.  1.
       11    1    1    2    0    0  0.63457179060E-02 -0.43966219854E-02  0.48077129465E-02  0.91089925175E-02  0.51109989000E-03 0.  1.
     -623    1    1    2    0    0 -0.11036713295E-01  0.11878656039E-02  0.43691354851E-02  0.17130000042E+03  0.17130000000E+03 0.  1.
      622    1    1    2    0    0  0.46909953891E-02  0.32087563815E-02  0.39908231189E+01  0.39908905921E+01  0.22500000000E-01 0.  1.
</event>
<event>
 5   0  0.9908800E+08  0.9118800E+02  0.7818608E-02  0.1180000E+00
       11   -1    0    0    0    0  0.00000000000E+00  0.00000000000E+00  0.39999999673E+01  0.40000000000E+01  0.51109989000E-03 0. -1.
     -623   -1    0    0    0    0  0.00000000000E+00  0.00000000000E+00  0.12525980253E-10  0.17130000000E+03  0.17130000000E+03 0. -1.
       11    1    1    2    0    0  0.13960755962E-01  0.27648862586E-01  0.66765875259E+00  0.66837701445E+00  0.51109989000E-03 0. -1.
     -623    1    1    2    0    0 -0.13675820867E-01  0.39732773840E-02  0.94489115052E-03  0.17130000059E+03  0.17130000000E+03 0. -1.
      622    1    1    2    0    0 -0.28493509517E-03 -0.31622139970E-01  0.33313963236E+01  0.33316223910E+01  0.22500000000E-01 0. -1.
</event>
<event>
 5   0  0.9908800E+08  0.9118800E+02  0.7818608E-02  0.1180000E+00
       11   -1    0    0    0    0  0.00000000000E+00  0.00000000000E+00  0.39999999673E+01  0.40000000000E+01  0.51109989000E-03 0. -1.
     -623   -1    0    0    0    0  0.00000000000E+00  0.00000000000E+00  0.12525980253E-10  0.17130000000E+03  0.17130000000E+03 0.  1.
       11    1    1    2    0    0  0.75629626379E-02  0.81481738171E-02  0.16871733067E+00  0.16908397332E+00  0.51109989000E-03 0. -1.
     -623    1    1    2    0    0  0.12416978501E-02  0.12358337710E-02  0.45430607824E-03  0.17130000001E+03  0.17130000000E+03 0.  1.
      622    1    1    2    0    0 -0.88046604881E-02 -0.93840075883E-02  0.38308283311E+01  0.38309160176E+01  0.22500000000E-01 0. -1.
</event>
<event>
 5   0  0.9908800E+08  0.9118800E+02  0.7818608E-02  0.1180000E+00
       11   -1    0    0    0    0  0.00000000000E+00  0.00000000000E+00  0.39999999673E+01  0.40000000000E+01  0.51109989000E-03 0. -1.
     -623   -1    0    0    0    0  0.00000000000E+00  0.00000000000E+00  0.12525980253E-10  0.17130000000E+03  0.17130000000E+03 0. -1.
       11    1    1    2    0    0 -0.22956481006E-02 -0.69564294861E-03  0.99903339918E-01  0.99933440186E-01  0.51109989000E-03 0. -1.
     -623    1    1    2    0    0  0.54394699340E-02 -0.19837394152E-02  0.97256310325E-04  0.17130000010E+03  0.17130000000E+03 0. -1.
      622    1    1    2    0    0 -0.31438218334E-02  0.26793823638E-02  0.38999993711E+01  0.39000664619E+01  0.22500000000E-01 0. -1.
</event>
<event>
 5   0  0.9908800E+08  0.9118800E+02  0.7818608E-02  0.1180000E+00
       11   -1    0    0    0    0  0.00000000000E+00  0.00000000000E+00  0.39999999673E+01  0.40000000000E+01  0.51109989000E-03 0. -1.
     -623   -1    0    0    0    0  0.00000000000E+00  0.00000000000E+00  0.12525980253E-10  0.17130000000E+03  0.17130000000E+03 0.  1.
       11    1    1    2    0    0 -0.18595044012E-01  0.58729124934E-02  0.14960052172E+00  0.15086697480E+00  0.51109989000E-03 0. -1.
     -623    1    1    2    0    0  0.70505071638E-02  0.11736132847E-01  0.13903282819E-02  0.17130000055E+03  0.17130000000E+03 0.  1.
      622    1    1    2    0    0  0.11544536848E-01 -0.17609045340E-01  0.38490091173E+01  0.38491324724E+01  0.22500000000E-01 0. -1.
</event>
<event>
 5   0  0.9908800E+08  0.9118800E+02  0.7818608E-02  0.1180000E+00
       11   -1    0    0    0    0  0.00000000000E+00  0.00000000000E+00  0.39999999673E+01  0.40000000000E+01  0.51109989000E-03 0.  1.
     -623   -1    0    0    0    0  0.00000000000E+00  0.00000000000E+00  0.12525980253E-10  0.17130000000E+03  0.17130000000E+03 0. -1.
       11    1    1    2    0    0 -0.24009183404E-02 -0.13786742924E-02  0.47639091305E-01  0.47722210706E-01  0.51109989000E-03 0.  1.
     -623    1    1    2    0    0  0.17247066911E-03 -0.11865433538E-03  0.14804470840E-03  0.17130000000E+03  0.17130000000E+03 0. -1.
      622    1    1    2    0    0  0.22284476713E-02  0.14973286277E-02  0.39522128313E+01  0.39522777891E+01  0.22500000000E-01 0.  1.
</event>
<event>
 5   0  0.9908800E+08  0.9118800E+02  0.7818608E-02  0.1180000E+00
       11   -1    0    0    0    0  0.00000000000E+00  0.00000000000E+00  0.39999999673E+01  0.40000000000E+01  0.51109989000E-03 0.  1.
     -623   -1    0    0    0    0  0.00000000000E+00  0.00000000000E+00  0.12525980253E-10  0.17130000000E+03  0.17130000000E+03 0.  1.
       11    1    1    2    0    0  0.11747951996E-01  0.18368248918E-02  0.34005364071E+00  0.34026185224E+00  0.51109989000E-03 0.  1.
     -623    1    1    2    0    0 -0.72653762549E-02 -0.84848815372E-03  0.28037944558E-03  0.17130000016E+03  0.17130000000E+03 0.  1.
      622    1    1    2    0    0 -0.44825757400E-02 -0.98833673801E-03  0.36596659478E+01  0.36597379920E+01  0.22500000000E-01 0.  0.
</event>
<event>
 5   0  0.9908800E+08  0.9118800E+02  0.7818608E-02  0.1180000E+00
       11   -1    0    0    0    0  0.00000000000E+00  0.00000000000E+00  0.39999999673E+01  0.40000000000E+01  0.51109989000E-03 0. -1.
     -623   -1    0    0    0    0  0.00000000000E+00  0.00000000000E+00  0.12525980253E-10  0.17130000000E+03  0.17130000000E+03 0.  1.
       11    1    1    2    0    0  0.48216792390E-02 -0.85863896968E-02  0.99071962381E-01  0.99561486690E-01  0.51109989000E-03 0. -1.
     -623    1    1    2    0    0 -0.34956914162E-03 -0.14387396636E-03  0.56672449774E-03  0.17130000000E+03  0.17130000000E+03 0.  1.
      622    1    1    2    0    0 -0.44721100974E-02  0.87302636632E-02  0.39003612806E+01  0.39004385121E+01  0.22500000000E-01 0. -1.
</event>
<event>
 5   0  0.9908800E+08  0.9118800E+02  0.7818608E-02  0.1180000E+00
       11   -1    0    0    0    0  0.00000000000E+00  0.00000000000E+00  0.39999999673E+01  0.40000000000E+01  0.51109989000E-03 0.  1.
     -623   -1    0    0    0    0  0.00000000000E+00  0.00000000000E+00  0.12525980253E-10  0.17130000000E+03  0.17130000000E+03 0.  1.
       11    1    1    2    0    0 -0.61821872372E-04  0.90985312478E-03  0.16437237101E-01  0.16470447447E-01  0.51109989000E-03 0. -1.
     -623    1    1    2    0    0  0.93309175491E-03  0.12211300253E-02  0.97393304104E-04  0.17130000001E+03  0.17130000000E+03 0.  1.
      622    1    1    2    0    0 -0.87126988254E-03 -0.21309831501E-02  0.39834653370E+01  0.39835295456E+01  0.22500000000E-01 0.  1.
</event>
<event>
 5   0  0.9908800E+08  0.9118800E+02  0.7818608E-02  0.1180000E+00
       11   -1    0    0    0    0  0.00000000000E+00  0.00000000000E+00  0.39999999673E+01  0.40000000000E+01  0.51109989000E-03 0. -1.
     -623   -1    0    0    0    0  0.00000000000E+00  0.00000000000E+00  0.12525980253E-10  0.17130000000E+03  0.17130000000E+03 0. -1.
       11    1    1    2    0    0  0.89186587693E-03  0.41723741613E-04  0.39236539846E-01  0.39250024782E-01  0.51109989000E-03 0. -1.
     -623    1    1    2    0    0 -0.72356257099E-03 -0.33548821315E-03  0.77377506607E-04  0.17130000000E+03  0.17130000000E+03 0. -1.
      622    1    1    2    0    0 -0.16830330594E-03  0.29376447153E-03  0.39606860500E+01  0.39607499733E+01  0.22500000000E-01 0. -1.
</event>
<event>
 5   0  0.9908800E+08  0.9118800E+02  0.7818608E-02  0.1180000E+00
       11   -1    0    0    0    0  0.00000000000E+00  0.00000000000E+00  0.39999999673E+01  0.40000000000E+01  0.51109989000E-03 0. -1.
     -623   -1    0    0    0    0  0.00000000000E+00  0.00000000000E+00  0.12525980253E-10  0.17130000000E+03  0.17130000000E+03 0.  1.
       11    1    1    2    0    0  0.65521253727E-02 -0.38901962824E-02  0.75313961500E+00  0.75317833538E+00  0.51109989000E-03 0. -1.
     -623    1    1    2    0    0  0.27575537748E-02  0.11979301057E-02  0.13113947539E-03  0.17130000003E+03  0.17130000000E+03 0.  1.
      622    1    1    2    0    0 -0.93096791499E-02  0.26922661757E-02  0.32467292164E+01  0.32468216417E+01  0.22500000000E-01 0. -1.
</event>
<event>
 5   0  0.9908800E+08  0.9118800E+02  0.7818608E-02  0.1180000E+00
       11   -1    0    0    0    0  0.00000000000E+00  0.00000000000E+00  0.39999999673E+01  0.40000000000E+01  0.51109989000E-03 0. -1.
     -623   -1    0    0    0    0  0.00000000000E+00  0.00000000000E+00  0.12525980253E-10  0.17130000000E+03  0.17130000000E+03 0.  1.
       11    1    1    2    0    0 -0.18872162371E-02  0.14467248214E-02  0.75316581982E+00  0.75316974711E+00  0.51109989000E-03 0. -1.
     -623    1    1    2    0    0  0.73720677709E-03 -0.38397416366E-03  0.82235878082E-04  0.17130000000E+03  0.17130000000E+03 0.  1.
      622    1    1    2    0    0  0.11500094594E-02 -0.10627506574E-02  0.32467519149E+01  0.32468302541E+01  0.22500000000E-01 0.  0.
</event>
<event>
 5   0  0.9908800E+08  0.9118800E+02  0.7818608E-02  0.1180000E+00
       11   -1    0    0    0    0  0.00000000000E+00  0.00000000000E+00  0.39999999673E+01  0.40000000000E+01  0.51109989000E-03 0. -1.
     -623   -1    0    0    0    0  0.00000000000E+00  0.00000000000E+00  0.12525980253E-10  0.17130000000E+03  0.17130000000E+03 0.  1.
       11    1    1    2    0    0  0.34474349813E-03 -0.11266312004E-02  0.58208306803E-02  0.59608253495E-02  0.51109989000E-03 0.  1.
     -623    1    1    2    0    0  0.84620655627E-03 -0.26381515672E-02  0.20531268708E-03  0.17130000002E+03  0.17130000000E+03 0.  1.
      622    1    1    2    0    0 -0.11909500546E-02  0.37647827683E-02  0.39939738251E+01  0.39940391532E+01  0.22500000000E-01 0. -1.
</event>
<event>
 5   0  0.9908800E+08  0.9118800E+02  0.7818608E-02  0.1180000E+00
       11   -1    0    0    0    0  0.00000000000E+00  0.00000000000E+00  0.39999999673E+01  0.40000000000E+01  0.51109989000E-03 0. -1.
     -623   -1    0    0    0    0  0.00000000000E+00  0.00000000000E+00  0.12525980253E-10  0.17130000000E+03  0.17130000000E+03 0. -1.
       11    1    1    2    0    0  0.19458906804E-02  0.59989121061E-02  0.17439912257E+00  0.17451386367E+00  0.51109989000E-03 0. -1.
     -623    1    1    2    0    0 -0.52400372337E-03 -0.14112263829E-01  0.19032740742E-03  0.17130000058E+03  0.17130000000E+03 0. -1.
      622    1    1    2    0    0 -0.14218869569E-02  0.81133517267E-02  0.38254105185E+01  0.38254855552E+01  0.22500000000E-01 0. -1.
</event>
<event>
 5   0  0.9908800E+08  0.9118800E+02  0.7818608E-02  0.1180000E+00
       11   -1    0    0    0    0  0.00000000000E+00  0.00000000000E+00  0.39999999673E+01  0.40000000000E+01  0.51109989000E-03 0.  1.
     -623   -1    0    0    0    0  0.00000000000E+00  0.00000000000E+00  0.12525980253E-10  0.17130000000E+03  0.17130000000E+03 0.  1.
       11    1    1    2    0    0 -0.52351687640E-03 -0.16967225953E-02  0.39070220359E+00  0.39070657282E+00  0.51109989000E-03 0.  1.
     -623    1    1    2    0    0 -0.10402065702E-03  0.11625758197E-03  0.74869416158E-04  0.17130000000E+03  0.17130000000E+03 0.  1.
      622    1    1    2    0    0  0.62753753350E-03  0.15804650133E-02  0.36092228976E+01  0.36092934303E+01  0.22500000000E-01 0.  1.
</event>
<event>
 5   0  0.9908800E+08  0.9118800E+02  0.7818608E-02  0.1180000E+00
       11   -1    0    0    0    0  0.00000000000E+00  0.00000000000E+00  0.39999999673E+01  0.40000000000E+01  0.51109989000E-03 0. -1.
     -623   -1    0    0    0    0  0.00000000000E+00  0.00000000000E+00  0.12525980253E-10  0.17130000000E+03  0.17130000000E+03 0.  1.
       11    1    1    2    0    0 -0.27666924654E-03  0.89564023649E-03  0.46583855630E-01  0.46596089383E-01  0.51109989000E-03 0. -1.
     -623    1    1    2    0    0 -0.80913625082E-04 -0.30525332544E-03  0.76289297943E-04  0.17130000000E+03  0.17130000000E+03 0.  1.
      622    1    1    2    0    0  0.35758287162E-03 -0.59038691104E-03  0.39533398226E+01  0.39534039105E+01  0.22500000000E-01 0. -1.
</event>
<event>
 5   0  0.9908800E+08  0.9118800E+02  0.7818608E-02  0.1180000E+00
       11   -1    0    0    0    0  0.00000000000E+00  0.00000000000E+00  0.39999999673E+01  0.40000000000E+01  0.51109989000E-03 0.  1.
     -623   -1    0    0    0    0  0.00000000000E+00  0.00000000000E+00  0.12525980253E-10  0.17130000000E+03  0.17130000000E+03 0. -1.
       11    1    1    2    0    0 -0.53586953422E-02 -0.38130819365E-02  0.26531849440E+00  0.26540048964E+00  0.51109989000E-03 0.  1.
     -623    1    1    2    0    0  0.11744674710E-02  0.10048760190E-03  0.15393512562E-03  0.17130000000E+03  0.17130000000E+03 0. -1.
      622    1    1    2    0    0  0.41842278712E-02  0.37125943346E-02  0.37345275378E+01  0.37345995062E+01  0.22500000000E-01 0.  1.
</event>
<event>
 5   0  0.9908800E+08  0.9118800E+02  0.7818608E-02  0.1180000E+00
       11   -1    0    0    0    0  0.00000000000E+00  0.00000000000E+00  0.39999999673E+01  0.40000000000E+01  0.51109989000E-03 0. -1.
     -623   -1    0    0    0    0  0.00000000000E+00  0.00000000000E+00  0.12525980253E-10  0.17130000000E+03  0.17130000000E+03 0.  1.
       11    1    1    2    0    0  0.84010967037E-02 -0.20125818676E-02  0.20367363907E+00  0.20385740454E+00  0.51109989000E-03 0. -1.
     -623    1    1    2    0    0 -0.42841311003E-02 -0.28437901865E-02  0.25582922233E-03  0.17130000008E+03  0.17130000000E+03 0.  1.
      622    1    1    2    0    0 -0.41169656039E-02  0.48563720538E-02  0.37960704987E+01  0.37961425177E+01  0.22500000000E-01 0. -1.
</event>
<event>
 5   0  0.9908800E+08  0.9118800E+02  0.7818608E-02  0.1180000E+00
       11   -1    0    0    0    0  0.00000000000E+00  0.00000000000E+00  0.39999999673E+01  0.40000000000E+01  0.51109989000E-03 0.  1.
     -623   -1    0    0    0    0  0.00000000000E+00  0.00000000000E+00  0.12525980253E-10  0.17130000000E+03  0.17130000000E+03 0.  1.
       11    1    1    2    0    0  0.13724889138E-02  0.58148474679E-04  0.23137371065E-01  0.23183750066E-01  0.51109989000E-03 0.  1.
     -623    1    1    2    0    0  0.30854549240E-03 -0.42658868752E-03  0.11037024479E-03  0.17130000000E+03  0.17130000000E+03 0.  1.
      622    1    1    2    0    0 -0.16810344062E-02  0.36844021284E-03  0.39767522260E+01  0.39768162491E+01  0.22500000000E-01 0.  1.
</event>
<event>
 5   0  0.9908800E+08  0.9118800E+02  0.7818608E-02  0.1180000E+00
       11   -1    0    0    0    0  0.00000000000E+00  0.00000000000E+00  0.39999999673E+01  0.40000000000E+01  0.51109989000E-03 0.  1.
     -623   -1    0    0    0    0  0.00000000000E+00  0.00000000000E+00  0.12525980253E-10  0.17130000000E+03  0.17130000000E+03 0. -1.
       11    1    1    2    0    0  0.38639480301E-02 -0.68678990687E-02  0.16267638688E+00  0.16286794100E+00  0.51109989000E-03 0.  1.
     -623    1    1    2    0    0 -0.47478919743E-02  0.28582251478E-02  0.25977596039E-03  0.17130000009E+03  0.17130000000E+03 0. -1.
      622    1    1    2    0    0  0.88394394446E-03  0.40096739208E-02  0.38370638047E+01  0.38371319694E+01  0.22500000000E-01 0.  1.
</event>
<event>
 5   0  0.9908800E+08  0.9118800E+02  0.7818608E-02  0.1180000E+00
       11   -1    0    0    0    0  0.00000000000E+00  0.00000000000E+00  0.39999999673E+01  0.40000000000E+01  0.51109989000E-03 0. -1.
     -623   -1    0    0    0    0  0.00000000000E+00  0.00000000000E+00  0.12525980253E-10  0.17130000000E+03  0.17130000000E+03 0. -1.
       11    1    1    2    0    0 -0.84848862162E-04 -0.83493293297E-03  0.37711092327E-01  0.37723891883E-01  0.51109989000E-03 0. -1.
     -623    1    1    2    0    0 -0.20809041983E-03 -0.88367026947E-04  0.76769739232E-04  0.17130000000E+03  0.17130000000E+03 0. -1.
      622    1    1    2    0    0  0.29293928200E-03  0.92329995992E-03  0.39622121053E+01  0.39622761080E+01  0.22500000000E-01 0. -1.
</event>
<event>
 5   0  0.9908800E+08  0.9118800E+02  0.7818608E-02  0.1180000E+00
       11   -1    0    0    0    0  0.00000000000E+00  0.00000000000E+00  0.39999999673E+01  0.40000000000E+01  0.51109989000E-03 0. -1.
     -623   -1    0    0    0    0  0.00000000000E+00  0.00000000000E+00  0.12525980253E-10  0.17130000000E+03  0.17130000000E+03 0. -1.
       11    1    1    2    0    0 -0.19772203197E-03  0.77854945037E-03  0.11717872987E-01  0.11756487728E-01  0.51109989000E-03 0. -1.
     -623    1    1    2    0    0  0.24222280775E-03 -0.20276010879E-03  0.10209252934E-03  0.17130000000E+03  0.17130000000E+03 0. -1.
      622    1    1    2    0    0 -0.44500775815E-04 -0.57578934155E-03  0.39881800024E+01  0.39882435125E+01  0.22500000000E-01 0. -1.
</event>
<event>
 5   0  0.9908800E+08  0.9118800E+02  0.7818608E-02  0.1180000E+00
       11   -1    0    0    0    0  0.00000000000E+00  0.00000000000E+00  0.39999999673E+01  0.40000000000E+01  0.51109989000E-03 0.  1.
     -623   -1    0    0    0    0  0.00000000000E+00  0.00000000000E+00  0.12525980253E-10  0.17130000000E+03  0.17130000000E+03 0. -1.
       11    1    1    2    0    0 -0.15041415617E-01 -0.13328620404E-01  0.98539614797E+00  0.98560120027E+00  0.51109989000E-03 0.  1.
     -623    1    1    2    0    0  0.92143069020E-03  0.28254346805E-02  0.34038937809E-03  0.17130000003E+03  0.17130000000E+03 0. -1.
      622    1    1    2    0    0  0.14119984927E-01  0.10503185724E-01  0.30142634300E+01  0.30143987736E+01  0.22500000000E-01 0.  1.
</event>
<event>
 5   0  0.9908800E+08  0.9118800E+02  0.7818608E-02  0.1180000E+00
       11   -1    0    0    0    0  0.00000000000E+00  0.00000000000E+00  0.39999999673E+01  0.40000000000E+01  0.51109989000E-03 0.  1.
     -623   -1    0    0    0    0  0.00000000000E+00  0.00000000000E+00  0.12525980253E-10  0.17130000000E+03  0.17130000000E+03 0.  1.
       11    1    1    2    0    0 -0.25753085945E-02  0.20605882682E-03  0.49399181477E+00  0.49399883498E+00  0.51109989000E-03 0.  1.
     -623    1    1    2    0    0  0.22139645607E-02 -0.28855964942E-02  0.80267167182E-04  0.17130000004E+03  0.17130000000E+03 0.  1.
      622    1    1    2    0    0  0.36134403184E-03  0.26795376700E-02  0.35059278890E+01  0.35060011300E+01  0.22500000000E-01 0.  1.
</event>
<event>
 5   0  0.9908800E+08  0.9118800E+02  0.7818608E-02  0.1180000E+00
       11   -1    0    0    0    0  0.00000000000E+00  0.00000000000E+00  0.39999999673E+01  0.40000000000E+01  0.51109989000E-03 0. -1.
     -623   -1    0    0    0    0  0.00000000000E+00  0.00000000000E+00  0.12525980253E-10  0.17130000000E+03  0.17130000000E+03 0. -1.
       11    1    1    2    0    0 -0.37712427004E-04 -0.37831171723E-02  0.31448389202E+00  0.31450706345E+00  0.51109989000E-03 0. -1.
     -623    1    1    2    0    0 -0.10657548838E-02  0.11860183176E-02  0.92908605803E-04  0.17130000001E+03  0.17130000000E+03 0. -1.
      622    1    1    2    0    0  0.11034673116E-02  0.25970988539E-02  0.36854231696E+01  0.36854929320E+01  0.22500000000E-01 0. -1.
</event>
<event>
 5   0  0.9908800E+08  0.9118800E+02  0.7818608E-02  0.1180000E+00
       11   -1    0    0    0    0  0.00000000000E+00  0.00000000000E+00  0.39999999673E+01  0.40000000000E+01  0.51109989000E-03 0.  1.
     -623   -1    0    0    0    0  0.00000000000E+00  0.00000000000E+00  0.12525980253E-10  0.17130000000E+03  0.17130000000E+03 0.  1.
       11    1    1    2    0    0 -0.83518956235E-03 -0.86321244791E-03  0.37291857021E-01  0.37314695504E-01  0.51109989000E-03 0.  1.
     -623    1    1    2    0    0 -0.49583333518E-03 -0.42465471495E-03  0.87117584858E-04  0.17130000000E+03  0.17130000000E+03 0.  1.
      622    1    1    2    0    0  0.13310228973E-02  0.12878671626E-02  0.39626209907E+01  0.39626853012E+01  0.22500000000E-01 0.  1.
</event>
<event>
 5   0  0.9908800E+08  0.9118800E+02  0.7818608E-02  0.1180000E+00
       11   -1    0    0    0    0  0.00000000000E+00  0.00000000000E+00  0.39999999673E+01  0.40000000000E+01  0.51109989000E-03 0.  1.
     -623   -1    0    0    0    0  0.00000000000E+00  0.00000000000E+00  0.12525980253E-10  0.17130000000E+03  0.17130000000E+03 0. -1.
       11    1    1    2    0    0 -0.13230321950E-02 -0.52298904191E-03  0.53350814067E-02  0.55451101908E-02  0.51109989000E-03 0.  1.
     -623    1    1    2    0    0  0.10094309257E-02 -0.45700887986E-03  0.27350207467E-03  0.17130000000E+03  0.17130000000E+03 0. -1.
      622    1    1    2    0    0  0.31360126928E-03  0.97999792177E-03  0.39943913839E+01  0.39944548860E+01  0.22500000000E-01 0.  1.
</event>
<event>
 5   0  0.9908800E+08  0.9118800E+02  0.7818608E-02  0.1180000E+00
       11   -1    0    0    0    0  0.00000000000E+00  0.00000000000E+00  0.39999999673E+01  0.40000000000E+01  0.51109989000E-03 0.  1.
     -623   -1    0    0    0    0  0.00000000000E+00  0.00000000000E+00  0.12525980253E-10  0.17130000000E+03  0.17130000000E+03 0.  1.
       11    1    1    2    0    0  0.11593553846E-02 -0.13123646546E-03  0.33066500736E-02  0.35435131895E-02  0.51109989000E-03 0.  1.
     -623    1    1    2    0    0 -0.26935948911E-03 -0.19669914365E-02  0.30083002385E-03  0.17130000001E+03  0.17130000000E+03 0.  1.
      622    1    1    2    0    0 -0.88999589536E-03  0.20982279026E-02  0.39963924886E+01  0.39964564764E+01  0.22500000000E-01 0.  1.
</event>
<event>
 5   0  0.9908800E+08  0.9118800E+02  0.7818608E-02  0.1180000E+00
       11   -1    0    0    0    0  0.00000000000E+00  0.00000000000E+00  0.39999999673E+01  0.40000000000E+01  0.51109989000E-03 0. -1.
     -623   -1    0    0    0    0  0.00000000000E+00  0.00000000000E+00  0.12525980253E-10  0.17130000000E+03  0.17130000000E+03 0. -1.
       11    1    1    2    0    0 -0.89044325060E-03  0.15764317256E-02  0.84507490259E-01  0.84528428108E-01  0.51109989000E-03 0. -1.
     -623    1    1    2    0    0 -0.28058117878E-05  0.20316494024E-03  0.86059584245E-04  0.17130000000E+03  0.17130000000E+03 0. -1.
      622    1    1    2    0    0  0.89324906238E-03 -0.17795966658E-02  0.39154064175E+01  0.39154715718E+01  0.22500000000E-01 0. -1.
</event>
<event>
 5   0  0.9908800E+08  0.9118800E+02  0.7818608E-02  0.1180000E+00
       11   -1    0    0    0    0  0.00000000000E+00  0.00000000000E+00  0.39999999673E+01  0.40000000000E+01  0.51109989000E-03 0. -1.
     -623   -1    0    0    0    0  0.00000000000E+00  0.00000000000E+00  0.12525980253E-10  0.17130000000E+03  0.17130000000E+03 0.  1.
       11    1    1    2    0    0 -0.95225458941E-02  0.21463426567E-01  0.62177744667E+00  0.62222087073E+00  0.51109989000E-03 0. -1.
     -623    1    1    2    0    0  0.70860845454E-02  0.13606247397E-02  0.59647732166E-03  0.17130000015E+03  0.17130000000E+03 0.  1.
      622    1    1    2    0    0  0.24364613482E-02 -0.22824051307E-01  0.33776260437E+01  0.33777789766E+01  0.22500000000E-01 0. -1.
</event>
<event>
 5   0  0.9908800E+08  0.9118800E+02  0.7818608E-02  0.1180000E+00
       11   -1    0    0    0    0  0.00000000000E+00  0.00000000000E+00  0.39999999673E+01  0.40000000000E+01  0.51109989000E-03 0. -1.
     -623   -1    0    0    0    0  0.00000000000E+00  0.00000000000E+00  0.12525980253E-10  0.17130000000E+03  0.17130000000E+03 0. -1.
       11    1    1    2    0    0  0.85707722809E-03 -0.10887897280E-01  0.37643567574E+00  0.37659442386E+00  0.51109989000E-03 0. -1.
     -623    1    1    2    0    0  0.47649634736E-02  0.65240620599E-02  0.23575461370E-03  0.17130000019E+03  0.17130000000E+03 0. -1.
      622    1    1    2    0    0 -0.56220407017E-02  0.43638352199E-02  0.36233285370E+01  0.36234053855E+01  0.22500000000E-01 0. -1.
</event>
<event>
 5   0  0.9908800E+08  0.9118800E+02  0.7818608E-02  0.1180000E+00
       11   -1    0    0    0    0  0.00000000000E+00  0.00000000000E+00  0.39999999673E+01  0.40000000000E+01  0.51109989000E-03 0.  1.
     -623   -1    0    0    0    0  0.00000000000E+00  0.00000000000E+00  0.12525980253E-10  0.17130000000E+03  0.17130000000E+03 0. -1.
       11    1    1    2    0    0 -0.26039332223E-02 -0.19798456270E-02  0.29956579582E-01  0.30138980397E-01  0.51109989000E-03 0.  1.
     -623    1    1    2    0    0  0.18538283709E-04  0.47408308324E-03  0.24725866196E-03  0.17130000000E+03  0.17130000000E+03 0. -1.
      622    1    1    2    0    0  0.25853949386E-02  0.15057625438E-02  0.39697961291E+01  0.39698610188E+01  0.22500000000E-01 0.  1.
</event>
<event>
 5   0  0.9908800E+08  0.9118800E+02  0.7818608E-02  0.1180000E+00
       11   -1    0    0    0    0  0.00000000000E+00  0.00000000000E+00  0.39999999673E+01  0.40000000000E+01  0.51109989000E-03 0. -1.
     -623   -1    0    0    0    0  0.00000000000E+00  0.00000000000E+00  0.12525980253E-10  0.17130000000E+03  0.17130000000E+03 0.  1.
       11    1    1    2    0    0  0.23937803740E-01  0.79054505435E-01  0.12752026797E+00  0.15193522712E+00  0.51109989000E-03 0. -1.
     -623    1    1    2    0    0 -0.93239033581E-02 -0.52385969027E-01  0.24610904487E-01  0.17130001003E+03  0.17130000000E+03 0.  1.
      622    1    1    2    0    0 -0.14613900381E-01 -0.26668536408E-01  0.38478687949E+01  0.38480547410E+01  0.22500000000E-01 0. -1.
</event>
<event>
 5   0  0.9908800E+08  0.9118800E+02  0.7818608E-02  0.1180000E+00
       11   -1    0    0    0    0  0.00000000000E+00  0.00000000000E+00  0.39999999673E+01  0.40000000000E+01  0.51109989000E-03 0. -1.
     -623   -1    0    0    0    0  0.00000000000E+00  0.00000000000E+00  0.12525980253E-10  0.17130000000E+03  0.17130000000E+03 0.  1.
       11    1    1    2    0    0  0.45651195677E-03  0.26280042706E-03  0.51401501657E-01  0.51406741415E-01  0.51109989000E-03 0. -1.
     -623    1    1    2    0    0 -0.19415113628E-03 -0.39709734899E-03  0.69324331562E-04  0.17130000000E+03  0.17130000000E+03 0.  1.
      622    1    1    2    0    0 -0.26236082047E-03  0.13429692196E-03  0.39485291418E+01  0.39485932584E+01  0.22500000000E-01 0. -1.
</event>
<event>
 5   0  0.9908800E+08  0.9118800E+02  0.7818608E-02  0.1180000E+00
       11   -1    0    0    0    0  0.00000000000E+00  0.00000000000E+00  0.39999999673E+01  0.40000000000E+01  0.51109989000E-03 0.  1.
     -623   -1    0    0    0    0  0.00000000000E+00  0.00000000000E+00  0.12525980253E-10  0.17130000000E+03  0.17130000000E+03 0. -1.
       11    1    1    2    0    0 -0.15780175052E-02 -0.89900107063E-03  0.33279103755E-02  0.38255131689E-02  0.51109989000E-03 0.  1.
     -623    1    1    2    0    0  0.38514849628E-03  0.17262600092E-03  0.56115797978E-03  0.17130000000E+03  0.17130000000E+03 0. -1.
      622    1    1    2    0    0  0.11928690090E-02  0.72637506971E-03  0.39961108990E+01  0.39961744854E+01  0.22500000000E-01 0.  1.
</event>
<event>
 5   0  0.9908800E+08  0.9118800E+02  0.7818608E-02  0.1180000E+00
       11   -1    0    0    0    0  0.00000000000E+00  0.00000000000E+00  0.39999999673E+01  0.40000000000E+01  0.51109989000E-03 0.  1.
     -623   -1    0    0    0    0  0.00000000000E+00  0.00000000000E+00  0.12525980253E-10  0.17130000000E+03  0.17130000000E+03 0. -1.
       11    1    1    2    0    0  0.51033065499E-02 -0.27747600209E-02  0.38212480262E+00  0.38216929368E+00  0.51109989000E-03 0.  1.
     -623    1    1    2    0    0  0.41023762533E-03  0.12316137537E-03  0.11959874660E-03  0.17130000000E+03  0.17130000000E+03 0. -1.
      622    1    1    2    0    0 -0.55135441753E-02  0.26515986455E-02  0.36177555674E+01  0.36178307071E+01  0.22500000000E-01 0.  1.
</event>
<event>
 5   0  0.9908800E+08  0.9118800E+02  0.7818608E-02  0.1180000E+00
       11   -1    0    0    0    0  0.00000000000E+00  0.00000000000E+00  0.39999999673E+01  0.40000000000E+01  0.51109989000E-03 0. -1.
     -623   -1    0    0    0    0  0.00000000000E+00  0.00000000000E+00  0.12525980253E-10  0.17130000000E+03  0.17130000000E+03 0. -1.
       11    1    1    2    0    0  0.84422480335E-03  0.49901710541E-03  0.13731484807E+00  0.13731930110E+00  0.51109989000E-03 0. -1.
     -623    1    1    2    0    0 -0.10706062186E-02 -0.10807665872E-03  0.69981681832E-04  0.17130000000E+03  0.17130000000E+03 0. -1.
      622    1    1    2    0    0  0.22638141484E-03 -0.39094044673E-03  0.38626151360E+01  0.38626806939E+01  0.22500000000E-01 0. -1.
</event>
<event>
 5   0  0.9908800E+08  0.9118800E+02  0.7818608E-02  0.1180000E+00
       11   -1    0    0    0    0  0.00000000000E+00  0.00000000000E+00  0.39999999673E+01  0.40000000000E+01  0.51109989000E-03 0.  1.
     -623   -1    0    0    0    0  0.00000000000E+00  0.00000000000E+00  0.12525980253E-10  0.17130000000E+03  0.17130000000E+03 0. -1.
       11    1    1    2    0    0 -0.38053185643E-02  0.20389686260E-02  0.84570649620E-01  0.84682311274E-01  0.51109989000E-03 0.  1.
     -623    1    1    2    0    0  0.27344605601E-02  0.57800292972E-03  0.17732340846E-03  0.17130000002E+03  0.17130000000E+03 0. -1.
      622    1    1    2    0    0  0.10708580039E-02 -0.26169715558E-02  0.39152519949E+01  0.39153176664E+01  0.22500000000E-01 0.  1.
</event>
<event>
 5   0  0.9908800E+08  0.9118800E+02  0.7818608E-02  0.1180000E+00
       11   -1    0    0    0    0  0.00000000000E+00  0.00000000000E+00  0.39999999673E+01  0.40000000000E+01  0.51109989000E-03 0.  1.
     -623   -1    0    0    0    0  0.00000000000E+00  0.00000000000E+00  0.12525980253E-10  0.17130000000E+03  0.17130000000E+03 0.  1.
       11    1    1    2    0    0 -0.80680723861E-02  0.10134135502E-01  0.10051654573E+01  0.10052490499E+01  0.51109989000E-03 0.  1.
     -623    1    1    2    0    0 -0.48051744302E-03 -0.35086980849E-03  0.19626717299E-03  0.17130000000E+03  0.17130000000E+03 0.  1.
      622    1    1    2    0    0  0.85485898292E-02 -0.97832656936E-02  0.29946382437E+01  0.29947509498E+01  0.22500000000E-01 0.  1.
</event>
<event>
 5   0  0.9908800E+08  0.9118800E+02  0.7818608E-02  0.1180000E+00
       11   -1    0    0    0    0  0.00000000000E+00  0.00000000000E+00  0.39999999673E+01  0.40000000000E+01  0.51109989000E-03 0.  1.
     -623   -1    0    0    0    0  0.00000000000E+00  0.00000000000E+00  0.12525980253E-10  0.17130000000E+03  0.17130000000E+03 0. -1.
       11    1    1    2    0    0 -0.14093335156E-03 -0.15428654202E-03  0.15854228978E-01  0.15863841441E-01  0.51109989000E-03 0.  1.
     -623    1    1    2    0    0 -0.18247048905E-03 -0.12515448499E-04  0.73130281162E-04  0.17130000000E+03  0.17130000000E+03 0. -1.
      622    1    1    2    0    0  0.32340384061E-03  0.16680199052E-03  0.39840726081E+01  0.39841361584E+01  0.22500000000E-01 0.  1.
</event>
<event>
 5   0  0.9908800E+08  0.9118800E+02  0.7818608E-02  0.1180000E+00
       11   -1    0    0    0    0  0.00000000000E+00  0.00000000000E+00  0.39999999673E+01  0.40000000000E+01  0.51109989000E-03 0.  1.
     -623   -1    0    0    0    0  0.00000000000E+00  0.00000000000E+00  0.12525980253E-10  0.17130000000E+03  0.17130000000E+03 0.  1.
       11    1    1    2    0    0 -0.29014344853E-02  0.11914892799E-02  0.33825829545E-01  0.33974783830E-01  0.51109989000E-03 0.  1.
     -623    1    1    2    0    0  0.62292465967E-04  0.29987297721E-03  0.21404255706E-03  0.17130000000E+03  0.17130000000E+03 0.  1.
      622    1    1    2    0    0  0.28391420193E-02 -0.14913622572E-02  0.39659600968E+01  0.39660252173E+01  0.22500000000E-01 0.  1.
</event>
<event>
 5   0  0.9908800E+08  0.9118800E+02  0.7818608E-02  0.1180000E+00
       11   -1    0    0    0    0  0.00000000000E+00  0.00000000000E+00  0.39999999673E+01  0.40000000000E+01  0.51109989000E-03 0.  1.
     -623   -1    0    0    0    0  0.00000000000E+00  0.00000000000E+00  0.12525980253E-10  0.17130000000E+03  0.17130000000E+03 0.  1.
       11    1    1    2    0    0 -0.36043317726E-02 -0.83222084204E-03  0.42428631774E-01  0.42592649767E-01  0.51109989000E-03 0.  1.
     -623    1    1    2    0    0  0.85952303676E-03 -0.24999418839E-02  0.23032352778E-03  0.17130000002E+03  0.17130000000E+03 0.  1.
      622    1    1    2    0    0  0.27448087359E-02  0.33321627259E-02  0.39573410121E+01  0.39574073297E+01  0.22500000000E-01 0.  1.
</event>
<event>
 5   0  0.9908800E+08  0.9118800E+02  0.7818608E-02  0.1180000E+00
       11   -1    0    0    0    0  0.00000000000E+00  0.00000000000E+00  0.39999999673E+01  0.40000000000E+01  0.51109989000E-03 0.  1.
     -623   -1    0    0    0    0  0.00000000000E+00  0.00000000000E+00  0.12525980253E-10  0.17130000000E+03  0.17130000000E+03 0.  1.
       11    1    1    2    0    0 -0.75101200390E-03  0.16621841548E-02  0.30517718987E-01  0.30576449605E-01  0.51109989000E-03 0.  1.
     -623    1    1    2    0    0 -0.56983757087E-03 -0.15602860644E-02  0.12269636520E-03  0.17130000001E+03  0.17130000000E+03 0.  1.
      622    1    1    2    0    0  0.13208495744E-02 -0.10189809145E-03  0.39693595494E+01  0.39694235397E+01  0.22500000000E-01 0.  1.
</event>
<event>
 5   0  0.9908800E+08  0.9118800E+02  0.7818608E-02  0.1180000E+00
       11   -1    0    0    0    0  0.00000000000E+00  0.00000000000E+00  0.39999999673E+01  0.40000000000E+01  0.51109989000E-03 0. -1.
     -623   -1    0    0    0    0  0.00000000000E+00  0.00000000000E+00  0.12525980253E-10  0.17130000000E+03  0.17130000000E+03 0.  1.
       11    1    1    2    0    0  0.11611724861E-01  0.70187915578E-02  0.63052134725E+00  0.63066752426E+00  0.51109989000E-03 0. -1.
     -623    1    1    2    0    0 -0.17176057221E-01  0.33517075075E-03  0.23475337492E-03  0.17130000086E+03  0.17130000000E+03 0.  1.
      622    1    1    2    0    0  0.55643323601E-02 -0.73539623085E-02  0.33692438667E+01  0.33693316141E+01  0.22500000000E-01 0. -1.
</event>
<event>
 5   0  0.9908800E+08  0.9118800E+02  0.7818608E-02  0.1180000E+00
       11   -1    0    0    0    0  0.00000000000E+00  0.00000000000E+00  0.39999999673E+01  0.40000000000E+01  0.51109989000E-03 0. -1.
     -623   -1    0    0    0    0  0.00000000000E+00  0.00000000000E+00  0.12525980253E-10  0.17130000000E+03  0.17130000000E+03 0. -1.
       11    1    1    2    0    0 -0.76361530801E-03 -0.20555135440E-02  0.31486270948E-01  0.31566671086E-01  0.51109989000E-03 0. -1.
     -623    1    1    2    0    0  0.22264332495E-02 -0.68922694029E-03  0.14538736314E-03  0.17130000002E+03  0.17130000000E+03 0. -1.
      622    1    1    2    0    0 -0.14628179415E-02  0.27447404843E-02  0.39683683090E+01  0.39684333130E+01  0.22500000000E-01 0. -1.
</event>
<event>
 5   0  0.9908800E+08  0.9118800E+02  0.7818608E-02  0.1180000E+00
       11   -1    0    0    0    0  0.00000000000E+00  0.00000000000E+00  0.39999999673E+01  0.40000000000E+01  0.51109989000E-03 0. -1.
     -623   -1    0    0    0    0  0.00000000000E+00  0.00000000000E+00  0.12525980253E-10  0.17130000000E+03  0.17130000000E+03 0.  1.
       11    1    1    2    0    0 -0.55573040833E-02 -0.50632146685E-02  0.71074015192E+00  0.71078009577E+00  0.51109989000E-03 0. -1.
     -623    1    1    2    0    0  0.22178766878E-02 -0.16207546082E-02  0.12537672154E-03  0.17130000002E+03  0.17130000000E+03 0.  1.
      622    1    1    2    0    0  0.33394273955E-02  0.66839692768E-02  0.32891344387E+01  0.32892198822E+01  0.22500000000E-01 0. -1.
</event>
<event>
 5   0  0.9908800E+08  0.9118800E+02  0.7818608E-02  0.1180000E+00
       11   -1    0    0    0    0  0.00000000000E+00  0.00000000000E+00  0.39999999673E+01  0.40000000000E+01  0.51109989000E-03 0. -1.
     -623   -1    0    0    0    0  0.00000000000E+00  0.00000000000E+00  0.12525980253E-10  0.17130000000E+03  0.17130000000E+03 0.  1.
       11    1    1    2    0    0 -0.11941072119E-01  0.47336489760E-02  0.50848539640E+00  0.50864787055E+00  0.51109989000E-03 0. -1.
     -623    1    1    2    0    0 -0.83770751063E-02 -0.82458529879E-02  0.29623615639E-03  0.17130000040E+03  0.17130000000E+03 0.  1.
      622    1    1    2    0    0  0.20318147227E-01  0.35122040134E-02  0.34912183355E+01  0.34913517266E+01  0.22500000000E-01 0. -1.
</event>
<event>
 5   0  0.9908800E+08  0.9118800E+02  0.7818608E-02  0.1180000E+00
       11   -1    0    0    0    0  0.00000000000E+00  0.00000000000E+00  0.39999999673E+01  0.40000000000E+01  0.51109989000E-03 0.  1.
     -623   -1    0    0    0    0  0.00000000000E+00  0.00000000000E+00  0.12525980253E-10  0.17130000000E+03  0.17130000000E+03 0. -1.
       11    1    1    2    0    0 -0.54567539193E-03 -0.20933336066E-02  0.83548679893E-02  0.86455103631E-02  0.51109989000E-03 0.  1.
     -623    1    1    2    0    0  0.36065636654E-03  0.53076227950E-04  0.35455506821E-03  0.17130000000E+03  0.17130000000E+03 0. -1.
      622    1    1    2    0    0  0.18501902535E-03  0.20402573787E-02  0.39912905448E+01  0.39913544894E+01  0.22500000000E-01 0.  1.
</event>
<event>
 5   0  0.9908800E+08  0.9118800E+02  0.7818608E-02  0.1180000E+00
       11   -1    0    0    0    0  0.00000000000E+00  0.00000000000E+00  0.39999999673E+01  0.40000000000E+01  0.51109989000E-03 0. -1.
     -623   -1    0    0    0    0  0.00000000000E+00  0.00000000000E+00  0.12525980253E-10  0.17130000000E+03  0.17130000000E+03 0.  1.
       11    1    1    2    0    0  0.14539537823E-02 -0.18152830403E-02  0.54326925854E+00  0.54327447734E+00  0.51109989000E-03 0. -1.
     -623    1    1    2    0    0 -0.12985643863E-02  0.48744250795E-02  0.79845210076E-04  0.17130000007E+03  0.17130000000E+03 0.  1.
      622    1    1    2    0    0 -0.15538939598E-03 -0.30591420392E-02  0.34566508636E+01  0.34567254484E+01  0.22500000000E-01 0. -1.
</event>
<event>
 5   0  0.9908800E+08  0.9118800E+02  0.7818608E-02  0.1180000E+00
       11   -1    0    0    0    0  0.00000000000E+00  0.00000000000E+00  0.39999999673E+01  0.40000000000E+01  0.51109989000E-03 0.  1.
     -623   -1    0    0    0    0  0.00000000000E+00  0.00000000000E+00  0.12525980253E-10  0.17130000000E+03  0.17130000000E+03 0. -1.
       11    1    1    2    0    0 -0.67653968016E-02  0.34044396404E-02  0.25307731928E+00  0.25319113642E+00  0.51109989000E-03 0.  1.
     -623    1    1    2    0    0  0.49041688687E-03 -0.15433328032E-03  0.18800774238E-03  0.17130000000E+03  0.17130000000E+03 0. -1.
      622    1    1    2    0    0  0.62749799145E-02 -0.32501063600E-02  0.37467346422E+01  0.37468088645E+01  0.22500000000E-01 0.  0.
</event>
<event>
 5   0  0.9908800E+08  0.9118800E+02  0.7818608E-02  0.1180000E+00
       11   -1    0    0    0    0  0.00000000000E+00  0.00000000000E+00  0.39999999673E+01  0.40000000000E+01  0.51109989000E-03 0. -1.
     -623   -1    0    0    0    0  0.00000000000E+00  0.00000000000E+00  0.12525980253E-10  0.17130000000E+03  0.17130000000E+03 0.  1.
       11    1    1    2    0    0  0.31067013345E-02 -0.99715843071E-03  0.36970388925E+00  0.36971864014E+00  0.51109989000E-03 0. -1.
     -623    1    1    2    0    0 -0.30750140272E-03 -0.15143915486E-03  0.85706202301E-04  0.17130000000E+03  0.17130000000E+03 0.  1.
      622    1    1    2    0    0 -0.27991999318E-02  0.11485975856E-02  0.36302103719E+01  0.36302813595E+01  0.22500000000E-01 0. -1.
</event>
<event>
 5   0  0.9908800E+08  0.9118800E+02  0.7818608E-02  0.1180000E+00
       11   -1    0    0    0    0  0.00000000000E+00  0.00000000000E+00  0.39999999673E+01  0.40000000000E+01  0.51109989000E-03 0. -1.
     -623   -1    0    0    0    0  0.00000000000E+00  0.00000000000E+00  0.12525980253E-10  0.17130000000E+03  0.17130000000E+03 0. -1.
       11    1    1    2    0    0 -0.30366305723E-04 -0.22045131238E-03  0.72744000464E-01  0.72746136284E-01  0.51109989000E-03 0. -1.
     -623    1    1    2    0    0  0.22541805614E-04 -0.21334776175E-03  0.66581257402E-04  0.17130000000E+03  0.17130000000E+03 0. -1.
      622    1    1    2    0    0  0.78245001084E-05  0.43379907414E-03  0.39271893856E+01  0.39272538636E+01  0.22500000000E-01 0. -1.
</event>
<event>
 5   0  0.9908800E+08  0.9118800E+02  0.7818608E-02  0.1180000E+00
       11   -1    0    0    0    0  0.00000000000E+00  0.00000000000E+00  0.39999999673E+01  0.40000000000E+01  0.51109989000E-03 0.  1.
     -623   -1    0    0    0    0  0.00000000000E+00  0.00000000000E+00  0.12525980253E-10  0.17130000000E+03  0.17130000000E+03 0.  1.
       11    1    1    2    0    0 -0.42901748049E-02 -0.20266967705E-02  0.29006606482E+00  0.29010531929E+00  0.51109989000E-03 0.  1.
     -623    1    1    2    0    0  0.93208688504E-04 -0.87277343922E-04  0.11042858281E-03  0.17130000000E+03  0.17130000000E+03 0.  1.
      622    1    1    2    0    0  0.41969661164E-02  0.21139741144E-02  0.37098234740E+01  0.37098946806E+01  0.22500000000E-01 0.  1.
</event>
<event>
 5   0  0.9908800E+08  0.9118800E+02  0.7818608E-02  0.1180000E+00
       11   -1    0    0    0    0  0.00000000000E+00  0.00000000000E+00  0.39999999673E+01  0.40000000000E+01  0.51109989000E-03 0.  1.
     -623   -1    0    0    0    0  0.00000000000E+00  0.00000000000E+00  0.12525980253E-10  0.17130000000E+03  0.17130000000E+03 0. -1.
       11    1    1    2    0    0 -0.10407691261E-01 -0.60196078980E-02  0.19246960829E+00  0.19284544862E+00  0.51109989000E-03 0.  1.
     -623    1    1    2    0    0 -0.26307900144E-03 -0.89014463739E-03  0.46352302400E-03  0.17130000000E+03  0.17130000000E+03 0. -1.
      622    1    1    2    0    0  0.10670770263E-01  0.69097525354E-02  0.38070668361E+01  0.38071545483E+01  0.22500000000E-01 0.  1.
</event>
<event>
 5   0  0.9908800E+08  0.9118800E+02  0.7818608E-02  0.1180000E+00
       11   -1    0    0    0    0  0.00000000000E+00  0.00000000000E+00  0.39999999673E+01  0.40000000000E+01  0.51109989000E-03 0. -1.
     -623   -1    0    0    0    0  0.00000000000E+00  0.00000000000E+00  0.12525980253E-10  0.17130000000E+03  0.17130000000E+03 0.  1.
       11    1    1    2    0    0  0.18447632233E-01 -0.85028671466E-02  0.42453012223E-01  0.47065203200E-01  0.51109989000E-03 0. -1.
     -623    1    1    2    0    0 -0.53347392853E-02  0.32697932186E-03  0.47065467371E-02  0.17130000015E+03  0.17130000000E+03 0.  1.
      622    1    1    2    0    0 -0.13112892948E-01  0.81758878247E-02  0.39528404084E+01  0.39529346488E+01  0.22500000000E-01 0. -1.
</event>
<event>
 5   0  0.9908800E+08  0.9118800E+02  0.7818608E-02  0.1180000E+00
       11   -1    0    0    0    0  0.00000000000E+00  0.00000000000E+00  0.39999999673E+01  0.40000000000E+01  0.51109989000E-03 0.  1.
     -623   -1    0    0    0    0  0.00000000000E+00  0.00000000000E+00  0.12525980253E-10  0.17130000000E+03  0.17130000000E+03 0. -1.
       11    1    1    2    0    0  0.97865331871E-03  0.11820020162E-02  0.19910003878E+00  0.19910660852E+00  0.51109989000E-03 0.  1.
     -623    1    1    2    0    0 -0.55806750093E-03  0.67034989924E-03  0.73610751627E-04  0.17130000000E+03  0.17130000000E+03 0. -1.
      622    1    1    2    0    0 -0.42058581682E-03 -0.18523519166E-02  0.38008263247E+01  0.38008933962E+01  0.22500000000E-01 0.  1.
</event>
<event>
 5   0  0.9908800E+08  0.9118800E+02  0.7818608E-02  0.1180000E+00
       11   -1    0    0    0    0  0.00000000000E+00  0.00000000000E+00  0.39999999673E+01  0.40000000000E+01  0.51109989000E-03 0.  1.
     -623   -1    0    0    0    0  0.00000000000E+00  0.00000000000E+00  0.12525980253E-10  0.17130000000E+03  0.17130000000E+03 0.  1.
       11    1    1    2    0    0  0.98723598172E-03 -0.32120964439E-02  0.72425105359E-02  0.80004612623E-02  0.51109989000E-03 0.  1.
     -623    1    1    2    0    0  0.23480220123E-02  0.33511046597E-02  0.82277323334E-03  0.17130000005E+03  0.17130000000E+03 0.  1.
      622    1    1    2    0    0 -0.33352579941E-02 -0.13900821600E-03  0.39919346838E+01  0.39919994881E+01  0.22500000000E-01 0.  1.
</event>
<event>
 5   0  0.9908800E+08  0.9118800E+02  0.7818608E-02  0.1180000E+00
       11   -1    0    0    0    0  0.00000000000E+00  0.00000000000E+00  0.39999999673E+01  0.40000000000E+01  0.51109989000E-03 0.  1.
     -623   -1    0    0    0    0  0.00000000000E+00  0.00000000000E+00  0.12525980253E-10  0.17130000000E+03  0.17130000000E+03 0.  1.
       11    1    1    2    0    0  0.30838575871E-03 -0.10080201653E-01  0.85660996609E-01  0.86254119495E-01  0.51109989000E-03 0.  1.
     -623    1    1    2    0    0 -0.22422605805E-02  0.70693258273E-02  0.65956444932E-03  0.17130000016E+03  0.17130000000E+03 0.  1.
      622    1    1    2    0    0  0.19338748218E-02  0.30108758256E-02  0.39136794063E+01  0.39137457187E+01  0.22500000000E-01 0.  1.
</event>
<event>
 5   0  0.9908800E+08  0.9118800E+02  0.7818608E-02  0.1180000E+00
       11   -1    0    0    0    0  0.00000000000E+00  0.00000000000E+00  0.39999999673E+01  0.40000000000E+01  0.51109989000E-03 0.  1.
     -623   -1    0    0    0    0  0.00000000000E+00  0.00000000000E+00  0.12525980253E-10  0.17130000000E+03  0.17130000000E+03 0.  1.
       11    1    1    2    0    0 -0.13140659253E-02  0.41861486549E-02  0.83614870969E+00  0.83616037729E+00  0.51109989000E-03 0.  1.
     -623    1    1    2    0    0 -0.58277033401E-03 -0.58469791404E-03  0.94262093582E-04  0.17130000000E+03  0.17130000000E+03 0.  1.
      622    1    1    2    0    0  0.18968362593E-02 -0.36014507409E-02  0.31637569956E+01  0.31638396207E+01  0.22500000000E-01 0.  1.
</event>
<event>
 5   0  0.9908800E+08  0.9118800E+02  0.7818608E-02  0.1180000E+00
       11   -1    0    0    0    0  0.00000000000E+00  0.00000000000E+00  0.39999999673E+01  0.40000000000E+01  0.51109989000E-03 0. -1.
     -623   -1    0    0    0    0  0.00000000000E+00  0.00000000000E+00  0.12525980253E-10  0.17130000000E+03  0.17130000000E+03 0. -1.
       11    1    1    2    0    0  0.75316454867E-03 -0.10664254224E-03  0.87234133239E+00  0.87234181377E+00  0.51109989000E-03 0. -1.
     -623    1    1    2    0    0  0.68122220064E-05 -0.30946645908E-03  0.81501257366E-04  0.17130000000E+03  0.17130000000E+03 0. -1.
      622    1    1    2    0    0 -0.75997677068E-03  0.41610900164E-03  0.31275771379E+01  0.31276581902E+01  0.22500000000E-01 0. -1.
</event>
<event>
 5   0  0.9908800E+08  0.9118800E+02  0.7818608E-02  0.1180000E+00
       11   -1    0    0    0    0  0.00000000000E+00  0.00000000000E+00  0.39999999673E+01  0.40000000000E+01  0.51109989000E-03 0.  1.
     -623   -1    0    0    0    0  0.00000000000E+00  0.00000000000E+00  0.12525980253E-10  0.17130000000E+03  0.17130000000E+03 0. -1.
       11    1    1    2    0    0  0.69571097978E-03 -0.25775110653E-03  0.19439746272E-01  0.19460611696E-01  0.51109989000E-03 0.  1.
     -623    1    1    2    0    0  0.18203732977E-03  0.47736843057E-03  0.84527539678E-04  0.17130000000E+03  0.17130000000E+03 0. -1.
      622    1    1    2    0    0 -0.87774830969E-03 -0.21961732441E-03  0.39804756966E+01  0.39805393906E+01  0.22500000000E-01 0.  1.
</event>
<event>
 5   0  0.9908800E+08  0.9118800E+02  0.7818608E-02  0.1180000E+00
       11   -1    0    0    0    0  0.00000000000E+00  0.00000000000E+00  0.39999999673E+01  0.40000000000E+01  0.51109989000E-03 0.  1.
     -623   -1    0    0    0    0  0.00000000000E+00  0.00000000000E+00  0.12525980253E-10  0.17130000000E+03  0.17130000000E+03 0. -1.
       11    1    1    2    0    0  0.13862383308E-02  0.11058747536E-02  0.30690313743E-01  0.30745750836E-01  0.51109989000E-03 0.  1.
     -623    1    1    2    0    0 -0.32517380239E-02 -0.23823111992E-02  0.11986749197E-03  0.17130000005E+03  0.17130000000E+03 0. -1.
      622    1    1    2    0    0  0.18654996932E-02  0.12764364455E-02  0.39691897861E+01  0.39692542017E+01  0.22500000000E-01 0.  1.
</event>
<event>
 5   0  0.9908800E+08  0.9118800E+02  0.7818608E-02  0.1180000E+00
       11   -1    0    0    0    0  0.00000000000E+00  0.00000000000E+00  0.39999999673E+01  0.40000000000E+01  0.51109989000E-03 0. -1.
     -623   -1    0    0    0    0  0.00000000000E+00  0.00000000000E+00  0.12525980253E-10  0.17130000000E+03  0.17130000000E+03 0.  1.
       11    1    1    2    0    0 -0.98988883065E-02  0.93449752459E-03  0.74774400352E+00  0.74781028162E+00  0.51109989000E-03 0. -1.
     -623    1    1    2    0    0  0.16584507192E-02 -0.38119610659E-02  0.15584220084E-03  0.17130000005E+03  0.17130000000E+03 0.  1.
      622    1    1    2    0    0  0.82404375862E-02  0.28774635438E-02  0.32521001242E+01  0.32521896704E+01  0.22500000000E-01 0. -1.
</event>
<event>
 5   0  0.9908800E+08  0.9118800E+02  0.7818608E-02  0.1180000E+00
       11   -1    0    0    0    0  0.00000000000E+00  0.00000000000E+00  0.39999999673E+01  0.40000000000E+01  0.51109989000E-03 0.  1.
     -623   -1    0    0    0    0  0.00000000000E+00  0.00000000000E+00  0.12525980253E-10  0.17130000000E+03  0.17130000000E+03 0.  1.
       11    1    1    2    0    0 -0.58850960590E-03  0.32190813904E-02  0.59200532551E-01  0.59293111777E-01  0.51109989000E-03 0.  1.
     -623    1    1    2    0    0 -0.18339218226E-03 -0.25966485798E-02  0.15692511749E-03  0.17130000002E+03  0.17130000000E+03 0.  1.
      622    1    1    2    0    0  0.77190178817E-03 -0.62243281064E-03  0.39406425097E+01  0.39407068684E+01  0.22500000000E-01 0.  0.
</event>
<event>
 5   0  0.9908800E+08  0.9118800E+02  0.7818608E-02  0.1180000E+00
       11   -1    0    0    0    0  0.00000000000E+00  0.00000000000E+00  0.39999999673E+01  0.40000000000E+01  0.51109989000E-03 0.  1.
     -623   -1    0    0    0    0  0.00000000000E+00  0.00000000000E+00  0.12525980253E-10  0.17130000000E+03  0.17130000000E+03 0. -1.
       11    1    1    2    0    0  0.23492126206E-02  0.30307537196E-02  0.14281403428E+00  0.14286641969E+00  0.51109989000E-03 0.  1.
     -623    1    1    2    0    0  0.28614545014E-02 -0.65683736843E-03  0.12225388541E-03  0.17130000003E+03  0.17130000000E+03 0. -1.
      622    1    1    2    0    0 -0.52106671220E-02 -0.23739163512E-02  0.38570636792E+01  0.38571335551E+01  0.22500000000E-01 0.  1.
</event>
<event>
 5   0  0.9908800E+08  0.9118800E+02  0.7818608E-02  0.1180000E+00
       11   -1    0    0    0    0  0.00000000000E+00  0.00000000000E+00  0.39999999673E+01  0.40000000000E+01  0.51109989000E-03 0.  1.
     -623   -1    0    0    0    0  0.00000000000E+00  0.00000000000E+00  0.12525980253E-10  0.17130000000E+03  0.17130000000E+03 0. -1.
       11    1    1    2    0    0 -0.44947165754E-03  0.13519898278E-03  0.92480423516E-02  0.92740397870E-02  0.51109989000E-03 0.  1.
     -623    1    1    2    0    0  0.32881492039E-03  0.33171259945E-03  0.89423407181E-04  0.17130000000E+03  0.17130000000E+03 0. -1.
      622    1    1    2    0    0  0.12065673714E-03 -0.46691158224E-03  0.39906625017E+01  0.39907259597E+01  0.22500000000E-01 0.  1.
</event>
<event>
 5   0  0.9908800E+08  0.9118800E+02  0.7818608E-02  0.1180000E+00
       11   -1    0    0    0    0  0.00000000000E+00  0.00000000000E+00  0.39999999673E+01  0.40000000000E+01  0.51109989000E-03 0.  1.
     -623   -1    0    0    0    0  0.00000000000E+00  0.00000000000E+00  0.12525980253E-10  0.17130000000E+03  0.17130000000E+03 0. -1.
       11    1    1    2    0    0  0.71178998114E-03  0.12203609102E-01  0.48486684998E+00  0.48502119350E+00  0.51109989000E-03 0.  1.
     -623    1    1    2    0    0 -0.57546996265E-02 -0.84618658158E-02  0.23223988620E-03  0.17130000031E+03  0.17130000000E+03 0. -1.
      622    1    1    2    0    0  0.50429096468E-02 -0.37417432840E-02  0.35149008785E+01  0.35149785017E+01  0.22500000000E-01 0.  1.
</event>
<event>
 5   0  0.9908800E+08  0.9118800E+02  0.7818608E-02  0.1180000E+00
       11   -1    0    0    0    0  0.00000000000E+00  0.00000000000E+00  0.39999999673E+01  0.40000000000E+01  0.51109989000E-03 0. -1.
     -623   -1    0    0    0    0  0.00000000000E+00  0.00000000000E+00  0.12525980253E-10  0.17130000000E+03  0.17130000000E+03 0. -1.
       11    1    1    2    0    0  0.14515916571E-02  0.30065398978E-02  0.13954909135E+00  0.13958995851E+00  0.51109989000E-03 0. -1.
     -623    1    1    2    0    0  0.12419493696E-02 -0.36980811724E-03  0.10824966449E-03  0.17130000000E+03  0.17130000000E+03 0. -1.
      622    1    1    2    0    0 -0.26935410268E-02 -0.26367317805E-02  0.38603426263E+01  0.38604100366E+01  0.22500000000E-01 0. -1.
</event>
<event>
 5   0  0.9908800E+08  0.9118800E+02  0.7818608E-02  0.1180000E+00
       11   -1    0    0    0    0  0.00000000000E+00  0.00000000000E+00  0.39999999673E+01  0.40000000000E+01  0.51109989000E-03 0.  1.
     -623   -1    0    0    0    0  0.00000000000E+00  0.00000000000E+00  0.12525980253E-10  0.17130000000E+03  0.17130000000E+03 0. -1.
       11    1    1    2    0    0 -0.11524941598E-02 -0.16990232631E-05  0.18716864615E+00  0.18717289219E+00  0.51109989000E-03 0.  1.
     -623    1    1    2    0    0 -0.13222303646E-03  0.53050622051E-03  0.70855725798E-04  0.17130000000E+03  0.17130000000E+03 0. -1.
      622    1    1    2    0    0  0.12847171963E-02 -0.52880719753E-03  0.38127604676E+01  0.38128271091E+01  0.22500000000E-01 0.  1.
</event>
<event>
 5   0  0.9908800E+08  0.9118800E+02  0.7818608E-02  0.1180000E+00
       11   -1    0    0    0    0  0.00000000000E+00  0.00000000000E+00  0.39999999673E+01  0.40000000000E+01  0.51109989000E-03 0. -1.
     -623   -1    0    0    0    0  0.00000000000E+00  0.00000000000E+00  0.12525980253E-10  0.17130000000E+03  0.17130000000E+03 0. -1.
       11    1    1    2    0    0  0.25168515767E-03  0.14332276254E-03  0.13746776337E-01  0.13759322939E-01  0.51109989000E-03 0. -1.
     -623    1    1    2    0    0  0.46610151024E-04 -0.32931909146E-03  0.76029986219E-04  0.17130000000E+03  0.17130000000E+03 0. -1.
      622    1    1    2    0    0 -0.29829530870E-03  0.18599632892E-03  0.39861771610E+01  0.39862406767E+01  0.22500000000E-01 0. -1.
</event>
<event>
 5   0  0.9908800E+08  0.9118800E+02  0.7818608E-02  0.1180000E+00
       11   -1    0    0    0    0  0.00000000000E+00  0.00000000000E+00  0.39999999673E+01  0.40000000000E+01  0.51109989000E-03 0. -1.
     -623   -1    0    0    0    0  0.00000000000E+00  0.00000000000E+00  0.12525980253E-10  0.17130000000E+03  0.17130000000E+03 0.  1.
       11    1    1    2    0    0  0.12736657430E-02 -0.67215409631E-03  0.52956298076E-02  0.55117087832E-02  0.51109989000E-03 0. -1.
     -623    1    1    2    0    0 -0.26365163992E-02  0.26652745478E-02  0.28018641305E-03  0.17130000004E+03  0.17130000000E+03 0.  1.
      622    1    1    2    0    0  0.13628506559E-02 -0.19931204512E-02  0.39944241506E+01  0.39944882494E+01  0.22500000000E-01 0. -1.
</event>
<event>
 5   0  0.9908800E+08  0.9118800E+02  0.7818608E-02  0.1180000E+00
       11   -1    0    0    0    0  0.00000000000E+00  0.00000000000E+00  0.39999999673E+01  0.40000000000E+01  0.51109989000E-03 0. -1.
     -623   -1    0    0    0    0  0.00000000000E+00  0.00000000000E+00  0.12525980253E-10  0.17130000000E+03  0.17130000000E+03 0. -1.
       11    1    1    2    0    0  0.63869580838E-02  0.67622664276E-03  0.15957323495E+00  0.15970325310E+00  0.51109989000E-03 0. -1.
     -623    1    1    2    0    0  0.40645049205E-04  0.49276219776E-03  0.20145682168E-03  0.17130000000E+03  0.17130000000E+03 0. -1.
      622    1    1    2    0    0 -0.64276031330E-02 -0.11689888405E-02  0.38402252756E+01  0.38402967461E+01  0.22500000000E-01 0. -1.
</event>
<event>
 5   0  0.9908800E+08  0.9118800E+02  0.7818608E-02  0.1180000E+00
       11   -1    0    0    0    0  0.00000000000E+00  0.00000000000E+00  0.39999999673E+01  0.40000000000E+01  0.51109989000E-03 0. -1.
     -623   -1    0    0    0    0  0.00000000000E+00  0.00000000000E+00  0.12525980253E-10  0.17130000000E+03  0.17130000000E+03 0.  1.
       11    1    1    2    0    0 -0.22456822168E-03 -0.43424463304E-03  0.11732053084E-02  0.13699025808E-02  0.51109989000E-03 0.  1.
     -623    1    1    2    0    0  0.30259456459E-03 -0.14289627494E-03  0.26001099977E-03  0.17130000000E+03  0.17130000000E+03 0.  1.
      622    1    1    2    0    0 -0.78026343024E-04  0.57714090803E-03  0.39985667526E+01  0.39986300985E+01  0.22500000000E-01 0. -1.
</event>
<event>
 5   0  0.9908800E+08  0.9118800E+02  0.7818608E-02  0.1180000E+00
       11   -1    0    0    0    0  0.00000000000E+00  0.00000000000E+00  0.39999999673E+01  0.40000000000E+01  0.51109989000E-03 0. -1.
     -623   -1    0    0    0    0  0.00000000000E+00  0.00000000000E+00  0.12525980253E-10  0.17130000000E+03  0.17130000000E+03 0. -1.
       11    1    1    2    0    0 -0.12260447565E-02  0.22204286620E-02  0.66488167002E-02  0.71345270199E-02  0.51109989000E-03 0. -1.
     -623    1    1    2    0    0  0.21092504978E-02 -0.61905048630E-03  0.54950630271E-03  0.17130000001E+03  0.17130000000E+03 0. -1.
      622    1    1    2    0    0 -0.88320574142E-03 -0.16013781757E-02  0.39928016446E+01  0.39928654582E+01  0.22500000000E-01 0. -1.
</event>
<event>
 5   0  0.9908800E+08  0.9118800E+02  0.7818608E-02  0.1180000E+00
       11   -1    0    0    0    0  0.00000000000E+00  0.00000000000E+00  0.39999999673E+01  0.40000000000E+01  0.51109989000E-03 0.  1.
     -623   -1    0    0    0    0  0.00000000000E+00  0.00000000000E+00  0.12525980253E-10  0.17130000000E+03  0.17130000000E+03 0. -1.
       11    1    1    2    0    0 -0.34159340855E-03 -0.22364997852E-02  0.78399874347E-03  0.24483656739E-02  0.51109989000E-03 0.  1.
     -623    1    1    2    0    0  0.24296199457E-02  0.40539571864E-02  0.17286872012E-02  0.17130000007E+03  0.17130000000E+03 0. -1.
      622    1    1    2    0    0 -0.20880265372E-02 -0.18174574013E-02  0.39974872816E+01  0.39975515605E+01  0.22500000000E-01 0.  1.
</event>
<event>
 5   0  0.9908800E+08  0.9118800E+02  0.7818608E-02  0.1180000E+00
       11   -1    0    0    0    0  0.00000000000E+00  0.00000000000E+00  0.39999999673E+01  0.40000000000E+01  0.51109989000E-03 0. -1.
     -623   -1    0    0    0    0  0.00000000000E+00  0.00000000000E+00  0.12525980253E-10  0.17130000000E+03  0.17130000000E+03 0.  1.
       11    1    1    2    0    0 -0.29380771319E-02 -0.15412368442E-02  0.21022948630E+00  0.21025628610E+00  0.51109989000E-03 0. -1.
     -623    1    1    2    0    0  0.39817644876E-02  0.62879400736E-03  0.93860875676E-04  0.17130000005E+03  0.17130000000E+03 0.  1.
      622    1    1    2    0    0 -0.10436873543E-02  0.91244283706E-03  0.37896766188E+01  0.37897436651E+01  0.22500000000E-01 0. -1.
</event>
<event>
 5   0  0.9908800E+08  0.9118800E+02  0.7818608E-02  0.1180000E+00
       11   -1    0    0    0    0  0.00000000000E+00  0.00000000000E+00  0.39999999673E+01  0.40000000000E+01  0.51109989000E-03 0.  1.
     -623   -1    0    0    0    0  0.00000000000E+00  0.00000000000E+00  0.12525980253E-10  0.17130000000E+03  0.17130000000E+03 0.  1.
       11    1    1    2    0    0  0.64792872947E-02  0.89411323233E-02  0.10930152734E+00  0.10985904656E+00  0.51109989000E-03 0.  1.
     -623    1    1    2    0    0 -0.15223113607E-02 -0.75099341164E-04  0.63582516720E-03  0.17130000001E+03  0.17130000000E+03 0.  1.
      622    1    1    2    0    0 -0.49569759337E-02 -0.88660329821E-02  0.38900626153E+01  0.38901409460E+01  0.22500000000E-01 0.  1.
</event>
<event>
 5   0  0.9908800E+08  0.9118800E+02  0.7818608E-02  0.1180000E+00
       11   -1    0    0    0    0  0.00000000000E+00  0.00000000000E+00  0.39999999673E+01  0.40000000000E+01  0.51109989000E-03 0. -1.
     -623   -1    0    0    0    0  0.00000000000E+00  0.00000000000E+00  0.12525980253E-10  0.17130000000E+03  0.17130000000E+03 0. -1.
       11    1    1    2    0    0  0.45035265903E-02 -0.24093194755E-03  0.79950814130E+00  0.79952102476E+00  0.51109989000E-03 0. -1.
     -623    1    1    2    0    0  0.20780074409E-03  0.36887861949E-03  0.95412412363E-04  0.17130000000E+03  0.17130000000E+03 0. -1.
      622    1    1    2    0    0 -0.47113273344E-02 -0.12794667195E-03  0.32003964136E+01  0.32004789747E+01  0.22500000000E-01 0.  1.
</event>
<event>
 5   0  0.9908800E+08  0.9118800E+02  0.7818608E-02  0.1180000E+00
       11   -1    0    0    0    0  0.00000000000E+00  0.00000000000E+00  0.39999999673E+01  0.40000000000E+01  0.51109989000E-03 0.  1.
     -623   -1    0    0    0    0  0.00000000000E+00  0.00000000000E+00  0.12525980253E-10  0.17130000000E+03  0.17130000000E+03 0.  1.
       11    1    1    2    0    0  0.77167983401E-02  0.40114684504E-01  0.48325096953E+00  0.48497473920E+00  0.51109989000E-03 0.  1.
     -623    1    1    2    0    0  0.33728004070E-02  0.11448177235E-02  0.20554605042E-02  0.17130000005E+03  0.17130000000E+03 0.  1.
      622    1    1    2    0    0 -0.11089598747E-01 -0.41259502227E-01  0.35146935373E+01  0.35150252114E+01  0.22500000000E-01 0.  1.
</event>
<event>
 5   0  0.9908800E+08  0.9118800E+02  0.7818608E-02  0.1180000E+00
       11   -1    0    0    0    0  0.00000000000E+00  0.00000000000E+00  0.39999999673E+01  0.40000000000E+01  0.51109989000E-03 0.  1.
     -623   -1    0    0    0    0  0.00000000000E+00  0.00000000000E+00  0.12525980253E-10  0.17130000000E+03  0.17130000000E+03 0. -1.
       11    1    1    2    0    0 -0.22799017510E-03  0.14929681339E-02  0.34481532104E-02  0.37989363022E-02  0.51109989000E-03 0.  1.
     -623    1    1    2    0    0  0.27217380056E-03  0.65021118929E-03  0.41466926485E-03  0.17130000000E+03  0.17130000000E+03 0. -1.
      622    1    1    2    0    0 -0.44183625471E-04 -0.21431793232E-02  0.39961371449E+01  0.39962010618E+01  0.22500000000E-01 0.  1.
</event>
<event>
 5   0  0.9908800E+08  0.9118800E+02  0.7818608E-02  0.1180000E+00
       11   -1    0    0    0    0  0.00000000000E+00  0.00000000000E+00  0.39999999673E+01  0.40000000000E+01  0.51109989000E-03 0.  1.
     -623   -1    0    0    0    0  0.00000000000E+00  0.00000000000E+00  0.12525980253E-10  0.17130000000E+03  0.17130000000E+03 0.  1.
       11    1    1    2    0    0 -0.10109561263E-01 -0.14654872975E-01  0.53690670644E+00  0.53720204874E+00  0.51109989000E-03 0.  1.
     -623    1    1    2    0    0  0.17723021890E-01  0.80506210254E-02  0.38418310608E-03  0.17130000111E+03  0.17130000000E+03 0.  1.
      622    1    1    2    0    0 -0.76134606273E-02  0.66042519495E-02  0.34627090778E+01  0.34627968448E+01  0.22500000000E-01 0.  1.
</event>
<event>
 5   0  0.9908800E+08  0.9118800E+02  0.7818608E-02  0.1180000E+00
       11   -1    0    0    0    0  0.00000000000E+00  0.00000000000E+00  0.39999999673E+01  0.40000000000E+01  0.51109989000E-03 0. -1.
     -623   -1    0    0    0    0  0.00000000000E+00  0.00000000000E+00  0.12525980253E-10  0.17130000000E+03  0.17130000000E+03 0.  1.
       11    1    1    2    0    0 -0.36964446415E-02  0.33983465619E-02  0.10985762406E+00  0.10997350249E+00  0.51109989000E-03 0. -1.
     -623    1    1    2    0    0  0.21513351338E-02  0.22802375530E-03  0.18292752505E-03  0.17130000001E+03  0.17130000000E+03 0.  1.
      622    1    1    2    0    0  0.15451095078E-02 -0.36263703173E-02  0.38899594157E+01  0.38900264837E+01  0.22500000000E-01 0. -1.
</event>
<event>
 5   0  0.9908800E+08  0.9118800E+02  0.7818608E-02  0.1180000E+00
       11   -1    0    0    0    0  0.00000000000E+00  0.00000000000E+00  0.39999999673E+01  0.40000000000E+01  0.51109989000E-03 0. -1.
     -623   -1    0    0    0    0  0.00000000000E+00  0.00000000000E+00  0.12525980253E-10  0.17130000000E+03  0.17130000000E+03 0.  1.
       11    1    1    2    0    0  0.44568934669E-03 -0.16160849000E-02  0.13924008250E-01  0.14033873164E-01  0.51109989000E-03 0. -1.
     -623    1    1    2    0    0 -0.68527192491E-03 -0.52719037455E-03  0.17392253674E-03  0.17130000000E+03  0.17130000000E+03 0.  1.
      622    1    1    2    0    0  0.23958257823E-03  0.21432752745E-02  0.39859020366E+01  0.39859661246E+01  0.22500000000E-01 0. -1.
</event>
<event>
 5   0  0.9908800E+08  0.9118800E+02  0.7818608E-02  0.1180000E+00
       11   -1    0    0    0    0  0.00000000000E+00  0.00000000000E+00  0.39999999673E+01  0.40000000000E+01  0.51109989000E-03 0.  1.
     -623   -1    0    0    0    0  0.00000000000E+00  0.00000000000E+00  0.12525980253E-10  0.17130000000E+03  0.17130000000E+03 0.  1.
       11    1    1    2    0    0  0.12599196676E-02 -0.85945451665E-03  0.40963430284E-01  0.40994998492E-01  0.51109989000E-03 0.  1.
     -623    1    1    2    0    0  0.82401117760E-03  0.82477374007E-03  0.96025225479E-04  0.17130000000E+03  0.17130000000E+03 0.  1.
      622    1    1    2    0    0 -0.20839308452E-02  0.34680776579E-04  0.39589405118E+01  0.39590049975E+01  0.22500000000E-01 0.  1.
</event>
<event>
 5   0  0.9908800E+08  0.9118800E+02  0.7818608E-02  0.1180000E+00
       11   -1    0    0    0    0  0.00000000000E+00  0.00000000000E+00  0.39999999673E+01  0.40000000000E+01  0.51109989000E-03 0. -1.
     -623   -1    0    0    0    0  0.00000000000E+00  0.00000000000E+00  0.12525980253E-10  0.17130000000E+03  0.17130000000E+03 0.  1.
       11    1    1    2    0    0  0.14980150370E-01 -0.45791240730E-02  0.80520458673E+00  0.80535710154E+00  0.51109989000E-03 0. -1.
     -623    1    1    2    0    0  0.52309764813E-04 -0.34509466238E-02  0.27721379718E-03  0.17130000003E+03  0.17130000000E+03 0.  1.
      622    1    1    2    0    0 -0.15032460135E-01  0.80300706961E-02  0.31945181661E+01  0.31946428628E+01  0.22500000000E-01 0. -1.
</event>
<event>
 5   0  0.9908800E+08  0.9118800E+02  0.7818608E-02  0.1180000E+00
       11   -1    0    0    0    0  0.00000000000E+00  0.00000000000E+00  0.39999999673E+01  0.40000000000E+01  0.51109989000E-03 0. -1.
     -623   -1    0    0    0    0  0.00000000000E+00  0.00000000000E+00  0.12525980253E-10  0.17130000000E+03  0.17130000000E+03 0. -1.
       11    1    1    2    0    0 -0.35804306728E-02 -0.95126572886E-02  0.26860977109E+00  0.26880249344E+00  0.51109989000E-03 0. -1.
     -623    1    1    2    0    0 -0.40149549457E-02  0.17644251343E-02  0.27636292408E-03  0.17130000006E+03  0.17130000000E+03 0. -1.
      622    1    1    2    0    0  0.75953856186E-02  0.77482321543E-02  0.37311138333E+01  0.37311974502E+01  0.22500000000E-01 0. -1.
</event>
<event>
 5   0  0.9908800E+08  0.9118800E+02  0.7818608E-02  0.1180000E+00
       11   -1    0    0    0    0  0.00000000000E+00  0.00000000000E+00  0.39999999673E+01  0.40000000000E+01  0.51109989000E-03 0. -1.
     -623   -1    0    0    0    0  0.00000000000E+00  0.00000000000E+00  0.12525980253E-10  0.17130000000E+03  0.17130000000E+03 0. -1.
       11    1    1    2    0    0 -0.10620474483E-02  0.48217055917E-02  0.16730020375E+00  0.16737382169E+00  0.51109989000E-03 0. -1.
     -623    1    1    2    0    0  0.16271764285E-02 -0.19888899822E-03  0.14246824202E-03  0.17130000001E+03  0.17130000000E+03 0. -1.
      622    1    1    2    0    0 -0.56512898122E-03 -0.46228165933E-02  0.38325572980E+01  0.38326261730E+01  0.22500000000E-01 0. -1.
</event>
<event>
 5   0  0.9908800E+08  0.9118800E+02  0.7818608E-02  0.1180000E+00
       11   -1    0    0    0    0  0.00000000000E+00  0.00000000000E+00  0.39999999673E+01  0.40000000000E+01  0.51109989000E-03 0.  1.
     -623   -1    0    0    0    0  0.00000000000E+00  0.00000000000E+00  0.12525980253E-10  0.17130000000E+03  0.17130000000E+03 0. -1.
       11    1    1    2    0    0 -0.23372503936E-02 -0.22304795128E-02  0.78808899120E+00  0.78809577911E+00  0.51109989000E-03 0.  1.
     -623    1    1    2    0    0  0.26093445094E-03  0.15482352686E-03  0.86906746416E-04  0.17130000000E+03  0.17130000000E+03 0. -1.
      622    1    1    2    0    0  0.20763159427E-02  0.20756559859E-02  0.32118240697E+01  0.32119042209E+01  0.22500000000E-01 0.  1.
</event>
<event>
 5   0  0.9908800E+08  0.9118800E+02  0.7818608E-02  0.1180000E+00
       11   -1    0    0    0    0  0.00000000000E+00  0.00000000000E+00  0.39999999673E+01  0.40000000000E+01  0.51109989000E-03 0.  1.
     -623   -1    0    0    0    0  0.00000000000E+00  0.00000000000E+00  0.12525980253E-10  0.17130000000E+03  0.17130000000E+03 0. -1.
       11    1    1    2    0    0 -0.94200970712E-02 -0.14857893597E-02  0.10878092095E+01  0.10878511310E+01  0.51109989000E-03 0.  1.
     -623    1    1    2    0    0  0.10273210100E-01  0.52520135249E-02  0.13175959807E-03  0.17130000039E+03  0.17130000000E+03 0. -1.
      622    1    1    2    0    0 -0.85311302873E-03 -0.37662241651E-02  0.29120589983E+01  0.29121484803E+01  0.22500000000E-01 0.  1.
</event>
<event>
 5   0  0.9908800E+08  0.9118800E+02  0.7818608E-02  0.1180000E+00
       11   -1    0    0    0    0  0.00000000000E+00  0.00000000000E+00  0.39999999673E+01  0.40000000000E+01  0.51109989000E-03 0. -1.
     -623   -1    0    0    0    0  0.00000000000E+00  0.00000000000E+00  0.12525980253E-10  0.17130000000E+03  0.17130000000E+03 0. -1.
       11    1    1    2    0    0 -0.82151905929E-04 -0.51321416502E-02  0.81731102996E-01  0.81893711889E-01  0.51109989000E-03 0. -1.
     -623    1    1    2    0    0 -0.11641293110E-02  0.76858120661E-02  0.22838765046E-03  0.17130000018E+03  0.17130000000E+03 0. -1.
      622    1    1    2    0    0  0.12462812170E-02 -0.25536704162E-02  0.39180404769E+01  0.39181061117E+01  0.22500000000E-01 0. -1.
</event>
<event>
 5   0  0.9908800E+08  0.9118800E+02  0.7818608E-02  0.1180000E+00
       11   -1    0    0    0    0  0.00000000000E+00  0.00000000000E+00  0.39999999673E+01  0.40000000000E+01  0.51109989000E-03 0. -1.
     -623   -1    0    0    0    0  0.00000000000E+00  0.00000000000E+00  0.12525980253E-10  0.17130000000E+03  0.17130000000E+03 0. -1.
       11    1    1    2    0    0 -0.53801299078E-03  0.79037754110E-06  0.18856799995E-02  0.20264428838E-02  0.51109989000E-03 0.  1.
     -623    1    1    2    0    0 -0.30293083940E-03 -0.54982461025E-03  0.20417148676E-03  0.17130000000E+03  0.17130000000E+03 0. -1.
      622    1    1    2    0    0  0.84094383004E-03  0.54903423245E-03  0.39979101140E+01  0.39979735539E+01  0.22500000000E-01 0. -1.
</event>
<event>
 5   0  0.9908800E+08  0.9118800E+02  0.7818608E-02  0.1180000E+00
       11   -1    0    0    0    0  0.00000000000E+00  0.00000000000E+00  0.39999999673E+01  0.40000000000E+01  0.51109989000E-03 0. -1.
     -623   -1    0    0    0    0  0.00000000000E+00  0.00000000000E+00  0.12525980253E-10  0.17130000000E+03  0.17130000000E+03 0.  1.
       11    1    1    2    0    0 -0.13472536389E-02  0.16399891382E-02  0.56963170711E-01  0.57004988355E-01  0.51109989000E-03 0. -1.
     -623    1    1    2    0    0  0.18155486311E-02 -0.13139346525E-02  0.10603763462E-03  0.17130000001E+03  0.17130000000E+03 0.  1.
      622    1    1    2    0    0 -0.46829499357E-03 -0.32605448470E-03  0.39429307621E+01  0.39429950000E+01  0.22500000000E-01 0. -1.
</event>
<event>
 5   0  0.9908800E+08  0.9118800E+02  0.7818608E-02  0.1180000E+00
       11   -1    0    0    0    0  0.00000000000E+00  0.00000000000E+00  0.39999999673E+01  0.40000000000E+01  0.51109989000E-03 0. -1.
     -623   -1    0    0    0    0  0.00000000000E+00  0.00000000000E+00  0.12525980253E-10  0.17130000000E+03  0.17130000000E+03 0. -1.
       11    1    1    2    0    0  0.33662474975E-02  0.52498141014E-02  0.48363519636E+00  0.48367567289E+00  0.51109989000E-03 0. -1.
     -623    1    1    2    0    0 -0.42683082373E-02 -0.64035821887E-02  0.11290821702E-03  0.17130000017E+03  0.17130000000E+03 0. -1.
      622    1    1    2    0    0  0.90206073978E-03  0.11537680874E-02  0.35162518628E+01  0.35163241542E+01  0.22500000000E-01 0. -1.
</event>
<event>
 5   0  0.9908800E+08  0.9118800E+02  0.7818608E-02  0.1180000E+00
       11   -1    0    0    0    0  0.00000000000E+00  0.00000000000E+00  0.39999999673E+01  0.40000000000E+01  0.51109989000E-03 0.  1.
     -623   -1    0    0    0    0  0.00000000000E+00  0.00000000000E+00  0.12525980253E-10  0.17130000000E+03  0.17130000000E+03 0. -1.
       11    1    1    2    0    0  0.17823400182E-01  0.41381711448E-02  0.53201826157E+00  0.53233306296E+00  0.51109989000E-03 0.  1.
     -623    1    1    2    0    0 -0.29810427448E-03 -0.20886755109E-02  0.43267139746E-03  0.17130000001E+03  0.17130000000E+03 0. -1.
      622    1    1    2    0    0 -0.17525295908E-01 -0.20494956339E-02  0.34675490344E+01  0.34676669235E+01  0.22500000000E-01 0.  1.
</event>
<event>
 5   0  0.9908800E+08  0.9118800E+02  0.7818608E-02  0.1180000E+00
       11   -1    0    0    0    0  0.00000000000E+00  0.00000000000E+00  0.39999999673E+01  0.40000000000E+01  0.51109989000E-03 0.  1.
     -623   -1    0    0    0    0  0.00000000000E+00  0.00000000000E+00  0.12525980253E-10  0.17130000000E+03  0.17130000000E+03 0.  1.
       11    1    1    2    0    0  0.23453412937E-03 -0.52698182758E-02  0.78149376185E+00  0.78151173186E+00  0.51109989000E-03 0.  1.
     -623    1    1    2    0    0  0.96749742791E-03 -0.10342659787E-02  0.10298994565E-03  0.17130000001E+03  0.17130000000E+03 0.  1.
      622    1    1    2    0    0 -0.12020315570E-02  0.63040842542E-02  0.32184032145E+01  0.32184882612E+01  0.22500000000E-01 0.  1.
</event>
<event>
 5   0  0.9908800E+08  0.9118800E+02  0.7818608E-02  0.1180000E+00
       11   -1    0    0    0    0  0.00000000000E+00  0.00000000000E+00  0.39999999673E+01  0.40000000000E+01  0.51109989000E-03 0. -1.
     -623   -1    0    0    0    0  0.00000000000E+00  0.00000000000E+00  0.12525980253E-10  0.17130000000E+03  0.17130000000E+03 0. -1.
       11    1    1    2    0    0 -0.56317451126E-03 -0.29285552475E-03  0.53414865817E-02  0.54032982416E-02  0.51109989000E-03 0.  1.
     -623    1    1    2    0    0  0.17319098983E-02 -0.64138626509E-03  0.12543659879E-03  0.17130000001E+03  0.17130000000E+03 0. -1.
      622    1    1    2    0    0 -0.11687353862E-02  0.93424178953E-03  0.39945330422E+01  0.39945966898E+01  0.22500000000E-01 0. -1.
</event>
<event>
 5   0  0.9908800E+08  0.9118800E+02  0.7818608E-02  0.1180000E+00
       11   -1    0    0    0    0  0.00000000000E+00  0.00000000000E+00  0.39999999673E+01  0.40000000000E+01  0.51109989000E-03 0. -1.
     -623   -1    0    0    0    0  0.00000000000E+00  0.00000000000E+00  0.12525980253E-10  0.17130000000E+03  0.17130000000E+03 0.  1.
       11    1    1    2    0    0 -0.39351153867E-03  0.20335165949E-02  0.20399927485E-01  0.20511175078E-01  0.51109989000E-03 0. -1.
     -623    1    1    2    0    0  0.11526217011E-02 -0.13103170161E-02  0.17496997469E-03  0.17130000001E+03  0.17130000000E+03 0.  1.
      622    1    1    2    0    0 -0.75911016238E-03 -0.72319957882E-03  0.39794250699E+01  0.39794888159E+01  0.22500000000E-01 0. -1.
</event>
<event>
 5   0  0.9908800E+08  0.9118800E+02  0.7818608E-02  0.1180000E+00
       11   -1    0    0    0    0  0.00000000000E+00  0.00000000000E+00  0.39999999673E+01  0.40000000000E+01  0.51109989000E-03 0. -1.
     -623   -1    0    0    0    0  0.00000000000E+00  0.00000000000E+00  0.12525980253E-10  0.17130000000E+03  0.17130000000E+03 0.  1.
       11    1    1    2    0    0  0.26383725330E-03 -0.33323826706E-03  0.66512482579E-02  0.66843833865E-02  0.51109989000E-03 0. -1.
     -623    1    1    2    0    0 -0.26246090132E-03 -0.12270911324E-03  0.96516470093E-04  0.17130000000E+03  0.17130000000E+03 0.  1.
      622    1    1    2    0    0 -0.13763519829E-05  0.45594738031E-03  0.39932522026E+01  0.39933156163E+01  0.22500000000E-01 0. -1.
</event>
<event>
 5   0  0.9908800E+08  0.9118800E+02  0.7818608E-02  0.1180000E+00
       11   -1    0    0    0    0  0.00000000000E+00  0.00000000000E+00  0.39999999673E+01  0.40000000000E+01  0.51109989000E-03 0. -1.
     -623   -1    0    0    0    0  0.00000000000E+00  0.00000000000E+00  0.12525980253E-10  0.17130000000E+03  0.17130000000E+03 0. -1.
       11    1    1    2    0    0  0.31205029160E-02 -0.78330928804E-02  0.38720287218E+00  0.38729500426E+00  0.51109989000E-03 0. -1.
     -623    1    1    2    0    0 -0.13346004213E-02 -0.12157013544E-03  0.17136981023E-03  0.17130000001E+03  0.17130000000E+03 0. -1.
      622    1    1    2    0    0 -0.17859024947E-02  0.79546630159E-02  0.36126257254E+01  0.36127049904E+01  0.22500000000E-01 0. -1.
</event>
<event>
 5   0  0.9908800E+08  0.9118800E+02  0.7818608E-02  0.1180000E+00
       11   -1    0    0    0    0  0.00000000000E+00  0.00000000000E+00  0.39999999673E+01  0.40000000000E+01  0.51109989000E-03 0.  1.
     -623   -1    0    0    0    0  0.00000000000E+00  0.00000000000E+00  0.12525980253E-10  0.17130000000E+03  0.17130000000E+03 0.  1.
       11    1    1    2    0    0  0.78625552783E-04 -0.54063754081E-03  0.59211691041E-02  0.59682439283E-02  0.51109989000E-03 0.  1.
     -623    1    1    2    0    0 -0.11285868333E-02  0.11996410079E-04  0.11059524755E-03  0.17130000000E+03  0.17130000000E+03 0.  1.
      622    1    1    2    0    0  0.10499612805E-02  0.52864113073E-03  0.39939682030E+01  0.39940317523E+01  0.22500000000E-01 0.  1.
</event>
<event>
 5   0  0.9908800E+08  0.9118800E+02  0.7818608E-02  0.1180000E+00
       11   -1    0    0    0    0  0.00000000000E+00  0.00000000000E+00  0.39999999673E+01  0.40000000000E+01  0.51109989000E-03 0. -1.
     -623   -1    0    0    0    0  0.00000000000E+00  0.00000000000E+00  0.12525980253E-10  0.17130000000E+03  0.17130000000E+03 0. -1.
       11    1    1    2    0    0 -0.23652767717E-01  0.20925870670E-02  0.48002904776E+00  0.48061625052E+00  0.51109989000E-03 0. -1.
     -623    1    1    2    0    0  0.99792626641E-03 -0.14681780864E-02  0.73207878787E-03  0.17130000001E+03  0.17130000000E+03 0. -1.
      622    1    1    2    0    0  0.22654841451E-01 -0.62440898067E-03  0.35192388408E+01  0.35193837387E+01  0.22500000000E-01 0. -1.
</event>
<event>
 5   0  0.9908800E+08  0.9118800E+02  0.7818608E-02  0.1180000E+00
       11   -1    0    0    0    0  0.00000000000E+00  0.00000000000E+00  0.39999999673E+01  0.40000000000E+01  0.51109989000E-03 0. -1.
     -623   -1    0    0    0    0  0.00000000000E+00  0.00000000000E+00  0.12525980253E-10  0.17130000000E+03  0.17130000000E+03 0. -1.
       11    1    1    2    0    0 -0.64532128201E-03  0.40114689637E-02  0.14085693193E+00  0.14091644624E+00  0.51109989000E-03 0. -1.
     -623    1    1    2    0    0 -0.38433551264E-02 -0.92703933017E-03  0.12896308785E-03  0.17130000005E+03  0.17130000000E+03 0. -1.
      622    1    1    2    0    0  0.44886764108E-02 -0.30844296329E-02  0.38590140748E+01  0.38590835106E+01  0.22500000000E-01 0. -1.
</event>
<event>
 5   0  0.9908800E+08  0.9118800E+02  0.7818608E-02  0.1180000E+00
       11   -1    0    0    0    0  0.00000000000E+00  0.00000000000E+00  0.39999999673E+01  0.40000000000E+01  0.51109989000E-03 0.  1.
     -623   -1    0    0    0    0  0.00000000000E+00  0.00000000000E+00  0.12525980253E-10  0.17130000000E+03  0.17130000000E+03 0. -1.
       11    1    1    2    0    0  0.44151996685E-03 -0.53321781090E-02  0.53141612813E-01  0.53412725970E-01  0.51109989000E-03 0.  1.
     -623    1    1    2    0    0 -0.15970820323E-02  0.49507370525E-03  0.33836073244E-03  0.17130000001E+03  0.17130000000E+03 0. -1.
      622    1    1    2    0    0  0.11555620654E-02  0.48371044038E-02  0.39465199938E+01  0.39465872655E+01  0.22500000000E-01 0.  1.
</event>
<event>
 5   0  0.9908800E+08  0.9118800E+02  0.7818608E-02  0.1180000E+00
       11   -1    0    0    0    0  0.00000000000E+00  0.00000000000E+00  0.39999999673E+01  0.40000000000E+01  0.51109989000E-03 0.  1.
     -623   -1    0    0    0    0  0.00000000000E+00  0.00000000000E+00  0.12525980253E-10  0.17130000000E+03  0.17130000000E+03 0.  1.
       11    1    1    2    0    0 -0.16261345943E-03 -0.14021976962E-02  0.51282147193E-01  0.51304117235E-01  0.51109989000E-03 0.  1.
     -623    1    1    2    0    0 -0.59114814756E-03  0.63014716533E-03  0.86190986923E-04  0.17130000000E+03  0.17130000000E+03 0.  1.
      622    1    1    2    0    0  0.75376160676E-03  0.77205053108E-03  0.39486316277E+01  0.39486958790E+01  0.22500000000E-01 0.  1.
</event>
<event>
 5   0  0.9908800E+08  0.9118800E+02  0.7818608E-02  0.1180000E+00
       11   -1    0    0    0    0  0.00000000000E+00  0.00000000000E+00  0.39999999673E+01  0.40000000000E+01  0.51109989000E-03 0.  1.
     -623   -1    0    0    0    0  0.00000000000E+00  0.00000000000E+00  0.12525980253E-10  0.17130000000E+03  0.17130000000E+03 0.  1.
       11    1    1    2    0    0 -0.51604658205E-03  0.31251539884E-02  0.19171745447E-01  0.19438362537E-01  0.51109989000E-03 0.  1.
     -623    1    1    2    0    0 -0.44197290455E-03 -0.40525867943E-03  0.33122114674E-03  0.17130000000E+03  0.17130000000E+03 0.  1.
      622    1    1    2    0    0  0.95801948668E-03 -0.27198953089E-02  0.39804970014E+01  0.39805616368E+01  0.22500000000E-01 0.  1.
</event>
<event>
 5   0  0.9908800E+08  0.9118800E+02  0.7818608E-02  0.1180000E+00
       11   -1    0    0    0    0  0.00000000000E+00  0.00000000000E+00  0.39999999673E+01  0.40000000000E+01  0.51109989000E-03 0.  1.
     -623   -1    0    0    0    0  0.00000000000E+00  0.00000000000E+00  0.12525980253E-10  0.17130000000E+03  0.17130000000E+03 0.  1.
       11    1    1    2    0    0 -0.50640133786E-02 -0.50487273107E-02  0.10594720464E+01  0.10594963012E+01  0.51109989000E-03 0.  1.
     -623    1    1    2    0    0 -0.53731120035E-03  0.10581917982E-03  0.11979618686E-03  0.17130000000E+03  0.17130000000E+03 0.  1.
      622    1    1    2    0    0  0.56013245789E-02  0.49429081308E-02  0.29404081247E+01  0.29405036979E+01  0.22500000000E-01 0.  0.
</event>
<event>
 5   0  0.9908800E+08  0.9118800E+02  0.7818608E-02  0.1180000E+00
       11   -1    0    0    0    0  0.00000000000E+00  0.00000000000E+00  0.39999999673E+01  0.40000000000E+01  0.51109989000E-03 0.  1.
     -623   -1    0    0    0    0  0.00000000000E+00  0.00000000000E+00  0.12525980253E-10  0.17130000000E+03  0.17130000000E+03 0.  1.
       11    1    1    2    0    0 -0.51665190365E-03 -0.77441907573E-04  0.70356850307E-02  0.70735431989E-02  0.51109989000E-03 0.  1.
     -623    1    1    2    0    0  0.24970404110E-03 -0.11145170983E-03  0.10123302506E-03  0.17130000000E+03  0.17130000000E+03 0.  1.
      622    1    1    2    0    0  0.26694786250E-03  0.18889361742E-03  0.39928630500E+01  0.39929264573E+01  0.22500000000E-01 0.  1.
</event>
<event>
 5   0  0.9908800E+08  0.9118800E+02  0.7818608E-02  0.1180000E+00
       11   -1    0    0    0    0  0.00000000000E+00  0.00000000000E+00  0.39999999673E+01  0.40000000000E+01  0.51109989000E-03 0. -1.
     -623   -1    0    0    0    0  0.00000000000E+00  0.00000000000E+00  0.12525980253E-10  0.17130000000E+03  0.17130000000E+03 0.  1.
       11    1    1    2    0    0 -0.24876779866E-02  0.25904343452E-03  0.26464727502E-01  0.26587566044E-01  0.51109989000E-03 0. -1.
     -623    1    1    2    0    0 -0.13521258080E-03 -0.81406114172E-03  0.18741766771E-03  0.17130000000E+03  0.17130000000E+03 0.  1.
      622    1    1    2    0    0  0.26228905674E-02  0.55501770719E-03  0.39733478222E+01  0.39734124319E+01  0.22500000000E-01 0. -1.
</event>
<event>
 5   0  0.9908800E+08  0.9118800E+02  0.7818608E-02  0.1180000E+00
       11   -1    0    0    0    0  0.00000000000E+00  0.00000000000E+00  0.39999999673E+01  0.40000000000E+01  0.51109989000E-03 0. -1.
     -623   -1    0    0    0    0  0.00000000000E+00  0.00000000000E+00  0.12525980253E-10  0.17130000000E+03  0.17130000000E+03 0. -1.
       11    1    1    2    0    0 -0.39038426112E-03  0.32327424523E-02  0.15768362653E+00  0.15771807227E+00  0.51109989000E-03 0. -1.
     -623    1    1    2    0    0 -0.25751792926E-03 -0.55481953563E-02  0.10113487824E-03  0.17130000009E+03  0.17130000000E+03 0. -1.
      622    1    1    2    0    0  0.64790219060E-03  0.23154529087E-02  0.38422152093E+01  0.38422818410E+01  0.22500000000E-01 0. -1.
</event>
<event>
 5   0  0.9908800E+08  0.9118800E+02  0.7818608E-02  0.1180000E+00
       11   -1    0    0    0    0  0.00000000000E+00  0.00000000000E+00  0.39999999673E+01  0.40000000000E+01  0.51109989000E-03 0. -1.
     -623   -1    0    0    0    0  0.00000000000E+00  0.00000000000E+00  0.12525980253E-10  0.17130000000E+03  0.17130000000E+03 0. -1.
       11    1    1    2    0    0  0.63270044946E-02 -0.84245605903E-03  0.23639358322E-01  0.24491247478E-01  0.51109989000E-03 0. -1.
     -623    1    1    2    0    0 -0.12072476689E-02  0.19443165254E-02  0.91899530365E-03  0.17130000002E+03  0.17130000000E+03 0. -1.
      622    1    1    2    0    0 -0.51197568255E-02 -0.11018604667E-02  0.39754416143E+01  0.39755087353E+01  0.22500000000E-01 0. -1.
</event>
<event>
 5   0  0.9908800E+08  0.9118800E+02  0.7818608E-02  0.1180000E+00
       11   -1    0    0    0    0  0.00000000000E+00  0.00000000000E+00  0.39999999673E+01  0.40000000000E+01  0.51109989000E-03 0.  1.
     -623   -1    0    0    0    0  0.00000000000E+00  0.00000000000E+00  0.12525980253E-10  0.17130000000E+03  0.17130000000E+03 0.  1.
       11    1    1    2    0    0  0.45248565853E-03 -0.15327883734E-02  0.45767108351E-01  0.45797855991E-01  0.51109989000E-03 0.  1.
     -623    1    1    2    0    0 -0.43215126173E-03  0.52640903741E-03  0.94859196937E-04  0.17130000000E+03  0.17130000000E+03 0.  1.
      622    1    1    2    0    0 -0.20334396777E-04  0.10063793359E-02  0.39541380001E+01  0.39542021429E+01  0.22500000000E-01 0.  1.
</event>
<event>
 5   0  0.9908800E+08  0.9118800E+02  0.7818608E-02  0.1180000E+00
       11   -1    0    0    0    0  0.00000000000E+00  0.00000000000E+00  0.39999999673E+01  0.40000000000E+01  0.51109989000E-03 0.  1.
     -623   -1    0    0    0    0  0.00000000000E+00  0.00000000000E+00  0.12525980253E-10  0.17130000000E+03  0.17130000000E+03 0. -1.
       11    1    1    2    0    0 -0.14573000388E-02 -0.12545237519E-02  0.67562856409E+00  0.67563149378E+00  0.51109989000E-03 0.  1.
     -623    1    1    2    0    0  0.48208634665E-02 -0.13883943207E-02  0.81865939105E-04  0.17130000007E+03  0.17130000000E+03 0. -1.
      622    1    1    2    0    0 -0.33635634277E-02  0.26429180726E-02  0.33242895373E+01  0.33243684327E+01  0.22500000000E-01 0.  1.
</event>
<event>
 5   0  0.9908800E+08  0.9118800E+02  0.7818608E-02  0.1180000E+00
       11   -1    0    0    0    0  0.00000000000E+00  0.00000000000E+00  0.39999999673E+01  0.40000000000E+01  0.51109989000E-03 0.  1.
     -623   -1    0    0    0    0  0.00000000000E+00  0.00000000000E+00  0.12525980253E-10  0.17130000000E+03  0.17130000000E+03 0. -1.
       11    1    1    2    0    0 -0.81248047228E-02 -0.38721181534E-02  0.77717579142E-01  0.78238667432E-01  0.51109989000E-03 0.  1.
     -623    1    1    2    0    0  0.91894249356E-02 -0.19528062150E-02  0.59032893085E-03  0.17130000026E+03  0.17130000000E+03 0. -1.
      622    1    1    2    0    0 -0.10646202135E-02  0.58249243685E-02  0.39216920596E+01  0.39217610743E+01  0.22500000000E-01 0.  1.
</event>
<event>
 5   0  0.9908800E+08  0.9118800E+02  0.7818608E-02  0.1180000E+00
       11   -1    0    0    0    0  0.00000000000E+00  0.00000000000E+00  0.39999999673E+01  0.40000000000E+01  0.51109989000E-03 0.  1.
     -623   -1    0    0    0    0  0.00000000000E+00  0.00000000000E+00  0.12525980253E-10  0.17130000000E+03  0.17130000000E+03 0. -1.
       11    1    1    2    0    0  0.42810650825E-02  0.29849028915E-02  0.73699207475E-01  0.73885530162E-01  0.51109989000E-03 0.  1.
     -623    1    1    2    0    0 -0.13355708313E-02 -0.56498798250E-02  0.25287068815E-03  0.17130000010E+03  0.17130000000E+03 0. -1.
      622    1    1    2    0    0 -0.29454942512E-02  0.26649769335E-02  0.39260478892E+01  0.39261143713E+01  0.22500000000E-01 0.  1.
</event>
<event>
 5   0  0.9908800E+08  0.9118800E+02  0.7818608E-02  0.1180000E+00
       11   -1    0    0    0    0  0.00000000000E+00  0.00000000000E+00  0.39999999673E+01  0.40000000000E+01  0.51109989000E-03 0. -1.
     -623   -1    0    0    0    0  0.00000000000E+00  0.00000000000E+00  0.12525980253E-10  0.17130000000E+03  0.17130000000E+03 0.  1.
       11    1    1    2    0    0 -0.37516985113E-02  0.15939408968E-02  0.22701747354E-01  0.23070466912E-01  0.51109989000E-03 0. -1.
     -623    1    1    2    0    0  0.27314409877E-03 -0.11067037559E-02  0.43389130817E-03  0.17130000000E+03  0.17130000000E+03 0.  1.
      622    1    1    2    0    0  0.34785544126E-02 -0.48723714089E-03  0.39768643287E+01  0.39769295287E+01  0.22500000000E-01 0. -1.
</event>
<event>
 5   0  0.9908800E+08  0.9118800E+02  0.7818608E-02  0.1180000E+00
       11   -1    0    0    0    0  0.00000000000E+00  0.00000000000E+00  0.39999999673E+01  0.40000000000E+01  0.51109989000E-03 0. -1.
     -623   -1    0    0    0    0  0.00000000000E+00  0.00000000000E+00  0.12525980253E-10  0.17130000000E+03  0.17130000000E+03 0. -1.
       11    1    1    2    0    0 -0.25700592639E-02  0.11857994300E-02  0.10234790262E+00  0.10238830851E+00  0.51109989000E-03 0. -1.
     -623    1    1    2    0    0  0.74005806307E-03  0.58944626899E-03  0.10615395869E-03  0.17130000000E+03  0.17130000000E+03 0. -1.
      622    1    1    2    0    0  0.18300011999E-02 -0.17752456997E-02  0.38975459156E+01  0.38976116936E+01  0.22500000000E-01 0. -1.
</event>
<event>
 5   0  0.9908800E+08  0.9118800E+02  0.7818608E-02  0.1180000E+00
       11   -1    0    0    0    0  0.00000000000E+00  0.00000000000E+00  0.39999999673E+01  0.40000000000E+01  0.51109989000E-03 0.  1.
     -623   -1    0    0    0    0  0.00000000000E+00  0.00000000000E+00  0.12525980253E-10  0.17130000000E+03  0.17130000000E+03 0. -1.
       11    1    1    2    0    0 -0.13279585828E-02 -0.37012834925E-03  0.81195306359E-02  0.82515737374E-02  0.51109989000E-03 0.  1.
     -623    1    1    2    0    0 -0.64389432545E-05 -0.10725306932E-03  0.19567475934E-03  0.17130000000E+03  0.17130000000E+03 0. -1.
      622    1    1    2    0    0  0.13343975260E-02  0.47738141857E-03  0.39916847620E+01  0.39917484261E+01  0.22500000000E-01 0.  1.
</event>
<event>
 5   0  0.9908800E+08  0.9118800E+02  0.7818608E-02  0.1180000E+00
       11   -1    0    0    0    0  0.00000000000E+00  0.00000000000E+00  0.39999999673E+01  0.40000000000E+01  0.51109989000E-03 0.  1.
     -623   -1    0    0    0    0  0.00000000000E+00  0.00000000000E+00  0.12525980253E-10  0.17130000000E+03  0.17130000000E+03 0. -1.
       11    1    1    2    0    0  0.12245661155E-01  0.11001562248E-01  0.60250247774E+00  0.60272754002E+00  0.51109989000E-03 0.  1.
     -623    1    1    2    0    0  0.18166609967E-02 -0.14017211303E-01  0.33056554781E-03  0.17130000058E+03  0.17130000000E+03 0. -1.
      622    1    1    2    0    0 -0.14062322151E-01  0.30156490549E-02  0.33971669241E+01  0.33972718765E+01  0.22500000000E-01 0.  1.
</event>
<event>
 5   0  0.9908800E+08  0.9118800E+02  0.7818608E-02  0.1180000E+00
       11   -1    0    0    0    0  0.00000000000E+00  0.00000000000E+00  0.39999999673E+01  0.40000000000E+01  0.51109989000E-03 0.  1.
     -623   -1    0    0    0    0  0.00000000000E+00  0.00000000000E+00  0.12525980253E-10  0.17130000000E+03  0.17130000000E+03 0.  1.
       11    1    1    2    0    0  0.55690727082E-04  0.35913677645E-03  0.35080665106E-02  0.35636824707E-02  0.51109989000E-03 0.  1.
     -623    1    1    2    0    0  0.11842267649E-02 -0.26571497528E-03  0.11911928230E-03  0.17130000000E+03  0.17130000000E+03 0.  1.
      622    1    1    2    0    0 -0.12399174920E-02 -0.93421801176E-04  0.39963727816E+01  0.39964363132E+01  0.22500000000E-01 0.  1.
</event>
<event>
 5   0  0.9908800E+08  0.9118800E+02  0.7818608E-02  0.1180000E+00
       11   -1    0    0    0    0  0.00000000000E+00  0.00000000000E+00  0.39999999673E+01  0.40000000000E+01  0.51109989000E-03 0. -1.
     -623   -1    0    0    0    0  0.00000000000E+00  0.00000000000E+00  0.12525980253E-10  0.17130000000E+03  0.17130000000E+03 0. -1.
       11    1    1    2    0    0  0.82574120543E-03 -0.32172324438E-02  0.24261932498E+00  0.24264259830E+00  0.51109989000E-03 0. -1.
     -623    1    1    2    0    0  0.87432349013E-03  0.81436435231E-03  0.91766253790E-04  0.17130000000E+03  0.17130000000E+03 0. -1.
      622    1    1    2    0    0 -0.17000646956E-02  0.24028680915E-02  0.37572888761E+01  0.37573573975E+01  0.22500000000E-01 0. -1.
</event>
<event>
 5   0  0.9908800E+08  0.9118800E+02  0.7818608E-02  0.1180000E+00
       11   -1    0    0    0    0  0.00000000000E+00  0.00000000000E+00  0.39999999673E+01  0.40000000000E+01  0.51109989000E-03 0.  1.
     -623   -1    0    0    0    0  0.00000000000E+00  0.00000000000E+00  0.12525980253E-10  0.17130000000E+03  0.17130000000E+03 0. -1.
       11    1    1    2    0    0 -0.10835449387E-02  0.71909759730E-02  0.19653888829E+00  0.19667404516E+00  0.51109989000E-03 0.  1.
     -623    1    1    2    0    0  0.34087713272E-02 -0.27897175535E-02  0.20499259427E-03  0.17130000006E+03  0.17130000000E+03 0. -1.
      622    1    1    2    0    0 -0.23252263901E-02 -0.44012584182E-02  0.38032560884E+01  0.38033259000E+01  0.22500000000E-01 0.  1.
</event>
<event>
 5   0  0.9908800E+08  0.9118800E+02  0.7818608E-02  0.1180000E+00
       11   -1    0    0    0    0  0.00000000000E+00  0.00000000000E+00  0.39999999673E+01  0.40000000000E+01  0.51109989000E-03 0. -1.
     -623   -1    0    0    0    0  0.00000000000E+00  0.00000000000E+00  0.12525980253E-10  0.17130000000E+03  0.17130000000E+03 0. -1.
       11    1    1    2    0    0 -0.52767027318E-02 -0.25331656900E-02  0.32072932880E+00  0.32078314185E+00  0.51109989000E-03 0. -1.
     -623    1    1    2    0    0  0.89071663792E-04  0.21863882488E-03  0.12696520381E-03  0.17130000000E+03  0.17130000000E+03 0. -1.
      622    1    1    2    0    0  0.51876310679E-02  0.23145268649E-02  0.36791436773E+01  0.36792168619E+01  0.22500000000E-01 0. -1.
</event>
<event>
 5   0  0.9908800E+08  0.9118800E+02  0.7818608E-02  0.1180000E+00
       11   -1    0    0    0    0  0.00000000000E+00  0.00000000000E+00  0.39999999673E+01  0.40000000000E+01  0.51109989000E-03 0. -1.
     -623   -1    0    0    0    0  0.00000000000E+00  0.00000000000E+00  0.12525980253E-10  0.17130000000E+03  0.17130000000E+03 0.  1.
       11    1    1    2    0    0 -0.10952385322E-04  0.27134040068E-02  0.93818071088E-01  0.93858693614E-01  0.51109989000E-03 0. -1.
     -623    1    1    2    0    0 -0.12155684711E-02 -0.44664391843E-02  0.10604074654E-03  0.17130000006E+03  0.17130000000E+03 0.  1.
      622    1    1    2    0    0  0.12265208571E-02  0.17530351799E-02  0.39060758577E+01  0.39061412460E+01  0.22500000000E-01 0. -1.
</event>
<event>
 5   0  0.9908800E+08  0.9118800E+02  0.7818608E-02  0.1180000E+00
       11   -1    0    0    0    0  0.00000000000E+00  0.00000000000E+00  0.39999999673E+01  0.40000000000E+01  0.51109989000E-03 0. -1.
     -623   -1    0    0    0    0  0.00000000000E+00  0.00000000000E+00  0.12525980253E-10  0.17130000000E+03  0.17130000000E+03 0. -1.
       11    1    1    2    0    0 -0.15641165339E-02 -0.71500328538E-02  0.29068952597E+00  0.29078210255E+00  0.51109989000E-03 0. -1.
     -623    1    1    2    0    0  0.75018920534E-02 -0.80869138456E-02  0.19719109523E-03  0.17130000036E+03  0.17130000000E+03 0. -1.
      622    1    1    2    0    0 -0.59377755219E-02  0.15236946702E-01  0.37091132516E+01  0.37092175434E+01  0.22500000000E-01 0. -1.
</event>
<event>
 5   0  0.9908800E+08  0.9118800E+02  0.7818608E-02  0.1180000E+00
       11   -1    0    0    0    0  0.00000000000E+00  0.00000000000E+00  0.39999999673E+01  0.40000000000E+01  0.51109989000E-03 0. -1.
     -623   -1    0    0    0    0  0.00000000000E+00  0.00000000000E+00  0.12525980253E-10  0.17130000000E+03  0.17130000000E+03 0. -1.
       11    1    1    2    0    0  0.22940949861E-02 -0.41286659263E-02  0.12140198281E+00  0.12149490279E+00  0.51109989000E-03 0. -1.
     -623    1    1    2    0    0  0.88108500341E-03  0.12382141878E-01  0.16868290495E-03  0.17130000045E+03  0.17130000000E+03 0. -1.
      622    1    1    2    0    0 -0.31751799895E-02 -0.82534759519E-02  0.38784293016E+01  0.38785046473E+01  0.22500000000E-01 0. -1.
</event>
<event>
 5   0  0.9908800E+08  0.9118800E+02  0.7818608E-02  0.1180000E+00
       11   -1    0    0    0    0  0.00000000000E+00  0.00000000000E+00  0.39999999673E+01  0.40000000000E+01  0.51109989000E-03 0.  1.
     -623   -1    0    0    0    0  0.00000000000E+00  0.00000000000E+00  0.12525980253E-10  0.17130000000E+03  0.17130000000E+03 0.  1.
       11    1    1    2    0    0 -0.14023081339E-02 -0.28615524208E-02  0.12996789978E-01  0.13391516836E-01  0.51109989000E-03 0.  1.
     -623    1    1    2    0    0  0.86219431583E-03  0.32760018601E-02  0.45828078485E-03  0.17130000003E+03  0.17130000000E+03 0.  1.
      622    1    1    2    0    0  0.54011381785E-03 -0.41444944004E-03  0.39865448976E+01  0.39866084500E+01  0.22500000000E-01 0.  1.
</event>
<event>
 5   0  0.9908800E+08  0.9118800E+02  0.7818608E-02  0.1180000E+00
       11   -1    0    0    0    0  0.00000000000E+00  0.00000000000E+00  0.39999999673E+01  0.40000000000E+01  0.51109989000E-03 0.  1.
     -623   -1    0    0    0    0  0.00000000000E+00  0.00000000000E+00  0.12525980253E-10  0.17130000000E+03  0.17130000000E+03 0. -1.
       11    1    1    2    0    0  0.69894001256E-03 -0.39425168234E-03  0.33784486204E+00  0.33784620167E+00  0.51109989000E-03 0.  1.
     -623    1    1    2    0    0  0.16245649426E-03  0.13587178157E-03  0.70537370869E-04  0.17130000000E+03  0.17130000000E+03 0. -1.
      622    1    1    2    0    0 -0.86139650709E-03  0.25837990054E-03  0.36620845747E+01  0.36621538050E+01  0.22500000000E-01 0.  1.
</event>
<event>
 5   0  0.9908800E+08  0.9118800E+02  0.7818608E-02  0.1180000E+00
       11   -1    0    0    0    0  0.00000000000E+00  0.00000000000E+00  0.39999999673E+01  0.40000000000E+01  0.51109989000E-03 0. -1.
     -623   -1    0    0    0    0  0.00000000000E+00  0.00000000000E+00  0.12525980253E-10  0.17130000000E+03  0.17130000000E+03 0. -1.
       11    1    1    2    0    0 -0.34563629825E-02 -0.26692008215E-02  0.19681642988E-01  0.20166788807E-01  0.51109989000E-03 0. -1.
     -623    1    1    2    0    0  0.78003140652E-03 -0.21303299371E-02  0.55252548353E-03  0.17130000002E+03  0.17130000000E+03 0. -1.
      622    1    1    2    0    0  0.26763315760E-02  0.47995307586E-02  0.39797657989E+01  0.39798331953E+01  0.22500000000E-01 0. -1.
</event>
<event>
 5   0  0.9908800E+08  0.9118800E+02  0.7818608E-02  0.1180000E+00
       11   -1    0    0    0    0  0.00000000000E+00  0.00000000000E+00  0.39999999673E+01  0.40000000000E+01  0.51109989000E-03 0.  1.
     -623   -1    0    0    0    0  0.00000000000E+00  0.00000000000E+00  0.12525980253E-10  0.17130000000E+03  0.17130000000E+03 0. -1.
       11    1    1    2    0    0  0.14805338157E-02 -0.10394559284E-02  0.12567033808E+00  0.12568439658E+00  0.51109989000E-03 0.  1.
     -623    1    1    2    0    0  0.10879322951E-03  0.69035852937E-03  0.79703689678E-04  0.17130000000E+03  0.17130000000E+03 0. -1.
      622    1    1    2    0    0 -0.15893270453E-02  0.34909739907E-03  0.38742499256E+01  0.38743156020E+01  0.22500000000E-01 0.  1.
</event>
<event>
 5   0  0.9908800E+08  0.9118800E+02  0.7818608E-02  0.1180000E+00
       11   -1    0    0    0    0  0.00000000000E+00  0.00000000000E+00  0.39999999673E+01  0.40000000000E+01  0.51109989000E-03 0. -1.
     -623   -1    0    0    0    0  0.00000000000E+00  0.00000000000E+00  0.12525980253E-10  0.17130000000E+03  0.17130000000E+03 0.  1.
       11    1    1    2    0    0  0.19801946940E-01  0.84589528755E-02  0.37025039092E+00  0.37087637318E+00  0.51109989000E-03 0. -1.
     -623    1    1    2    0    0  0.12704063989E-02  0.52852244608E-02  0.78299306444E-03  0.17130000009E+03  0.17130000000E+03 0.  1.
      622    1    1    2    0    0 -0.21072353340E-01 -0.13744177337E-01  0.36289665841E+01  0.36291235395E+01  0.22500000000E-01 0. -1.
</event>
<event>
 5   0  0.9908800E+08  0.9118800E+02  0.7818608E-02  0.1180000E+00
       11   -1    0    0    0    0  0.00000000000E+00  0.00000000000E+00  0.39999999673E+01  0.40000000000E+01  0.51109989000E-03 0.  1.
     -623   -1    0    0    0    0  0.00000000000E+00  0.00000000000E+00  0.12525980253E-10  0.17130000000E+03  0.17130000000E+03 0.  1.
       11    1    1    2    0    0 -0.92785368723E-03 -0.19273358196E-02  0.73252408745E-01  0.73285415642E-01  0.51109989000E-03 0.  1.
     -623    1    1    2    0    0 -0.76550268434E-04 -0.45555639872E-05  0.98040816393E-04  0.17130000000E+03  0.17130000000E+03 0.  1.
      622    1    1    2    0    0  0.10044039557E-02  0.19318913836E-02  0.39266495178E+01  0.39267145843E+01  0.22500000000E-01 0.  1.
</event>
<event>
 5   0  0.9908800E+08  0.9118800E+02  0.7818608E-02  0.1180000E+00
       11   -1    0    0    0    0  0.00000000000E+00  0.00000000000E+00  0.39999999673E+01  0.40000000000E+01  0.51109989000E-03 0. -1.
     -623   -1    0    0    0    0  0.00000000000E+00  0.00000000000E+00  0.12525980253E-10  0.17130000000E+03  0.17130000000E+03 0.  1.
       11    1    1    2    0    0 -0.50144183438E-02  0.67061226921E-02  0.56415994239E-01  0.57036322638E-01  0.51109989000E-03 0. -1.
     -623    1    1    2    0    0  0.59373993331E-02 -0.57322191281E-02  0.68492140218E-03  0.17130000020E+03  0.17130000000E+03 0.  1.
      622    1    1    2    0    0 -0.92298098930E-03 -0.97390356399E-03  0.39428990517E+01  0.39429634772E+01  0.22500000000E-01 0. -1.
</event>
<event>
 5   0  0.9908800E+08  0.9118800E+02  0.7818608E-02  0.1180000E+00
       11   -1    0    0    0    0  0.00000000000E+00  0.00000000000E+00  0.39999999673E+01  0.40000000000E+01  0.51109989000E-03 0.  1.
     -623   -1    0    0    0    0  0.00000000000E+00  0.00000000000E+00  0.12525980253E-10  0.17130000000E+03  0.17130000000E+03 0. -1.
       11    1    1    2    0    0  0.15429326536E-02  0.96931798951E-03  0.10356926915E+00  0.10358655779E+00  0.51109989000E-03 0.  1.
     -623    1    1    2    0    0 -0.69375526677E-04  0.12715053402E-03  0.82653126967E-04  0.17130000000E+03  0.17130000000E+03 0. -1.
      622    1    1    2    0    0 -0.14735571269E-02 -0.10964685235E-02  0.38963480452E+01  0.38964134422E+01  0.22500000000E-01 0.  1.
</event>
<event>
 5   0  0.9908800E+08  0.9118800E+02  0.7818608E-02  0.1180000E+00
       11   -1    0    0    0    0  0.00000000000E+00  0.00000000000E+00  0.39999999673E+01  0.40000000000E+01  0.51109989000E-03 0. -1.
     -623   -1    0    0    0    0  0.00000000000E+00  0.00000000000E+00  0.12525980253E-10  0.17130000000E+03  0.17130000000E+03 0.  1.
       11    1    1    2    0    0 -0.44501740116E-03 -0.11195132338E-02  0.12188872385E-01  0.12258922535E-01  0.51109989000E-03 0. -1.
     -623    1    1    2    0    0  0.15193705352E-02  0.16324009172E-02  0.13368607795E-03  0.17130000001E+03  0.17130000000E+03 0.  1.
      622    1    1    2    0    0 -0.10743531340E-02 -0.51288768342E-03  0.39876774089E+01  0.39877410629E+01  0.22500000000E-01 0. -1.
</event>
<event>
 5   0  0.9908800E+08  0.9118800E+02  0.7818608E-02  0.1180000E+00
       11   -1    0    0    0    0  0.00000000000E+00  0.00000000000E+00  0.39999999673E+01  0.40000000000E+01  0.51109989000E-03 0. -1.
     -623   -1    0    0    0    0  0.00000000000E+00  0.00000000000E+00  0.12525980253E-10  0.17130000000E+03  0.17130000000E+03 0.  1.
       11    1    1    2    0    0  0.62763422558E-03 -0.53278868237E-03  0.78347070449E-01  0.78353062850E-01  0.51109989000E-03 0. -1.
     -623    1    1    2    0    0 -0.39426138209E-03  0.71881372512E-02  0.76311537026E-04  0.17130000015E+03  0.17130000000E+03 0.  1.
      622    1    1    2    0    0 -0.23337284349E-03 -0.66553485688E-02  0.39215765854E+01  0.39216467859E+01  0.22500000000E-01 0. -1.
</event>
<event>
 5   0  0.9908800E+08  0.9118800E+02  0.7818608E-02  0.1180000E+00
       11   -1    0    0    0    0  0.00000000000E+00  0.00000000000E+00  0.39999999673E+01  0.40000000000E+01  0.51109989000E-03 0.  1.
     -623   -1    0    0    0    0  0.00000000000E+00  0.00000000000E+00  0.12525980253E-10  0.17130000000E+03  0.17130000000E+03 0. -1.
       11    1    1    2    0    0  0.13369271140E-02 -0.20819916044E-02  0.14297555532E+00  0.14299787657E+00  0.51109989000E-03 0.  1.
     -623    1    1    2    0    0 -0.69611785650E-02  0.26305886241E-02  0.92217939653E-04  0.17130000016E+03  0.17130000000E+03 0. -1.
      622    1    1    2    0    0  0.56242514510E-02 -0.54859701967E-03  0.38569321941E+01  0.38570019618E+01  0.22500000000E-01 0.  1.
</event>
<event>
 5   0  0.9908800E+08  0.9118800E+02  0.7818608E-02  0.1180000E+00
       11   -1    0    0    0    0  0.00000000000E+00  0.00000000000E+00  0.39999999673E+01  0.40000000000E+01  0.51109989000E-03 0.  1.
     -623   -1    0    0    0    0  0.00000000000E+00  0.00000000000E+00  0.12525980253E-10  0.17130000000E+03  0.17130000000E+03 0. -1.
       11    1    1    2    0    0  0.59835209744E-02  0.58841418518E-02  0.11399296895E+00  0.11430259770E+00  0.51109989000E-03 0.  1.
     -623    1    1    2    0    0 -0.11967772480E-02  0.21758902960E-03  0.38248344449E-03  0.17130000000E+03  0.17130000000E+03 0. -1.
      622    1    1    2    0    0 -0.47867437259E-02 -0.61017308814E-02  0.38856245166E+01  0.38856973992E+01  0.22500000000E-01 0.  1.
</event>
<event>
 5   0  0.9908800E+08  0.9118800E+02  0.7818608E-02  0.1180000E+00
       11   -1    0    0    0    0  0.00000000000E+00  0.00000000000E+00  0.39999999673E+01  0.40000000000E+01  0.51109989000E-03 0. -1.
     -623   -1    0    0    0    0  0.00000000000E+00  0.00000000000E+00  0.12525980253E-10  0.17130000000E+03  0.17130000000E+03 0. -1.
       11    1    1    2    0    0 -0.16874102477E-01  0.37302225862E-01  0.11318142471E+01  0.11325546091E+01  0.51109989000E-03 0. -1.
     -623    1    1    2    0    0  0.22707357253E-01 -0.19019604462E-01  0.89538985647E-03  0.17130000256E+03  0.17130000000E+03 0. -1.
      622    1    1    2    0    0 -0.58332547760E-02 -0.18282621400E-01  0.28672903304E+01  0.28674428277E+01  0.22500000000E-01 0. -1.
</event>
<event>
 5   0  0.9908800E+08  0.9118800E+02  0.7818608E-02  0.1180000E+00
       11   -1    0    0    0    0  0.00000000000E+00  0.00000000000E+00  0.39999999673E+01  0.40000000000E+01  0.51109989000E-03 0.  1.
     -623   -1    0    0    0    0  0.00000000000E+00  0.00000000000E+00  0.12525980253E-10  0.17130000000E+03  0.17130000000E+03 0. -1.
       11    1    1    2    0    0 -0.15153981048E-02  0.11299336607E-02  0.14686974044E-01  0.14816936527E-01  0.51109989000E-03 0.  1.
     -623    1    1    2    0    0  0.25688124198E-02 -0.75653281885E-04  0.19374495190E-03  0.17130000002E+03  0.17130000000E+03 0. -1.
      622    1    1    2    0    0 -0.10534143151E-02 -0.10542803788E-02  0.39851192484E+01  0.39851830441E+01  0.22500000000E-01 0.  1.
</event>
<event>
 5   0  0.9908800E+08  0.9118800E+02  0.7818608E-02  0.1180000E+00
       11   -1    0    0    0    0  0.00000000000E+00  0.00000000000E+00  0.39999999673E+01  0.40000000000E+01  0.51109989000E-03 0. -1.
     -623   -1    0    0    0    0  0.00000000000E+00  0.00000000000E+00  0.12525980253E-10  0.17130000000E+03  0.17130000000E+03 0. -1.
       11    1    1    2    0    0 -0.54645623287E-02  0.21118053712E-02  0.10297500195E-01  0.11858368127E-01  0.51109989000E-03 0. -1.
     -623    1    1    2    0    0  0.39382403873E-02 -0.20109749238E-02  0.16246633399E-02  0.17130000006E+03  0.17130000000E+03 0. -1.
      622    1    1    2    0    0  0.15263219414E-02 -0.10083044745E-03  0.39880778038E+01  0.39881415671E+01  0.22500000000E-01 0. -1.
</event>
<event>
 5   0  0.9908800E+08  0.9118800E+02  0.7818608E-02  0.1180000E+00
       11   -1    0    0    0    0  0.00000000000E+00  0.00000000000E+00  0.39999999673E+01  0.40000000000E+01  0.51109989000E-03 0.  1.
     -623   -1    0    0    0    0  0.00000000000E+00  0.00000000000E+00  0.12525980253E-10  0.17130000000E+03  0.17130000000E+03 0. -1.
       11    1    1    2    0    0 -0.14344597876E-03  0.38814881833E-02  0.21649088425E-01  0.22000699524E-01  0.51109989000E-03 0.  1.
     -623    1    1    2    0    0  0.12896535748E-02 -0.45100363094E-02  0.41548972354E-03  0.17130000006E+03  0.17130000000E+03 0. -1.
      622    1    1    2    0    0 -0.11462075960E-02  0.62854812612E-03  0.39779353892E+01  0.39779992357E+01  0.22500000000E-01 0.  1.
</event>
<event>
 5   0  0.9908800E+08  0.9118800E+02  0.7818608E-02  0.1180000E+00
       11   -1    0    0    0    0  0.00000000000E+00  0.00000000000E+00  0.39999999673E+01  0.40000000000E+01  0.51109989000E-03 0.  1.
     -623   -1    0    0    0    0  0.00000000000E+00  0.00000000000E+00  0.12525980253E-10  0.17130000000E+03  0.17130000000E+03 0.  1.
       11    1    1    2    0    0 -0.33378871719E-02  0.42389180226E-02  0.11764618361E+00  0.11777094572E+00  0.51109989000E-03 0.  1.
     -623    1    1    2    0    0 -0.33896559046E-02 -0.30348973548E-02  0.19600741047E-03  0.17130000006E+03  0.17130000000E+03 0.  1.
      622    1    1    2    0    0  0.67275430766E-02 -0.12040206679E-02  0.38821577763E+01  0.38822289938E+01  0.22500000000E-01 0.  1.
</event>
<event>
 5   0  0.9908800E+08  0.9118800E+02  0.7818608E-02  0.1180000E+00
       11   -1    0    0    0    0  0.00000000000E+00  0.00000000000E+00  0.39999999673E+01  0.40000000000E+01  0.51109989000E-03 0.  1.
     -623   -1    0    0    0    0  0.00000000000E+00  0.00000000000E+00  0.12525980253E-10  0.17130000000E+03  0.17130000000E+03 0.  1.
       11    1    1    2    0    0  0.30391203803E-02  0.14227162859E-02  0.88669663751E-02  0.94944556965E-02  0.51109989000E-03 0.  1.
     -623    1    1    2    0    0 -0.43365521258E-02 -0.25835790366E-03  0.69132627209E-03  0.17130000006E+03  0.17130000000E+03 0.  1.
      622    1    1    2    0    0  0.12974317455E-02 -0.11643583822E-02  0.39904416747E+01  0.39905054878E+01  0.22500000000E-01 0.  1.
</event>
<event>
 5   0  0.9908800E+08  0.9118800E+02  0.7818608E-02  0.1180000E+00
       11   -1    0    0    0    0  0.00000000000E+00  0.00000000000E+00  0.39999999673E+01  0.40000000000E+01  0.51109989000E-03 0. -1.
     -623   -1    0    0    0    0  0.00000000000E+00  0.00000000000E+00  0.12525980253E-10  0.17130000000E+03  0.17130000000E+03 0.  1.
       11    1    1    2    0    0  0.12107921248E-02  0.23861141430E-03  0.63729824189E-01  0.63743820604E-01  0.51109989000E-03 0. -1.
     -623    1    1    2    0    0 -0.33843852248E-03  0.26461254775E-03  0.78399719016E-04  0.17130000000E+03  0.17130000000E+03 0.  1.
      622    1    1    2    0    0 -0.87235360229E-03 -0.50322396205E-03  0.39361917435E+01  0.39362561788E+01  0.22500000000E-01 0. -1.
</event>
<event>
 5   0  0.9908800E+08  0.9118800E+02  0.7818608E-02  0.1180000E+00
       11   -1    0    0    0    0  0.00000000000E+00  0.00000000000E+00  0.39999999673E+01  0.40000000000E+01  0.51109989000E-03 0. -1.
     -623   -1    0    0    0    0  0.00000000000E+00  0.00000000000E+00  0.12525980253E-10  0.17130000000E+03  0.17130000000E+03 0. -1.
       11    1    1    2    0    0 -0.69015074380E-02  0.17171662119E-02  0.21844732285E+00  0.21856366016E+00  0.51109989000E-03 0. -1.
     -623    1    1    2    0    0 -0.10674256009E-02 -0.86776536253E-03  0.19174210471E-03  0.17130000001E+03  0.17130000000E+03 0. -1.
      622    1    1    2    0    0  0.79689330389E-02 -0.84940084941E-03  0.37813609024E+01  0.37814363342E+01  0.22500000000E-01 0. -1.
</event>
<event>
 5   0  0.9908800E+08  0.9118800E+02  0.7818608E-02  0.1180000E+00
       11   -1    0    0    0    0  0.00000000000E+00  0.00000000000E+00  0.39999999673E+01  0.40000000000E+01  0.51109989000E-03 0. -1.
     -623   -1    0    0    0    0  0.00000000000E+00  0.00000000000E+00  0.12525980253E-10  0.17130000000E+03  0.17130000000E+03 0. -1.
       11    1    1    2    0    0 -0.18353504793E-03  0.32651983299E-04  0.13886559114E-01  0.13897211893E-01  0.51109989000E-03 0. -1.
     -623    1    1    2    0    0  0.15602008410E-03 -0.68750503689E-04  0.74122878405E-04  0.17130000000E+03  0.17130000000E+03 0. -1.
      622    1    1    2    0    0  0.27514963783E-04  0.36098520413E-04  0.39860392867E+01  0.39861027893E+01  0.22500000000E-01 0. -1.
</event>
<event>
 5   0  0.9908800E+08  0.9118800E+02  0.7818608E-02  0.1180000E+00
       11   -1    0    0    0    0  0.00000000000E+00  0.00000000000E+00  0.39999999673E+01  0.40000000000E+01  0.51109989000E-03 0.  1.
     -623   -1    0    0    0    0  0.00000000000E+00  0.00000000000E+00  0.12525980253E-10  0.17130000000E+03  0.17130000000E+03 0.  1.
       11    1    1    2    0    0  0.20936634185E-01 -0.76523069320E-02  0.47249705379E+00  0.47302286151E+00  0.51109989000E-03 0.  1.
     -623    1    1    2    0    0 -0.27077926145E-01  0.14496282661E-01  0.61228597423E-03  0.17130000275E+03  0.17130000000E+03 0.  1.
      622    1    1    2    0    0  0.61412919596E-02 -0.68439757294E-02  0.35268906276E+01  0.35269743839E+01  0.22500000000E-01 0.  1.
</event>
<event>
 5   0  0.9908800E+08  0.9118800E+02  0.7818608E-02  0.1180000E+00
       11   -1    0    0    0    0  0.00000000000E+00  0.00000000000E+00  0.39999999673E+01  0.40000000000E+01  0.51109989000E-03 0.  1.
     -623   -1    0    0    0    0  0.00000000000E+00  0.00000000000E+00  0.12525980253E-10  0.17130000000E+03  0.17130000000E+03 0. -1.
       11    1    1    2    0    0 -0.17778624485E-02 -0.15435751853E-02  0.97251631562E-01  0.97281470403E-01  0.51109989000E-03 0.  1.
     -623    1    1    2    0    0  0.29008639746E-03  0.12023561958E-02  0.94968370683E-04  0.17130000000E+03  0.17130000000E+03 0. -1.
      622    1    1    2    0    0  0.14877760511E-02  0.34121898986E-03  0.39026533663E+01  0.39027185240E+01  0.22500000000E-01 0.  1.
</event>
<event>
 5   0  0.9908800E+08  0.9118800E+02  0.7818608E-02  0.1180000E+00
       11   -1    0    0    0    0  0.00000000000E+00  0.00000000000E+00  0.39999999673E+01  0.40000000000E+01  0.51109989000E-03 0. -1.
     -623   -1    0    0    0    0  0.00000000000E+00  0.00000000000E+00  0.12525980253E-10  0.17130000000E+03  0.17130000000E+03 0.  1.
       11    1    1    2    0    0  0.39286086706E-02 -0.24660811719E-02  0.17763538728E-01  0.18366274876E-01  0.51109989000E-03 0. -1.
     -623    1    1    2    0    0 -0.48550817558E-02 -0.16224341057E-02  0.66856191534E-03  0.17130000008E+03  0.17130000000E+03 0.  1.
      622    1    1    2    0    0  0.92647308517E-03  0.40885152776E-02  0.39815678667E+01  0.39816336473E+01  0.22500000000E-01 0. -1.
</event>
<event>
 5   0  0.9908800E+08  0.9118800E+02  0.7818608E-02  0.1180000E+00
       11   -1    0    0    0    0  0.00000000000E+00  0.00000000000E+00  0.39999999673E+01  0.40000000000E+01  0.51109989000E-03 0.  1.
     -623   -1    0    0    0    0  0.00000000000E+00  0.00000000000E+00  0.12525980253E-10  0.17130000000E+03  0.17130000000E+03 0. -1.
       11    1    1    2    0    0 -0.35227648134E-02 -0.34774165353E-02  0.14448036155E+00  0.14456603472E+00  0.51109989000E-03 0.  1.
     -623    1    1    2    0    0 -0.10351431782E-02  0.15009181393E-02  0.15450582084E-03  0.17130000001E+03  0.17130000000E+03 0. -1.
      622    1    1    2    0    0  0.45579079914E-02  0.19764983962E-02  0.38553650992E+01  0.38554339547E+01  0.22500000000E-01 0.  1.
</event>
<event>
 5   0  0.9908800E+08  0.9118800E+02  0.7818608E-02  0.1180000E+00
       11   -1    0    0    0    0  0.00000000000E+00  0.00000000000E+00  0.39999999673E+01  0.40000000000E+01  0.51109989000E-03 0.  1.
     -623   -1    0    0    0    0  0.00000000000E+00  0.00000000000E+00  0.12525980253E-10  0.17130000000E+03  0.17130000000E+03 0. -1.
       11    1    1    2    0    0  0.18422574477E-03 -0.40942207200E-02  0.10152824419E+00  0.10161221468E+00  0.51109989000E-03 0.  1.
     -623    1    1    2    0    0 -0.79480470003E-03 -0.15474030656E-03  0.15123444299E-03  0.17130000000E+03  0.17130000000E+03 0. -1.
      622    1    1    2    0    0  0.61057895526E-03  0.42489610265E-02  0.38983204887E+01  0.38983877833E+01  0.22500000000E-01 0.  1.
</event>
<event>
 5   0  0.9908800E+08  0.9118800E+02  0.7818608E-02  0.1180000E+00
       11   -1    0    0    0    0  0.00000000000E+00  0.00000000000E+00  0.39999999673E+01  0.40000000000E+01  0.51109989000E-03 0.  1.
     -623   -1    0    0    0    0  0.00000000000E+00  0.00000000000E+00  0.12525980253E-10  0.17130000000E+03  0.17130000000E+03 0.  1.
       11    1    1    2    0    0  0.30355737238E-02  0.52515705106E-02  0.24175507509E+00  0.24183170027E+00  0.51109989000E-03 0.  1.
     -623    1    1    2    0    0 -0.11680392668E-02 -0.71557610860E-02  0.14504637429E-03  0.17130000015E+03  0.17130000000E+03 0.  1.
      622    1    1    2    0    0 -0.18675344570E-02  0.19041905754E-02  0.37580998459E+01  0.37581681462E+01  0.22500000000E-01 0.  1.
</event>
<event>
 5   0  0.9908800E+08  0.9118800E+02  0.7818608E-02  0.1180000E+00
       11   -1    0    0    0    0  0.00000000000E+00  0.00000000000E+00  0.39999999673E+01  0.40000000000E+01  0.51109989000E-03 0. -1.
     -623   -1    0    0    0    0  0.00000000000E+00  0.00000000000E+00  0.12525980253E-10  0.17130000000E+03  0.17130000000E+03 0. -1.
       11    1    1    2    0    0  0.45509007483E-03 -0.16581450743E-03  0.58843906216E-01  0.58848119115E-01  0.51109989000E-03 0. -1.
     -623    1    1    2    0    0  0.59855447394E-04  0.59271619860E-04  0.68442044711E-04  0.17130000000E+03  0.17130000000E+03 0. -1.
      622    1    1    2    0    0 -0.51494552214E-03  0.10654288765E-03  0.39410876137E+01  0.39411518755E+01  0.22500000000E-01 0. -1.
</event>
<event>
 5   0  0.9908800E+08  0.9118800E+02  0.7818608E-02  0.1180000E+00
       11   -1    0    0    0    0  0.00000000000E+00  0.00000000000E+00  0.39999999673E+01  0.40000000000E+01  0.51109989000E-03 0. -1.
     -623   -1    0    0    0    0  0.00000000000E+00  0.00000000000E+00  0.12525980253E-10  0.17130000000E+03  0.17130000000E+03 0. -1.
       11    1    1    2    0    0 -0.80873646357E-03 -0.52110032941E-03  0.88443660067E-01  0.88450369297E-01  0.51109989000E-03 0. -1.
     -623    1    1    2    0    0  0.54218909301E-04 -0.14682960039E-03  0.71519216955E-04  0.17130000000E+03  0.17130000000E+03 0. -1.
      622    1    1    2    0    0  0.75451755427E-03  0.66792992980E-03  0.39114847881E+01  0.39115496306E+01  0.22500000000E-01 0. -1.
</event>
<event>
 5   0  0.9908800E+08  0.9118800E+02  0.7818608E-02  0.1180000E+00
       11   -1    0    0    0    0  0.00000000000E+00  0.00000000000E+00  0.39999999673E+01  0.40000000000E+01  0.51109989000E-03 0.  1.
     -623   -1    0    0    0    0  0.00000000000E+00  0.00000000000E+00  0.12525980253E-10  0.17130000000E+03  0.17130000000E+03 0.  1.
       11    1    1    2    0    0 -0.80135919769E-02 -0.18957975853E-01  0.51124551879E+00  0.51165991069E+00  0.51109989000E-03 0.  1.
     -623    1    1    2    0    0 -0.28140394125E-02  0.74705239742E-02  0.52282979579E-03  0.17130000019E+03  0.17130000000E+03 0.  1.
      622    1    1    2    0    0  0.10827631389E-01  0.11487451879E-01  0.34882316188E+01  0.34883399025E+01  0.22500000000E-01 0.  1.
</event>
<event>
 5   0  0.9908800E+08  0.9118800E+02  0.7818608E-02  0.1180000E+00
       11   -1    0    0    0    0  0.00000000000E+00  0.00000000000E+00  0.39999999673E+01  0.40000000000E+01  0.51109989000E-03 0.  1.
     -623   -1    0    0    0    0  0.00000000000E+00  0.00000000000E+00  0.12525980253E-10  0.17130000000E+03  0.17130000000E+03 0.  1.
       11    1    1    2    0    0 -0.94293926314E-04 -0.74884861062E-03  0.34845334301E-01  0.34857254786E-01  0.51109989000E-03 0.  1.
     -623    1    1    2    0    0  0.16228887036E-03 -0.10320111537E-03  0.75818164813E-04  0.17130000000E+03  0.17130000000E+03 0.  1.
      622    1    1    2    0    0 -0.67994944291E-04  0.85204972614E-03  0.39650788209E+01  0.39651427511E+01  0.22500000000E-01 0.  1.
</event>
<event>
 5   0  0.9908800E+08  0.9118800E+02  0.7818608E-02  0.1180000E+00
       11   -1    0    0    0    0  0.00000000000E+00  0.00000000000E+00  0.39999999673E+01  0.40000000000E+01  0.51109989000E-03 0.  1.
     -623   -1    0    0    0    0  0.00000000000E+00  0.00000000000E+00  0.12525980253E-10  0.17130000000E+03  0.17130000000E+03 0. -1.
       11    1    1    2    0    0  0.13326439449E-02 -0.58200088522E-03  0.13496804116E+00  0.13497684254E+00  0.51109989000E-03 0.  1.
     -623    1    1    2    0    0 -0.75653002160E-03 -0.48451974944E-03  0.74452956598E-04  0.17130000000E+03  0.17130000000E+03 0. -1.
      622    1    1    2    0    0 -0.57611392280E-03  0.10665206350E-02  0.38649574758E+01  0.38650231576E+01  0.22500000000E-01 0.  1.
</event>
<event>
 5   0  0.9908800E+08  0.9118800E+02  0.7818608E-02  0.1180000E+00
       11   -1    0    0    0    0  0.00000000000E+00  0.00000000000E+00  0.39999999673E+01  0.40000000000E+01  0.51109989000E-03 0. -1.
     -623   -1    0    0    0    0  0.00000000000E+00  0.00000000000E+00  0.12525980253E-10  0.17130000000E+03  0.17130000000E+03 0. -1.
       11    1    1    2    0    0  0.30609864892E-02  0.68871174617E-03  0.23665049271E-01  0.23877599173E-01  0.51109989000E-03 0. -1.
     -623    1    1    2    0    0 -0.23484161480E-02 -0.11718183705E-02  0.27629257108E-03  0.17130000002E+03  0.17130000000E+03 0. -1.
      622    1    1    2    0    0 -0.71257034127E-03  0.48310662430E-03  0.39760586255E+01  0.39761223804E+01  0.22500000000E-01 0. -1.
</event>
<event>
 5   0  0.9908800E+08  0.9118800E+02  0.7818608E-02  0.1180000E+00
       11   -1    0    0    0    0  0.00000000000E+00  0.00000000000E+00  0.39999999673E+01  0.40000000000E+01  0.51109989000E-03 0. -1.
     -623   -1    0    0    0    0  0.00000000000E+00  0.00000000000E+00  0.12525980253E-10  0.17130000000E+03  0.17130000000E+03 0.  1.
       11    1    1    2    0    0 -0.49205114995E-02 -0.34462115411E-02  0.40736609414E+00  0.40741070639E+00  0.51109989000E-03 0. -1.
     -623    1    1    2    0    0  0.25053077408E-02  0.20205110399E-02  0.11616286856E-03  0.17130000003E+03  0.17130000000E+03 0.  1.
      622    1    1    2    0    0  0.24152037587E-02  0.14257005012E-02  0.35925177104E+01  0.35925892633E+01  0.22500000000E-01 0.  0.
</event>
<event>
 5   0  0.9908800E+08  0.9118800E+02  0.7818608E-02  0.1180000E+00
       11   -1    0    0    0    0  0.00000000000E+00  0.00000000000E+00  0.39999999673E+01  0.40000000000E+01  0.51109989000E-03 0. -1.
     -623   -1    0    0    0    0  0.00000000000E+00  0.00000000000E+00  0.12525980253E-10  0.17130000000E+03  0.17130000000E+03 0.  1.
       11    1    1    2    0    0  0.26009648183E-02 -0.15527973984E-02  0.35528889841E+00  0.35530217949E+00  0.51109989000E-03 0. -1.
     -623    1    1    2    0    0 -0.14495705735E-03 -0.42697440896E-03  0.84065144082E-04  0.17130000000E+03  0.17130000000E+03 0.  1.
      622    1    1    2    0    0 -0.24560077609E-02  0.19797718074E-02  0.36446270038E+01  0.36446978199E+01  0.22500000000E-01 0. -1.
</event>
<event>
 5   0  0.9908800E+08  0.9118800E+02  0.7818608E-02  0.1180000E+00
       11   -1    0    0    0    0  0.00000000000E+00  0.00000000000E+00  0.39999999673E+01  0.40000000000E+01  0.51109989000E-03 0.  1.
     -623   -1    0    0    0    0  0.00000000000E+00  0.00000000000E+00  0.12525980253E-10  0.17130000000E+03  0.17130000000E+03 0.  1.
       11    1    1    2    0    0 -0.40372893052E-02  0.18402306624E-03  0.11582383678E+00  0.11589545271E+00  0.51109989000E-03 0.  1.
     -623    1    1    2    0    0  0.16408984427E-03  0.17625575703E-03  0.13870142829E-03  0.17130000000E+03  0.17130000000E+03 0.  1.
      622    1    1    2    0    0  0.38731994608E-02 -0.36027882341E-03  0.38840374322E+01  0.38841045501E+01  0.22500000000E-01 0.  1.
</event>
<event>
 5   0  0.9908800E+08  0.9118800E+02  0.7818608E-02  0.1180000E+00
       11   -1    0    0    0    0  0.00000000000E+00  0.00000000000E+00  0.39999999673E+01  0.40000000000E+01  0.51109989000E-03 0. -1.
     -623   -1    0    0    0    0  0.00000000000E+00  0.00000000000E+00  0.12525980253E-10  0.17130000000E+03  0.17130000000E+03 0.  1.
       11    1    1    2    0    0 -0.18706278709E-02  0.15327646124E-02  0.36349906455E-01  0.36433851524E-01  0.51109989000E-03 0. -1.
     -623    1    1    2    0    0 -0.45225742137E-03 -0.27350243417E-03  0.14865749557E-03  0.17130000000E+03  0.17130000000E+03 0.  1.
      622    1    1    2    0    0  0.23228852923E-02 -0.12592621782E-02  0.39635014034E+01  0.39635661476E+01  0.22500000000E-01 0. -1.
</event>
<event>
 5   0  0.9908800E+08  0.9118800E+02  0.7818608E-02  0.1180000E+00
       11   -1    0    0    0    0  0.00000000000E+00  0.00000000000E+00  0.39999999673E+01  0.40000000000E+01  0.51109989000E-03 0. -1.
     -623   -1    0    0    0    0  0.00000000000E+00  0.00000000000E+00  0.12525980253E-10  0.17130000000E+03  0.17130000000E+03 0.  1.
       11    1    1    2    0    0  0.25045626459E-02 -0.48087263444E-02  0.99732400404E-01  0.99880977150E-01  0.51109989000E-03 0. -1.
     -623    1    1    2    0    0 -0.52470194239E-04 -0.20050236833E-03  0.21743455903E-03  0.17130000000E+03  0.17130000000E+03 0.  1.
      622    1    1    2    0    0 -0.24520924517E-02  0.50092287128E-02  0.39000501333E+01  0.39001190235E+01  0.22500000000E-01 0. -1.
</event>
<event>
 5   0  0.9908800E+08  0.9118800E+02  0.7818608E-02  0.1180000E+00
       11   -1    0    0    0    0  0.00000000000E+00  0.00000000000E+00  0.39999999673E+01  0.40000000000E+01  0.51109989000E-03 0. -1.
     -623   -1    0    0    0    0  0.00000000000E+00  0.00000000000E+00  0.12525980253E-10  0.17130000000E+03  0.17130000000E+03 0.  1.
       11    1    1    2    0    0 -0.80629194101E-03  0.14182496885E-03  0.20095016695E+00  0.20095248453E+00  0.51109989000E-03 0. -1.
     -623    1    1    2    0    0  0.68034346425E-03 -0.54908453365E-03  0.68940235667E-04  0.17130000000E+03  0.17130000000E+03 0.  1.
      622    1    1    2    0    0  0.12594847651E-03  0.40725956500E-03  0.37989808616E+01  0.37990475147E+01  0.22500000000E-01 0. -1.
</event>
<event>
 5   0  0.9908800E+08  0.9118800E+02  0.7818608E-02  0.1180000E+00
       11   -1    0    0    0    0  0.00000000000E+00  0.00000000000E+00  0.39999999673E+01  0.40000000000E+01  0.51109989000E-03 0. -1.
     -623   -1    0    0    0    0  0.00000000000E+00  0.00000000000E+00  0.12525980253E-10  0.17130000000E+03  0.17130000000E+03 0.  1.
       11    1    1    2    0    0  0.37653396418E-02 -0.25304191401E-03  0.23554523112E+00  0.23557601520E+00  0.51109989000E-03 0. -1.
     -623    1    1    2    0    0  0.11987143500E-03  0.10615905762E-02  0.10008857392E-03  0.17130000000E+03  0.17130000000E+03 0.  1.
      622    1    1    2    0    0 -0.38852110768E-02 -0.80854866223E-03  0.37643546477E+01  0.37644239814E+01  0.22500000000E-01 0. -1.
</event>
<event>
 5   0  0.9908800E+08  0.9118800E+02  0.7818608E-02  0.1180000E+00
       11   -1    0    0    0    0  0.00000000000E+00  0.00000000000E+00  0.39999999673E+01  0.40000000000E+01  0.51109989000E-03 0.  1.
     -623   -1    0    0    0    0  0.00000000000E+00  0.00000000000E+00  0.12525980253E-10  0.17130000000E+03  0.17130000000E+03 0. -1.
       11    1    1    2    0    0  0.68419379925E-03 -0.10262502228E-02  0.47831711093E-02  0.49660104343E-02  0.51109989000E-03 0.  1.
     -623    1    1    2    0    0 -0.21334408425E-02  0.20342228383E-02  0.24658267156E-03  0.17130000003E+03  0.17130000000E+03 0. -1.
      622    1    1    2    0    0  0.14492470434E-02 -0.10079726156E-02  0.39949702138E+01  0.39950339643E+01  0.22500000000E-01 0.  1.
</event>
<event>
 5   0  0.9908800E+08  0.9118800E+02  0.7818608E-02  0.1180000E+00
       11   -1    0    0    0    0  0.00000000000E+00  0.00000000000E+00  0.39999999673E+01  0.40000000000E+01  0.51109989000E-03 0.  1.
     -623   -1    0    0    0    0  0.00000000000E+00  0.00000000000E+00  0.12525980253E-10  0.17130000000E+03  0.17130000000E+03 0.  1.
       11    1    1    2    0    0  0.11190503230E-02 -0.50716101691E-03  0.48558404688E-01  0.48576634042E-01  0.51109989000E-03 0.  1.
     -623    1    1    2    0    0 -0.14509437455E-03  0.20125986496E-03  0.82388502205E-04  0.17130000000E+03  0.17130000000E+03 0.  1.
      622    1    1    2    0    0 -0.97395594851E-03  0.30590115206E-03  0.39513591720E+01  0.39514233636E+01  0.22500000000E-01 0.  1.
</event>
<event>
 5   0  0.9908800E+08  0.9118800E+02  0.7818608E-02  0.1180000E+00
       11   -1    0    0    0    0  0.00000000000E+00  0.00000000000E+00  0.39999999673E+01  0.40000000000E+01  0.51109989000E-03 0.  1.
     -623   -1    0    0    0    0  0.00000000000E+00  0.00000000000E+00  0.12525980253E-10  0.17130000000E+03  0.17130000000E+03 0. -1.
       11    1    1    2    0    0  0.15047058490E-03 -0.61860960346E-03  0.38771457110E+00  0.38771543068E+00  0.51109989000E-03 0.  1.
     -623    1    1    2    0    0 -0.19120207426E-02  0.48890498573E-02  0.73935284624E-04  0.17130000008E+03  0.17130000000E+03 0. -1.
      622    1    1    2    0    0  0.17615501577E-02 -0.42704402539E-02  0.36122114610E+01  0.36122844889E+01  0.22500000000E-01 0.  1.
</event>
<event>
 5   0  0.9908800E+08  0.9118800E+02  0.7818608E-02  0.1180000E+00
       11   -1    0    0    0    0  0.00000000000E+00  0.00000000000E+00  0.39999999673E+01  0.40000000000E+01  0.51109989000E-03 0. -1.
     -623   -1    0    0    0    0  0.00000000000E+00  0.00000000000E+00  0.12525980253E-10  0.17130000000E+03  0.17130000000E+03 0.  1.
       11    1    1    2    0    0  0.45220275463E-03  0.34668361773E-02  0.86550281229E-01  0.86622374954E-01  0.51109989000E-03 0. -1.
     -623    1    1    2    0    0 -0.62012451804E-03 -0.37497737843E-03  0.13797020752E-03  0.17130000000E+03  0.17130000000E+03 0.  1.
      622    1    1    2    0    0  0.16792176341E-03 -0.30918587988E-02  0.39133117159E+01  0.39133776235E+01  0.22500000000E-01 0. -1.
</event>
<event>
 5   0  0.9908800E+08  0.9118800E+02  0.7818608E-02  0.1180000E+00
       11   -1    0    0    0    0  0.00000000000E+00  0.00000000000E+00  0.39999999673E+01  0.40000000000E+01  0.51109989000E-03 0.  1.
     -623   -1    0    0    0    0  0.00000000000E+00  0.00000000000E+00  0.12525980253E-10  0.17130000000E+03  0.17130000000E+03 0. -1.
       11    1    1    2    0    0 -0.17200431278E-02 -0.45389075661E-02  0.38220744067E+00  0.38223860239E+00  0.51109989000E-03 0.  1.
     -623    1    1    2    0    0  0.13466046335E-03 -0.85021321858E-04  0.10439956699E-03  0.17130000000E+03  0.17130000000E+03 0. -1.
      622    1    1    2    0    0  0.15853826645E-02  0.46239288880E-02  0.36176881271E+01  0.36177613975E+01  0.22500000000E-01 0.  1.
</event>
<event>
 5   0  0.9908800E+08  0.9118800E+02  0.7818608E-02  0.1180000E+00
       11   -1    0    0    0    0  0.00000000000E+00  0.00000000000E+00  0.39999999673E+01  0.40000000000E+01  0.51109989000E-03 0.  1.
     -623   -1    0    0    0    0  0.00000000000E+00  0.00000000000E+00  0.12525980253E-10  0.17130000000E+03  0.17130000000E+03 0. -1.
       11    1    1    2    0    0 -0.37454490133E-02 -0.18980094979E-02  0.18616566853E+00  0.18621371644E+00  0.51109989000E-03 0.  1.
     -623    1    1    2    0    0  0.20854009617E-03  0.17556398319E-02  0.11603881378E-03  0.17130000001E+03  0.17130000000E+03 0. -1.
      622    1    1    2    0    0  0.35369089171E-02  0.14236966531E-03  0.38137182616E+01  0.38137862760E+01  0.22500000000E-01 0.  1.
</event>
<event>
 5   0  0.9908800E+08  0.9118800E+02  0.7818608E-02  0.1180000E+00
       11   -1    0    0    0    0  0.00000000000E+00  0.00000000000E+00  0.39999999673E+01  0.40000000000E+01  0.51109989000E-03 0.  1.
     -623   -1    0    0    0    0  0.00000000000E+00  0.00000000000E+00  0.12525980253E-10  0.17130000000E+03  0.17130000000E+03 0. -1.
       11    1    1    2    0    0  0.78849237441E-02 -0.26534139783E-02  0.20856925380E+00  0.20873573599E+00  0.51109989000E-03 0.  1.
     -623    1    1    2    0    0 -0.25789767564E-01 -0.79098948370E-02  0.29233630364E-03  0.17130000212E+03  0.17130000000E+03 0. -1.
      622    1    1    2    0    0  0.17904843819E-01  0.10563308815E-01  0.37911383773E+01  0.37912621398E+01  0.22500000000E-01 0.  1.
</event>
<event>
 5   0  0.9908800E+08  0.9118800E+02  0.7818608E-02  0.1180000E+00
       11   -1    0    0    0    0  0.00000000000E+00  0.00000000000E+00  0.39999999673E+01  0.40000000000E+01  0.51109989000E-03 0. -1.
     -623   -1    0    0    0    0  0.00000000000E+00  0.00000000000E+00  0.12525980253E-10  0.17130000000E+03  0.17130000000E+03 0. -1.
       11    1    1    2    0    0  0.24586702928E-01  0.51062562981E-02  0.10076293039E+01  0.10079422876E+01  0.51109989000E-03 0. -1.
     -623    1    1    2    0    0 -0.50040307295E-02  0.10941719726E-01  0.50509949725E-03  0.17130000042E+03  0.17130000000E+03 0. -1.
      622    1    1    2    0    0 -0.19582672198E-01 -0.16047976025E-01  0.29918655644E+01  0.29920572896E+01  0.22500000000E-01 0.  1.
</event>
<event>
 5   0  0.9908800E+08  0.9118800E+02  0.7818608E-02  0.1180000E+00
       11   -1    0    0    0    0  0.00000000000E+00  0.00000000000E+00  0.39999999673E+01  0.40000000000E+01  0.51109989000E-03 0. -1.
     -623   -1    0    0    0    0  0.00000000000E+00  0.00000000000E+00  0.12525980253E-10  0.17130000000E+03  0.17130000000E+03 0.  1.
       11    1    1    2    0    0  0.22990747663E-02 -0.42391086320E-02  0.91844975143E-01  0.91972911604E-01  0.51109989000E-03 0. -1.
     -623    1    1    2    0    0 -0.28999986909E-02  0.10828557317E-02  0.19402374227E-03  0.17130000003E+03  0.17130000000E+03 0.  1.
      622    1    1    2    0    0  0.60092392436E-03  0.31562529004E-02  0.39079609682E+01  0.39080270600E+01  0.22500000000E-01 0.  0.
</event>
<event>
 5   0  0.9908800E+08  0.9118800E+02  0.7818608E-02  0.1180000E+00
       11   -1    0    0    0    0  0.00000000000E+00  0.00000000000E+00  0.39999999673E+01  0.40000000000E+01  0.51109989000E-03 0. -1.
     -623   -1    0    0    0    0  0.00000000000E+00  0.00000000000E+00  0.12525980253E-10  0.17130000000E+03  0.17130000000E+03 0. -1.
       11    1    1    2    0    0 -0.19482174097E-01  0.14023032824E-01  0.63445761077E+00  0.63491174320E+00  0.51109989000E-03 0. -1.
     -623    1    1    2    0    0 -0.49019932328E-03  0.91342020444E-05  0.61785276094E-03  0.17130000000E+03  0.17130000000E+03 0. -1.
      622    1    1    2    0    0  0.19972373420E-01 -0.14032167026E-01  0.33649245037E+01  0.33650882549E+01  0.22500000000E-01 0. -1.
</event>
<event>
 5   0  0.9908800E+08  0.9118800E+02  0.7818608E-02  0.1180000E+00
       11   -1    0    0    0    0  0.00000000000E+00  0.00000000000E+00  0.39999999673E+01  0.40000000000E+01  0.51109989000E-03 0.  1.
     -623   -1    0    0    0    0  0.00000000000E+00  0.00000000000E+00  0.12525980253E-10  0.17130000000E+03  0.17130000000E+03 0. -1.
       11    1    1    2    0    0  0.19427935587E-03 -0.92422724893E-03  0.47720560009E-01  0.47732640915E-01  0.51109989000E-03 0.  1.
     -623    1    1    2    0    0 -0.33688396738E-04  0.63240911438E-03  0.76109524018E-04  0.17130000000E+03  0.17130000000E+03 0. -1.
      622    1    1    2    0    0 -0.16059095913E-03  0.29181813455E-03  0.39522032978E+01  0.39522673579E+01  0.22500000000E-01 0.  1.
</event>
<event>
 5   0  0.9908800E+08  0.9118800E+02  0.7818608E-02  0.1180000E+00
       11   -1    0    0    0    0  0.00000000000E+00  0.00000000000E+00  0.39999999673E+01  0.40000000000E+01  0.51109989000E-03 0. -1.
     -623   -1    0    0    0    0  0.00000000000E+00  0.00000000000E+00  0.12525980253E-10  0.17130000000E+03  0.17130000000E+03 0.  1.
       11    1    1    2    0    0 -0.16823547179E-02  0.42020651322E-02  0.37406821623E+00  0.37409594930E+00  0.51109989000E-03 0. -1.
     -623    1    1    2    0    0 -0.88559403014E-04  0.13795341915E-03  0.10054129634E-03  0.17130000000E+03  0.17130000000E+03 0.  1.
      622    1    1    2    0    0  0.17709141209E-02 -0.43400185513E-02  0.36258312098E+01  0.36259040506E+01  0.22500000000E-01 0. -1.
</event>
<event>
 5   0  0.9908800E+08  0.9118800E+02  0.7818608E-02  0.1180000E+00
       11   -1    0    0    0    0  0.00000000000E+00  0.00000000000E+00  0.39999999673E+01  0.40000000000E+01  0.51109989000E-03 0.  1.
     -623   -1    0    0    0    0  0.00000000000E+00  0.00000000000E+00  0.12525980253E-10  0.17130000000E+03  0.17130000000E+03 0.  1.
       11    1    1    2    0    0  0.12758589342E-01  0.17818760713E-01  0.13769273467E+00  0.13942682754E+00  0.51109989000E-03 0.  1.
     -623    1    1    2    0    0  0.39041439300E-02 -0.13826797118E-01  0.18382638763E-02  0.17130000061E+03  0.17130000000E+03 0.  1.
      622    1    1    2    0    0 -0.16662733272E-01 -0.39919635948E-02  0.38604689688E+01  0.38605725601E+01  0.22500000000E-01 0.  1.
</event>
<event>
 5   0  0.9908800E+08  0.9118800E+02  0.7818608E-02  0.1180000E+00
       11   -1    0    0    0    0  0.00000000000E+00  0.00000000000E+00  0.39999999673E+01  0.40000000000E+01  0.51109989000E-03 0.  1.
     -623   -1    0    0    0    0  0.00000000000E+00  0.00000000000E+00  0.12525980253E-10  0.17130000000E+03  0.17130000000E+03 0.  1.
       11    1    1    2    0    0 -0.22329065901E-02 -0.82531752604E-03  0.24057599732E+00  0.24058831794E+00  0.51109989000E-03 0.  1.
     -623    1    1    2    0    0 -0.82020409600E-03  0.98199387806E-03  0.80867434303E-04  0.17130000000E+03  0.17130000000E+03 0.  1.
      622    1    1    2    0    0  0.30531106861E-02 -0.15667635202E-03  0.37593431026E+01  0.37594116773E+01  0.22500000000E-01 0.  1.
</event>
<event>
 5   0  0.9908800E+08  0.9118800E+02  0.7818608E-02  0.1180000E+00
       11   -1    0    0    0    0  0.00000000000E+00  0.00000000000E+00  0.39999999673E+01  0.40000000000E+01  0.51109989000E-03 0. -1.
     -623   -1    0    0    0    0  0.00000000000E+00  0.00000000000E+00  0.12525980253E-10  0.17130000000E+03  0.17130000000E+03 0.  1.
       11    1    1    2    0    0  0.11353113776E-01  0.48384550775E-02  0.23288406101E+00  0.23321138680E+00  0.51109989000E-03 0. -1.
     -623    1    1    2    0    0  0.27150063637E-02 -0.53751879226E-02  0.42090872731E-03  0.17130000011E+03  0.17130000000E+03 0.  1.
      622    1    1    2    0    0 -0.14068120140E-01  0.53673284505E-03  0.37666949976E+01  0.37667885068E+01  0.22500000000E-01 0. -1.
</event>
<event>
 5   0  0.9908800E+08  0.9118800E+02  0.7818608E-02  0.1180000E+00
       11   -1    0    0    0    0  0.00000000000E+00  0.00000000000E+00  0.39999999673E+01  0.40000000000E+01  0.51109989000E-03 0.  1.
     -623   -1    0    0    0    0  0.00000000000E+00  0.00000000000E+00  0.12525980253E-10  0.17130000000E+03  0.17130000000E+03 0.  1.
       11    1    1    2    0    0 -0.17893509959E-02  0.10353023268E-02  0.75419649969E-01  0.75449708100E-01  0.51109989000E-03 0.  1.
     -623    1    1    2    0    0  0.95361683907E-03 -0.27577097447E-02  0.95015693729E-04  0.17130000002E+03  0.17130000000E+03 0.  1.
      622    1    1    2    0    0  0.83573415627E-03  0.17224074195E-02  0.39244853040E+01  0.39245502694E+01  0.22500000000E-01 0.  1.
</event>
<event>
 5   0  0.9908800E+08  0.9118800E+02  0.7818608E-02  0.1180000E+00
       11   -1    0    0    0    0  0.00000000000E+00  0.00000000000E+00  0.39999999673E+01  0.40000000000E+01  0.51109989000E-03 0.  1.
     -623   -1    0    0    0    0  0.00000000000E+00  0.00000000000E+00  0.12525980253E-10  0.17130000000E+03  0.17130000000E+03 0. -1.
       11    1    1    2    0    0  0.17412530512E-02 -0.44514501817E-02  0.63291428407E+00  0.63293253951E+00  0.51109989000E-03 0.  1.
     -623    1    1    2    0    0  0.55046939798E-03 -0.91505750250E-04  0.97246015392E-04  0.17130000000E+03  0.17130000000E+03 0. -1.
      622    1    1    2    0    0 -0.22917224492E-02  0.45429559319E-02  0.33669884373E+01  0.33670674596E+01  0.22500000000E-01 0.  1.
</event>
<event>
 5   0  0.9908800E+08  0.9118800E+02  0.7818608E-02  0.1180000E+00
       11   -1    0    0    0    0  0.00000000000E+00  0.00000000000E+00  0.39999999673E+01  0.40000000000E+01  0.51109989000E-03 0. -1.
     -623   -1    0    0    0    0  0.00000000000E+00  0.00000000000E+00  0.12525980253E-10  0.17130000000E+03  0.17130000000E+03 0.  1.
       11    1    1    2    0    0  0.41767312972E-03  0.24799907437E-02  0.20803179160E+00  0.20804762037E+00  0.51109989000E-03 0. -1.
     -623    1    1    2    0    0  0.91710309221E-03 -0.59194462727E-03  0.83258401049E-04  0.17130000000E+03  0.17130000000E+03 0.  1.
      622    1    1    2    0    0 -0.13347762219E-02 -0.18880461164E-02  0.37918849174E+01  0.37919523761E+01  0.22500000000E-01 0. -1.
</event>
<event>
 5   0  0.9908800E+08  0.9118800E+02  0.7818608E-02  0.1180000E+00
       11   -1    0    0    0    0  0.00000000000E+00  0.00000000000E+00  0.39999999673E+01  0.40000000000E+01  0.51109989000E-03 0.  1.
     -623   -1    0    0    0    0  0.00000000000E+00  0.00000000000E+00  0.12525980253E-10  0.17130000000E+03  0.17130000000E+03 0. -1.
       11    1    1    2    0    0  0.19718969842E-03 -0.19801203230E-03  0.10303082633E-02  0.11835754125E-02  0.51109989000E-03 0. -1.
     -623    1    1    2    0    0  0.18248437206E-02 -0.10416698609E-02  0.21725141331E-03  0.17130000001E+03  0.17130000000E+03 0. -1.
      622    1    1    2    0    0 -0.20220334195E-02  0.12396818935E-02  0.39987524089E+01  0.39988164128E+01  0.22500000000E-01 0.  1.
</event>
<event>
 5   0  0.9908800E+08  0.9118800E+02  0.7818608E-02  0.1180000E+00
       11   -1    0    0    0    0  0.00000000000E+00  0.00000000000E+00  0.39999999673E+01  0.40000000000E+01  0.51109989000E-03 0. -1.
     -623   -1    0    0    0    0  0.00000000000E+00  0.00000000000E+00  0.12525980253E-10  0.17130000000E+03  0.17130000000E+03 0. -1.
       11    1    1    2    0    0  0.10146579218E-02 -0.40893166240E-03  0.27203369481E-02  0.29762748548E-02  0.51109989000E-03 0. -1.
     -623    1    1    2    0    0 -0.10867881902E-02  0.25180195155E-03  0.31924180850E-03  0.17130000000E+03  0.17130000000E+03 0. -1.
      622    1    1    2    0    0  0.72130268346E-04  0.15712971087E-03  0.39969603883E+01  0.39970237210E+01  0.22500000000E-01 0. -1.
</event>
<event>
 5   0  0.9908800E+08  0.9118800E+02  0.7818608E-02  0.1180000E+00
       11   -1    0    0    0    0  0.00000000000E+00  0.00000000000E+00  0.39999999673E+01  0.40000000000E+01  0.51109989000E-03 0.  1.
     -623   -1    0    0    0    0  0.00000000000E+00  0.00000000000E+00  0.12525980253E-10  0.17130000000E+03  0.17130000000E+03 0. -1.
       11    1    1    2    0    0 -0.18635674884E-02 -0.32394263595E-02  0.14631939752E-01  0.15110315997E-01  0.51109989000E-03 0.  1.
     -623    1    1    2    0    0  0.45303236879E-02  0.21192143556E-02  0.54298898423E-03  0.17130000007E+03  0.17130000000E+03 0. -1.
      622    1    1    2    0    0 -0.26667561995E-02  0.11202120039E-02  0.39848250386E+01  0.39848896101E+01  0.22500000000E-01 0.  1.
</event>
<event>
 5   0  0.9908800E+08  0.9118800E+02  0.7818608E-02  0.1180000E+00
       11   -1    0    0    0    0  0.00000000000E+00  0.00000000000E+00  0.39999999673E+01  0.40000000000E+01  0.51109989000E-03 0.  1.
     -623   -1    0    0    0    0  0.00000000000E+00  0.00000000000E+00  0.12525980253E-10  0.17130000000E+03  0.17130000000E+03 0. -1.
       11    1    1    2    0    0 -0.46557549982E-02  0.70160188675E-01  0.10437374553E+01  0.10461033720E+01  0.51109989000E-03 0.  1.
     -623    1    1    2    0    0  0.13968029355E-02 -0.24386066264E-02  0.32298523560E-02  0.17130000005E+03  0.17130000000E+03 0. -1.
      622    1    1    2    0    0  0.32589520626E-02 -0.67721582048E-01  0.29530326598E+01  0.29538965745E+01  0.22500000000E-01 0.  1.
</event>
<event>
 5   0  0.9908800E+08  0.9118800E+02  0.7818608E-02  0.1180000E+00
       11   -1    0    0    0    0  0.00000000000E+00  0.00000000000E+00  0.39999999673E+01  0.40000000000E+01  0.51109989000E-03 0. -1.
     -623   -1    0    0    0    0  0.00000000000E+00  0.00000000000E+00  0.12525980253E-10  0.17130000000E+03  0.17130000000E+03 0. -1.
       11    1    1    2    0    0  0.26004944253E-02 -0.36061113874E-02  0.23793544543E-01  0.24210753719E-01  0.51109989000E-03 0. -1.
     -623    1    1    2    0    0 -0.36702638020E-03  0.90621687381E-03  0.48239121566E-03  0.17130000000E+03  0.17130000000E+03 0. -1.
      622    1    1    2    0    0 -0.22334680451E-02  0.26998945135E-02  0.39757240319E+01  0.39757892431E+01  0.22500000000E-01 0. -1.
</event>
<event>
 5   0  0.9908800E+08  0.9118800E+02  0.7818608E-02  0.1180000E+00
       11   -1    0    0    0    0  0.00000000000E+00  0.00000000000E+00  0.39999999673E+01  0.40000000000E+01  0.51109989000E-03 0.  1.
     -623   -1    0    0    0    0  0.00000000000E+00  0.00000000000E+00  0.12525980253E-10  0.17130000000E+03  0.17130000000E+03 0.  1.
       11    1    1    2    0    0  0.12508727521E-02 -0.61470492301E-02  0.58002630741E+00  0.58006045324E+00  0.51109989000E-03 0.  1.
     -623    1    1    2    0    0  0.34103050616E-03 -0.10267495361E-03  0.11420998338E-03  0.17130000000E+03  0.17130000000E+03 0.  1.
      622    1    1    2    0    0 -0.15919032587E-02  0.62497241839E-02  0.34198594553E+01  0.34199395517E+01  0.22500000000E-01 0.  1.
</event>
<event>
 5   0  0.9908800E+08  0.9118800E+02  0.7818608E-02  0.1180000E+00
       11   -1    0    0    0    0  0.00000000000E+00  0.00000000000E+00  0.39999999673E+01  0.40000000000E+01  0.51109989000E-03 0.  1.
     -623   -1    0    0    0    0  0.00000000000E+00  0.00000000000E+00  0.12525980253E-10  0.17130000000E+03  0.17130000000E+03 0. -1.
       11    1    1    2    0    0  0.59137664746E-02  0.94291886048E-02  0.24208513725E+00  0.24234140614E+00  0.51109989000E-03 0.  1.
     -623    1    1    2    0    0  0.94601806452E-04  0.20926485944E-02  0.34608078746E-03  0.17130000001E+03  0.17130000000E+03 0. -1.
      622    1    1    2    0    0 -0.60083682810E-02 -0.11521837199E-01  0.37575687493E+01  0.37576585807E+01  0.22500000000E-01 0.  1.
</event>
<event>
 5   0  0.9908800E+08  0.9118800E+02  0.7818608E-02  0.1180000E+00
       11   -1    0    0    0    0  0.00000000000E+00  0.00000000000E+00  0.39999999673E+01  0.40000000000E+01  0.51109989000E-03 0.  1.
     -623   -1    0    0    0    0  0.00000000000E+00  0.00000000000E+00  0.12525980253E-10  0.17130000000E+03  0.17130000000E+03 0. -1.
       11    1    1    2    0    0  0.31331747839E-02  0.51845842805E-02  0.14111485784E+00  0.14124574692E+00  0.51109989000E-03 0.  1.
     -623    1    1    2    0    0 -0.13431987209E-01  0.30646350235E-02  0.21957028113E-03  0.17130000055E+03  0.17130000000E+03 0. -1.
      622    1    1    2    0    0  0.10298812425E-01 -0.82492193040E-02  0.38586655392E+01  0.38587536989E+01  0.22500000000E-01 0.  1.
</event>
<event>
 5   0  0.9908800E+08  0.9118800E+02  0.7818608E-02  0.1180000E+00
       11   -1    0    0    0    0  0.00000000000E+00  0.00000000000E+00  0.39999999673E+01  0.40000000000E+01  0.51109989000E-03 0.  1.
     -623   -1    0    0    0    0  0.00000000000E+00  0.00000000000E+00  0.12525980253E-10  0.17130000000E+03  0.17130000000E+03 0. -1.
       11    1    1    2    0    0  0.17465627423E-02 -0.49526792882E-03  0.18368993566E-01  0.18465560361E-01  0.51109989000E-03 0.  1.
     -623    1    1    2    0    0  0.32704504626E-03  0.49985423628E-03  0.16065050052E-03  0.17130000000E+03  0.17130000000E+03 0. -1.
      622    1    1    2    0    0 -0.20736077888E-02 -0.45863077006E-05  0.39814703252E+01  0.39815344404E+01  0.22500000000E-01 0.  1.
</event>
<event>
 5   0  0.9908800E+08  0.9118800E+02  0.7818608E-02  0.1180000E+00
       11   -1    0    0    0    0  0.00000000000E+00  0.00000000000E+00  0.39999999673E+01  0.40000000000E+01  0.51109989000E-03 0. -1.
     -623   -1    0    0    0    0  0.00000000000E+00  0.00000000000E+00  0.12525980253E-10  0.17130000000E+03  0.17130000000E+03 0. -1.
       11    1    1    2    0    0  0.33394384975E-02  0.23047161146E-02  0.15987994159E-01  0.16502749655E-01  0.51109989000E-03 0. -1.
     -623    1    1    2    0    0 -0.15717082918E-04 -0.62334001805E-03  0.58001037132E-03  0.17130000000E+03  0.17130000000E+03 0. -1.
      622    1    1    2    0    0 -0.33237214146E-02 -0.16813760966E-02  0.39834319625E+01  0.39834972479E+01  0.22500000000E-01 0. -1.
</event>
<event>
 5   0  0.9908800E+08  0.9118800E+02  0.7818608E-02  0.1180000E+00
       11   -1    0    0    0    0  0.00000000000E+00  0.00000000000E+00  0.39999999673E+01  0.40000000000E+01  0.51109989000E-03 0. -1.
     -623   -1    0    0    0    0  0.00000000000E+00  0.00000000000E+00  0.12525980253E-10  0.17130000000E+03  0.17130000000E+03 0.  1.
       11    1    1    2    0    0 -0.66631248571E-03 -0.10518646284E-02  0.15239663677E+00  0.15240258041E+00  0.51109989000E-03 0. -1.
     -623    1    1    2    0    0  0.31692450600E-03  0.12991175817E-02  0.71728405505E-04  0.17130000001E+03  0.17130000000E+03 0.  1.
      622    1    1    2    0    0  0.34938797918E-03 -0.24725295546E-03  0.38475316089E+01  0.38475974211E+01  0.22500000000E-01 0. -1.
</event>
<event>
 5   0  0.9908800E+08  0.9118800E+02  0.7818608E-02  0.1180000E+00
       11   -1    0    0    0    0  0.00000000000E+00  0.00000000000E+00  0.39999999673E+01  0.40000000000E+01  0.51109989000E-03 0.  1.
     -623   -1    0    0    0    0  0.00000000000E+00  0.00000000000E+00  0.12525980253E-10  0.17130000000E+03  0.17130000000E+03 0. -1.
       11    1    1    2    0    0 -0.11259428596E-02 -0.32945889390E-03  0.19119074236E-01  0.19161850464E-01  0.51109989000E-03 0.  1.
     -623    1    1    2    0    0 -0.59880097124E-04  0.30657980897E-03  0.10650695656E-03  0.17130000000E+03  0.17130000000E+03 0. -1.
      622    1    1    2    0    0  0.11858229567E-02  0.22879085016E-04  0.39807743850E+01  0.39808381480E+01  0.22500000000E-01 0.  1.
</event>
<event>
 5   0  0.9908800E+08  0.9118800E+02  0.7818608E-02  0.1180000E+00
       11   -1    0    0    0    0  0.00000000000E+00  0.00000000000E+00  0.39999999673E+01  0.40000000000E+01  0.51109989000E-03 0.  1.
     -623   -1    0    0    0    0  0.00000000000E+00  0.00000000000E+00  0.12525980253E-10  0.17130000000E+03  0.17130000000E+03 0. -1.
       11    1    1    2    0    0  0.74956120503E-03  0.73270000821E-03  0.27322457167E-01  0.27347332229E-01  0.51109989000E-03 0.  1.
     -623    1    1    2    0    0 -0.28180387233E-02 -0.10411325032E-02  0.89136660358E-04  0.17130000003E+03  0.17130000000E+03 0. -1.
      622    1    1    2    0    0  0.20684775164E-02  0.30843249434E-03  0.39725883709E+01  0.39726526387E+01  0.22500000000E-01 0.  1.
</event>
<event>
 5   0  0.9908800E+08  0.9118800E+02  0.7818608E-02  0.1180000E+00
       11   -1    0    0    0    0  0.00000000000E+00  0.00000000000E+00  0.39999999673E+01  0.40000000000E+01  0.51109989000E-03 0.  1.
     -623   -1    0    0    0    0  0.00000000000E+00  0.00000000000E+00  0.12525980253E-10  0.17130000000E+03  0.17130000000E+03 0.  1.
       11    1    1    2    0    0 -0.13238796225E-02 -0.11141705914E-02  0.26234492629E-01  0.26296460933E-01  0.51109989000E-03 0.  1.
     -623    1    1    2    0    0 -0.36361748703E-03  0.54161943956E-03  0.12603705059E-03  0.17130000000E+03  0.17130000000E+03 0.  1.
      622    1    1    2    0    0  0.16874971095E-02  0.57255115184E-03  0.39736394377E+01  0.39737035378E+01  0.22500000000E-01 0.  1.
</event>
<event>
 5   0  0.9908800E+08  0.9118800E+02  0.7818608E-02  0.1180000E+00
       11   -1    0    0    0    0  0.00000000000E+00  0.00000000000E+00  0.39999999673E+01  0.40000000000E+01  0.51109989000E-03 0.  1.
     -623   -1    0    0    0    0  0.00000000000E+00  0.00000000000E+00  0.12525980253E-10  0.17130000000E+03  0.17130000000E+03 0. -1.
       11    1    1    2    0    0  0.59765692473E-02 -0.66932349177E-02  0.42850414444E+00  0.42859839221E+00  0.51109989000E-03 0.  1.
     -623    1    1    2    0    0 -0.53410552567E-04 -0.31617727219E-03  0.17688228870E-03  0.17130000000E+03  0.17130000000E+03 0. -1.
      622    1    1    2    0    0 -0.59231586947E-02  0.70094121899E-02  0.35713189408E+01  0.35714016076E+01  0.22500000000E-01 0.  1.
</event>
<event>
 5   0  0.9908800E+08  0.9118800E+02  0.7818608E-02  0.1180000E+00
       11   -1    0    0    0    0  0.00000000000E+00  0.00000000000E+00  0.39999999673E+01  0.40000000000E+01  0.51109989000E-03 0.  1.
     -623   -1    0    0    0    0  0.00000000000E+00  0.00000000000E+00  0.12525980253E-10  0.17130000000E+03  0.17130000000E+03 0. -1.
       11    1    1    2    0    0 -0.67914265873E-03  0.18689699217E-02  0.39413646506E-02  0.44440814700E-02  0.51109989000E-03 0.  1.
     -623    1    1    2    0    0  0.23711970533E-03 -0.10794567605E-02  0.56614327237E-03  0.17130000000E+03  0.17130000000E+03 0. -1.
      622    1    1    2    0    0  0.44202295340E-03 -0.78951316123E-03  0.39954924594E+01  0.39955559140E+01  0.22500000000E-01 0.  1.
</event>
<event>
 5   0  0.9908800E+08  0.9118800E+02  0.7818608E-02  0.1180000E+00
       11   -1    0    0    0    0  0.00000000000E+00  0.00000000000E+00  0.39999999673E+01  0.40000000000E+01  0.51109989000E-03 0. -1.
     -623   -1    0    0    0    0  0.00000000000E+00  0.00000000000E+00  0.12525980253E-10  0.17130000000E+03  0.17130000000E+03 0.  1.
       11    1    1    2    0    0 -0.17018554341E-02  0.12600606235E-03  0.39336079312E+00  0.39336482682E+00  0.51109989000E-03 0. -1.
     -623    1    1    2    0    0 -0.15224306673E-02 -0.12472505334E-02  0.75811763274E-04  0.17130000001E+03  0.17130000000E+03 0.  1.
      622    1    1    2    0    0  0.32242861013E-02  0.11212444709E-02  0.36065633620E+01  0.36066351614E+01  0.22500000000E-01 0. -1.
</event>
<event>
 5   0  0.9908800E+08  0.9118800E+02  0.7818608E-02  0.1180000E+00
       11   -1    0    0    0    0  0.00000000000E+00  0.00000000000E+00  0.39999999673E+01  0.40000000000E+01  0.51109989000E-03 0.  1.
     -623   -1    0    0    0    0  0.00000000000E+00  0.00000000000E+00  0.12525980253E-10  0.17130000000E+03  0.17130000000E+03 0.  1.
       11    1    1    2    0    0  0.40855580954E-03  0.50089049481E-01  0.20021421503E+00  0.20638573816E+00  0.51109989000E-03 0.  1.
     -623    1    1    2    0    0 -0.11121961185E-01 -0.41500182787E-01  0.62685688981E-02  0.17130000550E+03  0.17130000000E+03 0.  1.
      622    1    1    2    0    0  0.10713405376E-01 -0.85888666942E-02  0.37935171834E+01  0.37936087590E+01  0.22500000000E-01 0.  1.
</event>
<event>
 5   0  0.9908800E+08  0.9118800E+02  0.7818608E-02  0.1180000E+00
       11   -1    0    0    0    0  0.00000000000E+00  0.00000000000E+00  0.39999999673E+01  0.40000000000E+01  0.51109989000E-03 0. -1.
     -623   -1    0    0    0    0  0.00000000000E+00  0.00000000000E+00  0.12525980253E-10  0.17130000000E+03  0.17130000000E+03 0. -1.
       11    1    1    2    0    0  0.39180102736E-03 -0.17780402250E-03  0.10169949074E-01  0.10191869779E-01  0.51109989000E-03 0. -1.
     -623    1    1    2    0    0 -0.26620521509E-03 -0.22745844945E-03  0.85354407535E-04  0.17130000000E+03  0.17130000000E+03 0. -1.
      622    1    1    2    0    0 -0.12559581205E-03  0.40526247214E-03  0.39897446672E+01  0.39898081332E+01  0.22500000000E-01 0. -1.
</event>
<event>
 5   0  0.9908800E+08  0.9118800E+02  0.7818608E-02  0.1180000E+00
       11   -1    0    0    0    0  0.00000000000E+00  0.00000000000E+00  0.39999999673E+01  0.40000000000E+01  0.51109989000E-03 0.  1.
     -623   -1    0    0    0    0  0.00000000000E+00  0.00000000000E+00  0.12525980253E-10  0.17130000000E+03  0.17130000000E+03 0. -1.
       11    1    1    2    0    0 -0.62810288589E-03 -0.88147706135E-03  0.91137958333E-02  0.91920624798E-02  0.51109989000E-03 0.  1.
     -623    1    1    2    0    0 -0.57901947817E-03  0.59276486999E-03  0.14185658864E-03  0.17130000000E+03  0.17130000000E+03 0. -1.
      622    1    1    2    0    0  0.12071223642E-02  0.28871219125E-03  0.39907443157E+01  0.39908079362E+01  0.22500000000E-01 0.  1.
</event>
<event>
 5   0  0.9908800E+08  0.9118800E+02  0.7818608E-02  0.1180000E+00
       11   -1    0    0    0    0  0.00000000000E+00  0.00000000000E+00  0.39999999673E+01  0.40000000000E+01  0.51109989000E-03 0. -1.
     -623   -1    0    0    0    0  0.00000000000E+00  0.00000000000E+00  0.12525980253E-10  0.17130000000E+03  0.17130000000E+03 0. -1.
       11    1    1    2    0    0  0.16198723071E-02  0.33621869662E-03  0.28558892261E-01  0.28611336541E-01  0.51109989000E-03 0. -1.
     -623    1    1    2    0    0  0.31118878508E-03  0.43273528472E-02  0.11941201968E-03  0.17130000005E+03  0.17130000000E+03 0. -1.
      622    1    1    2    0    0 -0.19310610922E-02 -0.46635715438E-02  0.39713216631E+01  0.39713886085E+01  0.22500000000E-01 0. -1.
</event>
<event>
 5   0  0.9908800E+08  0.9118800E+02  0.7818608E-02  0.1180000E+00
       11   -1    0    0    0    0  0.00000000000E+00  0.00000000000E+00  0.39999999673E+01  0.40000000000E+01  0.51109989000E-03 0. -1.
     -623   -1    0    0    0    0  0.00000000000E+00  0.00000000000E+00  0.12525980253E-10  0.17130000000E+03  0.17130000000E+03 0. -1.
       11    1    1    2    0    0 -0.31134485196E-02  0.25999682137E-02  0.57433269006E+00  0.57434724122E+00  0.51109989000E-03 0. -1.
     -623    1    1    2    0    0  0.32953416041E-02 -0.20184753894E-02  0.88508134246E-04  0.17130000004E+03  0.17130000000E+03 0. -1.
      622    1    1    2    0    0 -0.18189308869E-03 -0.58149282171E-03  0.34255787742E+01  0.34256527202E+01  0.22500000000E-01 0. -1.
</event>
<event>
 5   0  0.9908800E+08  0.9118800E+02  0.7818608E-02  0.1180000E+00
       11   -1    0    0    0    0  0.00000000000E+00  0.00000000000E+00  0.39999999673E+01  0.40000000000E+01  0.51109989000E-03 0. -1.
     -623   -1    0    0    0    0  0.00000000000E+00  0.00000000000E+00  0.12525980253E-10  0.17130000000E+03  0.17130000000E+03 0. -1.
       11    1    1    2    0    0 -0.51782881049E-03 -0.13355687811E-02  0.80591929866E-02  0.82014453201E-02  0.51109989000E-03 0. -1.
     -623    1    1    2    0    0  0.76093324603E-03  0.40210624143E-02  0.20659122721E-03  0.17130000005E+03  0.17130000000E+03 0. -1.
      622    1    1    2    0    0 -0.24310443555E-03 -0.26854936333E-02  0.39917341832E+01  0.39917985057E+01  0.22500000000E-01 0. -1.
</event>
<event>
 5   0  0.9908800E+08  0.9118800E+02  0.7818608E-02  0.1180000E+00
       11   -1    0    0    0    0  0.00000000000E+00  0.00000000000E+00  0.39999999673E+01  0.40000000000E+01  0.51109989000E-03 0.  1.
     -623   -1    0    0    0    0  0.00000000000E+00  0.00000000000E+00  0.12525980253E-10  0.17130000000E+03  0.17130000000E+03 0.  1.
       11    1    1    2    0    0  0.15603952939E-02  0.63793257797E-03  0.31014376982E+00  0.31014877233E+00  0.51109989000E-03 0.  1.
     -623    1    1    2    0    0  0.67967519899E-04 -0.22832995832E-04  0.73981438697E-04  0.17130000000E+03  0.17130000000E+03 0.  1.
      622    1    1    2    0    0 -0.16283628138E-02 -0.61509958214E-03  0.36897822148E+01  0.36898512264E+01  0.22500000000E-01 0.  1.
</event>
<event>
 5   0  0.9908800E+08  0.9118800E+02  0.7818608E-02  0.1180000E+00
       11   -1    0    0    0    0  0.00000000000E+00  0.00000000000E+00  0.39999999673E+01  0.40000000000E+01  0.51109989000E-03 0. -1.
     -623   -1    0    0    0    0  0.00000000000E+00  0.00000000000E+00  0.12525980253E-10  0.17130000000E+03  0.17130000000E+03 0.  1.
       11    1    1    2    0    0  0.16849728504E-02 -0.41818805066E-02  0.38161257471E+00  0.38163954939E+00  0.51109989000E-03 0. -1.
     -623    1    1    2    0    0 -0.21995442433E-02  0.10234512731E-01  0.10231730311E-03  0.17130000032E+03  0.17130000000E+03 0.  1.
      622    1    1    2    0    0  0.51457139295E-03 -0.60526322247E-02  0.36182850753E+01  0.36183601307E+01  0.22500000000E-01 0. -1.
</event>
<event>
 5   0  0.9908800E+08  0.9118800E+02  0.7818608E-02  0.1180000E+00
       11   -1    0    0    0    0  0.00000000000E+00  0.00000000000E+00  0.39999999673E+01  0.40000000000E+01  0.51109989000E-03 0.  1.
     -623   -1    0    0    0    0  0.00000000000E+00  0.00000000000E+00  0.12525980253E-10  0.17130000000E+03  0.17130000000E+03 0. -1.
       11    1    1    2    0    0  0.35982639328E-03 -0.20158822512E-03  0.46863305642E-03  0.80681651256E-03  0.51109989000E-03 0. -1.
     -623    1    1    2    0    0 -0.80857149442E-03  0.12504976166E-02  0.40161501044E-03  0.17130000001E+03  0.17130000000E+03 0. -1.
      622    1    1    2    0    0  0.44874510108E-03 -0.10489093914E-02  0.39991297190E+01  0.39991931762E+01  0.22500000000E-01 0.  1.
</event>
<event>
 5   0  0.9908800E+08  0.9118800E+02  0.7818608E-02  0.1180000E+00
       11   -1    0    0    0    0  0.00000000000E+00  0.00000000000E+00  0.39999999673E+01  0.40000000000E+01  0.51109989000E-03 0.  1.
     -623   -1    0    0    0    0  0.00000000000E+00  0.00000000000E+00  0.12525980253E-10  0.17130000000E+03  0.17130000000E+03 0. -1.
       11    1    1    2    0    0  0.25420413714E-03  0.10283976405E-02  0.86342432958E-01  0.86350443957E-01  0.51109989000E-03 0.  1.
     -623    1    1    2    0    0 -0.24741336891E-03  0.35733527359E-05  0.72792635541E-04  0.17130000000E+03  0.17130000000E+03 0. -1.
      622    1    1    2    0    0 -0.67907682313E-05 -0.10319709932E-02  0.39135847418E+01  0.39136495558E+01  0.22500000000E-01 0.  1.
</event>
<event>
 5   0  0.9908800E+08  0.9118800E+02  0.7818608E-02  0.1180000E+00
       11   -1    0    0    0    0  0.00000000000E+00  0.00000000000E+00  0.39999999673E+01  0.40000000000E+01  0.51109989000E-03 0.  1.
     -623   -1    0    0    0    0  0.00000000000E+00  0.00000000000E+00  0.12525980253E-10  0.17130000000E+03  0.17130000000E+03 0.  1.
       11    1    1    2    0    0 -0.24078625360E-02  0.99701861479E-04  0.51365249463E-01  0.51424292100E-01  0.51109989000E-03 0.  1.
     -623    1    1    2    0    0  0.98332033226E-03  0.86153160766E-03  0.12349491899E-03  0.17130000001E+03  0.17130000000E+03 0.  1.
      622    1    1    2    0    0  0.14245422035E-02 -0.96123346930E-03  0.39485112237E+01  0.39485757036E+01  0.22500000000E-01 0.  1.
</event>
<event>
 5   0  0.9908800E+08  0.9118800E+02  0.7818608E-02  0.1180000E+00
       11   -1    0    0    0    0  0.00000000000E+00  0.00000000000E+00  0.39999999673E+01  0.40000000000E+01  0.51109989000E-03 0. -1.
     -623   -1    0    0    0    0  0.00000000000E+00  0.00000000000E+00  0.12525980253E-10  0.17130000000E+03  0.17130000000E+03 0.  1.
       11    1    1    2    0    0 -0.37355988147E-02  0.25605687055E-02  0.83979857177E+00  0.83981093919E+00  0.51109989000E-03 0. -1.
     -623    1    1    2    0    0  0.43081276524E-01 -0.13380087457E-01  0.36184892024E-03  0.17130000594E+03  0.17130000000E+03 0.  1.
      622    1    1    2    0    0 -0.39345677710E-01  0.10819518751E-01  0.31598395467E+01  0.31601831205E+01  0.22500000000E-01 0.  0.
</event>
<event>
 5   0  0.9908800E+08  0.9118800E+02  0.7818608E-02  0.1180000E+00
       11   -1    0    0    0    0  0.00000000000E+00  0.00000000000E+00  0.39999999673E+01  0.40000000000E+01  0.51109989000E-03 0.  1.
     -623   -1    0    0    0    0  0.00000000000E+00  0.00000000000E+00  0.12525980253E-10  0.17130000000E+03  0.17130000000E+03 0. -1.
       11    1    1    2    0    0 -0.36078417934E-02 -0.61171608572E-05  0.12789273730E+00  0.12794463661E+00  0.51109989000E-03 0.  1.
     -623    1    1    2    0    0  0.29841937394E-02  0.30622873361E-02  0.11854922728E-03  0.17130000005E+03  0.17130000000E+03 0. -1.
      622    1    1    2    0    0  0.62364805401E-03 -0.30561701752E-02  0.38719886808E+01  0.38720553100E+01  0.22500000000E-01 0.  1.
</event>
<event>
 5   0  0.9908800E+08  0.9118800E+02  0.7818608E-02  0.1180000E+00
       11   -1    0    0    0    0  0.00000000000E+00  0.00000000000E+00  0.39999999673E+01  0.40000000000E+01  0.51109989000E-03 0. -1.
     -623   -1    0    0    0    0  0.00000000000E+00  0.00000000000E+00  0.12525980253E-10  0.17130000000E+03  0.17130000000E+03 0. -1.
       11    1    1    2    0    0 -0.33826445185E-02  0.59277359675E-02  0.55121887603E+00  0.55126136347E+00  0.51109989000E-03 0. -1.
     -623    1    1    2    0    0 -0.20589791066E-02 -0.85969390318E-02  0.12140623620E-03  0.17130000023E+03  0.17130000000E+03 0. -1.
      622    1    1    2    0    0  0.54416236238E-02  0.26692030591E-02  0.34486596827E+01  0.34487384060E+01  0.22500000000E-01 0. -1.
</event>
<event>
 5   0  0.9908800E+08  0.9118800E+02  0.7818608E-02  0.1180000E+00
       11   -1    0    0    0    0  0.00000000000E+00  0.00000000000E+00  0.39999999673E+01  0.40000000000E+01  0.51109989000E-03 0. -1.
     -623   -1    0    0    0    0  0.00000000000E+00  0.00000000000E+00  0.12525980253E-10  0.17130000000E+03  0.17130000000E+03 0. -1.
       11    1    1    2    0    0  0.46475455618E-03  0.14239754146E-02  0.61204907367E-01  0.61225367387E-01  0.51109989000E-03 0. -1.
     -623    1    1    2    0    0 -0.63217950778E-03 -0.63853890324E-03  0.84777064838E-04  0.17130000000E+03  0.17130000000E+03 0. -1.
      622    1    1    2    0    0  0.16742495118E-03 -0.78543651174E-03  0.39387102803E+01  0.39387746276E+01  0.22500000000E-01 0. -1.
</event>
<event>
 5   0  0.9908800E+08  0.9118800E+02  0.7818608E-02  0.1180000E+00
       11   -1    0    0    0    0  0.00000000000E+00  0.00000000000E+00  0.39999999673E+01  0.40000000000E+01  0.51109989000E-03 0.  1.
     -623   -1    0    0    0    0  0.00000000000E+00  0.00000000000E+00  0.12525980253E-10  0.17130000000E+03  0.17130000000E+03 0.  1.
       11    1    1    2    0    0 -0.26152142300E-02  0.15468898305E-02  0.35612505886E-01  0.35745545327E-01  0.51109989000E-03 0.  1.
     -623    1    1    2    0    0  0.92298438789E-03 -0.30592159237E-02  0.19753875092E-03  0.17130000003E+03  0.17130000000E+03 0.  1.
      622    1    1    2    0    0  0.16922298421E-02  0.15123260932E-02  0.39641899227E+01  0.39642544248E+01  0.22500000000E-01 0.  1.
</event>
<event>
 5   0  0.9908800E+08  0.9118800E+02  0.7818608E-02  0.1180000E+00
       11   -1    0    0    0    0  0.00000000000E+00  0.00000000000E+00  0.39999999673E+01  0.40000000000E+01  0.51109989000E-03 0. -1.
     -623   -1    0    0    0    0  0.00000000000E+00  0.00000000000E+00  0.12525980253E-10  0.17130000000E+03  0.17130000000E+03 0.  1.
       11    1    1    2    0    0  0.92662222286E-02 -0.32209831211E-02  0.12024719145E+00  0.12064777611E+00  0.51109989000E-03 0. -1.
     -623    1    1    2    0    0 -0.73896705085E-02  0.10112499697E-01  0.47283564236E-03  0.17130000046E+03  0.17130000000E+03 0.  1.
      622    1    1    2    0    0 -0.18765517201E-02 -0.68915165756E-02  0.38792799403E+01  0.38793517654E+01  0.22500000000E-01 0. -1.
</event>
<event>
 5   0  0.9908800E+08  0.9118800E+02  0.7818608E-02  0.1180000E+00
       11   -1    0    0    0    0  0.00000000000E+00  0.00000000000E+00  0.39999999673E+01  0.40000000000E+01  0.51109989000E-03 0. -1.
     -623   -1    0    0    0    0  0.00000000000E+00  0.00000000000E+00  0.12525980253E-10  0.17130000000E+03  0.17130000000E+03 0. -1.
       11    1    1    2    0    0  0.24324327128E-02  0.48730106553E-02  0.49862920372E+00  0.49865920926E+00  0.51109989000E-03 0. -1.
     -623    1    1    2    0    0  0.46216728781E-03 -0.94885408857E-04  0.10672491383E-03  0.17130000000E+03  0.17130000000E+03 0. -1.
      622    1    1    2    0    0 -0.28946000012E-02 -0.47781252463E-02  0.35012640439E+01  0.35013407953E+01  0.22500000000E-01 0. -1.
</event>
<event>
 5   0  0.9908800E+08  0.9118800E+02  0.7818608E-02  0.1180000E+00
       11   -1    0    0    0    0  0.00000000000E+00  0.00000000000E+00  0.39999999673E+01  0.40000000000E+01  0.51109989000E-03 0.  1.
     -623   -1    0    0    0    0  0.00000000000E+00  0.00000000000E+00  0.12525980253E-10  0.17130000000E+03  0.17130000000E+03 0.  1.
       11    1    1    2    0    0 -0.93800542716E-03 -0.11751011567E-03  0.41436485854E-01  0.41450419124E-01  0.51109989000E-03 0.  1.
     -623    1    1    2    0    0  0.22232874712E-02 -0.93422964970E-03  0.78210393970E-04  0.17130000002E+03  0.17130000000E+03 0.  1.
      622    1    1    2    0    0 -0.12852820440E-02  0.10517397654E-02  0.39584852711E+01  0.39585495639E+01  0.22500000000E-01 0.  1.
</event>
<event>
 5   0  0.9908800E+08  0.9118800E+02  0.7818608E-02  0.1180000E+00
       11   -1    0    0    0    0  0.00000000000E+00  0.00000000000E+00  0.39999999673E+01  0.40000000000E+01  0.51109989000E-03 0.  1.
     -623   -1    0    0    0    0  0.00000000000E+00  0.00000000000E+00  0.12525980253E-10  0.17130000000E+03  0.17130000000E+03 0. -1.
       11    1    1    2    0    0 -0.64897753470E-02 -0.93928971674E-02  0.11566831824E+01  0.11567396377E+01  0.51109989000E-03 0.  1.
     -623    1    1    2    0    0  0.71310034108E-03 -0.28490913079E-02  0.17769972167E-03  0.17130000003E+03  0.17130000000E+03 0. -1.
      622    1    1    2    0    0  0.57766750057E-02  0.12241988476E-01  0.28431390862E+01  0.28432603381E+01  0.22500000000E-01 0.  1.
</event>
<event>
 5   0  0.9908800E+08  0.9118800E+02  0.7818608E-02  0.1180000E+00
       11   -1    0    0    0    0  0.00000000000E+00  0.00000000000E+00  0.39999999673E+01  0.40000000000E+01  0.51109989000E-03 0.  1.
     -623   -1    0    0    0    0  0.00000000000E+00  0.00000000000E+00  0.12525980253E-10  0.17130000000E+03  0.17130000000E+03 0. -1.
       11    1    1    2    0    0 -0.69389965226E-02 -0.56284983840E-02  0.42391615517E+00  0.42401061013E+00  0.51109989000E-03 0.  1.
     -623    1    1    2    0    0 -0.12510631847E-02 -0.18000321996E-03  0.17930889620E-03  0.17130000000E+03  0.17130000000E+03 0. -1.
      622    1    1    2    0    0  0.81900597073E-02  0.58085016040E-02  0.35759045033E+01  0.35759893851E+01  0.22500000000E-01 0.  1.
</event>
<event>
 5   0  0.9908800E+08  0.9118800E+02  0.7818608E-02  0.1180000E+00
       11   -1    0    0    0    0  0.00000000000E+00  0.00000000000E+00  0.39999999673E+01  0.40000000000E+01  0.51109989000E-03 0.  1.
     -623   -1    0    0    0    0  0.00000000000E+00  0.00000000000E+00  0.12525980253E-10  0.17130000000E+03  0.17130000000E+03 0.  1.
       11    1    1    2    0    0  0.68327415456E-02  0.11982633727E-02  0.16917887279E+00  0.16932180726E+00  0.51109989000E-03 0.  1.
     -623    1    1    2    0    0 -0.81163148741E-03 -0.69396881453E-03  0.21374954529E-03  0.17130000000E+03  0.17130000000E+03 0.  1.
      622    1    1    2    0    0 -0.60211100582E-02 -0.50429455814E-03  0.38306073450E+01  0.38306781893E+01  0.22500000000E-01 0.  1.
</event>
<event>
 5   0  0.9908800E+08  0.9118800E+02  0.7818608E-02  0.1180000E+00
       11   -1    0    0    0    0  0.00000000000E+00  0.00000000000E+00  0.39999999673E+01  0.40000000000E+01  0.51109989000E-03 0.  1.
     -623   -1    0    0    0    0  0.00000000000E+00  0.00000000000E+00  0.12525980253E-10  0.17130000000E+03  0.17130000000E+03 0. -1.
       11    1    1    2    0    0 -0.34550904148E-03 -0.58155000794E-03  0.11185754851E-01  0.11217838928E-01  0.51109989000E-03 0.  1.
     -623    1    1    2    0    0  0.35214021872E-04  0.25880257374E-03  0.95536513556E-04  0.17130000000E+03  0.17130000000E+03 0. -1.
      622    1    1    2    0    0  0.31029501960E-03  0.32274743420E-03  0.39887186760E+01  0.39887821608E+01  0.22500000000E-01 0.  1.
</event>
<event>
 5   0  0.9908800E+08  0.9118800E+02  0.7818608E-02  0.1180000E+00
       11   -1    0    0    0    0  0.00000000000E+00  0.00000000000E+00  0.39999999673E+01  0.40000000000E+01  0.51109989000E-03 0.  1.
     -623   -1    0    0    0    0  0.00000000000E+00  0.00000000000E+00  0.12525980253E-10  0.17130000000E+03  0.17130000000E+03 0.  1.
       11    1    1    2    0    0  0.43507039893E-01 -0.41149873324E-01  0.20658081110E+00  0.21508618582E+00  0.51109989000E-03 0.  1.
     -623    1    1    2    0    0 -0.40615505238E-01  0.40570343606E-01  0.85832034328E-02  0.17130000983E+03  0.17130000000E+03 0.  1.
      622    1    1    2    0    0 -0.28915346559E-02  0.57952971878E-03  0.37848359528E+01  0.37849039798E+01  0.22500000000E-01 0.  1.
</event>
<event>
 5   0  0.9908800E+08  0.9118800E+02  0.7818608E-02  0.1180000E+00
       11   -1    0    0    0    0  0.00000000000E+00  0.00000000000E+00  0.39999999673E+01  0.40000000000E+01  0.51109989000E-03 0. -1.
     -623   -1    0    0    0    0  0.00000000000E+00  0.00000000000E+00  0.12525980253E-10  0.17130000000E+03  0.17130000000E+03 0. -1.
       11    1    1    2    0    0  0.33113476291E-03  0.35086403021E-03  0.62299989650E-01  0.62303954037E-01  0.51109989000E-03 0. -1.
     -623    1    1    2    0    0 -0.37044300244E-03  0.16349172755E-02  0.68723921746E-04  0.17130000001E+03  0.17130000000E+03 0. -1.
      622    1    1    2    0    0  0.39308239529E-04 -0.19857813057E-02  0.39376312538E+01  0.39376960377E+01  0.22500000000E-01 0. -1.
</event>
<event>
 5   0  0.9908800E+08  0.9118800E+02  0.7818608E-02  0.1180000E+00
       11   -1    0    0    0    0  0.00000000000E+00  0.00000000000E+00  0.39999999673E+01  0.40000000000E+01  0.51109989000E-03 0. -1.
     -623   -1    0    0    0    0  0.00000000000E+00  0.00000000000E+00  0.12525980253E-10  0.17130000000E+03  0.17130000000E+03 0. -1.
       11    1    1    2    0    0 -0.49275367597E-02  0.12644665856E-02  0.92161869262E-01  0.92303579904E-01  0.51109989000E-03 0. -1.
     -623    1    1    2    0    0  0.43792515431E-02 -0.70505426533E-03  0.20659061572E-03  0.17130000006E+03  0.17130000000E+03 0. -1.
      622    1    1    2    0    0  0.54828521812E-03 -0.55941232047E-03  0.39076315061E+01  0.39076963612E+01  0.22500000000E-01 0. -1.
</event>
<event>
 5   0  0.9908800E+08  0.9118800E+02  0.7818608E-02  0.1180000E+00
       11   -1    0    0    0    0  0.00000000000E+00  0.00000000000E+00  0.39999999673E+01  0.40000000000E+01  0.51109989000E-03 0. -1.
     -623   -1    0    0    0    0  0.00000000000E+00  0.00000000000E+00  0.12525980253E-10  0.17130000000E+03  0.17130000000E+03 0.  1.
       11    1    1    2    0    0  0.46595042959E-03 -0.97180046488E-02  0.10882520893E+01  0.10882956987E+01  0.51109989000E-03 0. -1.
     -623    1    1    2    0    0  0.10647702780E-02 -0.59936372680E-03  0.14919842592E-03  0.17130000000E+03  0.17130000000E+03 0.  1.
      622    1    1    2    0    0 -0.15307207076E-02  0.10317368376E-01  0.29115986795E+01  0.29117042968E+01  0.22500000000E-01 0. -1.
</event>
<event>
 5   0  0.9908800E+08  0.9118800E+02  0.7818608E-02  0.1180000E+00
       11   -1    0    0    0    0  0.00000000000E+00  0.00000000000E+00  0.39999999673E+01  0.40000000000E+01  0.51109989000E-03 0. -1.
     -623   -1    0    0    0    0  0.00000000000E+00  0.00000000000E+00  0.12525980253E-10  0.17130000000E+03  0.17130000000E+03 0.  1.
       11    1    1    2    0    0 -0.20768305262E-01 -0.91043160162E-02  0.53281039941E+00  0.53329297202E+00  0.51109989000E-03 0. -1.
     -623    1    1    2    0    0  0.27508873078E-02  0.20102956399E-02  0.60967230813E-03  0.17130000003E+03  0.17130000000E+03 0.  1.
      622    1    1    2    0    0  0.18017417954E-01  0.70940203763E-02  0.34665798956E+01  0.34667069930E+01  0.22500000000E-01 0. -1.
</event>
<event>
 5   0  0.9908800E+08  0.9118800E+02  0.7818608E-02  0.1180000E+00
       11   -1    0    0    0    0  0.00000000000E+00  0.00000000000E+00  0.39999999673E+01  0.40000000000E+01  0.51109989000E-03 0. -1.
     -623   -1    0    0    0    0  0.00000000000E+00  0.00000000000E+00  0.12525980253E-10  0.17130000000E+03  0.17130000000E+03 0.  1.
       11    1    1    2    0    0  0.32194063729E-03  0.50646476817E-03  0.96796114546E-02  0.97116554960E-02  0.51109989000E-03 0. -1.
     -623    1    1    2    0    0 -0.10047587415E-02 -0.97337573447E-04  0.95529569122E-04  0.17130000000E+03  0.17130000000E+03 0.  1.
      622    1    1    2    0    0  0.68281810418E-03 -0.40912719473E-03  0.39902248263E+01  0.39902883415E+01  0.22500000000E-01 0. -1.
</event>
<event>
 5   0  0.9908800E+08  0.9118800E+02  0.7818608E-02  0.1180000E+00
       11   -1    0    0    0    0  0.00000000000E+00  0.00000000000E+00  0.39999999673E+01  0.40000000000E+01  0.51109989000E-03 0.  1.
     -623   -1    0    0    0    0  0.00000000000E+00  0.00000000000E+00  0.12525980253E-10  0.17130000000E+03  0.17130000000E+03 0.  1.
       11    1    1    2    0    0  0.69666769174E-03 -0.53751352109E-02  0.80302279303E+00  0.80304124724E+00  0.51109989000E-03 0.  1.
     -623    1    1    2    0    0  0.12580288796E-01  0.69766337854E-02  0.12617496943E-03  0.17130000060E+03  0.17130000000E+03 0.  1.
      622    1    1    2    0    0 -0.13276956484E-01 -0.16014985728E-02  0.31968509984E+01  0.31969581477E+01  0.22500000000E-01 0.  0.
</event>
<event>
 5   0  0.9908800E+08  0.9118800E+02  0.7818608E-02  0.1180000E+00
       11   -1    0    0    0    0  0.00000000000E+00  0.00000000000E+00  0.39999999673E+01  0.40000000000E+01  0.51109989000E-03 0.  1.
     -623   -1    0    0    0    0  0.00000000000E+00  0.00000000000E+00  0.12525980253E-10  0.17130000000E+03  0.17130000000E+03 0. -1.
       11    1    1    2    0    0 -0.95840509507E-02 -0.62830180564E-02  0.23286116381E+00  0.23314354630E+00  0.51109989000E-03 0.  1.
     -623    1    1    2    0    0  0.35329471862E-03 -0.44517066706E-02  0.37621347769E-03  0.17130000006E+03  0.17130000000E+03 0. -1.
      622    1    1    2    0    0  0.92307562321E-02  0.10734724727E-01  0.37667625901E+01  0.37668563951E+01  0.22500000000E-01 0.  1.
</event>
<event>
 5   0  0.9908800E+08  0.9118800E+02  0.7818608E-02  0.1180000E+00
       11   -1    0    0    0    0  0.00000000000E+00  0.00000000000E+00  0.39999999673E+01  0.40000000000E+01  0.51109989000E-03 0. -1.
     -623   -1    0    0    0    0  0.00000000000E+00  0.00000000000E+00  0.12525980253E-10  0.17130000000E+03  0.17130000000E+03 0. -1.
       11    1    1    2    0    0 -0.15996675491E-04 -0.65284382994E-03  0.25183398763E-02  0.26513618745E-02  0.51109989000E-03 0. -1.
     -623    1    1    2    0    0  0.38479547791E-03  0.16845507527E-03  0.19636007263E-03  0.17130000000E+03  0.17130000000E+03 0. -1.
      622    1    1    2    0    0 -0.36879880238E-03  0.48438875468E-03  0.39972852670E+01  0.39973486371E+01  0.22500000000E-01 0. -1.
</event>
<event>
 5   0  0.9908800E+08  0.9118800E+02  0.7818608E-02  0.1180000E+00
       11   -1    0    0    0    0  0.00000000000E+00  0.00000000000E+00  0.39999999673E+01  0.40000000000E+01  0.51109989000E-03 0.  1.
     -623   -1    0    0    0    0  0.00000000000E+00  0.00000000000E+00  0.12525980253E-10  0.17130000000E+03  0.17130000000E+03 0.  1.
       11    1    1    2    0    0 -0.20258235223E-03 -0.45372208270E-02  0.95468741849E-01  0.95578079630E-01  0.51109989000E-03 0.  1.
     -623    1    1    2    0    0 -0.93360335866E-03 -0.49289829202E-03  0.17754492224E-03  0.17130000000E+03  0.17130000000E+03 0.  1.
      622    1    1    2    0    0  0.11361857108E-02  0.50301191189E-02  0.39043536801E+01  0.39044219165E+01  0.22500000000E-01 0.  1.
</event>
<event>
 5   0  0.9908800E+08  0.9118800E+02  0.7818608E-02  0.1180000E+00
       11   -1    0    0    0    0  0.00000000000E+00  0.00000000000E+00  0.39999999673E+01  0.40000000000E+01  0.51109989000E-03 0. -1.
     -623   -1    0    0    0    0  0.00000000000E+00  0.00000000000E+00  0.12525980253E-10  0.17130000000E+03  0.17130000000E+03 0.  1.
       11    1    1    2    0    0  0.13888159076E-02  0.50581053302E-03  0.13176403498E-01  0.13268891607E-01  0.51109989000E-03 0. -1.
     -623    1    1    2    0    0 -0.32711915862E-02  0.30162923136E-02  0.15800594087E-03  0.17130000006E+03  0.17130000000E+03 0.  1.
      622    1    1    2    0    0  0.18823756787E-02 -0.35221028466E-02  0.39866655579E+01  0.39867310505E+01  0.22500000000E-01 0. -1.
</event>
<event>
 5   0  0.9908800E+08  0.9118800E+02  0.7818608E-02  0.1180000E+00
       11   -1    0    0    0    0  0.00000000000E+00  0.00000000000E+00  0.39999999673E+01  0.40000000000E+01  0.51109989000E-03 0.  1.
     -623   -1    0    0    0    0  0.00000000000E+00  0.00000000000E+00  0.12525980253E-10  0.17130000000E+03  0.17130000000E+03 0. -1.
       11    1    1    2    0    0  0.26737293288E-02 -0.11426127125E-02  0.10232957721E-01  0.10650306998E-01  0.51109989000E-03 0.  1.
     -623    1    1    2    0    0 -0.20605611523E-03 -0.56364393831E-03  0.48189717364E-03  0.17130000000E+03  0.17130000000E+03 0. -1.
      622    1    1    2    0    0 -0.24676732136E-02  0.17062566509E-02  0.39892851129E+01  0.39893496917E+01  0.22500000000E-01 0.  1.
</event>
<event>
 5   0  0.9908800E+08  0.9118800E+02  0.7818608E-02  0.1180000E+00
       11   -1    0    0    0    0  0.00000000000E+00  0.00000000000E+00  0.39999999673E+01  0.40000000000E+01  0.51109989000E-03 0.  1.
     -623   -1    0    0    0    0  0.00000000000E+00  0.00000000000E+00  0.12525980253E-10  0.17130000000E+03  0.17130000000E+03 0. -1.
       11    1    1    2    0    0 -0.19273825754E-03 -0.14422981336E-02  0.71343592497E+00  0.71343759197E+00  0.51109989000E-03 0.  1.
     -623    1    1    2    0    0  0.15908826788E-02  0.42331748905E-02  0.80195540185E-04  0.17130000006E+03  0.17130000000E+03 0. -1.
      622    1    1    2    0    0 -0.13981444213E-02 -0.27908767569E-02  0.32864838469E+01  0.32865623483E+01  0.22500000000E-01 0.  1.
</event>
<event>
 5   0  0.9908800E+08  0.9118800E+02  0.7818608E-02  0.1180000E+00
       11   -1    0    0    0    0  0.00000000000E+00  0.00000000000E+00  0.39999999673E+01  0.40000000000E+01  0.51109989000E-03 0.  1.
     -623   -1    0    0    0    0  0.00000000000E+00  0.00000000000E+00  0.12525980253E-10  0.17130000000E+03  0.17130000000E+03 0. -1.
       11    1    1    2    0    0 -0.47654751904E-03 -0.28409964731E-02  0.45378241277E+00  0.45379184405E+00  0.51109989000E-03 0.  1.
     -623    1    1    2    0    0 -0.61972066073E-04  0.45753066724E-03  0.81620942583E-04  0.17130000000E+03  0.17130000000E+03 0. -1.
      622    1    1    2    0    0  0.53851958513E-03  0.23834658058E-02  0.35461359344E+01  0.35462081561E+01  0.22500000000E-01 0.  1.
</event>
<event>
 5   0  0.9908800E+08  0.9118800E+02  0.7818608E-02  0.1180000E+00
       11   -1    0    0    0    0  0.00000000000E+00  0.00000000000E+00  0.39999999673E+01  0.40000000000E+01  0.51109989000E-03 0. -1.
     -623   -1    0    0    0    0  0.00000000000E+00  0.00000000000E+00  0.12525980253E-10  0.17130000000E+03  0.17130000000E+03 0. -1.
       11    1    1    2    0    0  0.17769757422E-02 -0.75692950095E-02  0.87040013614E+00  0.87043501198E+00  0.51109989000E-03 0. -1.
     -623    1    1    2    0    0  0.32492591365E-02  0.17945262942E-01  0.13793436363E-03  0.17130000097E+03  0.17130000000E+03 0. -1.
      622    1    1    2    0    0 -0.50262348806E-02 -0.10375967943E-01  0.31294618993E+01  0.31295640196E+01  0.22500000000E-01 0. -1.
</event>
<event>
 5   0  0.9908800E+08  0.9118800E+02  0.7818608E-02  0.1180000E+00
       11   -1    0    0    0    0  0.00000000000E+00  0.00000000000E+00  0.39999999673E+01  0.40000000000E+01  0.51109989000E-03 0.  1.
     -623   -1    0    0    0    0  0.00000000000E+00  0.00000000000E+00  0.12525980253E-10  0.17130000000E+03  0.17130000000E+03 0.  1.
       11    1    1    2    0    0  0.10342417936E-02  0.15846454407E-02  0.89014065288E-02  0.91146594690E-02  0.51109989000E-03 0.  1.
     -623    1    1    2    0    0  0.93760683416E-03 -0.18286710031E-02  0.27715373305E-03  0.17130000001E+03  0.17130000000E+03 0.  1.
      622    1    1    2    0    0 -0.19718486278E-02  0.24402556244E-03  0.39908214071E+01  0.39908853280E+01  0.22500000000E-01 0.  1.
</event>
<event>
 5   0  0.9908800E+08  0.9118800E+02  0.7818608E-02  0.1180000E+00
       11   -1    0    0    0    0  0.00000000000E+00  0.00000000000E+00  0.39999999673E+01  0.40000000000E+01  0.51109989000E-03 0.  1.
     -623   -1    0    0    0    0  0.00000000000E+00  0.00000000000E+00  0.12525980253E-10  0.17130000000E+03  0.17130000000E+03 0. -1.
       11    1    1    2    0    0  0.11033178227E-01 -0.24151811581E-02  0.27902642400E+00  0.27925538605E+00  0.51109989000E-03 0.  1.
     -623    1    1    2    0    0 -0.27291314673E-02  0.15923688312E-02  0.30634792366E-03  0.17130000003E+03  0.17130000000E+03 0. -1.
      622    1    1    2    0    0 -0.83040467600E-02  0.82281232691E-03  0.37206671954E+01  0.37207445845E+01  0.22500000000E-01 0.  1.
</event>
<event>
 5   0  0.9908800E+08  0.9118800E+02  0.7818608E-02  0.1180000E+00
       11   -1    0    0    0    0  0.00000000000E+00  0.00000000000E+00  0.39999999673E+01  0.40000000000E+01  0.51109989000E-03 0. -1.
     -623   -1    0    0    0    0  0.00000000000E+00  0.00000000000E+00  0.12525980253E-10  0.17130000000E+03  0.17130000000E+03 0.  1.
       11    1    1    2    0    0 -0.14348109066E-01  0.19473959838E-02  0.14598942213E+00  0.14670662282E+00  0.51109989000E-03 0. -1.
     -623    1    1    2    0    0  0.17858306865E-02 -0.10516381373E-02  0.80345551485E-03  0.17130000001E+03  0.17130000000E+03 0.  1.
      622    1    1    2    0    0  0.12562278380E-01 -0.89575784646E-03  0.38532070897E+01  0.38532933628E+01  0.22500000000E-01 0. -1.
</event>
<event>
 5   0  0.9908800E+08  0.9118800E+02  0.7818608E-02  0.1180000E+00
       11   -1    0    0    0    0  0.00000000000E+00  0.00000000000E+00  0.39999999673E+01  0.40000000000E+01  0.51109989000E-03 0.  1.
     -623   -1    0    0    0    0  0.00000000000E+00  0.00000000000E+00  0.12525980253E-10  0.17130000000E+03  0.17130000000E+03 0.  1.
       11    1    1    2    0    0  0.10070955835E-01  0.15758631278E-01  0.23568760349E+00  0.23642898780E+00  0.51109989000E-03 0.  1.
     -623    1    1    2    0    0 -0.58854850028E-02 -0.35698605933E-02  0.83081437855E-03  0.17130000014E+03  0.17130000000E+03 0.  1.
      622    1    1    2    0    0 -0.41854708325E-02 -0.12188770685E-01  0.37634815491E+01  0.37635708715E+01  0.22500000000E-01 0.  1.
</event>
<event>
 5   0  0.9908800E+08  0.9118800E+02  0.7818608E-02  0.1180000E+00
       11   -1    0    0    0    0  0.00000000000E+00  0.00000000000E+00  0.39999999673E+01  0.40000000000E+01  0.51109989000E-03 0. -1.
     -623   -1    0    0    0    0  0.00000000000E+00  0.00000000000E+00  0.12525980253E-10  0.17130000000E+03  0.17130000000E+03 0. -1.
       11    1    1    2    0    0 -0.38811294313E-01  0.16319553136E-01  0.10873906891E+00  0.11660656375E+00  0.51109989000E-03 0. -1.
     -623    1    1    2    0    0  0.28200173377E-01 -0.74639632746E-02  0.79599075883E-02  0.17130000267E+03  0.17130000000E+03 0. -1.
      622    1    1    2    0    0  0.10611120936E-01 -0.88555898611E-02  0.38833009909E+01  0.38833907675E+01  0.22500000000E-01 0. -1.
</event>
<event>
 5   0  0.9908800E+08  0.9118800E+02  0.7818608E-02  0.1180000E+00
       11   -1    0    0    0    0  0.00000000000E+00  0.00000000000E+00  0.39999999673E+01  0.40000000000E+01  0.51109989000E-03 0.  1.
     -623   -1    0    0    0    0  0.00000000000E+00  0.00000000000E+00  0.12525980253E-10  0.17130000000E+03  0.17130000000E+03 0.  1.
       11    1    1    2    0    0 -0.42642087806E-02  0.41042475659E-02  0.21335257448E+00  0.21343526088E+00  0.51109989000E-03 0.  1.
     -623    1    1    2    0    0  0.42139607378E-02 -0.32808724853E-02  0.14967570770E-03  0.17130000008E+03  0.17130000000E+03 0.  1.
      622    1    1    2    0    0  0.50248040094E-04 -0.82337507847E-03  0.37864977198E+01  0.37865646584E+01  0.22500000000E-01 0.  1.
</event>
<event>
 5   0  0.9908800E+08  0.9118800E+02  0.7818608E-02  0.1180000E+00
       11   -1    0    0    0    0  0.00000000000E+00  0.00000000000E+00  0.39999999673E+01  0.40000000000E+01  0.51109989000E-03 0. -1.
     -623   -1    0    0    0    0  0.00000000000E+00  0.00000000000E+00  0.12525980253E-10  0.17130000000E+03  0.17130000000E+03 0. -1.
       11    1    1    2    0    0 -0.16935655832E-03 -0.17187597353E-03  0.11648792488E-01  0.11662495944E-01  0.51109989000E-03 0. -1.
     -623    1    1    2    0    0  0.27988277611E-03  0.81188416658E-05  0.77142754342E-04  0.17130000000E+03  0.17130000000E+03 0. -1.
      622    1    1    2    0    0 -0.11052621779E-03  0.16375713187E-03  0.39882740321E+01  0.39883375038E+01  0.22500000000E-01 0. -1.
</event>
<event>
 5   0  0.9908800E+08  0.9118800E+02  0.7818608E-02  0.1180000E+00
       11   -1    0    0    0    0  0.00000000000E+00  0.00000000000E+00  0.39999999673E+01  0.40000000000E+01  0.51109989000E-03 0.  1.
     -623   -1    0    0    0    0  0.00000000000E+00  0.00000000000E+00  0.12525980253E-10  0.17130000000E+03  0.17130000000E+03 0.  1.
       11    1    1    2    0    0 -0.53980653110E-02  0.39436167121E-02  0.53162084473E+00  0.53166312171E+00  0.51109989000E-03 0.  1.
     -623    1    1    2    0    0 -0.75430175536E-04 -0.23603606962E-05  0.12178526408E-03  0.17130000000E+03  0.17130000000E+03 0.  1.
      622    1    1    2    0    0  0.54734954865E-02 -0.39412563514E-02  0.34682573374E+01  0.34683368782E+01  0.22500000000E-01 0.  1.
</event>
<event>
 5   0  0.9908800E+08  0.9118800E+02  0.7818608E-02  0.1180000E+00
       11   -1    0    0    0    0  0.00000000000E+00  0.00000000000E+00  0.39999999673E+01  0.40000000000E+01  0.51109989000E-03 0. -1.
     -623   -1    0    0    0    0  0.00000000000E+00  0.00000000000E+00  0.12525980253E-10  0.17130000000E+03  0.17130000000E+03 0.  1.
       11    1    1    2    0    0  0.22883824705E-02  0.77697772738E-02  0.47346656506E+00  0.47353611856E+00  0.51109989000E-03 0. -1.
     -623    1    1    2    0    0  0.11435758303E-02  0.23216709437E-03  0.15205322489E-03  0.17130000000E+03  0.17130000000E+03 0.  1.
      622    1    1    2    0    0 -0.34319583015E-02 -0.80019443683E-02  0.35263813512E+01  0.35264638795E+01  0.22500000000E-01 0. -1.
</event>
<event>
 5   0  0.9908800E+08  0.9118800E+02  0.7818608E-02  0.1180000E+00
       11   -1    0    0    0    0  0.00000000000E+00  0.00000000000E+00  0.39999999673E+01  0.40000000000E+01  0.51109989000E-03 0. -1.
     -623   -1    0    0    0    0  0.00000000000E+00  0.00000000000E+00  0.12525980253E-10  0.17130000000E+03  0.17130000000E+03 0. -1.
       11    1    1    2    0    0 -0.29149237166E-03  0.29665603888E-02  0.49160191667E-01  0.49253133056E-01  0.51109989000E-03 0. -1.
     -623    1    1    2    0    0 -0.24865571322E-03  0.75355377922E-04  0.15818772389E-03  0.17130000000E+03  0.17130000000E+03 0. -1.
      622    1    1    2    0    0  0.54014808488E-03 -0.30419157667E-02  0.39506815880E+01  0.39507468667E+01  0.22500000000E-01 0. -1.
</event>
<event>
 5   0  0.9908800E+08  0.9118800E+02  0.7818608E-02  0.1180000E+00
       11   -1    0    0    0    0  0.00000000000E+00  0.00000000000E+00  0.39999999673E+01  0.40000000000E+01  0.51109989000E-03 0. -1.
     -623   -1    0    0    0    0  0.00000000000E+00  0.00000000000E+00  0.12525980253E-10  0.17130000000E+03  0.17130000000E+03 0.  1.
       11    1    1    2    0    0 -0.22960494762E-03  0.89462899130E-05  0.25353986719E-02  0.25965877592E-02  0.51109989000E-03 0. -1.
     -623    1    1    2    0    0  0.33988324084E-03 -0.22031118363E-03  0.12448693753E-03  0.17130000000E+03  0.17130000000E+03 0.  1.
      622    1    1    2    0    0 -0.11027829335E-03  0.21136489380E-03  0.39973400833E+01  0.39974034133E+01  0.22500000000E-01 0. -1.
</event>
<event>
 5   0  0.9908800E+08  0.9118800E+02  0.7818608E-02  0.1180000E+00
       11   -1    0    0    0    0  0.00000000000E+00  0.00000000000E+00  0.39999999673E+01  0.40000000000E+01  0.51109989000E-03 0.  1.
     -623   -1    0    0    0    0  0.00000000000E+00  0.00000000000E+00  0.12525980253E-10  0.17130000000E+03  0.17130000000E+03 0.  1.
       11    1    1    2    0    0 -0.68054490660E-02  0.19941315136E-02  0.49725275833E-01  0.50231016088E-01  0.51109989000E-03 0.  1.
     -623    1    1    2    0    0  0.13656759606E-02 -0.17067379676E-02  0.57356551864E-03  0.17130000001E+03  0.17130000000E+03 0.  1.
      622    1    1    2    0    0  0.54397731052E-02 -0.28739354583E-03  0.39497011265E+01  0.39497689695E+01  0.22500000000E-01 0.  1.
</event>
<event>
 5   0  0.9908800E+08  0.9118800E+02  0.7818608E-02  0.1180000E+00
       11   -1    0    0    0    0  0.00000000000E+00  0.00000000000E+00  0.39999999673E+01  0.40000000000E+01  0.51109989000E-03 0. -1.
     -623   -1    0    0    0    0  0.00000000000E+00  0.00000000000E+00  0.12525980253E-10  0.17130000000E+03  0.17130000000E+03 0. -1.
       11    1    1    2    0    0  0.29688411661E-02 -0.40167063088E-02  0.36646572725E+00  0.36650012063E+00  0.51109989000E-03 0. -1.
     -623    1    1    2    0    0  0.88329206870E-03  0.70731386390E-03  0.10757854217E-03  0.17130000000E+03  0.17130000000E+03 0. -1.
      622    1    1    2    0    0 -0.38521332354E-02  0.33093924444E-02  0.36334266643E+01  0.36334998784E+01  0.22500000000E-01 0. -1.
</event>
<event>
 5   0  0.9908800E+08  0.9118800E+02  0.7818608E-02  0.1180000E+00
       11   -1    0    0    0    0  0.00000000000E+00  0.00000000000E+00  0.39999999673E+01  0.40000000000E+01  0.51109989000E-03 0.  1.
     -623   -1    0    0    0    0  0.00000000000E+00  0.00000000000E+00  0.12525980253E-10  0.17130000000E+03  0.17130000000E+03 0.  1.
       11    1    1    2    0    0 -0.12841562532E-02  0.17410176620E-02  0.13912762143E-01  0.14089228893E-01  0.51109989000E-03 0.  1.
     -623    1    1    2    0    0 -0.10567647126E-02 -0.75082064032E-03  0.24075504206E-03  0.17130000001E+03  0.17130000000E+03 0.  1.
      622    1    1    2    0    0  0.23409209658E-02 -0.99019702172E-03  0.39858464502E+01  0.39859107660E+01  0.22500000000E-01 0.  1.
</event>
<event>
 5   0  0.9908800E+08  0.9118800E+02  0.7818608E-02  0.1180000E+00
       11   -1    0    0    0    0  0.00000000000E+00  0.00000000000E+00  0.39999999673E+01  0.40000000000E+01  0.51109989000E-03 0.  1.
     -623   -1    0    0    0    0  0.00000000000E+00  0.00000000000E+00  0.12525980253E-10  0.17130000000E+03  0.17130000000E+03 0. -1.
       11    1    1    2    0    0  0.16077501948E-02 -0.10216785746E-02  0.14676181960E+00  0.14677507145E+00  0.51109989000E-03 0.  1.
     -623    1    1    2    0    0 -0.27706853691E-02 -0.28777736076E-02  0.81106749677E-04  0.17130000005E+03  0.17130000000E+03 0. -1.
      622    1    1    2    0    0  0.11629351742E-02  0.38994521822E-02  0.38531570410E+01  0.38532248819E+01  0.22500000000E-01 0.  1.
</event>
<event>
 5   0  0.9908800E+08  0.9118800E+02  0.7818608E-02  0.1180000E+00
       11   -1    0    0    0    0  0.00000000000E+00  0.00000000000E+00  0.39999999673E+01  0.40000000000E+01  0.51109989000E-03 0. -1.
     -623   -1    0    0    0    0  0.00000000000E+00  0.00000000000E+00  0.12525980253E-10  0.17130000000E+03  0.17130000000E+03 0. -1.
       11    1    1    2    0    0 -0.27461753282E-03  0.19713979394E-04  0.13038040546E-01  0.13050958777E-01  0.51109989000E-03 0. -1.
     -623    1    1    2    0    0 -0.20232958421E-03 -0.30101544821E-03  0.76413346082E-04  0.17130000000E+03  0.17130000000E+03 0. -1.
      622    1    1    2    0    0  0.47694711703E-03  0.28130146882E-03  0.39868855135E+01  0.39869490408E+01  0.22500000000E-01 0. -1.
</event>
<event>
 5   0  0.9908800E+08  0.9118800E+02  0.7818608E-02  0.1180000E+00
       11   -1    0    0    0    0  0.00000000000E+00  0.00000000000E+00  0.39999999673E+01  0.40000000000E+01  0.51109989000E-03 0. -1.
     -623   -1    0    0    0    0  0.00000000000E+00  0.00000000000E+00  0.12525980253E-10  0.17130000000E+03  0.17130000000E+03 0.  1.
       11    1    1    2    0    0 -0.28159428023E-02  0.21750676988E-02  0.70638346376E+00  0.70639261006E+00  0.51109989000E-03 0. -1.
     -623    1    1    2    0    0  0.15921691469E-04  0.42407951638E-03  0.88184341406E-04  0.17130000000E+03  0.17130000000E+03 0.  1.
      622    1    1    2    0    0  0.28000211108E-02 -0.25991472149E-02  0.32935283169E+01  0.32936073870E+01  0.22500000000E-01 0. -1.
</event>
<event>
 5   0  0.9908800E+08  0.9118800E+02  0.7818608E-02  0.1180000E+00
       11   -1    0    0    0    0  0.00000000000E+00  0.00000000000E+00  0.39999999673E+01  0.40000000000E+01  0.51109989000E-03 0. -1.
     -623   -1    0    0    0    0  0.00000000000E+00  0.00000000000E+00  0.12525980253E-10  0.17130000000E+03  0.17130000000E+03 0. -1.
       11    1    1    2    0    0 -0.44466982271E-02  0.31239166131E-02  0.33590688386E+00  0.33595122835E+00  0.51109989000E-03 0. -1.
     -623    1    1    2    0    0 -0.27878111089E-02 -0.14497941430E-02  0.12094949942E-03  0.17130000003E+03  0.17130000000E+03 0. -1.
      622    1    1    2    0    0  0.72345093368E-02 -0.16741224697E-02  0.36639721351E+01  0.36640487439E+01  0.22500000000E-01 0. -1.
</event>
<event>
 5   0  0.9908800E+08  0.9118800E+02  0.7818608E-02  0.1180000E+00
       11   -1    0    0    0    0  0.00000000000E+00  0.00000000000E+00  0.39999999673E+01  0.40000000000E+01  0.51109989000E-03 0.  1.
     -623   -1    0    0    0    0  0.00000000000E+00  0.00000000000E+00  0.12525980253E-10  0.17130000000E+03  0.17130000000E+03 0. -1.
       11    1    1    2    0    0  0.18354198145E-02 -0.70501827436E-03  0.12304317262E+00  0.12305994217E+00  0.51109989000E-03 0.  1.
     -623    1    1    2    0    0  0.42680961991E-04  0.70253882407E-03  0.82483732425E-04  0.17130000000E+03  0.17130000000E+03 0. -1.
      622    1    1    2    0    0 -0.18781007765E-02  0.24794502923E-05  0.38768743110E+01  0.38769400564E+01  0.22500000000E-01 0.  1.
</event>
<event>
 5   0  0.9908800E+08  0.9118800E+02  0.7818608E-02  0.1180000E+00
       11   -1    0    0    0    0  0.00000000000E+00  0.00000000000E+00  0.39999999673E+01  0.40000000000E+01  0.51109989000E-03 0. -1.
     -623   -1    0    0    0    0  0.00000000000E+00  0.00000000000E+00  0.12525980253E-10  0.17130000000E+03  0.17130000000E+03 0.  1.
       11    1    1    2    0    0  0.19405378404E-02 -0.10263206300E-02  0.74322336845E-02  0.77664883818E-02  0.51109989000E-03 0. -1.
     -623    1    1    2    0    0  0.20053254291E-03 -0.27902231912E-02  0.40004869645E-03  0.17130000002E+03  0.17130000000E+03 0.  1.
      622    1    1    2    0    0 -0.21410703833E-02  0.38165438212E-02  0.39921676850E+01  0.39922334883E+01  0.22500000000E-01 0. -1.
</event>
<event>
 5   0  0.9908800E+08  0.9118800E+02  0.7818608E-02  0.1180000E+00
       11   -1    0    0    0    0  0.00000000000E+00  0.00000000000E+00  0.39999999673E+01  0.40000000000E+01  0.51109989000E-03 0.  1.
     -623   -1    0    0    0    0  0.00000000000E+00  0.00000000000E+00  0.12525980253E-10  0.17130000000E+03  0.17130000000E+03 0.  1.
       11    1    1    2    0    0 -0.16320457424E-02  0.17299508471E-02  0.16749914805E-01  0.16925636531E-01  0.51109989000E-03 0.  1.
     -623    1    1    2    0    0 -0.19622411967E-02  0.11258702845E-03  0.24129912471E-03  0.17130000001E+03  0.17130000000E+03 0.  1.
      622    1    1    2    0    0  0.35942869390E-02 -0.18425378756E-02  0.39830087534E+01  0.39830743520E+01  0.22500000000E-01 0.  1.
</event>
<event>
 5   0  0.9908800E+08  0.9118800E+02  0.7818608E-02  0.1180000E+00
       11   -1    0    0    0    0  0.00000000000E+00  0.00000000000E+00  0.39999999673E+01  0.40000000000E+01  0.51109989000E-03 0.  1.
     -623   -1    0    0    0    0  0.00000000000E+00  0.00000000000E+00  0.12525980253E-10  0.17130000000E+03  0.17130000000E+03 0. -1.
       11    1    1    2    0    0 -0.29858582692E-02 -0.86987214712E-03  0.43893917492E+00  0.43895048984E+00  0.51109989000E-03 0.  1.
     -623    1    1    2    0    0  0.21965209836E-02  0.60258156113E-02  0.86304785296E-04  0.17130000012E+03  0.17130000000E+03 0. -1.
      622    1    1    2    0    0  0.78933728203E-03 -0.51559434739E-02  0.35609744941E+01  0.35610493965E+01  0.22500000000E-01 0.  1.
</event>
<event>
 5   0  0.9908800E+08  0.9118800E+02  0.7818608E-02  0.1180000E+00
       11   -1    0    0    0    0  0.00000000000E+00  0.00000000000E+00  0.39999999673E+01  0.40000000000E+01  0.51109989000E-03 0. -1.
     -623   -1    0    0    0    0  0.00000000000E+00  0.00000000000E+00  0.12525980253E-10  0.17130000000E+03  0.17130000000E+03 0.  1.
       11    1    1    2    0    0  0.35069267041E-02  0.23039514261E-02  0.18148874464E+00  0.18153796402E+00  0.51109989000E-03 0. -1.
     -623    1    1    2    0    0 -0.25542060755E-03  0.28627251606E-03  0.11774049930E-03  0.17130000000E+03  0.17130000000E+03 0.  1.
      622    1    1    2    0    0 -0.32515060965E-02 -0.25902239422E-02  0.38183934820E+01  0.38184620353E+01  0.22500000000E-01 0. -1.
</event>
<event>
 5   0  0.9908800E+08  0.9118800E+02  0.7818608E-02  0.1180000E+00
       11   -1    0    0    0    0  0.00000000000E+00  0.00000000000E+00  0.39999999673E+01  0.40000000000E+01  0.51109989000E-03 0.  1.
     -623   -1    0    0    0    0  0.00000000000E+00  0.00000000000E+00  0.12525980253E-10  0.17130000000E+03  0.17130000000E+03 0. -1.
       11    1    1    2    0    0 -0.12580652313E-02  0.44382975443E-03  0.21785079467E-02  0.26051550719E-02  0.51109989000E-03 0.  1.
     -623    1    1    2    0    0 -0.70349057492E-03  0.14427797184E-03  0.49046423185E-03  0.17130000000E+03  0.17130000000E+03 0. -1.
      622    1    1    2    0    0  0.19615558062E-02 -0.58810772626E-03  0.39973309948E+01  0.39973948423E+01  0.22500000000E-01 0.  1.
</event>
<event>
 5   0  0.9908800E+08  0.9118800E+02  0.7818608E-02  0.1180000E+00
       11   -1    0    0    0    0  0.00000000000E+00  0.00000000000E+00  0.39999999673E+01  0.40000000000E+01  0.51109989000E-03 0. -1.
     -623   -1    0    0    0    0  0.00000000000E+00  0.00000000000E+00  0.12525980253E-10  0.17130000000E+03  0.17130000000E+03 0. -1.
       11    1    1    2    0    0  0.46215735094E-02  0.29303811557E-02  0.40366604999E+00  0.40370346445E+00  0.51109989000E-03 0. -1.
     -623    1    1    2    0    0  0.41290654311E-03 -0.25590566142E-03  0.11228660863E-03  0.17130000000E+03  0.17130000000E+03 0. -1.
      622    1    1    2    0    0 -0.50344800525E-02 -0.26744754943E-02  0.35962216308E+01  0.35962965348E+01  0.22500000000E-01 0. -1.
</event>
<event>
 5   0  0.9908800E+08  0.9118800E+02  0.7818608E-02  0.1180000E+00
       11   -1    0    0    0    0  0.00000000000E+00  0.00000000000E+00  0.39999999673E+01  0.40000000000E+01  0.51109989000E-03 0.  1.
     -623   -1    0    0    0    0  0.00000000000E+00  0.00000000000E+00  0.12525980253E-10  0.17130000000E+03  0.17130000000E+03 0. -1.
       11    1    1    2    0    0 -0.20864080094E-03  0.37580925126E-02  0.19420461256E+00  0.19424175543E+00  0.51109989000E-03 0.  1.
     -623    1    1    2    0    0  0.22643394861E-02  0.19358957964E-02  0.10846262540E-03  0.17130000003E+03  0.17130000000E+03 0. -1.
      622    1    1    2    0    0 -0.20556986854E-02 -0.56939883092E-02  0.38056868925E+01  0.38057582190E+01  0.22500000000E-01 0.  0.
</event>
<event>
 5   0  0.9908800E+08  0.9118800E+02  0.7818608E-02  0.1180000E+00
       11   -1    0    0    0    0  0.00000000000E+00  0.00000000000E+00  0.39999999673E+01  0.40000000000E+01  0.51109989000E-03 0. -1.
     -623   -1    0    0    0    0  0.00000000000E+00  0.00000000000E+00  0.12525980253E-10  0.17130000000E+03  0.17130000000E+03 0.  1.
       11    1    1    2    0    0 -0.60658060378E-03 -0.28143324995E-02  0.36115753129E+00  0.36116936752E+00  0.51109989000E-03 0. -1.
     -623    1    1    2    0    0  0.11064935659E-01 -0.17240065143E-02  0.99592172741E-04  0.17130000037E+03  0.17130000000E+03 0.  1.
      622    1    1    2    0    0 -0.10458355066E-01  0.45383390156E-02  0.36387428480E+01  0.36388302705E+01  0.22500000000E-01 0.  0.
</event>
<event>
 5   0  0.9908800E+08  0.9118800E+02  0.7818608E-02  0.1180000E+00
       11   -1    0    0    0    0  0.00000000000E+00  0.00000000000E+00  0.39999999673E+01  0.40000000000E+01  0.51109989000E-03 0.  1.
     -623   -1    0    0    0    0  0.00000000000E+00  0.00000000000E+00  0.12525980253E-10  0.17130000000E+03  0.17130000000E+03 0. -1.
       11    1    1    2    0    0  0.32294975071E-03 -0.23207568437E-02  0.35441115999E+00  0.35441927396E+00  0.51109989000E-03 0.  1.
     -623    1    1    2    0    0 -0.36837790615E-03  0.30987338090E-03  0.78070961807E-04  0.17130000000E+03  0.17130000000E+03 0. -1.
      622    1    1    2    0    0  0.45428155856E-04  0.20108834624E-02  0.36455107409E+01  0.36455807299E+01  0.22500000000E-01 0.  1.
</event>
<event>
 5   0  0.9908800E+08  0.9118800E+02  0.7818608E-02  0.1180000E+00
       11   -1    0    0    0    0  0.00000000000E+00  0.00000000000E+00  0.39999999673E+01  0.40000000000E+01  0.51109989000E-03 0. -1.
     -623   -1    0    0    0    0  0.00000000000E+00  0.00000000000E+00  0.12525980253E-10  0.17130000000E+03  0.17130000000E+03 0. -1.
       11    1    1    2    0    0  0.31662186713E-01  0.28474922921E-01  0.83715417382E+00  0.83823665350E+00  0.51109989000E-03 0. -1.
     -623    1    1    2    0    0 -0.10572328753E-01  0.27717028785E-03  0.13639186142E-02  0.17130000033E+03  0.17130000000E+03 0. -1.
      622    1    1    2    0    0 -0.21089857960E-01 -0.28752093208E-01  0.31614818749E+01  0.31617630146E+01  0.22500000000E-01 0. -1.
</event>
<event>
 5   0  0.9908800E+08  0.9118800E+02  0.7818608E-02  0.1180000E+00
       11   -1    0    0    0    0  0.00000000000E+00  0.00000000000E+00  0.39999999673E+01  0.40000000000E+01  0.51109989000E-03 0. -1.
     -623   -1    0    0    0    0  0.00000000000E+00  0.00000000000E+00  0.12525980253E-10  0.17130000000E+03  0.17130000000E+03 0.  1.
       11    1    1    2    0    0 -0.10888179318E-02 -0.10188756181E-02  0.14835088844E+00  0.14835926313E+00  0.51109989000E-03 0. -1.
     -623    1    1    2    0    0  0.17605134648E-02  0.75662780064E-02  0.79861151177E-04  0.17130000018E+03  0.17130000000E+03 0.  1.
      622    1    1    2    0    0 -0.67169553302E-03 -0.65474023882E-02  0.38515692178E+01  0.38516405607E+01  0.22500000000E-01 0. -1.
</event>
<event>
 5   0  0.9908800E+08  0.9118800E+02  0.7818608E-02  0.1180000E+00
       11   -1    0    0    0    0  0.00000000000E+00  0.00000000000E+00  0.39999999673E+01  0.40000000000E+01  0.51109989000E-03 0.  1.
     -623   -1    0    0    0    0  0.00000000000E+00  0.00000000000E+00  0.12525980253E-10  0.17130000000E+03  0.17130000000E+03 0. -1.
       11    1    1    2    0    0  0.61102170729E-02  0.18894430538E-01  0.10566970049E+01  0.10568837001E+01  0.51109989000E-03 0.  1.
     -623    1    1    2    0    0  0.21868821988E-02  0.44673403170E-03  0.34793489730E-03  0.17130000001E+03  0.17130000000E+03 0. -1.
      622    1    1    2    0    0 -0.82970992725E-02 -0.19341164570E-01  0.29429550290E+01  0.29431162864E+01  0.22500000000E-01 0.  0.
</event>
<event>
 5   0  0.9908800E+08  0.9118800E+02  0.7818608E-02  0.1180000E+00
       11   -1    0    0    0    0  0.00000000000E+00  0.00000000000E+00  0.39999999673E+01  0.40000000000E+01  0.51109989000E-03 0. -1.
     -623   -1    0    0    0    0  0.00000000000E+00  0.00000000000E+00  0.12525980253E-10  0.17130000000E+03  0.17130000000E+03 0.  1.
       11    1    1    2    0    0 -0.13865666340E-01  0.83920885775E-02  0.42734005344E-01  0.45707114202E-01  0.51109989000E-03 0. -1.
     -623    1    1    2    0    0  0.11661557166E-01 -0.42001039145E-02  0.30404011776E-02  0.17130000048E+03  0.17130000000E+03 0.  1.
      622    1    1    2    0    0  0.22041091737E-02 -0.41919846631E-02  0.39542255608E+01  0.39542924104E+01  0.22500000000E-01 0. -1.
</event>
<event>
 5   0  0.9908800E+08  0.9118800E+02  0.7818608E-02  0.1180000E+00
       11   -1    0    0    0    0  0.00000000000E+00  0.00000000000E+00  0.39999999673E+01  0.40000000000E+01  0.51109989000E-03 0.  1.
     -623   -1    0    0    0    0  0.00000000000E+00  0.00000000000E+00  0.12525980253E-10  0.17130000000E+03  0.17130000000E+03 0. -1.
       11    1    1    2    0    0  0.39659174110E-02 -0.27512661903E-02  0.69160683473E-01  0.69330796390E-01  0.51109989000E-03 0.  1.
     -623    1    1    2    0    0 -0.19718591949E-02  0.16696507012E-03  0.23584520335E-03  0.17130000001E+03  0.17130000000E+03 0. -1.
      622    1    1    2    0    0 -0.19940582151E-02  0.25843011201E-02  0.39306034408E+01  0.39306691941E+01  0.22500000000E-01 0.  1.
</event>
<event>
 5   0  0.9908800E+08  0.9118800E+02  0.7818608E-02  0.1180000E+00
       11   -1    0    0    0    0  0.00000000000E+00  0.00000000000E+00  0.39999999673E+01  0.40000000000E+01  0.51109989000E-03 0.  1.
     -623   -1    0    0    0    0  0.00000000000E+00  0.00000000000E+00  0.12525980253E-10  0.17130000000E+03  0.17130000000E+03 0.  1.
       11    1    1    2    0    0  0.51579458680E-02 -0.98083665004E-02  0.51122374397E-01  0.52312205517E-01  0.51109989000E-03 0.  1.
     -623    1    1    2    0    0  0.18659623459E-03 -0.19968707139E-02  0.12752048313E-02  0.17130000002E+03  0.17130000000E+03 0.  1.
      622    1    1    2    0    0 -0.53445421026E-02  0.11805237214E-01  0.39476023884E+01  0.39476877783E+01  0.22500000000E-01 0.  1.
</event>
<event>
 5   0  0.9908800E+08  0.9118800E+02  0.7818608E-02  0.1180000E+00
       11   -1    0    0    0    0  0.00000000000E+00  0.00000000000E+00  0.39999999673E+01  0.40000000000E+01  0.51109989000E-03 0. -1.
     -623   -1    0    0    0    0  0.00000000000E+00  0.00000000000E+00  0.12525980253E-10  0.17130000000E+03  0.17130000000E+03 0. -1.
       11    1    1    2    0    0 -0.42490677982E-02  0.60293831322E-02  0.71109243560E+00  0.71113087490E+00  0.51109989000E-03 0. -1.
     -623    1    1    2    0    0 -0.24306251416E-02 -0.77863501974E-03  0.12636572874E-03  0.17130000002E+03  0.17130000000E+03 0. -1.
      622    1    1    2    0    0  0.66796929413E-02 -0.52507481120E-02  0.32887811686E+01  0.32888691086E+01  0.22500000000E-01 0. -1.
</event>
<event>
 5   0  0.9908800E+08  0.9118800E+02  0.7818608E-02  0.1180000E+00
       11   -1    0    0    0    0  0.00000000000E+00  0.00000000000E+00  0.39999999673E+01  0.40000000000E+01  0.51109989000E-03 0.  1.
     -623   -1    0    0    0    0  0.00000000000E+00  0.00000000000E+00  0.12525980253E-10  0.17130000000E+03  0.17130000000E+03 0.  1.
       11    1    1    2    0    0  0.11989620407E-02 -0.10683039422E-02  0.19211239197E-01  0.19285012710E-01  0.51109989000E-03 0. -1.
     -623    1    1    2    0    0 -0.10089447584E-02  0.86136858811E-03  0.13734430976E-03  0.17130000001E+03  0.17130000000E+03 0.  1.
      622    1    1    2    0    0 -0.19001728237E-03  0.20693535411E-03  0.39806513839E+01  0.39807149821E+01  0.22500000000E-01 0.  1.
</event>
<event>
 5   0  0.9908800E+08  0.9118800E+02  0.7818608E-02  0.1180000E+00
       11   -1    0    0    0    0  0.00000000000E+00  0.00000000000E+00  0.39999999673E+01  0.40000000000E+01  0.51109989000E-03 0. -1.
     -623   -1    0    0    0    0  0.00000000000E+00  0.00000000000E+00  0.12525980253E-10  0.17130000000E+03  0.17130000000E+03 0.  1.
       11    1    1    2    0    0  0.19242893589E-03 -0.32611208268E-03  0.26025561732E-02  0.26791597811E-02  0.51109989000E-03 0. -1.
     -623    1    1    2    0    0 -0.11844840245E-02  0.55304023481E-03  0.14002972559E-03  0.17130000001E+03  0.17130000000E+03 0.  1.
      622    1    1    2    0    0  0.99205508864E-03 -0.22692815212E-03  0.39972573815E+01  0.39973208352E+01  0.22500000000E-01 0. -1.
</event>
<event>
 5   0  0.9908800E+08  0.9118800E+02  0.7818608E-02  0.1180000E+00
       11   -1    0    0    0    0  0.00000000000E+00  0.00000000000E+00  0.39999999673E+01  0.40000000000E+01  0.51109989000E-03 0.  1.
     -623   -1    0    0    0    0  0.00000000000E+00  0.00000000000E+00  0.12525980253E-10  0.17130000000E+03  0.17130000000E+03 0. -1.
       11    1    1    2    0    0  0.69444185527E-02  0.40002453820E-03  0.18783940200E+00  0.18796884618E+00  0.51109989000E-03 0.  1.
     -623    1    1    2    0    0 -0.85946352807E-03  0.11067432278E-02  0.20097400856E-03  0.17130000001E+03  0.17130000000E+03 0. -1.
      622    1    1    2    0    0 -0.60849550246E-02 -0.15067677660E-02  0.38119595914E+01  0.38120311480E+01  0.22500000000E-01 0.  1.
</event>
<event>
 5   0  0.9908800E+08  0.9118800E+02  0.7818608E-02  0.1180000E+00
       11   -1    0    0    0    0  0.00000000000E+00  0.00000000000E+00  0.39999999673E+01  0.40000000000E+01  0.51109989000E-03 0.  1.
     -623   -1    0    0    0    0  0.00000000000E+00  0.00000000000E+00  0.12525980253E-10  0.17130000000E+03  0.17130000000E+03 0.  1.
       11    1    1    2    0    0 -0.15752811780E-01 -0.42052930958E-02  0.94219529888E+00  0.94233649936E+00  0.51109989000E-03 0.  1.
     -623    1    1    2    0    0  0.38656458485E-03  0.19941506983E-02  0.26337725191E-03  0.17130000001E+03  0.17130000000E+03 0.  1.
      622    1    1    2    0    0  0.15366247195E-01  0.22111423965E-02  0.30575412933E+01  0.30576634904E+01  0.22500000000E-01 0.  1.
</event>
<event>
 5   0  0.9908800E+08  0.9118800E+02  0.7818608E-02  0.1180000E+00
       11   -1    0    0    0    0  0.00000000000E+00  0.00000000000E+00  0.39999999673E+01  0.40000000000E+01  0.51109989000E-03 0.  1.
     -623   -1    0    0    0    0  0.00000000000E+00  0.00000000000E+00  0.12525980253E-10  0.17130000000E+03  0.17130000000E+03 0. -1.
       11    1    1    2    0    0  0.17355287812E-01 -0.16364502191E-01  0.26794889917E+00  0.26900906442E+00  0.51109989000E-03 0.  1.
     -623    1    1    2    0    0  0.25286080193E-02  0.19522245344E-02  0.12088342871E-02  0.17130000003E+03  0.17130000000E+03 0. -1.
      622    1    1    2    0    0 -0.19883895832E-01  0.14412277656E-01  0.37308422343E+01  0.37309909019E+01  0.22500000000E-01 0.  1.
</event>
<event>
 5   0  0.9908800E+08  0.9118800E+02  0.7818608E-02  0.1180000E+00
       11   -1    0    0    0    0  0.00000000000E+00  0.00000000000E+00  0.39999999673E+01  0.40000000000E+01  0.51109989000E-03 0.  1.
     -623   -1    0    0    0    0  0.00000000000E+00  0.00000000000E+00  0.12525980253E-10  0.17130000000E+03  0.17130000000E+03 0.  1.
       11    1    1    2    0    0  0.49509032445E-02 -0.25820078113E-02  0.18774657200E+00  0.18783028171E+00  0.51109989000E-03 0.  1.
     -623    1    1    2    0    0 -0.14639822400E-03 -0.30285519862E-04  0.15399966382E-03  0.17130000000E+03  0.17130000000E+03 0.  1.
      622    1    1    2    0    0 -0.48045050205E-02  0.26122933312E-02  0.38120993957E+01  0.38121697182E+01  0.22500000000E-01 0.  1.
</event>
<event>
 5   0  0.9908800E+08  0.9118800E+02  0.7818608E-02  0.1180000E+00
       11   -1    0    0    0    0  0.00000000000E+00  0.00000000000E+00  0.39999999673E+01  0.40000000000E+01  0.51109989000E-03 0. -1.
     -623   -1    0    0    0    0  0.00000000000E+00  0.00000000000E+00  0.12525980253E-10  0.17130000000E+03  0.17130000000E+03 0.  1.
       11    1    1    2    0    0 -0.16722789521E-02 -0.58584619416E-02  0.37481891188E+00  0.37486877173E+00  0.51109989000E-03 0. -1.
     -623    1    1    2    0    0  0.12206978472E-02 -0.54859984829E-04  0.12450848025E-03  0.17130000000E+03  0.17130000000E+03 0.  1.
      622    1    1    2    0    0  0.45158110494E-03  0.59133219265E-02  0.36250565470E+01  0.36251312239E+01  0.22500000000E-01 0. -1.
</event>
<event>
 5   0  0.9908800E+08  0.9118800E+02  0.7818608E-02  0.1180000E+00
       11   -1    0    0    0    0  0.00000000000E+00  0.00000000000E+00  0.39999999673E+01  0.40000000000E+01  0.51109989000E-03 0.  1.
     -623   -1    0    0    0    0  0.00000000000E+00  0.00000000000E+00  0.12525980253E-10  0.17130000000E+03  0.17130000000E+03 0. -1.
       11    1    1    2    0    0 -0.27225626673E-02  0.45254443887E-02  0.41117017775E+00  0.41120441181E+00  0.51109989000E-03 0.  1.
     -623    1    1    2    0    0 -0.38912323641E-02 -0.44702215839E-02  0.11093152425E-03  0.17130000010E+03  0.17130000000E+03 0. -1.
      622    1    1    2    0    0  0.66137950337E-02 -0.55222802265E-04  0.35887188604E+01  0.35887954879E+01  0.22500000000E-01 0.  1.
</event>
<event>
 5   0  0.9908800E+08  0.9118800E+02  0.7818608E-02  0.1180000E+00
       11   -1    0    0    0    0  0.00000000000E+00  0.00000000000E+00  0.39999999673E+01  0.40000000000E+01  0.51109989000E-03 0.  1.
     -623   -1    0    0    0    0  0.00000000000E+00  0.00000000000E+00  0.12525980253E-10  0.17130000000E+03  0.17130000000E+03 0. -1.
       11    1    1    2    0    0  0.44761660232E-02  0.29879871563E-02  0.34303794936E+00  0.34308054456E+00  0.51109989000E-03 0.  1.
     -623    1    1    2    0    0  0.14973662739E-02 -0.36496102462E-03  0.11760795687E-03  0.17130000001E+03  0.17130000000E+03 0. -1.
      622    1    1    2    0    0 -0.59735322971E-02 -0.26230261317E-02  0.36568444100E+01  0.36569194485E+01  0.22500000000E-01 0.  1.
</event>
<event>
 5   0  0.9908800E+08  0.9118800E+02  0.7818608E-02  0.1180000E+00
       11   -1    0    0    0    0  0.00000000000E+00  0.00000000000E+00  0.39999999673E+01  0.40000000000E+01  0.51109989000E-03 0. -1.
     -623   -1    0    0    0    0  0.00000000000E+00  0.00000000000E+00  0.12525980253E-10  0.17130000000E+03  0.17130000000E+03 0.  1.
       11    1    1    2    0    0 -0.87006555789E-03  0.45120585065E-03  0.12168990655E-02  0.16439790838E-02  0.51109989000E-03 0. -1.
     -623    1    1    2    0    0  0.15396252231E-02  0.67745782317E-03  0.49057947526E-03  0.17130000001E+03  0.17130000000E+03 0.  1.
      622    1    1    2    0    0 -0.66955966571E-03 -0.11286636740E-02  0.39982924900E+01  0.39983560131E+01  0.22500000000E-01 0. -1.
</event>
<event>
 5   0  0.9908800E+08  0.9118800E+02  0.7818608E-02  0.1180000E+00
       11   -1    0    0    0    0  0.00000000000E+00  0.00000000000E+00  0.39999999673E+01  0.40000000000E+01  0.51109989000E-03 0.  1.
     -623   -1    0    0    0    0  0.00000000000E+00  0.00000000000E+00  0.12525980253E-10  0.17130000000E+03  0.17130000000E+03 0.  1.
       11    1    1    2    0    0 -0.65221483248E-04 -0.24284069315E-01  0.55721299584E+00  0.55774214851E+00  0.51109989000E-03 0.  1.
     -623    1    1    2    0    0  0.11378023832E-01  0.13455157185E-01  0.63918654927E-03  0.17130000091E+03  0.17130000000E+03 0.  1.
      622    1    1    2    0    0 -0.11312802348E-01  0.10828912130E-01  0.34421477850E+01  0.34422569440E+01  0.22500000000E-01 0.  1.
</event>
<event>
 5   0  0.9908800E+08  0.9118800E+02  0.7818608E-02  0.1180000E+00
       11   -1    0    0    0    0  0.00000000000E+00  0.00000000000E+00  0.39999999673E+01  0.40000000000E+01  0.51109989000E-03 0.  1.
     -623   -1    0    0    0    0  0.00000000000E+00  0.00000000000E+00  0.12525980253E-10  0.17130000000E+03  0.17130000000E+03 0. -1.
       11    1    1    2    0    0 -0.18385040438E-02  0.13729751062E-03  0.33654113669E-01  0.33708449053E-01  0.51109989000E-03 0.  1.
     -623    1    1    2    0    0  0.20869682391E-02  0.53200422483E-03  0.11820015212E-03  0.17130000001E+03  0.17130000000E+03 0. -1.
      622    1    1    2    0    0 -0.24846419536E-03 -0.66930173546E-03  0.39662276535E+01  0.39662915374E+01  0.22500000000E-01 0.  1.
</event>
<event>
 5   0  0.9908800E+08  0.9118800E+02  0.7818608E-02  0.1180000E+00
       11   -1    0    0    0    0  0.00000000000E+00  0.00000000000E+00  0.39999999673E+01  0.40000000000E+01  0.51109989000E-03 0.  1.
     -623   -1    0    0    0    0  0.00000000000E+00  0.00000000000E+00  0.12525980253E-10  0.17130000000E+03  0.17130000000E+03 0. -1.
       11    1    1    2    0    0  0.21960746725E-02 -0.71602903105E-02  0.82993857516E-01  0.83332671313E-01  0.51109989000E-03 0.  1.
     -623    1    1    2    0    0  0.55823569970E-04  0.18912540305E-02  0.40761189146E-03  0.17130000001E+03  0.17130000000E+03 0. -1.
      622    1    1    2    0    0 -0.22518982425E-02  0.52690362799E-02  0.39165984980E+01  0.39166673178E+01  0.22500000000E-01 0.  1.
</event>
<event>
 5   0  0.9908800E+08  0.9118800E+02  0.7818608E-02  0.1180000E+00
       11   -1    0    0    0    0  0.00000000000E+00  0.00000000000E+00  0.39999999673E+01  0.40000000000E+01  0.51109989000E-03 0. -1.
     -623   -1    0    0    0    0  0.00000000000E+00  0.00000000000E+00  0.12525980253E-10  0.17130000000E+03  0.17130000000E+03 0. -1.
       11    1    1    2    0    0  0.25985502927E-02 -0.12828731634E-01  0.40960243666E-01  0.43003855660E-01  0.51109989000E-03 0. -1.
     -623    1    1    2    0    0  0.49616195611E-02  0.26411363378E-02  0.21279912113E-02  0.17130000011E+03  0.17130000000E+03 0. -1.
      622    1    1    2    0    0 -0.75601698538E-02  0.10187595296E-01  0.39569117325E+01  0.39569960389E+01  0.22500000000E-01 0. -1.
</event>
<event>
 5   0  0.9908800E+08  0.9118800E+02  0.7818608E-02  0.1180000E+00
       11   -1    0    0    0    0  0.00000000000E+00  0.00000000000E+00  0.39999999673E+01  0.40000000000E+01  0.51109989000E-03 0.  1.
     -623   -1    0    0    0    0  0.00000000000E+00  0.00000000000E+00  0.12525980253E-10  0.17130000000E+03  0.17130000000E+03 0.  1.
       11    1    1    2    0    0 -0.14609189131E-02  0.31255363051E-03  0.20523412710E-01  0.20584063404E-01  0.51109989000E-03 0.  1.
     -623    1    1    2    0    0  0.41962394295E-02  0.27567087510E-02  0.12642452561E-03  0.17130000007E+03  0.17130000000E+03 0.  1.
      622    1    1    2    0    0 -0.27353205171E-02 -0.30692623819E-02  0.39793501308E+01  0.39794158636E+01  0.22500000000E-01 0.  1.
</event>
<event>
 5   0  0.9908800E+08  0.9118800E+02  0.7818608E-02  0.1180000E+00
       11   -1    0    0    0    0  0.00000000000E+00  0.00000000000E+00  0.39999999673E+01  0.40000000000E+01  0.51109989000E-03 0.  1.
     -623   -1    0    0    0    0  0.00000000000E+00  0.00000000000E+00  0.12525980253E-10  0.17130000000E+03  0.17130000000E+03 0. -1.
       11    1    1    2    0    0 -0.26266264830E-03 -0.17723317796E-02  0.16965202969E+00  0.16966226025E+00  0.51109989000E-03 0.  1.
     -623    1    1    2    0    0  0.19163027955E-03 -0.18017543324E-03  0.76781269020E-04  0.17130000000E+03  0.17130000000E+03 0. -1.
      622    1    1    2    0    0  0.71032368614E-04  0.19525072130E-02  0.38302711592E+01  0.38303377424E+01  0.22500000000E-01 0.  1.
</event>
<event>
 5   0  0.9908800E+08  0.9118800E+02  0.7818608E-02  0.1180000E+00
       11   -1    0    0    0    0  0.00000000000E+00  0.00000000000E+00  0.39999999673E+01  0.40000000000E+01  0.51109989000E-03 0.  1.
     -623   -1    0    0    0    0  0.00000000000E+00  0.00000000000E+00  0.12525980253E-10  0.17130000000E+03  0.17130000000E+03 0. -1.
       11    1    1    2    0    0  0.69754306413E-03 -0.44092754569E-03  0.18187458473E-01  0.18213342651E-01  0.51109989000E-03 0.  1.
     -623    1    1    2    0    0  0.24494537567E-03 -0.14649356098E-03  0.89577890888E-04  0.17130000000E+03  0.17130000000E+03 0. -1.
      622    1    1    2    0    0 -0.94248843980E-03  0.58742110666E-03  0.39817229310E+01  0.39817866571E+01  0.22500000000E-01 0.  1.
</event>
<event>
 5   0  0.9908800E+08  0.9118800E+02  0.7818608E-02  0.1180000E+00
       11   -1    0    0    0    0  0.00000000000E+00  0.00000000000E+00  0.39999999673E+01  0.40000000000E+01  0.51109989000E-03 0.  1.
     -623   -1    0    0    0    0  0.00000000000E+00  0.00000000000E+00  0.12525980253E-10  0.17130000000E+03  0.17130000000E+03 0. -1.
       11    1    1    2    0    0  0.19342736117E-01  0.80816266986E-02  0.11391829712E+00  0.11583217934E+00  0.51109989000E-03 0.  1.
     -623    1    1    2    0    0 -0.32529309155E-01 -0.20771877007E-01  0.20264941315E-02  0.17130000436E+03  0.17130000000E+03 0. -1.
      622    1    1    2    0    0  0.13186573038E-01  0.12690250309E-01  0.38840551761E+01  0.38841634607E+01  0.22500000000E-01 0.  1.
</event>
<event>
 5   0  0.9908800E+08  0.9118800E+02  0.7818608E-02  0.1180000E+00
       11   -1    0    0    0    0  0.00000000000E+00  0.00000000000E+00  0.39999999673E+01  0.40000000000E+01  0.51109989000E-03 0. -1.
     -623   -1    0    0    0    0  0.00000000000E+00  0.00000000000E+00  0.12525980253E-10  0.17130000000E+03  0.17130000000E+03 0. -1.
       11    1    1    2    0    0  0.12136671575E-02  0.14701163078E-03  0.17541357926E+00  0.17541858400E+00  0.51109989000E-03 0. -1.
     -623    1    1    2    0    0 -0.29966157360E-04  0.10580182353E-03  0.71347966211E-04  0.17130000000E+03  0.17130000000E+03 0. -1.
      622    1    1    2    0    0 -0.11837010002E-02 -0.25281345431E-03  0.38245150401E+01  0.38245814160E+01  0.22500000000E-01 0. -1.
</event>
<event>
 5   0  0.9908800E+08  0.9118800E+02  0.7818608E-02  0.1180000E+00
       11   -1    0    0    0    0  0.00000000000E+00  0.00000000000E+00  0.39999999673E+01  0.40000000000E+01  0.51109989000E-03 0.  1.
     -623   -1    0    0    0    0  0.00000000000E+00  0.00000000000E+00  0.12525980253E-10  0.17130000000E+03  0.17130000000E+03 0.  1.
       11    1    1    2    0    0  0.30883210562E-02 -0.69391107062E-02  0.59598885273E-01  0.60083086901E-01  0.51109989000E-03 0.  1.
     -623    1    1    2    0    0 -0.55692112596E-02  0.59436783247E-02  0.54951717103E-03  0.17130000019E+03  0.17130000000E+03 0.  1.
      622    1    1    2    0    0  0.24808902034E-02  0.99543238153E-03  0.39398515649E+01  0.39399167186E+01  0.22500000000E-01 0.  1.
</event>
<event>
 5   0  0.9908800E+08  0.9118800E+02  0.7818608E-02  0.1180000E+00
       11   -1    0    0    0    0  0.00000000000E+00  0.00000000000E+00  0.39999999673E+01  0.40000000000E+01  0.51109989000E-03 0.  1.
     -623   -1    0    0    0    0  0.00000000000E+00  0.00000000000E+00  0.12525980253E-10  0.17130000000E+03  0.17130000000E+03 0. -1.
       11    1    1    2    0    0  0.89560590785E-03 -0.16801733562E-02  0.57990555496E+00  0.57990890577E+00  0.51109989000E-03 0.  1.
     -623    1    1    2    0    0 -0.41176914803E-03  0.23307037103E-03  0.77671203566E-04  0.17130000000E+03  0.17130000000E+03 0. -1.
      622    1    1    2    0    0 -0.48383675982E-03  0.14471029852E-02  0.34200167412E+01  0.34200910936E+01  0.22500000000E-01 0.  1.
</event>
<event>
 5   0  0.9908800E+08  0.9118800E+02  0.7818608E-02  0.1180000E+00
       11   -1    0    0    0    0  0.00000000000E+00  0.00000000000E+00  0.39999999673E+01  0.40000000000E+01  0.51109989000E-03 0.  1.
     -623   -1    0    0    0    0  0.00000000000E+00  0.00000000000E+00  0.12525980253E-10  0.17130000000E+03  0.17130000000E+03 0. -1.
       11    1    1    2    0    0 -0.94795662721E-03  0.28517322599E-02  0.73501105262E-02  0.79571569354E-02  0.51109989000E-03 0.  1.
     -623    1    1    2    0    0  0.17981997214E-02 -0.10260472728E-02  0.67094350701E-03  0.17130000001E+03  0.17130000000E+03 0. -1.
      622    1    1    2    0    0 -0.85024309439E-03 -0.18256849870E-02  0.39919789137E+01  0.39920428296E+01  0.22500000000E-01 0.  1.
</event>
<event>
 5   0  0.9908800E+08  0.9118800E+02  0.7818608E-02  0.1180000E+00
       11   -1    0    0    0    0  0.00000000000E+00  0.00000000000E+00  0.39999999673E+01  0.40000000000E+01  0.51109989000E-03 0. -1.
     -623   -1    0    0    0    0  0.00000000000E+00  0.00000000000E+00  0.12525980253E-10  0.17130000000E+03  0.17130000000E+03 0. -1.
       11    1    1    2    0    0  0.47268157457E-03 -0.93934860174E-03  0.29516023491E-01  0.29539171769E-01  0.51109989000E-03 0. -1.
     -623    1    1    2    0    0  0.24672080034E-03  0.18487304745E-03  0.87005354505E-04  0.17130000000E+03  0.17130000000E+03 0. -1.
      622    1    1    2    0    0 -0.71940237491E-03  0.75447555428E-03  0.39703969385E+01  0.39704608279E+01  0.22500000000E-01 0. -1.
</event>
<event>
 5   0  0.9908800E+08  0.9118800E+02  0.7818608E-02  0.1180000E+00
       11   -1    0    0    0    0  0.00000000000E+00  0.00000000000E+00  0.39999999673E+01  0.40000000000E+01  0.51109989000E-03 0. -1.
     -623   -1    0    0    0    0  0.00000000000E+00  0.00000000000E+00  0.12525980253E-10  0.17130000000E+03  0.17130000000E+03 0.  1.
       11    1    1    2    0    0 -0.79997198554E-02  0.30162361667E-02  0.42299717017E+00  0.42308386922E+00  0.51109989000E-03 0. -1.
     -623    1    1    2    0    0  0.23333444608E-03  0.37005819171E-03  0.16746853299E-03  0.17130000000E+03  0.17130000000E+03 0.  1.
      622    1    1    2    0    0  0.77663854093E-02 -0.33862943584E-02  0.35768353295E+01  0.35769161310E+01  0.22500000000E-01 0. -1.
</event>
<event>
 5   0  0.9908800E+08  0.9118800E+02  0.7818608E-02  0.1180000E+00
       11   -1    0    0    0    0  0.00000000000E+00  0.00000000000E+00  0.39999999673E+01  0.40000000000E+01  0.51109989000E-03 0.  1.
     -623   -1    0    0    0    0  0.00000000000E+00  0.00000000000E+00  0.12525980253E-10  0.17130000000E+03  0.17130000000E+03 0.  1.
       11    1    1    2    0    0 -0.78119459092E-03 -0.90720220733E-03  0.16680939376E-01  0.16731653860E-01  0.51109989000E-03 0.  1.
     -623    1    1    2    0    0  0.15553864380E-02  0.29278874916E-02  0.11484932003E-03  0.17130000003E+03  0.17130000000E+03 0.  1.
      622    1    1    2    0    0 -0.77419184709E-03 -0.20206852843E-02  0.39832041787E+01  0.39832683140E+01  0.22500000000E-01 0.  1.
</event>
<event>
 5   0  0.9908800E+08  0.9118800E+02  0.7818608E-02  0.1180000E+00
       11   -1    0    0    0    0  0.00000000000E+00  0.00000000000E+00  0.39999999673E+01  0.40000000000E+01  0.51109989000E-03 0. -1.
     -623   -1    0    0    0    0  0.00000000000E+00  0.00000000000E+00  0.12525980253E-10  0.17130000000E+03  0.17130000000E+03 0.  1.
       11    1    1    2    0    0 -0.11048057640E-03 -0.31096437834E-03  0.39334206402E-02  0.39801916829E-02  0.51109989000E-03 0. -1.
     -623    1    1    2    0    0  0.25496351538E-03 -0.16214643308E-03  0.11011410664E-03  0.17130000000E+03  0.17130000000E+03 0.  1.
      622    1    1    2    0    0 -0.14448293910E-03  0.47311081150E-03  0.39959564346E+01  0.39960198100E+01  0.22500000000E-01 0. -1.
</event>
<event>
 5   0  0.9908800E+08  0.9118800E+02  0.7818608E-02  0.1180000E+00
       11   -1    0    0    0    0  0.00000000000E+00  0.00000000000E+00  0.39999999673E+01  0.40000000000E+01  0.51109989000E-03 0.  1.
     -623   -1    0    0    0    0  0.00000000000E+00  0.00000000000E+00  0.12525980253E-10  0.17130000000E+03  0.17130000000E+03 0. -1.
       11    1    1    2    0    0 -0.29483690158E-02 -0.92777906264E-02  0.10476108438E+01  0.10476561992E+01  0.51109989000E-03 0.  1.
     -623    1    1    2    0    0 -0.37461012216E-04  0.28650267957E-02  0.13955957331E-03  0.17130000002E+03  0.17130000000E+03 0. -1.
      622    1    1    2    0    0  0.29858300280E-02  0.64127638292E-02  0.29522495660E+01  0.29523437788E+01  0.22500000000E-01 0.  1.
</event>
<event>
 5   0  0.9908800E+08  0.9118800E+02  0.7818608E-02  0.1180000E+00
       11   -1    0    0    0    0  0.00000000000E+00  0.00000000000E+00  0.39999999673E+01  0.40000000000E+01  0.51109989000E-03 0.  1.
     -623   -1    0    0    0    0  0.00000000000E+00  0.00000000000E+00  0.12525980253E-10  0.17130000000E+03  0.17130000000E+03 0.  1.
       11    1    1    2    0    0  0.17864692391E-03  0.46958875095E-03  0.19419966342E-02  0.20700247205E-02  0.51109989000E-03 0.  1.
     -623    1    1    2    0    0 -0.32331712338E-04 -0.99199292601E-03  0.19134975401E-03  0.17130000000E+03  0.17130000000E+03 0.  1.
      622    1    1    2    0    0 -0.14631521157E-03  0.52240417526E-03  0.39978666217E+01  0.39979299731E+01  0.22500000000E-01 0.  1.
</event>
<event>
 5   0  0.9908800E+08  0.9118800E+02  0.7818608E-02  0.1180000E+00
       11   -1    0    0    0    0  0.00000000000E+00  0.00000000000E+00  0.39999999673E+01  0.40000000000E+01  0.51109989000E-03 0.  1.
     -623   -1    0    0    0    0  0.00000000000E+00  0.00000000000E+00  0.12525980253E-10  0.17130000000E+03  0.17130000000E+03 0.  1.
       11    1    1    2    0    0  0.39006317110E-02  0.14962920048E-02  0.26036240748E+00  0.26039642522E+00  0.51109989000E-03 0.  1.
     -623    1    1    2    0    0  0.77720700302E-02  0.88267022796E-02  0.13454338418E-03  0.17130000040E+03  0.17130000000E+03 0.  1.
      622    1    1    2    0    0 -0.11672701741E-01 -0.10322994284E-01  0.37395030165E+01  0.37396031710E+01  0.22500000000E-01 0.  1.
</event>
<event>
 5   0  0.9908800E+08  0.9118800E+02  0.7818608E-02  0.1180000E+00
       11   -1    0    0    0    0  0.00000000000E+00  0.00000000000E+00  0.39999999673E+01  0.40000000000E+01  0.51109989000E-03 0.  1.
     -623   -1    0    0    0    0  0.00000000000E+00  0.00000000000E+00  0.12525980253E-10  0.17130000000E+03  0.17130000000E+03 0. -1.
       11    1    1    2    0    0  0.53860984879E-03  0.75746385334E-04  0.87203427862E-02  0.87522247933E-02  0.51109989000E-03 0.  1.
     -623    1    1    2    0    0  0.18528301840E-03  0.31371989676E-03  0.95354950838E-04  0.17130000000E+03  0.17130000000E+03 0. -1.
      622    1    1    2    0    0 -0.72389286719E-03 -0.38946628209E-03  0.39911842696E+01  0.39912477748E+01  0.22500000000E-01 0.  1.
</event>
<event>
 5   0  0.9908800E+08  0.9118800E+02  0.7818608E-02  0.1180000E+00
       11   -1    0    0    0    0  0.00000000000E+00  0.00000000000E+00  0.39999999673E+01  0.40000000000E+01  0.51109989000E-03 0. -1.
     -623   -1    0    0    0    0  0.00000000000E+00  0.00000000000E+00  0.12525980253E-10  0.17130000000E+03  0.17130000000E+03 0. -1.
       11    1    1    2    0    0  0.35595870517E-01 -0.10036511007E-01  0.60002857981E-01  0.70486890554E-01  0.51109989000E-03 0. -1.
     -623    1    1    2    0    0 -0.74965792735E-02  0.13403551585E-01  0.10651348653E-01  0.17130000102E+03  0.17130000000E+03 0. -1.
      622    1    1    2    0    0 -0.28099291243E-01 -0.33670405783E-02  0.39293457607E+01  0.39295120899E+01  0.22500000000E-01 0. -1.
</event>
<event>
 5   0  0.9908800E+08  0.9118800E+02  0.7818608E-02  0.1180000E+00
       11   -1    0    0    0    0  0.00000000000E+00  0.00000000000E+00  0.39999999673E+01  0.40000000000E+01  0.51109989000E-03 0.  1.
     -623   -1    0    0    0    0  0.00000000000E+00  0.00000000000E+00  0.12525980253E-10  0.17130000000E+03  0.17130000000E+03 0.  1.
       11    1    1    2    0    0  0.74147024988E-02  0.21630164765E-04  0.29373838224E-01  0.30299535906E-01  0.51109989000E-03 0.  1.
     -623    1    1    2    0    0  0.44333897453E-02 -0.45741726669E-02  0.10098431821E-02  0.17130000012E+03  0.17130000000E+03 0.  1.
      622    1    1    2    0    0 -0.11848092244E-01  0.45525425019E-02  0.39696162858E+01  0.39697003425E+01  0.22500000000E-01 0.  1.
</event>
<event>
 5   0  0.9908800E+08  0.9118800E+02  0.7818608E-02  0.1180000E+00
       11   -1    0    0    0    0  0.00000000000E+00  0.00000000000E+00  0.39999999673E+01  0.40000000000E+01  0.51109989000E-03 0. -1.
     -623   -1    0    0    0    0  0.00000000000E+00  0.00000000000E+00  0.12525980253E-10  0.17130000000E+03  0.17130000000E+03 0. -1.
       11    1    1    2    0    0  0.25751872772E-02  0.15144183712E-03  0.92743540337E-01  0.92780817099E-01  0.51109989000E-03 0. -1.
     -623    1    1    2    0    0 -0.19105446425E-02 -0.40998655174E-02  0.10413993063E-03  0.17130000006E+03  0.17130000000E+03 0. -1.
      622    1    1    2    0    0 -0.66464263510E-03  0.39484236794E-02  0.39071522862E+01  0.39072191223E+01  0.22500000000E-01 0. -1.
</event>
<event>
 5   0  0.9908800E+08  0.9118800E+02  0.7818608E-02  0.1180000E+00
       11   -1    0    0    0    0  0.00000000000E+00  0.00000000000E+00  0.39999999673E+01  0.40000000000E+01  0.51109989000E-03 0.  1.
     -623   -1    0    0    0    0  0.00000000000E+00  0.00000000000E+00  0.12525980253E-10  0.17130000000E+03  0.17130000000E+03 0.  1.
       11    1    1    2    0    0 -0.31693289372E-02  0.12769977407E-03  0.98066490453E+00  0.98067016737E+00  0.51109989000E-03 0.  1.
     -623    1    1    2    0    0 -0.27039872764E-03 -0.53129173119E-03  0.91053605348E-04  0.17130000000E+03  0.17130000000E+03 0.  1.
      622    1    1    2    0    0  0.34397276649E-02  0.40359195711E-03  0.30192440092E+01  0.30193298316E+01  0.22500000000E-01 0.  1.
</event>
<event>
 5   0  0.9908800E+08  0.9118800E+02  0.7818608E-02  0.1180000E+00
       11   -1    0    0    0    0  0.00000000000E+00  0.00000000000E+00  0.39999999673E+01  0.40000000000E+01  0.51109989000E-03 0.  1.
     -623   -1    0    0    0    0  0.00000000000E+00  0.00000000000E+00  0.12525980253E-10  0.17130000000E+03  0.17130000000E+03 0.  1.
       11    1    1    2    0    0  0.73730738220E-02 -0.12204517687E-01  0.24475186803E+00  0.24516739301E+00  0.51109989000E-03 0.  1.
     -623    1    1    2    0    0  0.28288984760E-02 -0.40569450500E-02  0.53205165174E-03  0.17130000007E+03  0.17130000000E+03 0.  1.
      622    1    1    2    0    0 -0.10201972298E-01  0.16261462736E-01  0.37547160476E+01  0.37548325346E+01  0.22500000000E-01 0.  1.
</event>
<event>
 5   0  0.9908800E+08  0.9118800E+02  0.7818608E-02  0.1180000E+00
       11   -1    0    0    0    0  0.00000000000E+00  0.00000000000E+00  0.39999999673E+01  0.40000000000E+01  0.51109989000E-03 0.  1.
     -623   -1    0    0    0    0  0.00000000000E+00  0.00000000000E+00  0.12525980253E-10  0.17130000000E+03  0.17130000000E+03 0.  1.
       11    1    1    2    0    0  0.79779738492E-03  0.18289874148E-01  0.66670341523E-01  0.69140087062E-01  0.51109989000E-03 0.  1.
     -623    1    1    2    0    0  0.84694438951E-02 -0.26250218141E-01  0.25553321259E-02  0.17130000224E+03  0.17130000000E+03 0.  1.
      622    1    1    2    0    0 -0.92672412802E-02  0.79603439936E-02  0.39307742938E+01  0.39308576733E+01  0.22500000000E-01 0.  1.
</event>
<event>
 5   0  0.9908800E+08  0.9118800E+02  0.7818608E-02  0.1180000E+00
       11   -1    0    0    0    0  0.00000000000E+00  0.00000000000E+00  0.39999999673E+01  0.40000000000E+01  0.51109989000E-03 0.  1.
     -623   -1    0    0    0    0  0.00000000000E+00  0.00000000000E+00  0.12525980253E-10  0.17130000000E+03  0.17130000000E+03 0. -1.
       11    1    1    2    0    0  0.20892672062E-02  0.39569521186E-02  0.49510152213E+00  0.49512200612E+00  0.51109989000E-03 0.  1.
     -623    1    1    2    0    0  0.13433090442E-02 -0.30096974167E-02  0.94513529804E-04  0.17130000003E+03  0.17130000000E+03 0. -1.
      622    1    1    2    0    0 -0.34325762500E-02 -0.94725470272E-03  0.35048039307E+01  0.35048779611E+01  0.22500000000E-01 0.  1.
</event>
<event>
 5   0  0.9908800E+08  0.9118800E+02  0.7818608E-02  0.1180000E+00
       11   -1    0    0    0    0  0.00000000000E+00  0.00000000000E+00  0.39999999673E+01  0.40000000000E+01  0.51109989000E-03 0.  1.
     -623   -1    0    0    0    0  0.00000000000E+00  0.00000000000E+00  0.12525980253E-10  0.17130000000E+03  0.17130000000E+03 0.  1.
       11    1    1    2    0    0 -0.67903889324E-03 -0.83235730649E-04  0.62157000409E-02  0.62740873520E-02  0.51109989000E-03 0.  1.
     -623    1    1    2    0    0 -0.31834402897E-02 -0.22430302748E-03  0.12364525459E-03  0.17130000003E+03  0.17130000000E+03 0.  1.
      622    1    1    2    0    0  0.38624791835E-02  0.30753875816E-03  0.39936606227E+01  0.39937258835E+01  0.22500000000E-01 0.  1.
</event>
<event>
 5   0  0.9908800E+08  0.9118800E+02  0.7818608E-02  0.1180000E+00
       11   -1    0    0    0    0  0.00000000000E+00  0.00000000000E+00  0.39999999673E+01  0.40000000000E+01  0.51109989000E-03 0.  1.
     -623   -1    0    0    0    0  0.00000000000E+00  0.00000000000E+00  0.12525980253E-10  0.17130000000E+03  0.17130000000E+03 0. -1.
       11    1    1    2    0    0 -0.86795356051E-03  0.21108881743E-01  0.75318728302E+00  0.75348369774E+00  0.51109989000E-03 0.  1.
     -623    1    1    2    0    0  0.77133337412E-02  0.29832866457E-02  0.47116524682E-03  0.17130000020E+03  0.17130000000E+03 0. -1.
      622    1    1    2    0    0 -0.68453801827E-02 -0.24092168390E-01  0.32463415201E+01  0.32465161030E+01  0.22500000000E-01 0. -1.
</event>
<event>
 5   0  0.9908800E+08  0.9118800E+02  0.7818608E-02  0.1180000E+00
       11   -1    0    0    0    0  0.00000000000E+00  0.00000000000E+00  0.39999999673E+01  0.40000000000E+01  0.51109989000E-03 0. -1.
     -623   -1    0    0    0    0  0.00000000000E+00  0.00000000000E+00  0.12525980253E-10  0.17130000000E+03  0.17130000000E+03 0. -1.
       11    1    1    2    0    0  0.12927173463E-01  0.73209020991E-03  0.28432997075E+00  0.28462508895E+00  0.51109989000E-03 0. -1.
     -623    1    1    2    0    0 -0.11526045739E-01 -0.14295580512E-01  0.38922242175E-03  0.17130000098E+03  0.17130000000E+03 0. -1.
      622    1    1    2    0    0 -0.14011277237E-02  0.13563490302E-01  0.37152807742E+01  0.37153739263E+01  0.22500000000E-01 0. -1.
</event>
<event>
 5   0  0.9908800E+08  0.9118800E+02  0.7818608E-02  0.1180000E+00
       11   -1    0    0    0    0  0.00000000000E+00  0.00000000000E+00  0.39999999673E+01  0.40000000000E+01  0.51109989000E-03 0. -1.
     -623   -1    0    0    0    0  0.00000000000E+00  0.00000000000E+00  0.12525980253E-10  0.17130000000E+03  0.17130000000E+03 0.  1.
       11    1    1    2    0    0 -0.14339457492E-01  0.84520320504E-02  0.13784851110E+00  0.13885074764E+00  0.51109989000E-03 0. -1.
     -623    1    1    2    0    0  0.12190427676E-01 -0.34254730914E-02  0.10721027152E-02  0.17130000047E+03  0.17130000000E+03 0.  1.
      622    1    1    2    0    0  0.21490298159E-02 -0.50265589590E-02  0.38610793535E+01  0.38611487810E+01  0.22500000000E-01 0. -1.
</event>
<event>
 5   0  0.9908800E+08  0.9118800E+02  0.7818608E-02  0.1180000E+00
       11   -1    0    0    0    0  0.00000000000E+00  0.00000000000E+00  0.39999999673E+01  0.40000000000E+01  0.51109989000E-03 0. -1.
     -623   -1    0    0    0    0  0.00000000000E+00  0.00000000000E+00  0.12525980253E-10  0.17130000000E+03  0.17130000000E+03 0. -1.
       11    1    1    2    0    0  0.10414452830E-02 -0.56579467867E-02  0.72133143306E-01  0.72364000403E-01  0.51109989000E-03 0. -1.
     -623    1    1    2    0    0 -0.52589853995E-02  0.81107141758E-03  0.30061020094E-03  0.17130000008E+03  0.17130000000E+03 0. -1.
      622    1    1    2    0    0  0.42175401165E-02  0.48468753691E-02  0.39275662139E+01  0.39276359167E+01  0.22500000000E-01 0. -1.
</event>
<event>
 5   0  0.9908800E+08  0.9118800E+02  0.7818608E-02  0.1180000E+00
       11   -1    0    0    0    0  0.00000000000E+00  0.00000000000E+00  0.39999999673E+01  0.40000000000E+01  0.51109989000E-03 0.  1.
     -623   -1    0    0    0    0  0.00000000000E+00  0.00000000000E+00  0.12525980253E-10  0.17130000000E+03  0.17130000000E+03 0. -1.
       11    1    1    2    0    0 -0.30783306037E-03 -0.26823889743E-02  0.20114403700E+00  0.20116280674E+00  0.51109989000E-03 0.  1.
     -623    1    1    2    0    0  0.16904044082E-02 -0.11371870020E-02  0.87553895708E-04  0.17130000001E+03  0.17130000000E+03 0. -1.
      622    1    1    2    0    0 -0.13825713478E-02  0.38195759763E-02  0.37987683765E+01  0.37988371811E+01  0.22500000000E-01 0.  1.
</event>
<event>
 5   0  0.9908800E+08  0.9118800E+02  0.7818608E-02  0.1180000E+00
       11   -1    0    0    0    0  0.00000000000E+00  0.00000000000E+00  0.39999999673E+01  0.40000000000E+01  0.51109989000E-03 0.  1.
     -623   -1    0    0    0    0  0.00000000000E+00  0.00000000000E+00  0.12525980253E-10  0.17130000000E+03  0.17130000000E+03 0.  1.
       11    1    1    2    0    0 -0.13310219280E-03  0.65685356919E-02  0.16616405235E+00  0.16629466886E+00  0.51109989000E-03 0.  1.
     -623    1    1    2    0    0  0.43636924323E-02  0.18631696826E-02  0.20828317264E-03  0.17130000007E+03  0.17130000000E+03 0.  1.
      622    1    1    2    0    0 -0.42305902412E-02 -0.84317053751E-02  0.38336276334E+01  0.38337052668E+01  0.22500000000E-01 0.  1.
</event>
<event>
 5   0  0.9908800E+08  0.9118800E+02  0.7818608E-02  0.1180000E+00
       11   -1    0    0    0    0  0.00000000000E+00  0.00000000000E+00  0.39999999673E+01  0.40000000000E+01  0.51109989000E-03 0.  1.
     -623   -1    0    0    0    0  0.00000000000E+00  0.00000000000E+00  0.12525980253E-10  0.17130000000E+03  0.17130000000E+03 0.  1.
       11    1    1    2    0    0  0.13499636333E-02  0.14526895432E-02  0.17054424958E-01  0.17176942174E-01  0.51109989000E-03 0.  1.
     -623    1    1    2    0    0 -0.42689151579E-02  0.25271432266E-02  0.18916928911E-03  0.17130000007E+03  0.17130000000E+03 0.  1.
      622    1    1    2    0    0  0.29189515277E-02 -0.39798327717E-02  0.39827563761E+01  0.39828229888E+01  0.22500000000E-01 0.  1.
</event>
<event>
 5   0  0.9908800E+08  0.9118800E+02  0.7818608E-02  0.1180000E+00
       11   -1    0    0    0    0  0.00000000000E+00  0.00000000000E+00  0.39999999673E+01  0.40000000000E+01  0.51109989000E-03 0.  1.
     -623   -1    0    0    0    0  0.00000000000E+00  0.00000000000E+00  0.12525980253E-10  0.17130000000E+03  0.17130000000E+03 0. -1.
       11    1    1    2    0    0  0.90039574843E-03  0.73819994053E-04  0.57680409556E-02  0.58606893439E-02  0.51109989000E-03 0.  1.
     -623    1    1    2    0    0 -0.86426121103E-03  0.68655657329E-03  0.15606652421E-03  0.17130000000E+03  0.17130000000E+03 0. -1.
      622    1    1    2    0    0 -0.36134537399E-04 -0.76037656734E-03  0.39940758599E+01  0.39941393070E+01  0.22500000000E-01 0.  1.
</event>
<event>
 5   0  0.9908800E+08  0.9118800E+02  0.7818608E-02  0.1180000E+00
       11   -1    0    0    0    0  0.00000000000E+00  0.00000000000E+00  0.39999999673E+01  0.40000000000E+01  0.51109989000E-03 0. -1.
     -623   -1    0    0    0    0  0.00000000000E+00  0.00000000000E+00  0.12525980253E-10  0.17130000000E+03  0.17130000000E+03 0.  1.
       11    1    1    2    0    0  0.15851869989E-02  0.86716309836E-03  0.88667282584E-01  0.88687163741E-01  0.51109989000E-03 0.  1.
     -623    1    1    2    0    0 -0.38602678105E-03 -0.66934637270E-03  0.84755767138E-04  0.17130000000E+03  0.17130000000E+03 0.  1.
      622    1    1    2    0    0 -0.11991602178E-02 -0.19781672567E-03  0.39112479290E+01  0.39113128345E+01  0.22500000000E-01 0. -1.
</event>
<event>
 5   0  0.9908800E+08  0.9118800E+02  0.7818608E-02  0.1180000E+00
       11   -1    0    0    0    0  0.00000000000E+00  0.00000000000E+00  0.39999999673E+01  0.40000000000E+01  0.51109989000E-03 0. -1.
     -623   -1    0    0    0    0  0.00000000000E+00  0.00000000000E+00  0.12525980253E-10  0.17130000000E+03  0.17130000000E+03 0.  1.
       11    1    1    2    0    0  0.77890860073E-02 -0.12654552814E-02  0.15621020314E+00  0.15641022993E+00  0.51109989000E-03 0. -1.
     -623    1    1    2    0    0 -0.14577523913E-02  0.33814984235E-02  0.27168812372E-03  0.17130000004E+03  0.17130000000E+03 0.  1.
      622    1    1    2    0    0 -0.63313336159E-02 -0.21160431423E-02  0.38435180764E+01  0.38435897306E+01  0.22500000000E-01 0. -1.
</event>
<event>
 5   0  0.9908800E+08  0.9118800E+02  0.7818608E-02  0.1180000E+00
       11   -1    0    0    0    0  0.00000000000E+00  0.00000000000E+00  0.39999999673E+01  0.40000000000E+01  0.51109989000E-03 0. -1.
     -623   -1    0    0    0    0  0.00000000000E+00  0.00000000000E+00  0.12525980253E-10  0.17130000000E+03  0.17130000000E+03 0.  1.
       11    1    1    2    0    0  0.96668471883E-03 -0.13275175062E-02  0.68219455013E-01  0.68241131620E-01  0.51109989000E-03 0. -1.
     -623    1    1    2    0    0  0.16112239929E-03  0.84995925711E-03  0.86217043403E-04  0.17130000000E+03  0.17130000000E+03 0.  1.
      622    1    1    2    0    0 -0.11278071181E-02  0.47755824906E-03  0.39316942953E+01  0.39317588662E+01  0.22500000000E-01 0. -1.
</event>
<event>
 5   0  0.9908800E+08  0.9118800E+02  0.7818608E-02  0.1180000E+00
       11   -1    0    0    0    0  0.00000000000E+00  0.00000000000E+00  0.39999999673E+01  0.40000000000E+01  0.51109989000E-03 0.  1.
     -623   -1    0    0    0    0  0.00000000000E+00  0.00000000000E+00  0.12525980253E-10  0.17130000000E+03  0.17130000000E+03 0.  1.
       11    1    1    2    0    0  0.57830217070E-02 -0.82543013624E-02  0.62229323357E-01  0.63042261537E-01  0.51109989000E-03 0.  1.
     -623    1    1    2    0    0 -0.18985057198E-02 -0.23860256019E-03  0.88829075844E-03  0.17130000001E+03  0.17130000000E+03 0.  1.
      622    1    1    2    0    0 -0.38845159871E-02  0.84929039226E-02  0.39368823536E+01  0.39369577259E+01  0.22500000000E-01 0.  1.
</event>
<event>
 5   0  0.9908800E+08  0.9118800E+02  0.7818608E-02  0.1180000E+00
       11   -1    0    0    0    0  0.00000000000E+00  0.00000000000E+00  0.39999999673E+01  0.40000000000E+01  0.51109989000E-03 0. -1.
     -623   -1    0    0    0    0  0.00000000000E+00  0.00000000000E+00  0.12525980253E-10  0.17130000000E+03  0.17130000000E+03 0.  1.
       11    1    1    2    0    0 -0.67884121262E-02 -0.65443653080E-02  0.17638099471E+00  0.17663359752E+00  0.51109989000E-03 0. -1.
     -623    1    1    2    0    0  0.43424883345E-02 -0.54747536574E-03  0.32619143651E-03  0.17130000006E+03  0.17130000000E+03 0.  1.
      622    1    1    2    0    0  0.24459237921E-02  0.70918406737E-02  0.38232927809E+01  0.38233663459E+01  0.22500000000E-01 0. -1.
</event>
<event>
 5   0  0.9908800E+08  0.9118800E+02  0.7818608E-02  0.1180000E+00
       11   -1    0    0    0    0  0.00000000000E+00  0.00000000000E+00  0.39999999673E+01  0.40000000000E+01  0.51109989000E-03 0. -1.
     -623   -1    0    0    0    0  0.00000000000E+00  0.00000000000E+00  0.12525980253E-10  0.17130000000E+03  0.17130000000E+03 0.  1.
       11    1    1    2    0    0  0.45495509301E-02  0.19968694185E-02  0.92727535393E+00  0.92728880567E+00  0.51109989000E-03 0. -1.
     -623    1    1    2    0    0 -0.21805943102E-03 -0.45167528121E-03  0.99240950430E-04  0.17130000000E+03  0.17130000000E+03 0.  1.
      622    1    1    2    0    0 -0.43314914990E-02 -0.15451941373E-02  0.30726253725E+01  0.30727111936E+01  0.22500000000E-01 0. -1.
</event>
<event>
 5   0  0.9908800E+08  0.9118800E+02  0.7818608E-02  0.1180000E+00
       11   -1    0    0    0    0  0.00000000000E+00  0.00000000000E+00  0.39999999673E+01  0.40000000000E+01  0.51109989000E-03 0. -1.
     -623   -1    0    0    0    0  0.00000000000E+00  0.00000000000E+00  0.12525980253E-10  0.17130000000E+03  0.17130000000E+03 0.  1.
       11    1    1    2    0    0  0.23692676764E-02 -0.23433374781E-02  0.27631705426E+00  0.27633762023E+00  0.51109989000E-03 0. -1.
     -623    1    1    2    0    0 -0.11398017795E-03  0.33969398526E-03  0.89733842445E-04  0.17130000000E+03  0.17130000000E+03 0.  1.
      622    1    1    2    0    0 -0.22552874985E-02  0.20036434929E-02  0.37235931793E+01  0.37236623794E+01  0.22500000000E-01 0. -1.
</event>
<event>
 5   0  0.9908800E+08  0.9118800E+02  0.7818608E-02  0.1180000E+00
       11   -1    0    0    0    0  0.00000000000E+00  0.00000000000E+00  0.39999999673E+01  0.40000000000E+01  0.51109989000E-03 0.  1.
     -623   -1    0    0    0    0  0.00000000000E+00  0.00000000000E+00  0.12525980253E-10  0.17130000000E+03  0.17130000000E+03 0. -1.
       11    1    1    2    0    0  0.98336836307E-04 -0.74344935923E-03  0.56144560611E-01  0.56151894861E-01  0.51109989000E-03 0.  1.
     -623    1    1    2    0    0 -0.77573259297E-04 -0.18808722564E-03  0.71594576244E-04  0.17130000000E+03  0.17130000000E+03 0. -1.
      622    1    1    2    0    0 -0.20763576850E-04  0.93153658526E-03  0.39437838204E+01  0.39438481132E+01  0.22500000000E-01 0.  1.
</event>
<event>
 5   0  0.9908800E+08  0.9118800E+02  0.7818608E-02  0.1180000E+00
       11   -1    0    0    0    0  0.00000000000E+00  0.00000000000E+00  0.39999999673E+01  0.40000000000E+01  0.51109989000E-03 0. -1.
     -623   -1    0    0    0    0  0.00000000000E+00  0.00000000000E+00  0.12525980253E-10  0.17130000000E+03  0.17130000000E+03 0. -1.
       11    1    1    2    0    0  0.26451144706E-02 -0.47418209082E-03  0.11827814437E+00  0.11830977195E+00  0.51109989000E-03 0. -1.
     -623    1    1    2    0    0 -0.43809265675E-02 -0.61145326868E-03  0.97402553349E-04  0.17130000006E+03  0.17130000000E+03 0. -1.
      622    1    1    2    0    0  0.17358120992E-02  0.10856353598E-02  0.38816244226E+01  0.38816901730E+01  0.22500000000E-01 0. -1.
</event>
<event>
 5   0  0.9908800E+08  0.9118800E+02  0.7818608E-02  0.1180000E+00
       11   -1    0    0    0    0  0.00000000000E+00  0.00000000000E+00  0.39999999673E+01  0.40000000000E+01  0.51109989000E-03 0. -1.
     -623   -1    0    0    0    0  0.00000000000E+00  0.00000000000E+00  0.12525980253E-10  0.17130000000E+03  0.17130000000E+03 0.  1.
       11    1    1    2    0    0 -0.81910463111E-02 -0.32277391875E-02  0.20154532521E+00  0.20173817407E+00  0.51109989000E-03 0. -1.
     -623    1    1    2    0    0  0.28860653929E-03  0.19710068968E-02  0.26789966207E-03  0.17130000001E+03  0.17130000000E+03 0.  1.
      622    1    1    2    0    0  0.79024397717E-02  0.12567322904E-02  0.37981867430E+01  0.37982618147E+01  0.22500000000E-01 0. -1.
</event>
<event>
 5   0  0.9908800E+08  0.9118800E+02  0.7818608E-02  0.1180000E+00
       11   -1    0    0    0    0  0.00000000000E+00  0.00000000000E+00  0.39999999673E+01  0.40000000000E+01  0.51109989000E-03 0.  1.
     -623   -1    0    0    0    0  0.00000000000E+00  0.00000000000E+00  0.12525980253E-10  0.17130000000E+03  0.17130000000E+03 0.  1.
       11    1    1    2    0    0 -0.76126936913E-03 -0.30828435037E-02  0.11490613738E+00  0.11495114217E+00  0.51109989000E-03 0.  1.
     -623    1    1    2    0    0 -0.90421800553E-03  0.23878351494E-02  0.11056454378E-03  0.17130000002E+03  0.17130000000E+03 0.  1.
      622    1    1    2    0    0  0.16654873744E-02  0.69500835506E-03  0.38849832642E+01  0.38850488375E+01  0.22500000000E-01 0.  1.
</event>
<event>
 5   0  0.9908800E+08  0.9118800E+02  0.7818608E-02  0.1180000E+00
       11   -1    0    0    0    0  0.00000000000E+00  0.00000000000E+00  0.39999999673E+01  0.40000000000E+01  0.51109989000E-03 0. -1.
     -623   -1    0    0    0    0  0.00000000000E+00  0.00000000000E+00  0.12525980253E-10  0.17130000000E+03  0.17130000000E+03 0. -1.
       11    1    1    2    0    0 -0.38348813852E-04 -0.11635162999E-02  0.47679129853E-01  0.47696078317E-01  0.51109989000E-03 0. -1.
     -623    1    1    2    0    0  0.27101278011E-03 -0.30717441699E-03  0.81242256085E-04  0.17130000000E+03  0.17130000000E+03 0. -1.
      622    1    1    2    0    0 -0.23266396626E-03  0.14706907169E-02  0.39522395953E+01  0.39523039212E+01  0.22500000000E-01 0. -1.
</event>
<event>
 5   0  0.9908800E+08  0.9118800E+02  0.7818608E-02  0.1180000E+00
       11   -1    0    0    0    0  0.00000000000E+00  0.00000000000E+00  0.39999999673E+01  0.40000000000E+01  0.51109989000E-03 0. -1.
     -623   -1    0    0    0    0  0.00000000000E+00  0.00000000000E+00  0.12525980253E-10  0.17130000000E+03  0.17130000000E+03 0. -1.
       11    1    1    2    0    0  0.12612477459E-02  0.66436799407E-03  0.80686376650E-02  0.82095228423E-02  0.51109989000E-03 0. -1.
     -623    1    1    2    0    0 -0.17223084722E-02 -0.33866598553E-02  0.20526160110E-03  0.17130000004E+03  0.17130000000E+03 0. -1.
      622    1    1    2    0    0  0.46106072637E-03  0.27222918612E-02  0.39917260681E+01  0.39917904349E+01  0.22500000000E-01 0. -1.
</event>
<event>
 5   0  0.9908800E+08  0.9118800E+02  0.7818608E-02  0.1180000E+00
       11   -1    0    0    0    0  0.00000000000E+00  0.00000000000E+00  0.39999999673E+01  0.40000000000E+01  0.51109989000E-03 0.  1.
     -623   -1    0    0    0    0  0.00000000000E+00  0.00000000000E+00  0.12525980253E-10  0.17130000000E+03  0.17130000000E+03 0. -1.
       11    1    1    2    0    0 -0.26501870659E-02 -0.22232734046E-01  0.45789380336E+00  0.45844117871E+00  0.51109989000E-03 0.  1.
     -623    1    1    2    0    0  0.19387981593E-02  0.24635002861E-01  0.62148593769E-03  0.17130000178E+03  0.17130000000E+03 0. -1.
      622    1    1    2    0    0  0.71138890678E-03 -0.24022688126E-02  0.35414846777E+01  0.35415570374E+01  0.22500000000E-01 0.  1.
</event>
<event>
 5   0  0.9908800E+08  0.9118800E+02  0.7818608E-02  0.1180000E+00
       11   -1    0    0    0    0  0.00000000000E+00  0.00000000000E+00  0.39999999673E+01  0.40000000000E+01  0.51109989000E-03 0. -1.
     -623   -1    0    0    0    0  0.00000000000E+00  0.00000000000E+00  0.12525980253E-10  0.17130000000E+03  0.17130000000E+03 0. -1.
       11    1    1    2    0    0  0.14228065833E-01  0.97762636451E-02  0.10666271060E+01  0.10667669182E+01  0.51109989000E-03 0. -1.
     -623    1    1    2    0    0 -0.18007677653E-02 -0.24555506647E-02  0.26156583698E-03  0.17130000003E+03  0.17130000000E+03 0. -1.
      622    1    1    2    0    0 -0.12427298068E-01 -0.73207129805E-02  0.29331112955E+01  0.29332330545E+01  0.22500000000E-01 0. -1.
</event>
<event>
 5   0  0.9908800E+08  0.9118800E+02  0.7818608E-02  0.1180000E+00
       11   -1    0    0    0    0  0.00000000000E+00  0.00000000000E+00  0.39999999673E+01  0.40000000000E+01  0.51109989000E-03 0. -1.
     -623   -1    0    0    0    0  0.00000000000E+00  0.00000000000E+00  0.12525980253E-10  0.17130000000E+03  0.17130000000E+03 0. -1.
       11    1    1    2    0    0 -0.93104463044E-02 -0.19378838868E-03  0.30545001954E+00  0.30559237167E+00  0.51109989000E-03 0. -1.
     -623    1    1    2    0    0 -0.38045335450E-04  0.91110656343E-03  0.22273621405E-03  0.17130000000E+03  0.17130000000E+03 0. -1.
      622    1    1    2    0    0  0.93484916398E-02 -0.71731817476E-03  0.36943272116E+01  0.36944076258E+01  0.22500000000E-01 0. -1.
</event>
<event>
 5   0  0.9908800E+08  0.9118800E+02  0.7818608E-02  0.1180000E+00
       11   -1    0    0    0    0  0.00000000000E+00  0.00000000000E+00  0.39999999673E+01  0.40000000000E+01  0.51109989000E-03 0. -1.
     -623   -1    0    0    0    0  0.00000000000E+00  0.00000000000E+00  0.12525980253E-10  0.17130000000E+03  0.17130000000E+03 0. -1.
       11    1    1    2    0    0  0.68943301689E-02  0.31429760124E-02  0.59296953034E+00  0.59301815758E+00  0.51109989000E-03 0. -1.
     -623    1    1    2    0    0  0.14503316505E-04 -0.41245481047E-03  0.13099131938E-03  0.17130000000E+03  0.17130000000E+03 0. -1.
      622    1    1    2    0    0 -0.69088334855E-02 -0.27305212018E-02  0.34068994472E+01  0.34069818433E+01  0.22500000000E-01 0. -1.
</event>
<event>
 5   0  0.9908800E+08  0.9118800E+02  0.7818608E-02  0.1180000E+00
       11   -1    0    0    0    0  0.00000000000E+00  0.00000000000E+00  0.39999999673E+01  0.40000000000E+01  0.51109989000E-03 0.  1.
     -623   -1    0    0    0    0  0.00000000000E+00  0.00000000000E+00  0.12525980253E-10  0.17130000000E+03  0.17130000000E+03 0. -1.
       11    1    1    2    0    0  0.96130959630E-03 -0.20943760849E-02  0.14895276331E+00  0.14897146521E+00  0.51109989000E-03 0.  1.
     -623    1    1    2    0    0 -0.28265264412E-03 -0.16734942727E-03  0.85123326799E-04  0.17130000000E+03  0.17130000000E+03 0. -1.
      622    1    1    2    0    0 -0.67865695222E-03  0.22617255122E-02  0.38509620801E+01  0.38510285338E+01  0.22500000000E-01 0.  1.
</event>
<event>
 5   0  0.9908800E+08  0.9118800E+02  0.7818608E-02  0.1180000E+00
       11   -1    0    0    0    0  0.00000000000E+00  0.00000000000E+00  0.39999999673E+01  0.40000000000E+01  0.51109989000E-03 0. -1.
     -623   -1    0    0    0    0  0.00000000000E+00  0.00000000000E+00  0.12525980253E-10  0.17130000000E+03  0.17130000000E+03 0.  1.
       11    1    1    2    0    0  0.15049644236E-02  0.23468580547E-02  0.11412528833E+00  0.11416048055E+00  0.51109989000E-03 0. -1.
     -623    1    1    2    0    0 -0.49110900758E-03  0.41082736738E-04  0.10116722709E-03  0.17130000000E+03  0.17130000000E+03 0.  1.
      622    1    1    2    0    0 -0.10138554160E-02 -0.23879407914E-02  0.38857735118E+01  0.38858395187E+01  0.22500000000E-01 0. -1.
</event>
<event>
 5   0  0.9908800E+08  0.9118800E+02  0.7818608E-02  0.1180000E+00
       11   -1    0    0    0    0  0.00000000000E+00  0.00000000000E+00  0.39999999673E+01  0.40000000000E+01  0.51109989000E-03 0.  1.
     -623   -1    0    0    0    0  0.00000000000E+00  0.00000000000E+00  0.12525980253E-10  0.17130000000E+03  0.17130000000E+03 0. -1.
       11    1    1    2    0    0  0.72220111039E-03 -0.99304491940E-03  0.79181037342E-03  0.15478693164E-02  0.51109989000E-03 0.  1.
     -623    1    1    2    0    0 -0.15382296222E-02  0.87252088810E-03  0.81942872768E-03  0.17130000001E+03  0.17130000000E+03 0. -1.
      622    1    1    2    0    0  0.81602851202E-03  0.12052403117E-03  0.39983887288E+01  0.39984521202E+01  0.22500000000E-01 0.  1.
</event>
<event>
 5   0  0.9908800E+08  0.9118800E+02  0.7818608E-02  0.1180000E+00
       11   -1    0    0    0    0  0.00000000000E+00  0.00000000000E+00  0.39999999673E+01  0.40000000000E+01  0.51109989000E-03 0. -1.
     -623   -1    0    0    0    0  0.00000000000E+00  0.00000000000E+00  0.12525980253E-10  0.17130000000E+03  0.17130000000E+03 0.  1.
       11    1    1    2    0    0  0.84381840795E-03  0.32757554102E-02  0.26001773847E+00  0.26004024331E+00  0.51109989000E-03 0. -1.
     -623    1    1    2    0    0 -0.25298828691E-02  0.77205355149E-02  0.10689286552E-03  0.17130000019E+03  0.17130000000E+03 0.  1.
      622    1    1    2    0    0  0.16860644630E-02 -0.10996290931E-01  0.37398753389E+01  0.37399595669E+01  0.22500000000E-01 0. -1.
</event>
<event>
 5   0  0.9908800E+08  0.9118800E+02  0.7818608E-02  0.1180000E+00
       11   -1    0    0    0    0  0.00000000000E+00  0.00000000000E+00  0.39999999673E+01  0.40000000000E+01  0.51109989000E-03 0. -1.
     -623   -1    0    0    0    0  0.00000000000E+00  0.00000000000E+00  0.12525980253E-10  0.17130000000E+03  0.17130000000E+03 0.  1.
       11    1    1    2    0    0  0.34739900654E-03 -0.66293140971E-02  0.10876900591E+01  0.10877104369E+01  0.51109989000E-03 0. -1.
     -623    1    1    2    0    0  0.73081152685E-03 -0.87407752578E-05  0.11502910694E-03  0.17130000000E+03  0.17130000000E+03 0.  1.
      622    1    1    2    0    0 -0.10782105334E-02  0.66380548723E-02  0.29121948791E+01  0.29122895615E+01  0.22500000000E-01 0. -1.
</event>
<event>
 5   0  0.9908800E+08  0.9118800E+02  0.7818608E-02  0.1180000E+00
       11   -1    0    0    0    0  0.00000000000E+00  0.00000000000E+00  0.39999999673E+01  0.40000000000E+01  0.51109989000E-03 0. -1.
     -623   -1    0    0    0    0  0.00000000000E+00  0.00000000000E+00  0.12525980253E-10  0.17130000000E+03  0.17130000000E+03 0.  1.
       11    1    1    2    0    0  0.45314134874E-02  0.49135995390E-02  0.15706090027E+00  0.15720389558E+00  0.51109989000E-03 0. -1.
     -623    1    1    2    0    0  0.16720791250E-02  0.19382634986E-02  0.21996849000E-03  0.17130000002E+03  0.17130000000E+03 0.  1.
      622    1    1    2    0    0 -0.62034926124E-02 -0.68518630376E-02  0.38427190986E+01  0.38427960852E+01  0.22500000000E-01 0. -1.
</event>
<event>
 5   0  0.9908800E+08  0.9118800E+02  0.7818608E-02  0.1180000E+00
       11   -1    0    0    0    0  0.00000000000E+00  0.00000000000E+00  0.39999999673E+01  0.40000000000E+01  0.51109989000E-03 0. -1.
     -623   -1    0    0    0    0  0.00000000000E+00  0.00000000000E+00  0.12525980253E-10  0.17130000000E+03  0.17130000000E+03 0. -1.
       11    1    1    2    0    0  0.36578644489E-02  0.12598035324E-02  0.20462576322E-02  0.44062989755E-02  0.51109989000E-03 0. -1.
     -623    1    1    2    0    0 -0.10667065482E-01  0.42916842649E-02  0.24337681061E-02  0.17130000040E+03  0.17130000000E+03 0. -1.
      622    1    1    2    0    0  0.70092010326E-02 -0.55514877971E-02  0.39955199414E+01  0.39955932977E+01  0.22500000000E-01 0. -1.
</event>
<event>
 5   0  0.9908800E+08  0.9118800E+02  0.7818608E-02  0.1180000E+00
       11   -1    0    0    0    0  0.00000000000E+00  0.00000000000E+00  0.39999999673E+01  0.40000000000E+01  0.51109989000E-03 0. -1.
     -623   -1    0    0    0    0  0.00000000000E+00  0.00000000000E+00  0.12525980253E-10  0.17130000000E+03  0.17130000000E+03 0. -1.
       11    1    1    2    0    0  0.36840417570E-02  0.61611772596E-02  0.37403266815E+00  0.37410189833E+00  0.51109989000E-03 0. -1.
     -623    1    1    2    0    0 -0.58739845309E-03  0.22214657242E-03  0.14595103459E-03  0.17130000000E+03  0.17130000000E+03 0. -1.
      622    1    1    2    0    0 -0.30966433040E-02 -0.63833238320E-02  0.36258213482E+01  0.36258981005E+01  0.22500000000E-01 0. -1.
</event>
<event>
 5   0  0.9908800E+08  0.9118800E+02  0.7818608E-02  0.1180000E+00
       11   -1    0    0    0    0  0.00000000000E+00  0.00000000000E+00  0.39999999673E+01  0.40000000000E+01  0.51109989000E-03 0.  1.
     -623   -1    0    0    0    0  0.00000000000E+00  0.00000000000E+00  0.12525980253E-10  0.17130000000E+03  0.17130000000E+03 0.  1.
       11    1    1    2    0    0 -0.17742782402E-03  0.19366251409E-03  0.59251327363E-01  0.59254113782E-01  0.51109989000E-03 0.  1.
     -623    1    1    2    0    0 -0.26206705502E-03  0.25818403093E-03  0.67037887246E-04  0.17130000000E+03  0.17130000000E+03 0.  1.
      622    1    1    2    0    0  0.43949487904E-03 -0.45184654502E-03  0.39406816021E+01  0.39407458858E+01  0.22500000000E-01 0.  1.
</event>
<event>
 5   0  0.9908800E+08  0.9118800E+02  0.7818608E-02  0.1180000E+00
       11   -1    0    0    0    0  0.00000000000E+00  0.00000000000E+00  0.39999999673E+01  0.40000000000E+01  0.51109989000E-03 0. -1.
     -623   -1    0    0    0    0  0.00000000000E+00  0.00000000000E+00  0.12525980253E-10  0.17130000000E+03  0.17130000000E+03 0.  1.
       11    1    1    2    0    0  0.29840957907E-02  0.12226975225E-02  0.29339587098E-01  0.29520711527E-01  0.51109989000E-03 0. -1.
     -623    1    1    2    0    0 -0.21610336640E-02  0.13954472967E-03  0.24517691507E-03  0.17130000001E+03  0.17130000000E+03 0.  1.
      622    1    1    2    0    0 -0.82306212665E-03 -0.13622422522E-02  0.39704152033E+01  0.39704792746E+01  0.22500000000E-01 0. -1.
</event>
<event>
 5   0  0.9908800E+08  0.9118800E+02  0.7818608E-02  0.1180000E+00
       11   -1    0    0    0    0  0.00000000000E+00  0.00000000000E+00  0.39999999673E+01  0.40000000000E+01  0.51109989000E-03 0. -1.
     -623   -1    0    0    0    0  0.00000000000E+00  0.00000000000E+00  0.12525980253E-10  0.17130000000E+03  0.17130000000E+03 0. -1.
       11    1    1    2    0    0  0.25544251351E-02  0.57957661864E-03  0.22423092944E-01  0.22581348877E-01  0.51109989000E-03 0. -1.
     -623    1    1    2    0    0 -0.60882087574E-02  0.21958043996E-02  0.22452490352E-03  0.17130000012E+03  0.17130000000E+03 0. -1.
      622    1    1    2    0    0  0.35337836261E-02 -0.27753810197E-02  0.39773523520E+01  0.39774185312E+01  0.22500000000E-01 0. -1.
</event>
<event>
 5   0  0.9908800E+08  0.9118800E+02  0.7818608E-02  0.1180000E+00
       11   -1    0    0    0    0  0.00000000000E+00  0.00000000000E+00  0.39999999673E+01  0.40000000000E+01  0.51109989000E-03 0. -1.
     -623   -1    0    0    0    0  0.00000000000E+00  0.00000000000E+00  0.12525980253E-10  0.17130000000E+03  0.17130000000E+03 0. -1.
       11    1    1    2    0    0 -0.74584875506E-03  0.19866308251E-02  0.24007461227E-01  0.24106480666E-01  0.51109989000E-03 0. -1.
     -623    1    1    2    0    0 -0.40584913790E-03 -0.84282035978E-03  0.16298621504E-03  0.17130000000E+03  0.17130000000E+03 0. -1.
      622    1    1    2    0    0  0.11516978928E-02 -0.11438104656E-02  0.39758295184E+01  0.39758935152E+01  0.22500000000E-01 0. -1.
</event>
<event>
 5   0  0.9908800E+08  0.9118800E+02  0.7818608E-02  0.1180000E+00
       11   -1    0    0    0    0  0.00000000000E+00  0.00000000000E+00  0.39999999673E+01  0.40000000000E+01  0.51109989000E-03 0.  1.
     -623   -1    0    0    0    0  0.00000000000E+00  0.00000000000E+00  0.12525980253E-10  0.17130000000E+03  0.17130000000E+03 0. -1.
       11    1    1    2    0    0  0.26756628901E-02  0.42135944542E-02  0.27075993611E+00  0.27080642122E+00  0.51109989000E-03 0.  1.
     -623    1    1    2    0    0  0.84950955263E-03 -0.26288006900E-03  0.11809096535E-03  0.17130000000E+03  0.17130000000E+03 0. -1.
      622    1    1    2    0    0 -0.35251724427E-02 -0.39507143852E-02  0.37291219403E+01  0.37291935764E+01  0.22500000000E-01 0.  1.
</event>
<event>
 5   0  0.9908800E+08  0.9118800E+02  0.7818608E-02  0.1180000E+00
       11   -1    0    0    0    0  0.00000000000E+00  0.00000000000E+00  0.39999999673E+01  0.40000000000E+01  0.51109989000E-03 0. -1.
     -623   -1    0    0    0    0  0.00000000000E+00  0.00000000000E+00  0.12525980253E-10  0.17130000000E+03  0.17130000000E+03 0.  1.
       11    1    1    2    0    0 -0.42316367737E-02 -0.10199252101E-01  0.17386750183E+00  0.17421854352E+00  0.51109989000E-03 0. -1.
     -623    1    1    2    0    0 -0.64517802491E-03 -0.69207126397E-05  0.43389664741E-03  0.17130000000E+03  0.17130000000E+03 0.  1.
      622    1    1    2    0    0  0.48768147986E-02  0.10206172814E-01  0.38256985689E+01  0.38257814547E+01  0.22500000000E-01 0. -1.
</event>
<event>
 5   0  0.9908800E+08  0.9118800E+02  0.7818608E-02  0.1180000E+00
       11   -1    0    0    0    0  0.00000000000E+00  0.00000000000E+00  0.39999999673E+01  0.40000000000E+01  0.51109989000E-03 0. -1.
     -623   -1    0    0    0    0  0.00000000000E+00  0.00000000000E+00  0.12525980253E-10  0.17130000000E+03  0.17130000000E+03 0. -1.
       11    1    1    2    0    0 -0.41903221262E-04 -0.11387321863E-02  0.35738542239E+00  0.35738760446E+00  0.51109989000E-03 0. -1.
     -623    1    1    2    0    0  0.17006986238E-04 -0.32675586832E-02  0.74336416505E-04  0.17130000003E+03  0.17130000000E+03 0. -1.
      622    1    1    2    0    0  0.24896235024E-04  0.44062908694E-02  0.36425402086E+01  0.36426123644E+01  0.22500000000E-01 0. -1.
</event>
<event>
 5   0  0.9908800E+08  0.9118800E+02  0.7818608E-02  0.1180000E+00
       11   -1    0    0    0    0  0.00000000000E+00  0.00000000000E+00  0.39999999673E+01  0.40000000000E+01  0.51109989000E-03 0.  1.
     -623   -1    0    0    0    0  0.00000000000E+00  0.00000000000E+00  0.12525980253E-10  0.17130000000E+03  0.17130000000E+03 0.  1.
       11    1    1    2    0    0  0.77423003864E-04  0.78682782393E-03  0.30214456994E-01  0.30229120512E-01  0.51109989000E-03 0.  1.
     -623    1    1    2    0    0 -0.14126287991E-03 -0.17310423579E-03  0.78442633370E-04  0.17130000000E+03  0.17130000000E+03 0.  1.
      622    1    1    2    0    0  0.63839876114E-04 -0.61372358806E-03  0.39697070696E+01  0.39697708812E+01  0.22500000000E-01 0.  1.
</event>
<event>
 5   0  0.9908800E+08  0.9118800E+02  0.7818608E-02  0.1180000E+00
       11   -1    0    0    0    0  0.00000000000E+00  0.00000000000E+00  0.39999999673E+01  0.40000000000E+01  0.51109989000E-03 0.  1.
     -623   -1    0    0    0    0  0.00000000000E+00  0.00000000000E+00  0.12525980253E-10  0.17130000000E+03  0.17130000000E+03 0. -1.
       11    1    1    2    0    0  0.30833540314E-02  0.93896519724E-03  0.12732785569E+00  0.12736966980E+00  0.51109989000E-03 0.  1.
     -623    1    1    2    0    0 -0.92302880748E-02  0.93669352030E-02  0.12624131867E-03  0.17130000050E+03  0.17130000000E+03 0. -1.
      622    1    1    2    0    0  0.61469340369E-02 -0.10305900394E-01  0.38725458675E+01  0.38726298225E+01  0.22500000000E-01 0.  1.
</event>
<event>
 5   0  0.9908800E+08  0.9118800E+02  0.7818608E-02  0.1180000E+00
       11   -1    0    0    0    0  0.00000000000E+00  0.00000000000E+00  0.39999999673E+01  0.40000000000E+01  0.51109989000E-03 0. -1.
     -623   -1    0    0    0    0  0.00000000000E+00  0.00000000000E+00  0.12525980253E-10  0.17130000000E+03  0.17130000000E+03 0. -1.
       11    1    1    2    0    0  0.14139437593E-01  0.32842051120E-02  0.67963766027E+00  0.67979285093E+00  0.51109989000E-03 0. -1.
     -623    1    1    2    0    0 -0.71345331505E-03  0.29288824614E-03  0.26047172031E-03  0.17130000000E+03  0.17130000000E+03 0. -1.
      622    1    1    2    0    0 -0.13425984278E-01 -0.35770933582E-02  0.33201018360E+01  0.33202071478E+01  0.22500000000E-01 0. -1.
</event>
<event>
 5   0  0.9908800E+08  0.9118800E+02  0.7818608E-02  0.1180000E+00
       11   -1    0    0    0    0  0.00000000000E+00  0.00000000000E+00  0.39999999673E+01  0.40000000000E+01  0.51109989000E-03 0.  1.
     -623   -1    0    0    0    0  0.00000000000E+00  0.00000000000E+00  0.12525980253E-10  0.17130000000E+03  0.17130000000E+03 0. -1.
       11    1    1    2    0    0  0.15788288605E-01 -0.14663286559E-01  0.23972206986E+00  0.24068904011E+00  0.51109989000E-03 0.  1.
     -623    1    1    2    0    0  0.56653961269E-02  0.11055934347E-01  0.10976735370E-02  0.17130000045E+03  0.17130000000E+03 0. -1.
      622    1    1    2    0    0 -0.21453684732E-01  0.36073522115E-02  0.37591802240E+01  0.37593105059E+01  0.22500000000E-01 0.  1.
</event>
<event>
 5   0  0.9908800E+08  0.9118800E+02  0.7818608E-02  0.1180000E+00
       11   -1    0    0    0    0  0.00000000000E+00  0.00000000000E+00  0.39999999673E+01  0.40000000000E+01  0.51109989000E-03 0.  1.
     -623   -1    0    0    0    0  0.00000000000E+00  0.00000000000E+00  0.12525980253E-10  0.17130000000E+03  0.17130000000E+03 0. -1.
       11    1    1    2    0    0  0.52822180440E-02 -0.45071312511E-02  0.10216905278E+00  0.10240601852E+00  0.51109989000E-03 0.  1.
     -623    1    1    2    0    0  0.81963888051E-03  0.25862771700E-03  0.30897197740E-03  0.17130000000E+03  0.17130000000E+03 0. -1.
      622    1    1    2    0    0 -0.61018569246E-02  0.42485035341E-02  0.38975219430E+01  0.38975939795E+01  0.22500000000E-01 0.  1.
</event>
<event>
 5   0  0.9908800E+08  0.9118800E+02  0.7818608E-02  0.1180000E+00
       11   -1    0    0    0    0  0.00000000000E+00  0.00000000000E+00  0.39999999673E+01  0.40000000000E+01  0.51109989000E-03 0. -1.
     -623   -1    0    0    0    0  0.00000000000E+00  0.00000000000E+00  0.12525980253E-10  0.17130000000E+03  0.17130000000E+03 0. -1.
       11    1    1    2    0    0  0.13487018479E-02 -0.17857399174E-02  0.12206270579E-01  0.12420230605E-01  0.51109989000E-03 0. -1.
     -623    1    1    2    0    0 -0.84123126444E-03  0.22113461586E-02  0.27747781363E-03  0.17130000002E+03  0.17130000000E+03 0. -1.
      622    1    1    2    0    0 -0.50747058324E-03 -0.42560624190E-03  0.39875162202E+01  0.39875797540E+01  0.22500000000E-01 0. -1.
</event>
<event>
 5   0  0.9908800E+08  0.9118800E+02  0.7818608E-02  0.1180000E+00
       11   -1    0    0    0    0  0.00000000000E+00  0.00000000000E+00  0.39999999673E+01  0.40000000000E+01  0.51109989000E-03 0. -1.
     -623   -1    0    0    0    0  0.00000000000E+00  0.00000000000E+00  0.12525980253E-10  0.17130000000E+03  0.17130000000E+03 0. -1.
       11    1    1    2    0    0  0.78180778142E-03 -0.45786871340E-03  0.91549840791E-01  0.91555750437E-01  0.51109989000E-03 0. -1.
     -623    1    1    2    0    0  0.31310884716E-04  0.24678606752E-03  0.70731640315E-04  0.17130000000E+03  0.17130000000E+03 0. -1.
      622    1    1    2    0    0 -0.81311866613E-03  0.21108264588E-03  0.39083793949E+01  0.39084442494E+01  0.22500000000E-01 0. -1.
</event>
<event>
 5   0  0.9908800E+08  0.9118800E+02  0.7818608E-02  0.1180000E+00
       11   -1    0    0    0    0  0.00000000000E+00  0.00000000000E+00  0.39999999673E+01  0.40000000000E+01  0.51109989000E-03 0. -1.
     -623   -1    0    0    0    0  0.00000000000E+00  0.00000000000E+00  0.12525980253E-10  0.17130000000E+03  0.17130000000E+03 0. -1.
       11    1    1    2    0    0  0.24705703033E-02  0.43547012142E-02  0.53498141502E-01  0.53734341975E-01  0.51109989000E-03 0. -1.
     -623    1    1    2    0    0 -0.12637627707E-02  0.36244660804E-02  0.30860598285E-03  0.17130000004E+03  0.17130000000E+03 0. -1.
      622    1    1    2    0    0 -0.12068075324E-02 -0.79791672952E-02  0.39461932205E+01  0.39462656153E+01  0.22500000000E-01 0. -1.
</event>
<event>
 5   0  0.9908800E+08  0.9118800E+02  0.7818608E-02  0.1180000E+00
       11   -1    0    0    0    0  0.00000000000E+00  0.00000000000E+00  0.39999999673E+01  0.40000000000E+01  0.51109989000E-03 0. -1.
     -623   -1    0    0    0    0  0.00000000000E+00  0.00000000000E+00  0.12525980253E-10  0.17130000000E+03  0.17130000000E+03 0.  1.
       11    1    1    2    0    0 -0.29300899631E-03 -0.24953149172E-02  0.21232735333E+00  0.21234283281E+00  0.51109989000E-03 0. -1.
     -623    1    1    2    0    0 -0.30438252526E-02 -0.28627102840E-02  0.87586993221E-04  0.17130000005E+03  0.17130000000E+03 0.  1.
      622    1    1    2    0    0  0.33368342477E-02  0.53580252000E-02  0.37875850254E+01  0.37876571146E+01  0.22500000000E-01 0. -1.
</event>
<event>
 5   0  0.9908800E+08  0.9118800E+02  0.7818608E-02  0.1180000E+00
       11   -1    0    0    0    0  0.00000000000E+00  0.00000000000E+00  0.39999999673E+01  0.40000000000E+01  0.51109989000E-03 0.  1.
     -623   -1    0    0    0    0  0.00000000000E+00  0.00000000000E+00  0.12525980253E-10  0.17130000000E+03  0.17130000000E+03 0. -1.
       11    1    1    2    0    0  0.26617915535E-02 -0.35292981121E-02  0.75495049137E-01  0.75626085090E-01  0.51109989000E-03 0.  1.
     -623    1    1    2    0    0 -0.11453874027E-03 -0.18656969011E-02  0.20005002103E-03  0.17130000001E+03  0.17130000000E+03 0. -1.
      622    1    1    2    0    0 -0.25472528133E-02  0.53949950132E-02  0.39243048682E+01  0.39243739046E+01  0.22500000000E-01 0.  1.
</event>
<event>
 5   0  0.9908800E+08  0.9118800E+02  0.7818608E-02  0.1180000E+00
       11   -1    0    0    0    0  0.00000000000E+00  0.00000000000E+00  0.39999999673E+01  0.40000000000E+01  0.51109989000E-03 0. -1.
     -623   -1    0    0    0    0  0.00000000000E+00  0.00000000000E+00  0.12525980253E-10  0.17130000000E+03  0.17130000000E+03 0. -1.
       11    1    1    2    0    0  0.14582753489E-01  0.45642030248E-02  0.85784148771E+00  0.85797771993E+00  0.51109989000E-03 0. -1.
     -623    1    1    2    0    0 -0.22639846267E-02  0.54857316732E-02  0.25708750615E-03  0.17130000010E+03  0.17130000000E+03 0. -1.
      622    1    1    2    0    0 -0.12318768862E-01 -0.10049934699E-01  0.31419013929E+01  0.31420221778E+01  0.22500000000E-01 0. -1.
</event>
<event>
 5   0  0.9908800E+08  0.9118800E+02  0.7818608E-02  0.1180000E+00
       11   -1    0    0    0    0  0.00000000000E+00  0.00000000000E+00  0.39999999673E+01  0.40000000000E+01  0.51109989000E-03 0. -1.
     -623   -1    0    0    0    0  0.00000000000E+00  0.00000000000E+00  0.12525980253E-10  0.17130000000E+03  0.17130000000E+03 0. -1.
       11    1    1    2    0    0  0.19603361476E-02  0.36535219404E-02  0.38001759195E-01  0.38230695329E-01  0.51109989000E-03 0. -1.
     -623    1    1    2    0    0 -0.17640505781E-02 -0.77224749032E-02  0.29507374377E-03  0.17130000018E+03  0.17130000000E+03 0. -1.
      622    1    1    2    0    0 -0.19628556913E-03  0.40689529642E-02  0.39617031351E+01  0.39617691220E+01  0.22500000000E-01 0. -1.
</event>
<event>
 5   0  0.9908800E+08  0.9118800E+02  0.7818608E-02  0.1180000E+00
       11   -1    0    0    0    0  0.00000000000E+00  0.00000000000E+00  0.39999999673E+01  0.40000000000E+01  0.51109989000E-03 0.  1.
     -623   -1    0    0    0    0  0.00000000000E+00  0.00000000000E+00  0.12525980253E-10  0.17130000000E+03  0.17130000000E+03 0. -1.
       11    1    1    2    0    0 -0.71145822614E-03  0.18969888046E-02  0.70992851072E+00  0.70993158565E+00  0.51109989000E-03 0.  1.
     -623    1    1    2    0    0 -0.60043456521E-04 -0.25590096038E-03  0.80479250466E-04  0.17130000000E+03  0.17130000000E+03 0. -1.
      622    1    1    2    0    0  0.77150168260E-03 -0.16410878445E-02  0.32899909732E+01  0.32900684100E+01  0.22500000000E-01 0.  1.
</event>
<event>
 5   0  0.9908800E+08  0.9118800E+02  0.7818608E-02  0.1180000E+00
       11   -1    0    0    0    0  0.00000000000E+00  0.00000000000E+00  0.39999999673E+01  0.40000000000E+01  0.51109989000E-03 0. -1.
     -623   -1    0    0    0    0  0.00000000000E+00  0.00000000000E+00  0.12525980253E-10  0.17130000000E+03  0.17130000000E+03 0.  1.
       11    1    1    2    0    0  0.47614716323E-02 -0.19857518580E-02  0.11753532302E+00  0.11764959925E+00  0.51109989000E-03 0. -1.
     -623    1    1    2    0    0 -0.89836211487E-02 -0.93440102738E-02  0.19876146266E-03  0.17130000049E+03  0.17130000000E+03 0.  1.
      622    1    1    2    0    0  0.42221495210E-02  0.11329762137E-01  0.38822658849E+01  0.38823499123E+01  0.22500000000E-01 0. -1.
</event>
<event>
 5   0  0.9908800E+08  0.9118800E+02  0.7818608E-02  0.1180000E+00
       11   -1    0    0    0    0  0.00000000000E+00  0.00000000000E+00  0.39999999673E+01  0.40000000000E+01  0.51109989000E-03 0. -1.
     -623   -1    0    0    0    0  0.00000000000E+00  0.00000000000E+00  0.12525980253E-10  0.17130000000E+03  0.17130000000E+03 0.  1.
       11    1    1    2    0    0 -0.71465234302E-04 -0.48227042282E-03  0.75346340802E-02  0.75676697775E-02  0.51109989000E-03 0. -1.
     -623    1    1    2    0    0  0.16705129154E-03  0.44202986253E-04  0.96430052525E-04  0.17130000000E+03  0.17130000000E+03 0.  1.
      622    1    1    2    0    0 -0.95586057424E-04  0.43806743652E-03  0.39923689077E+01  0.39924323346E+01  0.22500000000E-01 0. -1.
</event>
<event>
 5   0  0.9908800E+08  0.9118800E+02  0.7818608E-02  0.1180000E+00
       11   -1    0    0    0    0  0.00000000000E+00  0.00000000000E+00  0.39999999673E+01  0.40000000000E+01  0.51109989000E-03 0.  1.
     -623   -1    0    0    0    0  0.00000000000E+00  0.00000000000E+00  0.12525980253E-10  0.17130000000E+03  0.17130000000E+03 0.  1.
       11    1    1    2    0    0  0.59660811134E-03  0.65513716745E-03  0.94015804400E-02  0.94570652855E-02  0.51109989000E-03 0. -1.
     -623    1    1    2    0    0  0.82041072169E-04  0.19891006174E-03  0.11903320438E-03  0.17130000000E+03  0.17130000000E+03 0.  1.
      622    1    1    2    0    0 -0.67864918349E-03 -0.85404722916E-03  0.39904793530E+01  0.39905429339E+01  0.22500000000E-01 0.  1.
</event>
<event>
 5   0  0.9908800E+08  0.9118800E+02  0.7818608E-02  0.1180000E+00
       11   -1    0    0    0    0  0.00000000000E+00  0.00000000000E+00  0.39999999673E+01  0.40000000000E+01  0.51109989000E-03 0. -1.
     -623   -1    0    0    0    0  0.00000000000E+00  0.00000000000E+00  0.12525980253E-10  0.17130000000E+03  0.17130000000E+03 0. -1.
       11    1    1    2    0    0  0.66692813348E-02 -0.95002503357E-02  0.33121512124E+00  0.33141884652E+00  0.51109989000E-03 0. -1.
     -623    1    1    2    0    0  0.78881456764E-03 -0.33310391459E-04  0.29266233183E-03  0.17130000000E+03  0.17130000000E+03 0. -1.
      622    1    1    2    0    0 -0.74580959024E-02  0.95335607272E-02  0.36684921838E+01  0.36685811514E+01  0.22500000000E-01 0.  0.
</event>
<event>
 5   0  0.9908800E+08  0.9118800E+02  0.7818608E-02  0.1180000E+00
       11   -1    0    0    0    0  0.00000000000E+00  0.00000000000E+00  0.39999999673E+01  0.40000000000E+01  0.51109989000E-03 0. -1.
     -623   -1    0    0    0    0  0.00000000000E+00  0.00000000000E+00  0.12525980253E-10  0.17130000000E+03  0.17130000000E+03 0.  1.
       11    1    1    2    0    0 -0.16020325360E-01  0.19602179271E-01  0.93531373518E+00  0.93565642236E+00  0.51109989000E-03 0. -1.
     -623    1    1    2    0    0  0.16721625585E-01  0.49930903103E-02  0.52493748552E-03  0.17130000089E+03  0.17130000000E+03 0.  1.
      622    1    1    2    0    0 -0.70130022425E-03 -0.24595269581E-01  0.30641612944E+01  0.30643426877E+01  0.22500000000E-01 0. -1.
</event>
<event>
 5   0  0.9908800E+08  0.9118800E+02  0.7818608E-02  0.1180000E+00
       11   -1    0    0    0    0  0.00000000000E+00  0.00000000000E+00  0.39999999673E+01  0.40000000000E+01  0.51109989000E-03 0.  1.
     -623   -1    0    0    0    0  0.00000000000E+00  0.00000000000E+00  0.12525980253E-10  0.17130000000E+03  0.17130000000E+03 0. -1.
       11    1    1    2    0    0 -0.21505016149E-02  0.29622040635E-02  0.14865623335E-01  0.15318201276E-01  0.51109989000E-03 0.  1.
     -623    1    1    2    0    0  0.53090116885E-03  0.79259861303E-03  0.51817204360E-03  0.17130000000E+03  0.17130000000E+03 0. -1.
      622    1    1    2    0    0  0.16196004460E-02 -0.37548026765E-02  0.39846161718E+01  0.39846817951E+01  0.22500000000E-01 0.  1.
</event>
<event>
 5   0  0.9908800E+08  0.9118800E+02  0.7818608E-02  0.1180000E+00
       11   -1    0    0    0    0  0.00000000000E+00  0.00000000000E+00  0.39999999673E+01  0.40000000000E+01  0.51109989000E-03 0.  1.
     -623   -1    0    0    0    0  0.00000000000E+00  0.00000000000E+00  0.12525980253E-10  0.17130000000E+03  0.17130000000E+03 0. -1.
       11    1    1    2    0    0 -0.30613833005E-03  0.43468402797E-02  0.82028868809E+00  0.82030042166E+00  0.51109989000E-03 0.  1.
     -623    1    1    2    0    0  0.11293890501E-04  0.10757001713E-03  0.94442382000E-04  0.17130000000E+03  0.17130000000E+03 0. -1.
      622    1    1    2    0    0  0.29484443954E-03 -0.44544102969E-02  0.31796168397E+01  0.31796995811E+01  0.22500000000E-01 0.  0.
</event>
<event>
 5   0  0.9908800E+08  0.9118800E+02  0.7818608E-02  0.1180000E+00
       11   -1    0    0    0    0  0.00000000000E+00  0.00000000000E+00  0.39999999673E+01  0.40000000000E+01  0.51109989000E-03 0.  1.
     -623   -1    0    0    0    0  0.00000000000E+00  0.00000000000E+00  0.12525980253E-10  0.17130000000E+03  0.17130000000E+03 0.  1.
       11    1    1    2    0    0  0.40337517136E-03  0.11573156727E-02  0.53203844610E-01  0.53220413325E-01  0.51109989000E-03 0.  1.
     -623    1    1    2    0    0 -0.32958325249E-03 -0.47237245052E-03  0.80732274916E-04  0.17130000000E+03  0.17130000000E+03 0.  1.
      622    1    1    2    0    0 -0.73791918864E-04 -0.68494322217E-03  0.39467153905E+01  0.39467795857E+01  0.22500000000E-01 0.  1.
</event>
<event>
 5   0  0.9908800E+08  0.9118800E+02  0.7818608E-02  0.1180000E+00
       11   -1    0    0    0    0  0.00000000000E+00  0.00000000000E+00  0.39999999673E+01  0.40000000000E+01  0.51109989000E-03 0.  1.
     -623   -1    0    0    0    0  0.00000000000E+00  0.00000000000E+00  0.12525980253E-10  0.17130000000E+03  0.17130000000E+03 0. -1.
       11    1    1    2    0    0 -0.29860885923E-02  0.38011037738E-03  0.34154914323E-01  0.34291115518E-01  0.51109989000E-03 0.  1.
     -623    1    1    2    0    0 -0.12476286375E-03  0.11856532175E-02  0.20153103403E-03  0.17130000000E+03  0.17130000000E+03 0. -1.
      622    1    1    2    0    0  0.31108514561E-02 -0.15657635949E-02  0.39656435220E+01  0.39657088802E+01  0.22500000000E-01 0.  1.
</event>
<event>
 5   0  0.9908800E+08  0.9118800E+02  0.7818608E-02  0.1180000E+00
       11   -1    0    0    0    0  0.00000000000E+00  0.00000000000E+00  0.39999999673E+01  0.40000000000E+01  0.51109989000E-03 0. -1.
     -623   -1    0    0    0    0  0.00000000000E+00  0.00000000000E+00  0.12525980253E-10  0.17130000000E+03  0.17130000000E+03 0. -1.
       11    1    1    2    0    0  0.15582689884E-01  0.16787679675E-01  0.13060850742E+00  0.13260275203E+00  0.51109989000E-03 0. -1.
     -623    1    1    2    0    0  0.72282032097E-02 -0.97693880065E-02  0.21337502406E-02  0.17130000044E+03  0.17130000000E+03 0. -1.
      622    1    1    2    0    0 -0.22810893094E-01 -0.70182916677E-02  0.38672577099E+01  0.38673968038E+01  0.22500000000E-01 0. -1.
</event>
<event>
 5   0  0.9908800E+08  0.9118800E+02  0.7818608E-02  0.1180000E+00
       11   -1    0    0    0    0  0.00000000000E+00  0.00000000000E+00  0.39999999673E+01  0.40000000000E+01  0.51109989000E-03 0. -1.
     -623   -1    0    0    0    0  0.00000000000E+00  0.00000000000E+00  0.12525980253E-10  0.17130000000E+03  0.17130000000E+03 0.  1.
       11    1    1    2    0    0 -0.31008319498E-01 -0.11576260304E-01  0.67723649388E+00  0.67804502472E+00  0.51109989000E-03 0. -1.
     -623    1    1    2    0    0  0.23734907130E-02 -0.27616882058E-01  0.12415900307E-02  0.17130000225E+03  0.17130000000E+03 0.  1.
      622    1    1    2    0    0  0.28634828785E-01  0.39193142364E-01  0.33215218837E+01  0.33219527284E+01  0.22500000000E-01 0. -1.
</event>
<event>
 5   0  0.9908800E+08  0.9118800E+02  0.7818608E-02  0.1180000E+00
       11   -1    0    0    0    0  0.00000000000E+00  0.00000000000E+00  0.39999999673E+01  0.40000000000E+01  0.51109989000E-03 0. -1.
     -623   -1    0    0    0    0  0.00000000000E+00  0.00000000000E+00  0.12525980253E-10  0.17130000000E+03  0.17130000000E+03 0.  1.
       11    1    1    2    0    0 -0.87914675704E-04  0.34819760008E-03  0.39223359497E-01  0.39228333151E-01  0.51109989000E-03 0. -1.
     -623    1    1    2    0    0  0.11004840326E-02  0.95883005557E-03  0.69200855116E-04  0.17130000001E+03  0.17130000000E+03 0.  1.
      622    1    1    2    0    0 -0.10125693568E-02 -0.13070276557E-02  0.39607074070E+01  0.39607716606E+01  0.22500000000E-01 0. -1.
</event>
<event>
 5   0  0.9908800E+08  0.9118800E+02  0.7818608E-02  0.1180000E+00
       11   -1    0    0    0    0  0.00000000000E+00  0.00000000000E+00  0.39999999673E+01  0.40000000000E+01  0.51109989000E-03 0. -1.
     -623   -1    0    0    0    0  0.00000000000E+00  0.00000000000E+00  0.12525980253E-10  0.17130000000E+03  0.17130000000E+03 0. -1.
       11    1    1    2    0    0 -0.24599556548E-02 -0.69324685882E-03  0.65335410548E-02  0.70342272672E-02  0.51109989000E-03 0. -1.
     -623    1    1    2    0    0  0.32565979802E-02 -0.30519111238E-02  0.56594174711E-03  0.17130000006E+03  0.17130000000E+03 0. -1.
      622    1    1    2    0    0 -0.79664232543E-03  0.37451579826E-02  0.39929004846E+01  0.39929657137E+01  0.22500000000E-01 0. -1.
</event>
<event>
 5   0  0.9908800E+08  0.9118800E+02  0.7818608E-02  0.1180000E+00
       11   -1    0    0    0    0  0.00000000000E+00  0.00000000000E+00  0.39999999673E+01  0.40000000000E+01  0.51109989000E-03 0.  1.
     -623   -1    0    0    0    0  0.00000000000E+00  0.00000000000E+00  0.12525980253E-10  0.17130000000E+03  0.17130000000E+03 0. -1.
       11    1    1    2    0    0 -0.68940937705E-03  0.12945165298E-02  0.13643271952E-02  0.20672856909E-02  0.51109989000E-03 0.  1.
     -623    1    1    2    0    0 -0.74043870053E-05  0.16329710363E-02  0.76738240171E-03  0.17130000001E+03  0.17130000000E+03 0. -1.
      622    1    1    2    0    0  0.69681376406E-03 -0.29274875659E-02  0.39978682573E+01  0.39979327044E+01  0.22500000000E-01 0.  1.
</event>
<event>
 5   0  0.9908800E+08  0.9118800E+02  0.7818608E-02  0.1180000E+00
       11   -1    0    0    0    0  0.00000000000E+00  0.00000000000E+00  0.39999999673E+01  0.40000000000E+01  0.51109989000E-03 0. -1.
     -623   -1    0    0    0    0  0.00000000000E+00  0.00000000000E+00  0.12525980253E-10  0.17130000000E+03  0.17130000000E+03 0.  1.
       11    1    1    2    0    0 -0.99197487331E-02 -0.47278780890E-02  0.63966321109E-01  0.64905359605E-01  0.51109989000E-03 0. -1.
     -623    1    1    2    0    0  0.76837525068E-03 -0.43912581909E-02  0.10246002727E-02  0.17130000006E+03  0.17130000000E+03 0.  1.
      622    1    1    2    0    0  0.91513734825E-02  0.91191362795E-02  0.39350090456E+01  0.39350945790E+01  0.22500000000E-01 0. -1.
</event>
<event>
 5   0  0.9908800E+08  0.9118800E+02  0.7818608E-02  0.1180000E+00
       11   -1    0    0    0    0  0.00000000000E+00  0.00000000000E+00  0.39999999673E+01  0.40000000000E+01  0.51109989000E-03 0.  1.
     -623   -1    0    0    0    0  0.00000000000E+00  0.00000000000E+00  0.12525980253E-10  0.17130000000E+03  0.17130000000E+03 0. -1.
       11    1    1    2    0    0  0.29305903662E-02 -0.67642129943E-02  0.11831230157E+01  0.11831460918E+01  0.51109989000E-03 0.  1.
     -623    1    1    2    0    0  0.14011343211E-02  0.27625930867E-02  0.11910697867E-03  0.17130000003E+03  0.17130000000E+03 0. -1.
      622    1    1    2    0    0 -0.43317246873E-02  0.40016199076E-02  0.28167578447E+01  0.28168538802E+01  0.22500000000E-01 0.  1.
</event>
<event>
 5   0  0.9908800E+08  0.9118800E+02  0.7818608E-02  0.1180000E+00
       11   -1    0    0    0    0  0.00000000000E+00  0.00000000000E+00  0.39999999673E+01  0.40000000000E+01  0.51109989000E-03 0. -1.
     -623   -1    0    0    0    0  0.00000000000E+00  0.00000000000E+00  0.12525980253E-10  0.17130000000E+03  0.17130000000E+03 0. -1.
       11    1    1    2    0    0  0.29999590146E-02  0.31647072154E-02  0.59256317080E-02  0.73749210223E-02  0.51109989000E-03 0. -1.
     -623    1    1    2    0    0 -0.27668416218E-02 -0.10341814073E-02  0.15132627233E-02  0.17130000003E+03  0.17130000000E+03 0. -1.
      622    1    1    2    0    0 -0.23311739269E-03 -0.21305258081E-02  0.39925610731E+01  0.39926250470E+01  0.22500000000E-01 0. -1.
</event>
<event>
 5   0  0.9908800E+08  0.9118800E+02  0.7818608E-02  0.1180000E+00
       11   -1    0    0    0    0  0.00000000000E+00  0.00000000000E+00  0.39999999673E+01  0.40000000000E+01  0.51109989000E-03 0.  1.
     -623   -1    0    0    0    0  0.00000000000E+00  0.00000000000E+00  0.12525980253E-10  0.17130000000E+03  0.17130000000E+03 0. -1.
       11    1    1    2    0    0  0.28129563004E-03 -0.11663419098E-02  0.58541697671E+00  0.58541842927E+00  0.51109989000E-03 0.  1.
     -623    1    1    2    0    0 -0.13509534773E-03  0.94169710791E-03  0.75564504046E-04  0.17130000000E+03  0.17130000000E+03 0. -1.
      622    1    1    2    0    0 -0.14620028209E-03  0.22464480044E-03  0.34145074324E+01  0.34145815743E+01  0.22500000000E-01 0.  1.
</event>
<event>
 5   0  0.9908800E+08  0.9118800E+02  0.7818608E-02  0.1180000E+00
       11   -1    0    0    0    0  0.00000000000E+00  0.00000000000E+00  0.39999999673E+01  0.40000000000E+01  0.51109989000E-03 0. -1.
     -623   -1    0    0    0    0  0.00000000000E+00  0.00000000000E+00  0.12525980253E-10  0.17130000000E+03  0.17130000000E+03 0.  1.
       11    1    1    2    0    0 -0.67494823027E-02 -0.95757252310E-03  0.76881237468E-01  0.77184573282E-01  0.51109989000E-03 0. -1.
     -623    1    1    2    0    0  0.45519450522E-02  0.15775682594E-02  0.36856273556E-03  0.17130000007E+03  0.17130000000E+03 0.  1.
      622    1    1    2    0    0  0.21975372505E-02 -0.61999573633E-03  0.39227501672E+01  0.39228153586E+01  0.22500000000E-01 0. -1.
</event>
<event>
 5   0  0.9908800E+08  0.9118800E+02  0.7818608E-02  0.1180000E+00
       11   -1    0    0    0    0  0.00000000000E+00  0.00000000000E+00  0.39999999673E+01  0.40000000000E+01  0.51109989000E-03 0.  1.
     -623   -1    0    0    0    0  0.00000000000E+00  0.00000000000E+00  0.12525980253E-10  0.17130000000E+03  0.17130000000E+03 0. -1.
       11    1    1    2    0    0 -0.23536724119E-02  0.18915757373E-03  0.35949744520E-01  0.36030832749E-01  0.51109989000E-03 0.  1.
     -623    1    1    2    0    0 -0.13506628633E-02  0.10327116059E-02  0.14684025556E-03  0.17130000001E+03  0.17130000000E+03 0. -1.
      622    1    1    2    0    0  0.37043352763E-02 -0.12218691805E-02  0.39639033858E+01  0.39639691620E+01  0.22500000000E-01 0.  1.
</event>
<event>
 5   0  0.9908800E+08  0.9118800E+02  0.7818608E-02  0.1180000E+00
       11   -1    0    0    0    0  0.00000000000E+00  0.00000000000E+00  0.39999999673E+01  0.40000000000E+01  0.51109989000E-03 0.  1.
     -623   -1    0    0    0    0  0.00000000000E+00  0.00000000000E+00  0.12525980253E-10  0.17130000000E+03  0.17130000000E+03 0. -1.
       11    1    1    2    0    0  0.67951379321E-02  0.89274432794E-03  0.64910069105E-01  0.65272882473E-01  0.51109989000E-03 0.  1.
     -623    1    1    2    0    0 -0.30286619180E-03  0.43381927450E-03  0.43269345113E-03  0.17130000000E+03  0.17130000000E+03 0. -1.
      622    1    1    2    0    0 -0.64922717402E-02 -0.13265636026E-02  0.39346572061E+01  0.39347271175E+01  0.22500000000E-01 0.  1.
</event>
<event>
 5   0  0.9908800E+08  0.9118800E+02  0.7818608E-02  0.1180000E+00
       11   -1    0    0    0    0  0.00000000000E+00  0.00000000000E+00  0.39999999673E+01  0.40000000000E+01  0.51109989000E-03 0.  1.
     -623   -1    0    0    0    0  0.00000000000E+00  0.00000000000E+00  0.12525980253E-10  0.17130000000E+03  0.17130000000E+03 0.  1.
       11    1    1    2    0    0  0.12470472743E-02  0.22229259775E-02  0.78618695717E-01  0.78661661982E-01  0.51109989000E-03 0.  1.
     -623    1    1    2    0    0 -0.65837462630E-03 -0.58211911334E-05  0.10815708843E-03  0.17130000000E+03  0.17130000000E+03 0.  1.
      622    1    1    2    0    0 -0.58867264798E-03 -0.22171047863E-02  0.39212731146E+01  0.39213383367E+01  0.22500000000E-01 0.  1.
</event>
<event>
 5   0  0.9908800E+08  0.9118800E+02  0.7818608E-02  0.1180000E+00
       11   -1    0    0    0    0  0.00000000000E+00  0.00000000000E+00  0.39999999673E+01  0.40000000000E+01  0.51109989000E-03 0. -1.
     -623   -1    0    0    0    0  0.00000000000E+00  0.00000000000E+00  0.12525980253E-10  0.17130000000E+03  0.17130000000E+03 0.  1.
       11    1    1    2    0    0 -0.40734911073E-02 -0.26781298978E-03  0.11695397146E+01  0.11695469509E+01  0.51109989000E-03 0. -1.
     -623    1    1    2    0    0 -0.14713725039E-03  0.72370859691E-03  0.99819427319E-04  0.17130000000E+03  0.17130000000E+03 0.  1.
      622    1    1    2    0    0  0.42206283577E-02 -0.45589560726E-03  0.28303604340E+01  0.28304530482E+01  0.22500000000E-01 0. -1.
</event>
<event>
 5   0  0.9908800E+08  0.9118800E+02  0.7818608E-02  0.1180000E+00
       11   -1    0    0    0    0  0.00000000000E+00  0.00000000000E+00  0.39999999673E+01  0.40000000000E+01  0.51109989000E-03 0.  1.
     -623   -1    0    0    0    0  0.00000000000E+00  0.00000000000E+00  0.12525980253E-10  0.17130000000E+03  0.17130000000E+03 0.  1.
       11    1    1    2    0    0  0.43383449867E-02 -0.56142315855E-02  0.22726286580E+00  0.22737416790E+00  0.51109989000E-03 0.  1.
     -623    1    1    2    0    0 -0.13293348190E-02  0.50596849749E-02  0.17968596961E-03  0.17130000008E+03  0.17130000000E+03 0.  1.
      622    1    1    2    0    0 -0.30090101665E-02  0.55454660589E-03  0.37725574193E+01  0.37726257558E+01  0.22500000000E-01 0.  1.
</event>
<event>
 5   0  0.9908800E+08  0.9118800E+02  0.7818608E-02  0.1180000E+00
       11   -1    0    0    0    0  0.00000000000E+00  0.00000000000E+00  0.39999999673E+01  0.40000000000E+01  0.51109989000E-03 0.  1.
     -623   -1    0    0    0    0  0.00000000000E+00  0.00000000000E+00  0.12525980253E-10  0.17130000000E+03  0.17130000000E+03 0.  1.
       11    1    1    2    0    0  0.30664932133E-02 -0.52705581964E-02  0.41418814486E+00  0.41423334333E+00  0.51109989000E-03 0.  1.
     -623    1    1    2    0    0  0.12429745680E-04 -0.89274855529E-04  0.12108597471E-03  0.17130000000E+03  0.17130000000E+03 0.  1.
      622    1    1    2    0    0 -0.30789229589E-02  0.53598330520E-02  0.35856907407E+01  0.35857666608E+01  0.22500000000E-01 0.  1.
</event>
<event>
 5   0  0.9908800E+08  0.9118800E+02  0.7818608E-02  0.1180000E+00
       11   -1    0    0    0    0  0.00000000000E+00  0.00000000000E+00  0.39999999673E+01  0.40000000000E+01  0.51109989000E-03 0.  1.
     -623   -1    0    0    0    0  0.00000000000E+00  0.00000000000E+00  0.12525980253E-10  0.17130000000E+03  0.17130000000E+03 0.  1.
       11    1    1    2    0    0 -0.26152700146E-03  0.72652090000E-02  0.49131554839E+00  0.49136959712E+00  0.51109989000E-03 0.  1.
     -623    1    1    2    0    0 -0.62789520849E-02 -0.75409906369E-02  0.13254854421E-03  0.17130000028E+03  0.17130000000E+03 0.  1.
      622    1    1    2    0    0  0.65404790844E-02  0.27578163450E-03  0.35085518692E+01  0.35086301205E+01  0.22500000000E-01 0.  1.
</event>
<event>
 5   0  0.9908800E+08  0.9118800E+02  0.7818608E-02  0.1180000E+00
       11   -1    0    0    0    0  0.00000000000E+00  0.00000000000E+00  0.39999999673E+01  0.40000000000E+01  0.51109989000E-03 0. -1.
     -623   -1    0    0    0    0  0.00000000000E+00  0.00000000000E+00  0.12525980253E-10  0.17130000000E+03  0.17130000000E+03 0. -1.
       11    1    1    2    0    0  0.11309168505E-05  0.97985970463E-03  0.84038729390E-01  0.84045995662E-01  0.51109989000E-03 0. -1.
     -623    1    1    2    0    0 -0.39946649715E-03 -0.33586063442E-03  0.71947612510E-04  0.17130000000E+03  0.17130000000E+03 0. -1.
      622    1    1    2    0    0  0.39833558021E-03 -0.64399907029E-03  0.39158892894E+01  0.39159540026E+01  0.22500000000E-01 0. -1.
</event>
<event>
 5   0  0.9908800E+08  0.9118800E+02  0.7818608E-02  0.1180000E+00
       11   -1    0    0    0    0  0.00000000000E+00  0.00000000000E+00  0.39999999673E+01  0.40000000000E+01  0.51109989000E-03 0. -1.
     -623   -1    0    0    0    0  0.00000000000E+00  0.00000000000E+00  0.12525980253E-10  0.17130000000E+03  0.17130000000E+03 0. -1.
       11    1    1    2    0    0 -0.20931511845E-01 -0.17637783292E-02  0.60994974018E+00  0.61031154821E+00  0.51109989000E-03 0. -1.
     -623    1    1    2    0    0  0.49395430616E-02 -0.71560743624E-02  0.48613388036E-03  0.17130000022E+03  0.17130000000E+03 0. -1.
      622    1    1    2    0    0  0.15991968782E-01  0.89198526933E-02  0.33895640942E+01  0.33896882313E+01  0.22500000000E-01 0. -1.
</event>
<event>
 5   0  0.9908800E+08  0.9118800E+02  0.7818608E-02  0.1180000E+00
       11   -1    0    0    0    0  0.00000000000E+00  0.00000000000E+00  0.39999999673E+01  0.40000000000E+01  0.51109989000E-03 0. -1.
     -623   -1    0    0    0    0  0.00000000000E+00  0.00000000000E+00  0.12525980253E-10  0.17130000000E+03  0.17130000000E+03 0.  1.
       11    1    1    2    0    0  0.44164817644E-03 -0.89491716305E-03  0.30710741242E-01  0.30731202043E-01  0.51109989000E-03 0. -1.
     -623    1    1    2    0    0  0.14294597593E-02  0.37874013084E-04  0.84739408525E-04  0.17130000001E+03  0.17130000000E+03 0.  1.
      622    1    1    2    0    0 -0.18711079357E-02  0.85704314996E-03  0.39692044867E+01  0.39692687920E+01  0.22500000000E-01 0. -1.
</event>
<event>
 5   0  0.9908800E+08  0.9118800E+02  0.7818608E-02  0.1180000E+00
       11   -1    0    0    0    0  0.00000000000E+00  0.00000000000E+00  0.39999999673E+01  0.40000000000E+01  0.51109989000E-03 0. -1.
     -623   -1    0    0    0    0  0.00000000000E+00  0.00000000000E+00  0.12525980253E-10  0.17130000000E+03  0.17130000000E+03 0. -1.
       11    1    1    2    0    0 -0.42741123392E-02  0.44025398605E-02  0.57327865036E+00  0.57331171501E+00  0.51109989000E-03 0. -1.
     -623    1    1    2    0    0 -0.36237282372E-04  0.22345252502E-03  0.11273529067E-03  0.17130000000E+03  0.17130000000E+03 0. -1.
      622    1    1    2    0    0  0.43103496215E-02 -0.46259923853E-02  0.34266085788E+01  0.34266882819E+01  0.22500000000E-01 0. -1.
</event>
<event>
 5   0  0.9908800E+08  0.9118800E+02  0.7818608E-02  0.1180000E+00
       11   -1    0    0    0    0  0.00000000000E+00  0.00000000000E+00  0.39999999673E+01  0.40000000000E+01  0.51109989000E-03 0.  1.
     -623   -1    0    0    0    0  0.00000000000E+00  0.00000000000E+00  0.12525980253E-10  0.17130000000E+03  0.17130000000E+03 0.  1.
       11    1    1    2    0    0 -0.70000358563E-03  0.25930592535E-03  0.84261945027E-02  0.84746222027E-02  0.51109989000E-03 0.  1.
     -623    1    1    2    0    0  0.10680625890E-03 -0.40705775425E-03  0.11185853712E-03  0.17130000000E+03  0.17130000000E+03 0.  1.
      622    1    1    2    0    0  0.59319732678E-03  0.14775182870E-03  0.39914619124E+01  0.39915253753E+01  0.22500000000E-01 0.  1.
</event>
<event>
 5   0  0.9908800E+08  0.9118800E+02  0.7818608E-02  0.1180000E+00
       11   -1    0    0    0    0  0.00000000000E+00  0.00000000000E+00  0.39999999673E+01  0.40000000000E+01  0.51109989000E-03 0.  1.
     -623   -1    0    0    0    0  0.00000000000E+00  0.00000000000E+00  0.12525980253E-10  0.17130000000E+03  0.17130000000E+03 0.  1.
       11    1    1    2    0    0  0.36216072623E-06  0.32940852750E-02  0.13069779992E+00  0.13074030413E+00  0.51109989000E-03 0.  1.
     -623    1    1    2    0    0 -0.38304225305E-02 -0.51638177631E-02  0.11035973109E-03  0.17130000012E+03  0.17130000000E+03 0.  1.
      622    1    1    2    0    0  0.38300603697E-02  0.18697324881E-02  0.38691918077E+01  0.38692595752E+01  0.22500000000E-01 0.  1.
</event>
<event>
 5   0  0.9908800E+08  0.9118800E+02  0.7818608E-02  0.1180000E+00
       11   -1    0    0    0    0  0.00000000000E+00  0.00000000000E+00  0.39999999673E+01  0.40000000000E+01  0.51109989000E-03 0.  1.
     -623   -1    0    0    0    0  0.00000000000E+00  0.00000000000E+00  0.12525980253E-10  0.17130000000E+03  0.17130000000E+03 0. -1.
       11    1    1    2    0    0 -0.45036199461E-02 -0.89264833361E-02  0.88063343110E+00  0.88069033484E+00  0.51109989000E-03 0.  1.
     -623    1    1    2    0    0 -0.63467026300E-02  0.12268525484E-01  0.15923895398E-03  0.17130000056E+03  0.17130000000E+03 0. -1.
      622    1    1    2    0    0  0.10850322578E-01 -0.33420421518E-02  0.31192072987E+01  0.31193091096E+01  0.22500000000E-01 0. -1.
</event>
<event>
 5   0  0.9908800E+08  0.9118800E+02  0.7818608E-02  0.1180000E+00
       11   -1    0    0    0    0  0.00000000000E+00  0.00000000000E+00  0.39999999673E+01  0.40000000000E+01  0.51109989000E-03 0.  1.
     -623   -1    0    0    0    0  0.00000000000E+00  0.00000000000E+00  0.12525980253E-10  0.17130000000E+03  0.17130000000E+03 0. -1.
       11    1    1    2    0    0  0.54786347751E-03 -0.13187453912E-01  0.72035018511E+00  0.72047127597E+00  0.51109989000E-03 0.  1.
     -623    1    1    2    0    0  0.75987431386E-03  0.11272043342E-03  0.22456880107E-03  0.17130000000E+03  0.17130000000E+03 0. -1.
      622    1    1    2    0    0 -0.13077377917E-02  0.13074733479E-01  0.32794252150E+01  0.32795287237E+01  0.22500000000E-01 0.  1.
</event>
<event>
 5   0  0.9908800E+08  0.9118800E+02  0.7818608E-02  0.1180000E+00
       11   -1    0    0    0    0  0.00000000000E+00  0.00000000000E+00  0.39999999673E+01  0.40000000000E+01  0.51109989000E-03 0.  1.
     -623   -1    0    0    0    0  0.00000000000E+00  0.00000000000E+00  0.12525980253E-10  0.17130000000E+03  0.17130000000E+03 0. -1.
       11    1    1    2    0    0 -0.82691864001E-03 -0.40834887999E-03  0.42056847266E-02  0.43358448268E-02  0.51109989000E-03 0.  1.
     -623    1    1    2    0    0  0.10374058631E-02  0.95524784191E-03  0.19352676794E-03  0.17130000001E+03  0.17130000000E+03 0. -1.
      622    1    1    2    0    0 -0.21048722332E-03 -0.54689896211E-03  0.39956007567E+01  0.39956641501E+01  0.22500000000E-01 0.  1.
</event>
<event>
 5   0  0.9908800E+08  0.9118800E+02  0.7818608E-02  0.1180000E+00
       11   -1    0    0    0    0  0.00000000000E+00  0.00000000000E+00  0.39999999673E+01  0.40000000000E+01  0.51109989000E-03 0.  1.
     -623   -1    0    0    0    0  0.00000000000E+00  0.00000000000E+00  0.12525980253E-10  0.17130000000E+03  0.17130000000E+03 0. -1.
       11    1    1    2    0    0 -0.18946617996E-03 -0.91472429958E-03  0.55508705952E-01  0.55518918195E-01  0.51109989000E-03 0.  1.
     -623    1    1    2    0    0  0.32247690786E-03  0.28604870447E-03  0.74404965437E-04  0.17130000000E+03  0.17130000000E+03 0. -1.
      622    1    1    2    0    0 -0.13301072810E-03  0.62867559493E-03  0.39444168589E+01  0.39444810837E+01  0.22500000000E-01 0.  1.
</event>
<event>
 5   0  0.9908800E+08  0.9118800E+02  0.7818608E-02  0.1180000E+00
       11   -1    0    0    0    0  0.00000000000E+00  0.00000000000E+00  0.39999999673E+01  0.40000000000E+01  0.51109989000E-03 0.  1.
     -623   -1    0    0    0    0  0.00000000000E+00  0.00000000000E+00  0.12525980253E-10  0.17130000000E+03  0.17130000000E+03 0.  1.
       11    1    1    2    0    0  0.11125829456E-02 -0.11460119390E-02  0.52058237545E+00  0.52058507665E+00  0.51109989000E-03 0.  1.
     -623    1    1    2    0    0 -0.76767970328E-04  0.15342727504E-03  0.75714491100E-04  0.17130000000E+03  0.17130000000E+03 0.  1.
      622    1    1    2    0    0 -0.10358149753E-02  0.99258466398E-03  0.34793418774E+01  0.34794149232E+01  0.22500000000E-01 0.  1.
</event>
<event>
 5   0  0.9908800E+08  0.9118800E+02  0.7818608E-02  0.1180000E+00
       11   -1    0    0    0    0  0.00000000000E+00  0.00000000000E+00  0.39999999673E+01  0.40000000000E+01  0.51109989000E-03 0. -1.
     -623   -1    0    0    0    0  0.00000000000E+00  0.00000000000E+00  0.12525980253E-10  0.17130000000E+03  0.17130000000E+03 0. -1.
       11    1    1    2    0    0  0.12090940977E-01  0.22393507258E-01  0.72802272943E+00  0.72846758048E+00  0.51109989000E-03 0. -1.
     -623    1    1    2    0    0 -0.19025262897E-01 -0.15796167334E-01  0.53797843789E-03  0.17130000179E+03  0.17130000000E+03 0. -1.
      622    1    1    2    0    0  0.69343219196E-02 -0.65973399233E-02  0.32714392595E+01  0.32715306339E+01  0.22500000000E-01 0.  1.
</event>
<event>
 5   0  0.9908800E+08  0.9118800E+02  0.7818608E-02  0.1180000E+00
       11   -1    0    0    0    0  0.00000000000E+00  0.00000000000E+00  0.39999999673E+01  0.40000000000E+01  0.51109989000E-03 0.  1.
     -623   -1    0    0    0    0  0.00000000000E+00  0.00000000000E+00  0.12525980253E-10  0.17130000000E+03  0.17130000000E+03 0. -1.
       11    1    1    2    0    0 -0.12360338960E-03 -0.74204272167E-04  0.20037317598E-02  0.20729077368E-02  0.51109989000E-03 0.  1.
     -623    1    1    2    0    0 -0.28241024457E-03  0.90244718242E-03  0.13256697176E-03  0.17130000000E+03  0.17130000000E+03 0. -1.
      622    1    1    2    0    0  0.40601363417E-03 -0.82824291026E-03  0.39978636686E+01  0.39979270896E+01  0.22500000000E-01 0.  1.
</event>
<event>
 5   0  0.9908800E+08  0.9118800E+02  0.7818608E-02  0.1180000E+00
       11   -1    0    0    0    0  0.00000000000E+00  0.00000000000E+00  0.39999999673E+01  0.40000000000E+01  0.51109989000E-03 0. -1.
     -623   -1    0    0    0    0  0.00000000000E+00  0.00000000000E+00  0.12525980253E-10  0.17130000000E+03  0.17130000000E+03 0. -1.
       11    1    1    2    0    0 -0.53553985987E-03 -0.18772135772E-02  0.10247761884E+01  0.10247781752E+01  0.51109989000E-03 0. -1.
     -623    1    1    2    0    0  0.11722528461E-03  0.70697998264E-04  0.87610964717E-04  0.17130000000E+03  0.17130000000E+03 0. -1.
      622    1    1    2    0    0  0.41831457525E-03  0.18065155789E-02  0.29751361680E+01  0.29752218247E+01  0.22500000000E-01 0. -1.
</event>
<event>
 5   0  0.9908800E+08  0.9118800E+02  0.7818608E-02  0.1180000E+00
       11   -1    0    0    0    0  0.00000000000E+00  0.00000000000E+00  0.39999999673E+01  0.40000000000E+01  0.51109989000E-03 0.  1.
     -623   -1    0    0    0    0  0.00000000000E+00  0.00000000000E+00  0.12525980253E-10  0.17130000000E+03  0.17130000000E+03 0. -1.
       11    1    1    2    0    0  0.28457162035E-02 -0.86956853969E-02  0.98106535855E+00  0.98110815511E+00  0.51109989000E-03 0.  1.
     -623    1    1    2    0    0 -0.58405942781E-03 -0.23573831335E-02  0.14771149163E-03  0.17130000002E+03  0.17130000000E+03 0. -1.
      622    1    1    2    0    0 -0.22616567752E-02  0.11053068532E-01  0.30187869006E+01  0.30188918309E+01  0.22500000000E-01 0.  1.
</event>
<event>
 5   0  0.9908800E+08  0.9118800E+02  0.7818608E-02  0.1180000E+00
       11   -1    0    0    0    0  0.00000000000E+00  0.00000000000E+00  0.39999999673E+01  0.40000000000E+01  0.51109989000E-03 0. -1.
     -623   -1    0    0    0    0  0.00000000000E+00  0.00000000000E+00  0.12525980253E-10  0.17130000000E+03  0.17130000000E+03 0.  1.
       11    1    1    2    0    0 -0.22053290409E-02 -0.10687744079E-02  0.11482387910E+00  0.11485116538E+00  0.51109989000E-03 0. -1.
     -623    1    1    2    0    0  0.75214541082E-04 -0.44351813017E-03  0.93285032763E-04  0.17130000000E+03  0.17130000000E+03 0.  1.
      622    1    1    2    0    0  0.21301144998E-02  0.15122925382E-02  0.38850828046E+01  0.38851488354E+01  0.22500000000E-01 0. -1.
</event>
<event>
 5   0  0.9908800E+08  0.9118800E+02  0.7818608E-02  0.1180000E+00
       11   -1    0    0    0    0  0.00000000000E+00  0.00000000000E+00  0.39999999673E+01  0.40000000000E+01  0.51109989000E-03 0. -1.
     -623   -1    0    0    0    0  0.00000000000E+00  0.00000000000E+00  0.12525980253E-10  0.17130000000E+03  0.17130000000E+03 0.  1.
       11    1    1    2    0    0  0.33513819153E-02 -0.64004242197E-02  0.28771626041E+00  0.28780740943E+00  0.51109989000E-03 0. -1.
     -623    1    1    2    0    0 -0.18585294148E-01  0.12901681858E-02  0.19509398587E-03  0.17130000101E+03  0.17130000000E+03 0.  1.
      622    1    1    2    0    0  0.15233912223E-01  0.51102560346E-02  0.37120886109E+01  0.37121915753E+01  0.22500000000E-01 0. -1.
</event>
<event>
 5   0  0.9908800E+08  0.9118800E+02  0.7818608E-02  0.1180000E+00
       11   -1    0    0    0    0  0.00000000000E+00  0.00000000000E+00  0.39999999673E+01  0.40000000000E+01  0.51109989000E-03 0. -1.
     -623   -1    0    0    0    0  0.00000000000E+00  0.00000000000E+00  0.12525980253E-10  0.17130000000E+03  0.17130000000E+03 0.  1.
       11    1    1    2    0    0 -0.77073163419E-03  0.48687498447E-03  0.18056892896E-01  0.18087113608E-01  0.51109989000E-03 0. -1.
     -623    1    1    2    0    0  0.13050694146E-03  0.49443209450E-06  0.93838643891E-04  0.17130000000E+03  0.17130000000E+03 0.  1.
      622    1    1    2    0    0  0.64022469269E-03 -0.48736941657E-03  0.39818492371E+01  0.39819128876E+01  0.22500000000E-01 0. -1.
</event>
<event>
 5   0  0.9908800E+08  0.9118800E+02  0.7818608E-02  0.1180000E+00
       11   -1    0    0    0    0  0.00000000000E+00  0.00000000000E+00  0.39999999673E+01  0.40000000000E+01  0.51109989000E-03 0.  1.
     -623   -1    0    0    0    0  0.00000000000E+00  0.00000000000E+00  0.12525980253E-10  0.17130000000E+03  0.17130000000E+03 0. -1.
       11    1    1    2    0    0 -0.10859055106E-02  0.94445158225E-03  0.28214491560E-02  0.32082671345E-02  0.51109989000E-03 0. -1.
     -623    1    1    2    0    0  0.35373339822E-03 -0.13770967206E-02  0.45021486030E-03  0.17130000001E+03  0.17130000000E+03 0. -1.
      622    1    1    2    0    0  0.73217211241E-03  0.43264513827E-03  0.39967283030E+01  0.39967917260E+01  0.22500000000E-01 0.  1.
</event>
<event>
 5   0  0.9908800E+08  0.9118800E+02  0.7818608E-02  0.1180000E+00
       11   -1    0    0    0    0  0.00000000000E+00  0.00000000000E+00  0.39999999673E+01  0.40000000000E+01  0.51109989000E-03 0. -1.
     -623   -1    0    0    0    0  0.00000000000E+00  0.00000000000E+00  0.12525980253E-10  0.17130000000E+03  0.17130000000E+03 0. -1.
       11    1    1    2    0    0 -0.37842597833E-03  0.17372516740E-02  0.12823827460E-01  0.12956582243E-01  0.51109989000E-03 0. -1.
     -623    1    1    2    0    0  0.92325620810E-04  0.30988058506E-04  0.19661205746E-03  0.17130000000E+03  0.17130000000E+03 0. -1.
      622    1    1    2    0    0  0.28610035745E-03 -0.17682397325E-02  0.39869795306E+01  0.39870434203E+01  0.22500000000E-01 0. -1.
</event>
<event>
 5   0  0.9908800E+08  0.9118800E+02  0.7818608E-02  0.1180000E+00
       11   -1    0    0    0    0  0.00000000000E+00  0.00000000000E+00  0.39999999673E+01  0.40000000000E+01  0.51109989000E-03 0. -1.
     -623   -1    0    0    0    0  0.00000000000E+00  0.00000000000E+00  0.12525980253E-10  0.17130000000E+03  0.17130000000E+03 0. -1.
       11    1    1    2    0    0  0.73709816293E-03 -0.13679720622E-02  0.39136226395E-01  0.39170398251E-01  0.51109989000E-03 0. -1.
     -623    1    1    2    0    0  0.44025857088E-03  0.43315686399E-03  0.98333243372E-04  0.17130000000E+03  0.17130000000E+03 0. -1.
      622    1    1    2    0    0 -0.11773567338E-02  0.93481519817E-03  0.39607654077E+01  0.39608296006E+01  0.22500000000E-01 0. -1.
</event>
<event>
 5   0  0.9908800E+08  0.9118800E+02  0.7818608E-02  0.1180000E+00
       11   -1    0    0    0    0  0.00000000000E+00  0.00000000000E+00  0.39999999673E+01  0.40000000000E+01  0.51109989000E-03 0.  1.
     -623   -1    0    0    0    0  0.00000000000E+00  0.00000000000E+00  0.12525980253E-10  0.17130000000E+03  0.17130000000E+03 0.  1.
       11    1    1    2    0    0  0.37695460648E-03 -0.19700014434E-02  0.13267608475E-01  0.13428092042E-01  0.51109989000E-03 0.  1.
     -623    1    1    2    0    0  0.11513626590E-02 -0.14098095973E-02  0.22568133440E-03  0.17130000001E+03  0.17130000000E+03 0.  1.
      622    1    1    2    0    0 -0.15283172655E-02  0.33798110407E-02  0.39865066776E+01  0.39865718981E+01  0.22500000000E-01 0.  1.
</event>
<event>
 5   0  0.9908800E+08  0.9118800E+02  0.7818608E-02  0.1180000E+00
       11   -1    0    0    0    0  0.00000000000E+00  0.00000000000E+00  0.39999999673E+01  0.40000000000E+01  0.51109989000E-03 0.  1.
     -623   -1    0    0    0    0  0.00000000000E+00  0.00000000000E+00  0.12525980253E-10  0.17130000000E+03  0.17130000000E+03 0. -1.
       11    1    1    2    0    0  0.35494339729E-02 -0.10768719743E-01  0.10461324271E+01  0.10461939974E+01  0.51109989000E-03 0.  1.
     -623    1    1    2    0    0  0.31515706301E-02  0.16840498584E-02  0.16884268979E-03  0.17130000004E+03  0.17130000000E+03 0. -1.
      622    1    1    2    0    0 -0.67010046034E-02  0.90846698844E-02  0.29536986980E+01  0.29538059657E+01  0.22500000000E-01 0.  1.
</event>
<event>
 5   0  0.9908800E+08  0.9118800E+02  0.7818608E-02  0.1180000E+00
       11   -1    0    0    0    0  0.00000000000E+00  0.00000000000E+00  0.39999999673E+01  0.40000000000E+01  0.51109989000E-03 0.  1.
     -623   -1    0    0    0    0  0.00000000000E+00  0.00000000000E+00  0.12525980253E-10  0.17130000000E+03  0.17130000000E+03 0.  1.
       11    1    1    2    0    0  0.16752875549E-01  0.93682901120E-02  0.57921000725E+00  0.57952818518E+00  0.51109989000E-03 0.  1.
     -623    1    1    2    0    0 -0.18547468802E-02  0.94258726707E-03  0.44014945472E-03  0.17130000001E+03  0.17130000000E+03 0.  1.
      622    1    1    2    0    0 -0.14898128669E-01 -0.10310877379E-01  0.34203498107E+01  0.34204718016E+01  0.22500000000E-01 0.  0.
</event>
<event>
 5   0  0.9908800E+08  0.9118800E+02  0.7818608E-02  0.1180000E+00
       11   -1    0    0    0    0  0.00000000000E+00  0.00000000000E+00  0.39999999673E+01  0.40000000000E+01  0.51109989000E-03 0.  1.
     -623   -1    0    0    0    0  0.00000000000E+00  0.00000000000E+00  0.12525980253E-10  0.17130000000E+03  0.17130000000E+03 0. -1.
       11    1    1    2    0    0  0.10748638403E-02 -0.47253686749E-03  0.23006139182E-01  0.23041750910E-01  0.51109989000E-03 0. -1.
     -623    1    1    2    0    0  0.69530691324E-03 -0.37094834921E-04  0.99655548562E-04  0.17130000000E+03  0.17130000000E+03 0. -1.
      622    1    1    2    0    0 -0.17701707536E-02  0.50963170241E-03  0.39768941726E+01  0.39769582476E+01  0.22500000000E-01 0.  1.
</event>
<event>
 5   0  0.9908800E+08  0.9118800E+02  0.7818608E-02  0.1180000E+00
       11   -1    0    0    0    0  0.00000000000E+00  0.00000000000E+00  0.39999999673E+01  0.40000000000E+01  0.51109989000E-03 0. -1.
     -623   -1    0    0    0    0  0.00000000000E+00  0.00000000000E+00  0.12525980253E-10  0.17130000000E+03  0.17130000000E+03 0. -1.
       11    1    1    2    0    0 -0.15387215802E-02 -0.64374747195E-02  0.94849618395E+00  0.94851941516E+00  0.51109989000E-03 0. -1.
     -623    1    1    2    0    0 -0.24452337487E-02  0.10590529074E-03  0.11533844831E-03  0.17130000002E+03  0.17130000000E+03 0. -1.
      622    1    1    2    0    0  0.39839553289E-02  0.63315694287E-02  0.30513884450E+01  0.30514805673E+01  0.22500000000E-01 0. -1.
</event>
<event>
 5   0  0.9908800E+08  0.9118800E+02  0.7818608E-02  0.1180000E+00
       11   -1    0    0    0    0  0.00000000000E+00  0.00000000000E+00  0.39999999673E+01  0.40000000000E+01  0.51109989000E-03 0. -1.
     -623   -1    0    0    0    0  0.00000000000E+00  0.00000000000E+00  0.12525980253E-10  0.17130000000E+03  0.17130000000E+03 0. -1.
       11    1    1    2    0    0 -0.63931526897E-03 -0.12649887129E-02  0.93159931788E+00  0.93160053629E+00  0.51109989000E-03 0. -1.
     -623    1    1    2    0    0  0.20188856601E-03 -0.49371737058E-03  0.84217088788E-04  0.17130000000E+03  0.17130000000E+03 0. -1.
      622    1    1    2    0    0  0.43742670296E-03  0.17587060835E-02  0.30683164324E+01  0.30683994629E+01  0.22500000000E-01 0. -1.
</event>
<event>
 5   0  0.9908800E+08  0.9118800E+02  0.7818608E-02  0.1180000E+00
       11   -1    0    0    0    0  0.00000000000E+00  0.00000000000E+00  0.39999999673E+01  0.40000000000E+01  0.51109989000E-03 0.  1.
     -623   -1    0    0    0    0  0.00000000000E+00  0.00000000000E+00  0.12525980253E-10  0.17130000000E+03  0.17130000000E+03 0.  1.
       11    1    1    2    0    0  0.29744886573E-01 -0.10223296122E-01  0.44110213598E+00  0.44222237579E+00  0.51109989000E-03 0.  1.
     -623    1    1    2    0    0 -0.31859739782E-01  0.57822742411E-02  0.11978198353E-02  0.17130000306E+03  0.17130000000E+03 0.  1.
      622    1    1    2    0    0  0.21148532086E-02  0.44410218807E-02  0.35577000115E+01  0.35577745597E+01  0.22500000000E-01 0.  1.
</event>
<event>
 5   0  0.9908800E+08  0.9118800E+02  0.7818608E-02  0.1180000E+00
       11   -1    0    0    0    0  0.00000000000E+00  0.00000000000E+00  0.39999999673E+01  0.40000000000E+01  0.51109989000E-03 0. -1.
     -623   -1    0    0    0    0  0.00000000000E+00  0.00000000000E+00  0.12525980253E-10  0.17130000000E+03  0.17130000000E+03 0. -1.
       11    1    1    2    0    0  0.39791437296E-03  0.33461705633E-04  0.45385739588E-01  0.45390373803E-01  0.51109989000E-03 0. -1.
     -623    1    1    2    0    0 -0.90852685344E-04 -0.42231744783E-03  0.68641273616E-04  0.17130000000E+03  0.17130000000E+03 0. -1.
      622    1    1    2    0    0 -0.30706168761E-03  0.38885574220E-03  0.39545455865E+01  0.39546096256E+01  0.22500000000E-01 0. -1.
</event>
<event>
 5   0  0.9908800E+08  0.9118800E+02  0.7818608E-02  0.1180000E+00
       11   -1    0    0    0    0  0.00000000000E+00  0.00000000000E+00  0.39999999673E+01  0.40000000000E+01  0.51109989000E-03 0.  1.
     -623   -1    0    0    0    0  0.00000000000E+00  0.00000000000E+00  0.12525980253E-10  0.17130000000E+03  0.17130000000E+03 0.  1.
       11    1    1    2    0    0  0.28845561940E-03  0.44574081989E-03  0.13240311349E-01  0.13260805376E-01  0.51109989000E-03 0.  1.
     -623    1    1    2    0    0  0.55365536970E-03  0.15224045452E-03  0.84088401402E-04  0.17130000000E+03  0.17130000000E+03 0.  1.
      622    1    1    2    0    0 -0.84211098881E-03 -0.59798127433E-03  0.39866755655E+01  0.39867391916E+01  0.22500000000E-01 0.  1.
</event>
<event>
 5   0  0.9908800E+08  0.9118800E+02  0.7818608E-02  0.1180000E+00
       11   -1    0    0    0    0  0.00000000000E+00  0.00000000000E+00  0.39999999673E+01  0.40000000000E+01  0.51109989000E-03 0.  1.
     -623   -1    0    0    0    0  0.00000000000E+00  0.00000000000E+00  0.12525980253E-10  0.17130000000E+03  0.17130000000E+03 0.  1.
       11    1    1    2    0    0 -0.13585196114E-03  0.13161020169E-02  0.93021063383E-01  0.93031876453E-01  0.51109989000E-03 0.  1.
     -623    1    1    2    0    0 -0.35631884606E-02  0.14856078518E-02  0.78368272667E-04  0.17130000004E+03  0.17130000000E+03 0.  1.
      622    1    1    2    0    0  0.36990404210E-02 -0.28017098684E-02  0.39069005350E+01  0.39069680793E+01  0.22500000000E-01 0.  1.
</event>
<event>
 5   0  0.9908800E+08  0.9118800E+02  0.7818608E-02  0.1180000E+00
       11   -1    0    0    0    0  0.00000000000E+00  0.00000000000E+00  0.39999999673E+01  0.40000000000E+01  0.51109989000E-03 0. -1.
     -623   -1    0    0    0    0  0.00000000000E+00  0.00000000000E+00  0.12525980253E-10  0.17130000000E+03  0.17130000000E+03 0. -1.
       11    1    1    2    0    0 -0.39549310590E-02 -0.90562624643E-03  0.86150931107E-01  0.86247932096E-01  0.51109989000E-03 0. -1.
     -623    1    1    2    0    0 -0.15639240452E-03 -0.22536740595E-04  0.16391435409E-03  0.17130000000E+03  0.17130000000E+03 0. -1.
      622    1    1    2    0    0  0.41113234635E-02  0.92816298703E-03  0.39136851219E+01  0.39137520678E+01  0.22500000000E-01 0.  0.
</event>
<event>
 5   0  0.9908800E+08  0.9118800E+02  0.7818608E-02  0.1180000E+00
       11   -1    0    0    0    0  0.00000000000E+00  0.00000000000E+00  0.39999999673E+01  0.40000000000E+01  0.51109989000E-03 0. -1.
     -623   -1    0    0    0    0  0.00000000000E+00  0.00000000000E+00  0.12525980253E-10  0.17130000000E+03  0.17130000000E+03 0.  1.
       11    1    1    2    0    0 -0.10095577416E-01  0.49829778114E-02  0.11223417540E+00  0.11279859086E+00  0.51109989000E-03 0. -1.
     -623    1    1    2    0    0 -0.20462255214E-03 -0.30641143100E-03  0.64596254800E-03  0.17130000000E+03  0.17130000000E+03 0.  1.
      622    1    1    2    0    0  0.10300199969E-01 -0.46765663804E-02  0.38871198294E+01  0.38872014075E+01  0.22500000000E-01 0. -1.
</event>
<event>
 5   0  0.9908800E+08  0.9118800E+02  0.7818608E-02  0.1180000E+00
       11   -1    0    0    0    0  0.00000000000E+00  0.00000000000E+00  0.39999999673E+01  0.40000000000E+01  0.51109989000E-03 0. -1.
     -623   -1    0    0    0    0  0.00000000000E+00  0.00000000000E+00  0.12525980253E-10  0.17130000000E+03  0.17130000000E+03 0. -1.
       11    1    1    2    0    0 -0.75168582054E-02  0.23568194462E-02  0.12536124211E+00  0.12560955378E+00  0.51109989000E-03 0. -1.
     -623    1    1    2    0    0  0.11874857099E-01 -0.16832884552E-02  0.31654217366E-03  0.17130000042E+03  0.17130000000E+03 0. -1.
      622    1    1    2    0    0 -0.43579988939E-02 -0.67353099098E-03  0.38743221831E+01  0.38743900261E+01  0.22500000000E-01 0. -1.
</event>
<event>
 5   0  0.9908800E+08  0.9118800E+02  0.7818608E-02  0.1180000E+00
       11   -1    0    0    0    0  0.00000000000E+00  0.00000000000E+00  0.39999999673E+01  0.40000000000E+01  0.51109989000E-03 0.  1.
     -623   -1    0    0    0    0  0.00000000000E+00  0.00000000000E+00  0.12525980253E-10  0.17130000000E+03  0.17130000000E+03 0. -1.
       11    1    1    2    0    0  0.19607271492E-01  0.18546781303E-01  0.60094297945E+00  0.60154896223E+00  0.51109989000E-03 0.  1.
     -623    1    1    2    0    0 -0.17135665443E-01 -0.21112312701E-01  0.68446010960E-03  0.17130000216E+03  0.17130000000E+03 0. -1.
      622    1    1    2    0    0 -0.24716060495E-02  0.25655313980E-02  0.33983725278E+01  0.33984488783E+01  0.22500000000E-01 0.  1.
</event>
<event>
 5   0  0.9908800E+08  0.9118800E+02  0.7818608E-02  0.1180000E+00
       11   -1    0    0    0    0  0.00000000000E+00  0.00000000000E+00  0.39999999673E+01  0.40000000000E+01  0.51109989000E-03 0. -1.
     -623   -1    0    0    0    0  0.00000000000E+00  0.00000000000E+00  0.12525980253E-10  0.17130000000E+03  0.17130000000E+03 0. -1.
       11    1    1    2    0    0 -0.12826419099E-02  0.13019481621E-02  0.13011965435E+00  0.13013349265E+00  0.51109989000E-03 0. -1.
     -623    1    1    2    0    0  0.17780814082E-02 -0.17813518148E-02  0.79295369316E-04  0.17130000002E+03  0.17130000000E+03 0. -1.
      622    1    1    2    0    0 -0.49543949934E-03  0.47940365370E-03  0.38698010199E+01  0.38698664910E+01  0.22500000000E-01 0. -1.
</event>
<event>
 5   0  0.9908800E+08  0.9118800E+02  0.7818608E-02  0.1180000E+00
       11   -1    0    0    0    0  0.00000000000E+00  0.00000000000E+00  0.39999999673E+01  0.40000000000E+01  0.51109989000E-03 0. -1.
     -623   -1    0    0    0    0  0.00000000000E+00  0.00000000000E+00  0.12525980253E-10  0.17130000000E+03  0.17130000000E+03 0. -1.
       11    1    1    2    0    0  0.24969785708E-02 -0.14254523584E-02  0.61438466016E+00  0.61439160044E+00  0.51109989000E-03 0. -1.
     -623    1    1    2    0    0 -0.11031850118E-02  0.57627172766E-03  0.82071398285E-04  0.17130000000E+03  0.17130000000E+03 0. -1.
      622    1    1    2    0    0 -0.13937935597E-02  0.84918063112E-03  0.33855332330E+01  0.33856083922E+01  0.22500000000E-01 0. -1.
</event>
<event>
 5   0  0.9908800E+08  0.9118800E+02  0.7818608E-02  0.1180000E+00
       11   -1    0    0    0    0  0.00000000000E+00  0.00000000000E+00  0.39999999673E+01  0.40000000000E+01  0.51109989000E-03 0. -1.
     -623   -1    0    0    0    0  0.00000000000E+00  0.00000000000E+00  0.12525980253E-10  0.17130000000E+03  0.17130000000E+03 0. -1.
       11    1    1    2    0    0 -0.39293811251E-03  0.20160323775E-03 -0.34097720894E-03  0.75665895905E-03  0.51109989000E-03 0. -1.
     -623    1    1    2    0    0 -0.36996888011E-03  0.25848874296E-02  0.11619646288E-02  0.17130000002E+03  0.17130000000E+03 0. -1.
      622    1    1    2    0    0  0.76290699265E-03 -0.27864906675E-02  0.39991789802E+01  0.39992433175E+01  0.22500000000E-01 0. -1.
</event>
<event>
 5   0  0.9908800E+08  0.9118800E+02  0.7818608E-02  0.1180000E+00
       11   -1    0    0    0    0  0.00000000000E+00  0.00000000000E+00  0.39999999673E+01  0.40000000000E+01  0.51109989000E-03 0. -1.
     -623   -1    0    0    0    0  0.00000000000E+00  0.00000000000E+00  0.12525980253E-10  0.17130000000E+03  0.17130000000E+03 0. -1.
       11    1    1    2    0    0 -0.17239921961E-02 -0.34801134573E-03  0.17203697945E-01  0.17300916365E-01  0.51109989000E-03 0. -1.
     -623    1    1    2    0    0 -0.23001551140E-03  0.18245567163E-03  0.16122554944E-03  0.17130000000E+03  0.17130000000E+03 0. -1.
      622    1    1    2    0    0  0.19540077077E-02  0.16555567396E-03  0.39826350471E+01  0.39826990866E+01  0.22500000000E-01 0. -1.
</event>
<event>
 5   0  0.9908800E+08  0.9118800E+02  0.7818608E-02  0.1180000E+00
       11   -1    0    0    0    0  0.00000000000E+00  0.00000000000E+00  0.39999999673E+01  0.40000000000E+01  0.51109989000E-03 0. -1.
     -623   -1    0    0    0    0  0.00000000000E+00  0.00000000000E+00  0.12525980253E-10  0.17130000000E+03  0.17130000000E+03 0. -1.
       11    1    1    2    0    0 -0.39335062450E-03 -0.15100101528E-04  0.28343016933E-02  0.29067923753E-02  0.51109989000E-03 0. -1.
     -623    1    1    2    0    0 -0.50128920153E-04 -0.58814929677E-04  0.13581117055E-03  0.17130000000E+03  0.17130000000E+03 0. -1.
      622    1    1    2    0    0  0.44347954466E-03  0.73915031215E-04  0.39970298551E+01  0.39970932082E+01  0.22500000000E-01 0. -1.
</event>
<event>
 5   0  0.9908800E+08  0.9118800E+02  0.7818608E-02  0.1180000E+00
       11   -1    0    0    0    0  0.00000000000E+00  0.00000000000E+00  0.39999999673E+01  0.40000000000E+01  0.51109989000E-03 0.  1.
     -623   -1    0    0    0    0  0.00000000000E+00  0.00000000000E+00  0.12525980253E-10  0.17130000000E+03  0.17130000000E+03 0. -1.
       11    1    1    2    0    0 -0.71377735173E-03 -0.21875735656E-02  0.14666800757E+00  0.14668694769E+00  0.51109989000E-03 0.  1.
     -623    1    1    2    0    0  0.25241062125E-03  0.62126643071E-03  0.84945567392E-04  0.17130000000E+03  0.17130000000E+03 0. -1.
      622    1    1    2    0    0  0.46136673049E-03  0.15663071349E-02  0.38532470141E+01  0.38533130508E+01  0.22500000000E-01 0.  1.
</event>
<event>
 5   0  0.9908800E+08  0.9118800E+02  0.7818608E-02  0.1180000E+00
       11   -1    0    0    0    0  0.00000000000E+00  0.00000000000E+00  0.39999999673E+01  0.40000000000E+01  0.51109989000E-03 0. -1.
     -623   -1    0    0    0    0  0.00000000000E+00  0.00000000000E+00  0.12525980253E-10  0.17130000000E+03  0.17130000000E+03 0.  1.
       11    1    1    2    0    0 -0.33950545149E-02  0.80537177995E-02  0.18771679341E-01  0.20712941219E-01  0.51109989000E-03 0. -1.
     -623    1    1    2    0    0 -0.23031902643E-02 -0.92504014210E-02  0.20093773112E-02  0.17130000028E+03  0.17130000000E+03 0.  1.
      622    1    1    2    0    0  0.56982447791E-02  0.11966836211E-02  0.39792189106E+01  0.39792867816E+01  0.22500000000E-01 0. -1.
</event>
<event>
 5   0  0.9908800E+08  0.9118800E+02  0.7818608E-02  0.1180000E+00
       11   -1    0    0    0    0  0.00000000000E+00  0.00000000000E+00  0.39999999673E+01  0.40000000000E+01  0.51109989000E-03 0.  1.
     -623   -1    0    0    0    0  0.00000000000E+00  0.00000000000E+00  0.12525980253E-10  0.17130000000E+03  0.17130000000E+03 0. -1.
       11    1    1    2    0    0 -0.13971378569E-02 -0.41594435058E-02  0.62505499290E+00  0.62507060268E+00  0.51109989000E-03 0.  1.
     -623    1    1    2    0    0  0.13783409976E-03  0.15377591754E-03  0.93191838993E-04  0.17130000000E+03  0.17130000000E+03 0. -1.
      622    1    1    2    0    0  0.12593037571E-02  0.40056675882E-02  0.33748517826E+01  0.33749293972E+01  0.22500000000E-01 0.  1.
</event>
<event>
 5   0  0.9908800E+08  0.9118800E+02  0.7818608E-02  0.1180000E+00
       11   -1    0    0    0    0  0.00000000000E+00  0.00000000000E+00  0.39999999673E+01  0.40000000000E+01  0.51109989000E-03 0.  1.
     -623   -1    0    0    0    0  0.00000000000E+00  0.00000000000E+00  0.12525980253E-10  0.17130000000E+03  0.17130000000E+03 0.  1.
       11    1    1    2    0    0  0.12713916166E-01  0.94632251019E-02  0.14099130747E+00  0.14188025338E+00  0.51109989000E-03 0.  1.
     -623    1    1    2    0    0 -0.12462973014E-01 -0.10708945662E-01  0.95552227605E-03  0.17130000079E+03  0.17130000000E+03 0.  1.
      622    1    1    2    0    0 -0.25094315242E-03  0.12457205591E-02  0.38580531373E+01  0.38581189555E+01  0.22500000000E-01 0.  1.
</event>
<event>
 5   0  0.9908800E+08  0.9118800E+02  0.7818608E-02  0.1180000E+00
       11   -1    0    0    0    0  0.00000000000E+00  0.00000000000E+00  0.39999999673E+01  0.40000000000E+01  0.51109989000E-03 0. -1.
     -623   -1    0    0    0    0  0.00000000000E+00  0.00000000000E+00  0.12525980253E-10  0.17130000000E+03  0.17130000000E+03 0. -1.
       11    1    1    2    0    0 -0.18509046606E-01 -0.67694808475E-02  0.10716743998E+00  0.10896573815E+00  0.51109989000E-03 0. -1.
     -623    1    1    2    0    0  0.15394945052E-02  0.60170616606E-02  0.19005199127E-02  0.17130000012E+03  0.17130000000E+03 0. -1.
      622    1    1    2    0    0  0.16969552100E-01  0.75241918675E-03  0.38909320075E+01  0.38910341388E+01  0.22500000000E-01 0. -1.
</event>
<event>
 5   0  0.9908800E+08  0.9118800E+02  0.7818608E-02  0.1180000E+00
       11   -1    0    0    0    0  0.00000000000E+00  0.00000000000E+00  0.39999999673E+01  0.40000000000E+01  0.51109989000E-03 0.  1.
     -623   -1    0    0    0    0  0.00000000000E+00  0.00000000000E+00  0.12525980253E-10  0.17130000000E+03  0.17130000000E+03 0. -1.
       11    1    1    2    0    0  0.11317724705E-01 -0.66863250874E-02  0.53562986128E+00  0.53579138417E+00  0.51109989000E-03 0.  1.
     -623    1    1    2    0    0 -0.83969293093E-03 -0.38403158510E-02  0.26644557703E-03  0.17130000005E+03  0.17130000000E+03 0. -1.
      622    1    1    2    0    0 -0.10478031774E-01  0.10526640939E-01  0.34641036615E+01  0.34642085715E+01  0.22500000000E-01 0.  1.
</event>
<event>
 5   0  0.9908800E+08  0.9118800E+02  0.7818608E-02  0.1180000E+00
       11   -1    0    0    0    0  0.00000000000E+00  0.00000000000E+00  0.39999999673E+01  0.40000000000E+01  0.51109989000E-03 0.  1.
     -623   -1    0    0    0    0  0.00000000000E+00  0.00000000000E+00  0.12525980253E-10  0.17130000000E+03  0.17130000000E+03 0.  1.
       11    1    1    2    0    0  0.12966505780E-02 -0.19161843254E-02  0.78574824900E+00  0.78575182157E+00  0.51109989000E-03 0.  1.
     -623    1    1    2    0    0 -0.12934680500E-03  0.10801157469E-03  0.83012486458E-04  0.17130000000E+03  0.17130000000E+03 0.  1.
      622    1    1    2    0    0 -0.11673037729E-02  0.18081727506E-02  0.32141687080E+01  0.32142481805E+01  0.22500000000E-01 0.  1.
</event>
<event>
 5   0  0.9908800E+08  0.9118800E+02  0.7818608E-02  0.1180000E+00
       11   -1    0    0    0    0  0.00000000000E+00  0.00000000000E+00  0.39999999673E+01  0.40000000000E+01  0.51109989000E-03 0.  1.
     -623   -1    0    0    0    0  0.00000000000E+00  0.00000000000E+00  0.12525980253E-10  0.17130000000E+03  0.17130000000E+03 0.  1.
       11    1    1    2    0    0  0.50884827188E-02  0.16479074042E-02  0.33084248000E+00  0.33088610737E+00  0.51109989000E-03 0.  1.
     -623    1    1    2    0    0  0.48895999042E-03 -0.53969871224E-03  0.11699160770E-03  0.17130000000E+03  0.17130000000E+03 0.  1.
      622    1    1    2    0    0 -0.55774427093E-02 -0.11082086920E-02  0.36690404957E+01  0.36691138910E+01  0.22500000000E-01 0.  1.
</event>
<event>
 5   0  0.9908800E+08  0.9118800E+02  0.7818608E-02  0.1180000E+00
       11   -1    0    0    0    0  0.00000000000E+00  0.00000000000E+00  0.39999999673E+01  0.40000000000E+01  0.51109989000E-03 0. -1.
     -623   -1    0    0    0    0  0.00000000000E+00  0.00000000000E+00  0.12525980253E-10  0.17130000000E+03  0.17130000000E+03 0. -1.
       11    1    1    2    0    0 -0.77764542236E-04  0.18963514927E-02  0.35934869207E+00  0.35935406761E+00  0.51109989000E-03 0. -1.
     -623    1    1    2    0    0  0.32311628920E-02 -0.76404076196E-03  0.76445055929E-04  0.17130000003E+03  0.17130000000E+03 0. -1.
      622    1    1    2    0    0 -0.31533983497E-02 -0.11323107308E-02  0.36405748302E+01  0.36406459002E+01  0.22500000000E-01 0. -1.
</event>
<event>
 5   0  0.9908800E+08  0.9118800E+02  0.7818608E-02  0.1180000E+00
       11   -1    0    0    0    0  0.00000000000E+00  0.00000000000E+00  0.39999999673E+01  0.40000000000E+01  0.51109989000E-03 0. -1.
     -623   -1    0    0    0    0  0.00000000000E+00  0.00000000000E+00  0.12525980253E-10  0.17130000000E+03  0.17130000000E+03 0. -1.
       11    1    1    2    0    0 -0.39493059081E-03 -0.17411958984E-02  0.32062293875E+00  0.32062831723E+00  0.51109989000E-03 0. -1.
     -623    1    1    2    0    0 -0.54975349009E-03  0.23203700808E-03  0.74574037753E-04  0.17130000000E+03  0.17130000000E+03 0. -1.
      622    1    1    2    0    0  0.94468408073E-03  0.15091588904E-02  0.36793024533E+01  0.36793716804E+01  0.22500000000E-01 0. -1.
</event>
<event>
 5   0  0.9908800E+08  0.9118800E+02  0.7818608E-02  0.1180000E+00
       11   -1    0    0    0    0  0.00000000000E+00  0.00000000000E+00  0.39999999673E+01  0.40000000000E+01  0.51109989000E-03 0. -1.
     -623   -1    0    0    0    0  0.00000000000E+00  0.00000000000E+00  0.12525980253E-10  0.17130000000E+03  0.17130000000E+03 0.  1.
       11    1    1    2    0    0 -0.13955992259E-02  0.19588084527E-02  0.25865964999E+00  0.25867133661E+00  0.51109989000E-03 0. -1.
     -623    1    1    2    0    0  0.63330472751E-04  0.40384698133E-03  0.80294779871E-04  0.17130000000E+03  0.17130000000E+03 0.  1.
      622    1    1    2    0    0  0.13322687531E-02 -0.23626554343E-02  0.37412600250E+01  0.37413286652E+01  0.22500000000E-01 0. -1.
</event>
<event>
 5   0  0.9908800E+08  0.9118800E+02  0.7818608E-02  0.1180000E+00
       11   -1    0    0    0    0  0.00000000000E+00  0.00000000000E+00  0.39999999673E+01  0.40000000000E+01  0.51109989000E-03 0. -1.
     -623   -1    0    0    0    0  0.00000000000E+00  0.00000000000E+00  0.12525980253E-10  0.17130000000E+03  0.17130000000E+03 0. -1.
       11    1    1    2    0    0  0.77320006529E-03  0.38101944583E-02  0.15669370021E-01  0.16152578745E-01  0.51109989000E-03 0. -1.
     -623    1    1    2    0    0  0.33583701441E-03  0.13626216740E-02  0.55023378873E-03  0.17130000001E+03  0.17130000000E+03 0. -1.
      622    1    1    2    0    0 -0.11090370798E-02 -0.51728161326E-02  0.39837803641E+01  0.39838474152E+01  0.22500000000E-01 0. -1.
</event>
<event>
 5   0  0.9908800E+08  0.9118800E+02  0.7818608E-02  0.1180000E+00
       11   -1    0    0    0    0  0.00000000000E+00  0.00000000000E+00  0.39999999673E+01  0.40000000000E+01  0.51109989000E-03 0.  1.
     -623   -1    0    0    0    0  0.00000000000E+00  0.00000000000E+00  0.12525980253E-10  0.17130000000E+03  0.17130000000E+03 0.  1.
       11    1    1    2    0    0 -0.67743990815E-03  0.77973696735E-03  0.25447285833E-01  0.25473368289E-01  0.51109989000E-03 0.  1.
     -623    1    1    2    0    0  0.16263654026E-02  0.43496815347E-03  0.90044357035E-04  0.17130000001E+03  0.17130000000E+03 0.  1.
      622    1    1    2    0    0 -0.94892549441E-03 -0.12147051208E-02  0.39744626372E+01  0.39745266234E+01  0.22500000000E-01 0.  1.
</event>
<event>
 5   0  0.9908800E+08  0.9118800E+02  0.7818608E-02  0.1180000E+00
       11   -1    0    0    0    0  0.00000000000E+00  0.00000000000E+00  0.39999999673E+01  0.40000000000E+01  0.51109989000E-03 0. -1.
     -623   -1    0    0    0    0  0.00000000000E+00  0.00000000000E+00  0.12525980253E-10  0.17130000000E+03  0.17130000000E+03 0.  1.
       11    1    1    2    0    0  0.13207989824E-02 -0.93605990161E-02  0.89978328393E+00  0.89983308707E+00  0.51109989000E-03 0. -1.
     -623    1    1    2    0    0 -0.27261850783E-03  0.35910858579E-04  0.14562169936E-03  0.17130000000E+03  0.17130000000E+03 0.  1.
      622    1    1    2    0    0 -0.10481804746E-02  0.93246881575E-02  0.31000710617E+01  0.31001669126E+01  0.22500000000E-01 0. -1.
</event>
<event>
 5   0  0.9908800E+08  0.9118800E+02  0.7818608E-02  0.1180000E+00
       11   -1    0    0    0    0  0.00000000000E+00  0.00000000000E+00  0.39999999673E+01  0.40000000000E+01  0.51109989000E-03 0. -1.
     -623   -1    0    0    0    0  0.00000000000E+00  0.00000000000E+00  0.12525980253E-10  0.17130000000E+03  0.17130000000E+03 0.  1.
       11    1    1    2    0    0  0.74405644575E-02  0.44740856450E-02  0.14195435426E+00  0.14222053072E+00  0.51109989000E-03 0. -1.
     -623    1    1    2    0    0 -0.12359012920E-02  0.15656455527E-02  0.34148821268E-03  0.17130000001E+03  0.17130000000E+03 0.  1.
      622    1    1    2    0    0 -0.62046631653E-02 -0.60397311979E-02  0.38577041252E+01  0.38577794577E+01  0.22500000000E-01 0. -1.
</event>
<event>
 5   0  0.9908800E+08  0.9118800E+02  0.7818608E-02  0.1180000E+00
       11   -1    0    0    0    0  0.00000000000E+00  0.00000000000E+00  0.39999999673E+01  0.40000000000E+01  0.51109989000E-03 0.  1.
     -623   -1    0    0    0    0  0.00000000000E+00  0.00000000000E+00  0.12525980253E-10  0.17130000000E+03  0.17130000000E+03 0.  1.
       11    1    1    2    0    0  0.69636036608E-02  0.13846282811E-01  0.89679532799E+00  0.89692939123E+00  0.51109989000E-03 0.  1.
     -623    1    1    2    0    0 -0.81736480267E-03  0.31815403949E-03  0.25402255586E-03  0.17130000000E+03  0.17130000000E+03 0.  1.
      622    1    1    2    0    0 -0.61462388582E-02 -0.14164436851E-01  0.31029506164E+01  0.31030706059E+01  0.22500000000E-01 0.  1.
</event>
<event>
 5   0  0.9908800E+08  0.9118800E+02  0.7818608E-02  0.1180000E+00
       11   -1    0    0    0    0  0.00000000000E+00  0.00000000000E+00  0.39999999673E+01  0.40000000000E+01  0.51109989000E-03 0.  1.
     -623   -1    0    0    0    0  0.00000000000E+00  0.00000000000E+00  0.12525980253E-10  0.17130000000E+03  0.17130000000E+03 0. -1.
       11    1    1    2    0    0  0.98998152475E-02 -0.26130638463E-02  0.17478293296E+00  0.17508332109E+00  0.51109989000E-03 0.  1.
     -623    1    1    2    0    0  0.38396172324E-03 -0.10688923945E-02  0.38213525519E-03  0.17130000000E+03  0.17130000000E+03 0. -1.
      622    1    1    2    0    0 -0.10283776971E-01  0.36819562407E-02  0.38248348986E+01  0.38249166742E+01  0.22500000000E-01 0.  1.
</event>
<event>
 5   0  0.9908800E+08  0.9118800E+02  0.7818608E-02  0.1180000E+00
       11   -1    0    0    0    0  0.00000000000E+00  0.00000000000E+00  0.39999999673E+01  0.40000000000E+01  0.51109989000E-03 0.  1.
     -623   -1    0    0    0    0  0.00000000000E+00  0.00000000000E+00  0.12525980253E-10  0.17130000000E+03  0.17130000000E+03 0. -1.
       11    1    1    2    0    0  0.14311113053E-02 -0.19232284352E-03  0.14238902628E+00  0.14239726506E+00  0.51109989000E-03 0.  1.
     -623    1    1    2    0    0  0.87119642541E-04  0.23142823243E-03  0.74123032343E-04  0.17130000000E+03  0.17130000000E+03 0. -1.
      622    1    1    2    0    0 -0.15182309479E-02 -0.39105388913E-04  0.38575368180E+01  0.38576027347E+01  0.22500000000E-01 0.  1.
</event>
<event>
 5   0  0.9908800E+08  0.9118800E+02  0.7818608E-02  0.1180000E+00
       11   -1    0    0    0    0  0.00000000000E+00  0.00000000000E+00  0.39999999673E+01  0.40000000000E+01  0.51109989000E-03 0. -1.
     -623   -1    0    0    0    0  0.00000000000E+00  0.00000000000E+00  0.12525980253E-10  0.17130000000E+03  0.17130000000E+03 0. -1.
       11    1    1    2    0    0 -0.16619891984E-01  0.52567187818E-02  0.10157077386E+01  0.10158574335E+01  0.51109989000E-03 0. -1.
     -623    1    1    2    0    0 -0.15505871528E-02 -0.15822721645E-02  0.29208602932E-03  0.17130000001E+03  0.17130000000E+03 0. -1.
      622    1    1    2    0    0  0.18170479138E-01 -0.36744466165E-02  0.29840001450E+01  0.29841425541E+01  0.22500000000E-01 0. -1.
</event>
<event>
 5   0  0.9908800E+08  0.9118800E+02  0.7818608E-02  0.1180000E+00
       11   -1    0    0    0    0  0.00000000000E+00  0.00000000000E+00  0.39999999673E+01  0.40000000000E+01  0.51109989000E-03 0.  1.
     -623   -1    0    0    0    0  0.00000000000E+00  0.00000000000E+00  0.12525980253E-10  0.17130000000E+03  0.17130000000E+03 0. -1.
       11    1    1    2    0    0  0.82937649219E-02 -0.17958602662E-01  0.73672648104E+00  0.73699217569E+00  0.51109989000E-03 0.  1.
     -623    1    1    2    0    0  0.29476833155E-03  0.61846943203E-03  0.40061776301E-03  0.17130000000E+03  0.17130000000E+03 0. -1.
      622    1    1    2    0    0 -0.85885332535E-02  0.17340133230E-01  0.32628728686E+01  0.32630078225E+01  0.22500000000E-01 0.  1.
</event>
<event>
 5   0  0.9908800E+08  0.9118800E+02  0.7818608E-02  0.1180000E+00
       11   -1    0    0    0    0  0.00000000000E+00  0.00000000000E+00  0.39999999673E+01  0.40000000000E+01  0.51109989000E-03 0.  1.
     -623   -1    0    0    0    0  0.00000000000E+00  0.00000000000E+00  0.12525980253E-10  0.17130000000E+03  0.17130000000E+03 0. -1.
       11    1    1    2    0    0  0.10919953507E-01 -0.28263358836E-02  0.81878478721E+00  0.81886263961E+00  0.51109989000E-03 0.  1.
     -623    1    1    2    0    0 -0.63790295929E-03  0.53300387666E-02  0.17507809581E-03  0.17130000008E+03  0.17130000000E+03 0. -1.
      622    1    1    2    0    0 -0.10282050548E-01 -0.25037028844E-02  0.31810401031E+01  0.31811372772E+01  0.22500000000E-01 0.  1.
</event>
<event>
 5   0  0.9908800E+08  0.9118800E+02  0.7818608E-02  0.1180000E+00
       11   -1    0    0    0    0  0.00000000000E+00  0.00000000000E+00  0.39999999673E+01  0.40000000000E+01  0.51109989000E-03 0.  1.
     -623   -1    0    0    0    0  0.00000000000E+00  0.00000000000E+00  0.12525980253E-10  0.17130000000E+03  0.17130000000E+03 0.  1.
       11    1    1    2    0    0 -0.83584263200E-03  0.49123136332E-03  0.16365942887E+00  0.16366309853E+00  0.51109989000E-03 0.  1.
     -623    1    1    2    0    0  0.36858059451E-02 -0.12457791973E-03  0.70734351788E-04  0.17130000004E+03  0.17130000000E+03 0.  1.
      622    1    1    2    0    0 -0.28499633131E-02 -0.36665344359E-03  0.38362698041E+01  0.38363368618E+01  0.22500000000E-01 0.  1.
</event>
<event>
 5   0  0.9908800E+08  0.9118800E+02  0.7818608E-02  0.1180000E+00
       11   -1    0    0    0    0  0.00000000000E+00  0.00000000000E+00  0.39999999673E+01  0.40000000000E+01  0.51109989000E-03 0.  1.
     -623   -1    0    0    0    0  0.00000000000E+00  0.00000000000E+00  0.12525980253E-10  0.17130000000E+03  0.17130000000E+03 0. -1.
       11    1    1    2    0    0  0.16190072892E-02  0.30450444539E-02  0.85358363113E-01  0.85429531512E-01  0.51109989000E-03 0.  1.
     -623    1    1    2    0    0 -0.47092537290E-04  0.11703292122E-03  0.13739141016E-03  0.17130000000E+03  0.17130000000E+03 0. -1.
      622    1    1    2    0    0 -0.15719147519E-02 -0.31620773751E-02  0.39145042128E+01  0.39145704684E+01  0.22500000000E-01 0.  1.
</event>
<event>
 5   0  0.9908800E+08  0.9118800E+02  0.7818608E-02  0.1180000E+00
       11   -1    0    0    0    0  0.00000000000E+00  0.00000000000E+00  0.39999999673E+01  0.40000000000E+01  0.51109989000E-03 0.  1.
     -623   -1    0    0    0    0  0.00000000000E+00  0.00000000000E+00  0.12525980253E-10  0.17130000000E+03  0.17130000000E+03 0.  1.
       11    1    1    2    0    0  0.94777702086E-02  0.17041173360E-01  0.71331139267E+00  0.71357805029E+00  0.51109989000E-03 0.  1.
     -623    1    1    2    0    0 -0.99120474011E-02 -0.52618007423E-02  0.36515471410E-03  0.17130000037E+03  0.17130000000E+03 0.  1.
      622    1    1    2    0    0  0.43427719317E-03 -0.11779372617E-01  0.32863234202E+01  0.32864215820E+01  0.22500000000E-01 0.  1.
</event>
<event>
 5   0  0.9908800E+08  0.9118800E+02  0.7818608E-02  0.1180000E+00
       11   -1    0    0    0    0  0.00000000000E+00  0.00000000000E+00  0.39999999673E+01  0.40000000000E+01  0.51109989000E-03 0. -1.
     -623   -1    0    0    0    0  0.00000000000E+00  0.00000000000E+00  0.12525980253E-10  0.17130000000E+03  0.17130000000E+03 0.  1.
       11    1    1    2    0    0 -0.22159638515E-02 -0.52401688513E-03  0.31562542095E+00  0.31563404864E+00  0.51109989000E-03 0. -1.
     -623    1    1    2    0    0  0.54665905574E-03 -0.60038110605E-03  0.77849839039E-04  0.17130000000E+03  0.17130000000E+03 0.  1.
      622    1    1    2    0    0  0.16693047957E-02  0.11243979913E-02  0.36842966976E+01  0.36843659504E+01  0.22500000000E-01 0. -1.
</event>
<event>
 5   0  0.9908800E+08  0.9118800E+02  0.7818608E-02  0.1180000E+00
       11   -1    0    0    0    0  0.00000000000E+00  0.00000000000E+00  0.39999999673E+01  0.40000000000E+01  0.51109989000E-03 0. -1.
     -623   -1    0    0    0    0  0.00000000000E+00  0.00000000000E+00  0.12525980253E-10  0.17130000000E+03  0.17130000000E+03 0.  1.
       11    1    1    2    0    0  0.42134694015E-02 -0.14827486590E-02  0.10967460525E+01  0.10967552675E+01  0.51109989000E-03 0. -1.
     -623    1    1    2    0    0 -0.31507786694E-03 -0.27558081787E-02  0.10210459150E-03  0.17130000002E+03  0.17130000000E+03 0.  1.
      622    1    1    2    0    0 -0.38983915345E-02  0.42385568377E-02  0.29031518103E+01  0.29032447100E+01  0.22500000000E-01 0. -1.
</event>
<event>
 5   0  0.9908800E+08  0.9118800E+02  0.7818608E-02  0.1180000E+00
       11   -1    0    0    0    0  0.00000000000E+00  0.00000000000E+00  0.39999999673E+01  0.40000000000E+01  0.51109989000E-03 0. -1.
     -623   -1    0    0    0    0  0.00000000000E+00  0.00000000000E+00  0.12525980253E-10  0.17130000000E+03  0.17130000000E+03 0.  1.
       11    1    1    2    0    0 -0.14263087857E-02  0.89779987421E-03  0.25841253139E-01  0.25901196591E-01  0.51109989000E-03 0. -1.
     -623    1    1    2    0    0  0.51195977692E-04 -0.12397703635E-03  0.12391835608E-03  0.17130000000E+03  0.17130000000E+03 0.  1.
      622    1    1    2    0    0  0.13751128080E-02 -0.77382283786E-03  0.39740347959E+01  0.39740988033E+01  0.22500000000E-01 0. -1.
</event>
<event>
 5   0  0.9908800E+08  0.9118800E+02  0.7818608E-02  0.1180000E+00
       11   -1    0    0    0    0  0.00000000000E+00  0.00000000000E+00  0.39999999673E+01  0.40000000000E+01  0.51109989000E-03 0. -1.
     -623   -1    0    0    0    0  0.00000000000E+00  0.00000000000E+00  0.12525980253E-10  0.17130000000E+03  0.17130000000E+03 0.  1.
       11    1    1    2    0    0  0.67667769674E-03  0.35194125476E-03  0.68529816183E-02  0.69142124357E-02  0.51109989000E-03 0. -1.
     -623    1    1    2    0    0 -0.25254395269E-03  0.56069244597E-03  0.12471747389E-03  0.17130000000E+03  0.17130000000E+03 0.  1.
      622    1    1    2    0    0 -0.42413374405E-03 -0.91263370073E-03  0.39930222683E+01  0.39930857864E+01  0.22500000000E-01 0. -1.
</event>
<event>
 5   0  0.9908800E+08  0.9118800E+02  0.7818608E-02  0.1180000E+00
       11   -1    0    0    0    0  0.00000000000E+00  0.00000000000E+00  0.39999999673E+01  0.40000000000E+01  0.51109989000E-03 0. -1.
     -623   -1    0    0    0    0  0.00000000000E+00  0.00000000000E+00  0.12525980253E-10  0.17130000000E+03  0.17130000000E+03 0. -1.
       11    1    1    2    0    0 -0.17129566198E-02  0.13989902563E-03  0.93776375695E-03  0.20234658221E-02  0.51109989000E-03 0. -1.
     -623    1    1    2    0    0 -0.17103666669E-03  0.84682948247E-03  0.11495549185E-02  0.17130000001E+03  0.17130000000E+03 0. -1.
      622    1    1    2    0    0  0.18839932865E-02 -0.98672850810E-03  0.39979126487E+01  0.39979765281E+01  0.22500000000E-01 0. -1.
</event>
<event>
 5   0  0.9908800E+08  0.9118800E+02  0.7818608E-02  0.1180000E+00
       11   -1    0    0    0    0  0.00000000000E+00  0.00000000000E+00  0.39999999673E+01  0.40000000000E+01  0.51109989000E-03 0. -1.
     -623   -1    0    0    0    0  0.00000000000E+00  0.00000000000E+00  0.12525980253E-10  0.17130000000E+03  0.17130000000E+03 0.  1.
       11    1    1    2    0    0  0.27493084528E-02  0.39842468874E-02  0.34026374163E+00  0.34029855717E+00  0.51109989000E-03 0. -1.
     -623    1    1    2    0    0  0.20611566957E-02  0.95821554061E-03  0.11046323415E-03  0.17130000002E+03  0.17130000000E+03 0.  1.
      622    1    1    2    0    0 -0.48104651486E-02 -0.49424624280E-02  0.36596257625E+01  0.36597014277E+01  0.22500000000E-01 0. -1.
</event>
<event>
 5   0  0.9908800E+08  0.9118800E+02  0.7818608E-02  0.1180000E+00
       11   -1    0    0    0    0  0.00000000000E+00  0.00000000000E+00  0.39999999673E+01  0.40000000000E+01  0.51109989000E-03 0. -1.
     -623   -1    0    0    0    0  0.00000000000E+00  0.00000000000E+00  0.12525980253E-10  0.17130000000E+03  0.17130000000E+03 0.  1.
       11    1    1    2    0    0  0.17443166068E-02  0.18347423822E-02  0.12632869681E+00  0.12635509399E+00  0.51109989000E-03 0. -1.
     -623    1    1    2    0    0  0.31692069183E-03  0.12272891011E-02  0.93473916689E-04  0.17130000000E+03  0.17130000000E+03 0.  1.
      622    1    1    2    0    0 -0.20612372986E-02 -0.30620314833E-02  0.38735777966E+01  0.38736449013E+01  0.22500000000E-01 0. -1.
</event>
<event>
 5   0  0.9908800E+08  0.9118800E+02  0.7818608E-02  0.1180000E+00
       11   -1    0    0    0    0  0.00000000000E+00  0.00000000000E+00  0.39999999673E+01  0.40000000000E+01  0.51109989000E-03 0. -1.
     -623   -1    0    0    0    0  0.00000000000E+00  0.00000000000E+00  0.12525980253E-10  0.17130000000E+03  0.17130000000E+03 0. -1.
       11    1    1    2    0    0  0.76121010868E-02 -0.28114977075E-01  0.62483939531E+00  0.62551812698E+00  0.51109989000E-03 0. -1.
     -623    1    1    2    0    0  0.68875694266E-02 -0.11416040698E-01  0.10169477545E-02  0.17130000052E+03  0.17130000000E+03 0. -1.
      622    1    1    2    0    0 -0.14499670513E-01  0.39531017773E-01  0.33741436243E+01  0.33744813511E+01  0.22500000000E-01 0. -1.
</event>
<event>
 5   0  0.9908800E+08  0.9118800E+02  0.7818608E-02  0.1180000E+00
       11   -1    0    0    0    0  0.00000000000E+00  0.00000000000E+00  0.39999999673E+01  0.40000000000E+01  0.51109989000E-03 0. -1.
     -623   -1    0    0    0    0  0.00000000000E+00  0.00000000000E+00  0.12525980253E-10  0.17130000000E+03  0.17130000000E+03 0.  1.
       11    1    1    2    0    0 -0.50674354215E-03  0.27353436461E-02  0.98924736660E-01  0.98965163760E-01  0.51109989000E-03 0. -1.
     -623    1    1    2    0    0  0.14682301467E-03  0.77569991728E-04  0.10631251465E-03  0.17130000000E+03  0.17130000000E+03 0.  1.
      622    1    1    2    0    0  0.35992052748E-03 -0.28129136378E-02  0.39009689182E+01  0.39010348361E+01  0.22500000000E-01 0. -1.
</event>
<event>
 5   0  0.9908800E+08  0.9118800E+02  0.7818608E-02  0.1180000E+00
       11   -1    0    0    0    0  0.00000000000E+00  0.00000000000E+00  0.39999999673E+01  0.40000000000E+01  0.51109989000E-03 0. -1.
     -623   -1    0    0    0    0  0.00000000000E+00  0.00000000000E+00  0.12525980253E-10  0.17130000000E+03  0.17130000000E+03 0.  1.
       11    1    1    2    0    0 -0.92631396262E-03  0.13014997771E-01  0.60052977853E+00  0.60067172761E+00  0.51109989000E-03 0. -1.
     -623    1    1    2    0    0  0.13110119776E-02  0.53667435401E-03  0.24342136102E-03  0.17130000001E+03  0.17130000000E+03 0.  1.
      622    1    1    2    0    0 -0.38469801500E-03 -0.13551672125E-01  0.33992267675E+01  0.33993282664E+01  0.22500000000E-01 0. -1.
</event>
<event>
 5   0  0.9908800E+08  0.9118800E+02  0.7818608E-02  0.1180000E+00
       11   -1    0    0    0    0  0.00000000000E+00  0.00000000000E+00  0.39999999673E+01  0.40000000000E+01  0.51109989000E-03 0. -1.
     -623   -1    0    0    0    0  0.00000000000E+00  0.00000000000E+00  0.12525980253E-10  0.17130000000E+03  0.17130000000E+03 0. -1.
       11    1    1    2    0    0  0.33132083561E-01 -0.12440414917E-01  0.73433167149E+00  0.73518417003E+00  0.51109989000E-03 0. -1.
     -623    1    1    2    0    0 -0.49409648075E-02  0.37467558930E-02  0.10634070127E-02  0.17130000012E+03  0.17130000000E+03 0. -1.
      622    1    1    2    0    0 -0.28191118753E-01  0.86936590240E-02  0.32646048893E+01  0.32648157149E+01  0.22500000000E-01 0. -1.
</event>
<event>
 5   0  0.9908800E+08  0.9118800E+02  0.7818608E-02  0.1180000E+00
       11   -1    0    0    0    0  0.00000000000E+00  0.00000000000E+00  0.39999999673E+01  0.40000000000E+01  0.51109989000E-03 0. -1.
     -623   -1    0    0    0    0  0.00000000000E+00  0.00000000000E+00  0.12525980253E-10  0.17130000000E+03  0.17130000000E+03 0.  1.
       11    1    1    2    0    0 -0.22460069708E-01 -0.34940870415E-02  0.29286151185E+00  0.29374272709E+00  0.51109989000E-03 0. -1.
     -623    1    1    2    0    0  0.72616366599E-03  0.18009608176E-02  0.10136073980E-02  0.17130000001E+03  0.17130000000E+03 0.  1.
      622    1    1    2    0    0  0.21733906042E-01  0.16931262240E-02  0.37061248481E+01  0.37062572589E+01  0.22500000000E-01 0. -1.
</event>
<event>
 5   0  0.9908800E+08  0.9118800E+02  0.7818608E-02  0.1180000E+00
       11   -1    0    0    0    0  0.00000000000E+00  0.00000000000E+00  0.39999999673E+01  0.40000000000E+01  0.51109989000E-03 0. -1.
     -623   -1    0    0    0    0  0.00000000000E+00  0.00000000000E+00  0.12525980253E-10  0.17130000000E+03  0.17130000000E+03 0.  1.
       11    1    1    2    0    0 -0.11540033772E-02 -0.75893355833E-03  0.95146859674E-01  0.95158256766E-01  0.51109989000E-03 0. -1.
     -623    1    1    2    0    0  0.17042771771E-02 -0.14911952176E-03  0.76341275901E-04  0.17130000001E+03  0.17130000000E+03 0.  1.
      622    1    1    2    0    0 -0.55027379993E-03  0.90805308009E-03  0.39047767664E+01  0.39048417347E+01  0.22500000000E-01 0. -1.
</event>
<event>
 5   0  0.9908800E+08  0.9118800E+02  0.7818608E-02  0.1180000E+00
       11   -1    0    0    0    0  0.00000000000E+00  0.00000000000E+00  0.39999999673E+01  0.40000000000E+01  0.51109989000E-03 0. -1.
     -623   -1    0    0    0    0  0.00000000000E+00  0.00000000000E+00  0.12525980253E-10  0.17130000000E+03  0.17130000000E+03 0.  1.
       11    1    1    2    0    0 -0.18326408994E-02 -0.41113417358E-03  0.55942678828E-01  0.55976532061E-01  0.51109989000E-03 0. -1.
     -623    1    1    2    0    0  0.59498438390E-03 -0.21907747389E-03  0.98246247209E-04  0.17130000000E+03  0.17130000000E+03 0.  1.
      622    1    1    2    0    0  0.12376565154E-02  0.63021164750E-03  0.39439590429E+01  0.39440234673E+01  0.22500000000E-01 0. -1.
</event>
<event>
 5   0  0.9908800E+08  0.9118800E+02  0.7818608E-02  0.1180000E+00
       11   -1    0    0    0    0  0.00000000000E+00  0.00000000000E+00  0.39999999673E+01  0.40000000000E+01  0.51109989000E-03 0. -1.
     -623   -1    0    0    0    0  0.00000000000E+00  0.00000000000E+00  0.12525980253E-10  0.17130000000E+03  0.17130000000E+03 0. -1.
       11    1    1    2    0    0 -0.25153623394E-01 -0.54872026459E-02  0.90775623246E+00  0.90812138669E+00  0.51109989000E-03 0. -1.
     -623    1    1    2    0    0  0.91182280664E-02 -0.13018737773E-02  0.49627621263E-03  0.17130000025E+03  0.17130000000E+03 0. -1.
      622    1    1    2    0    0  0.16035395328E-01  0.67890764232E-02  0.30917474586E+01  0.30918783649E+01  0.22500000000E-01 0. -1.
</event>
<event>
 5   0  0.9908800E+08  0.9118800E+02  0.7818608E-02  0.1180000E+00
       11   -1    0    0    0    0  0.00000000000E+00  0.00000000000E+00  0.39999999673E+01  0.40000000000E+01  0.51109989000E-03 0.  1.
     -623   -1    0    0    0    0  0.00000000000E+00  0.00000000000E+00  0.12525980253E-10  0.17130000000E+03  0.17130000000E+03 0. -1.
       11    1    1    2    0    0  0.25377813464E-03 -0.52305109049E-02  0.44755244687E+00  0.44758337388E+00  0.51109989000E-03 0.  1.
     -623    1    1    2    0    0 -0.22050948106E-02  0.32778272495E-02  0.10326759393E-03  0.17130000005E+03  0.17130000000E+03 0. -1.
      622    1    1    2    0    0  0.19513166764E-02  0.19526836547E-02  0.35523442536E+01  0.35524165813E+01  0.22500000000E-01 0.  1.
</event>
<event>
 5   0  0.9908800E+08  0.9118800E+02  0.7818608E-02  0.1180000E+00
       11   -1    0    0    0    0  0.00000000000E+00  0.00000000000E+00  0.39999999673E+01  0.40000000000E+01  0.51109989000E-03 0. -1.
     -623   -1    0    0    0    0  0.00000000000E+00  0.00000000000E+00  0.12525980253E-10  0.17130000000E+03  0.17130000000E+03 0. -1.
       11    1    1    2    0    0  0.28813454454E-01  0.18818899892E-01  0.71882568999E+00  0.71964922008E+00  0.51109989000E-03 0. -1.
     -623    1    1    2    0    0 -0.33531316600E-01 -0.79711983364E-02  0.92546145477E-03  0.17130000347E+03  0.17130000000E+03 0. -1.
      622    1    1    2    0    0  0.47178621464E-02 -0.10847701556E-01  0.32802488159E+01  0.32803473101E+01  0.22500000000E-01 0. -1.
</event>
<event>
 5   0  0.9908800E+08  0.9118800E+02  0.7818608E-02  0.1180000E+00
       11   -1    0    0    0    0  0.00000000000E+00  0.00000000000E+00  0.39999999673E+01  0.40000000000E+01  0.51109989000E-03 0.  1.
     -623   -1    0    0    0    0  0.00000000000E+00  0.00000000000E+00  0.12525980253E-10  0.17130000000E+03  0.17130000000E+03 0. -1.
       11    1    1    2    0    0 -0.25092336636E-02  0.23736051376E-02  0.70086524161E-01  0.70173444728E-01  0.51109989000E-03 0.  1.
     -623    1    1    2    0    0 -0.23893083043E-03 -0.16729343369E-02  0.15233148754E-03  0.17130000001E+03  0.17130000000E+03 0. -1.
      622    1    1    2    0    0  0.27481644940E-02 -0.70067080077E-03  0.39297611117E+01  0.39298265469E+01  0.22500000000E-01 0.  1.
</event>
<event>
 5   0  0.9908800E+08  0.9118800E+02  0.7818608E-02  0.1180000E+00
       11   -1    0    0    0    0  0.00000000000E+00  0.00000000000E+00  0.39999999673E+01  0.40000000000E+01  0.51109989000E-03 0. -1.
     -623   -1    0    0    0    0  0.00000000000E+00  0.00000000000E+00  0.12525980253E-10  0.17130000000E+03  0.17130000000E+03 0. -1.
       11    1    1    2    0    0 -0.56095110631E-03  0.39993377431E-03  0.24640154548E-01  0.24655081629E-01  0.51109989000E-03 0. -1.
     -623    1    1    2    0    0 -0.35845942672E-03 -0.65245067618E-03  0.78684648123E-04  0.17130000000E+03  0.17130000000E+03 0. -1.
      622    1    1    2    0    0  0.91941053303E-03  0.25251690187E-03  0.39752811282E+01  0.39753449167E+01  0.22500000000E-01 0. -1.
</event>
<event>
 5   0  0.9908800E+08  0.9118800E+02  0.7818608E-02  0.1180000E+00
       11   -1    0    0    0    0  0.00000000000E+00  0.00000000000E+00  0.39999999673E+01  0.40000000000E+01  0.51109989000E-03 0. -1.
     -623   -1    0    0    0    0  0.00000000000E+00  0.00000000000E+00  0.12525980253E-10  0.17130000000E+03  0.17130000000E+03 0. -1.
       11    1    1    2    0    0 -0.23897842676E-02  0.19681932222E-03  0.72993429985E-02  0.77000932226E-02  0.51109989000E-03 0. -1.
     -623    1    1    2    0    0  0.28736216238E-02  0.15816504490E-02  0.46457888323E-03  0.17130000003E+03  0.17130000000E+03 0. -1.
      622    1    1    2    0    0 -0.48383735616E-03 -0.17784697712E-02  0.39922360455E+01  0.39922998747E+01  0.22500000000E-01 0. -1.
</event>
<event>
 5   0  0.9908800E+08  0.9118800E+02  0.7818608E-02  0.1180000E+00
       11   -1    0    0    0    0  0.00000000000E+00  0.00000000000E+00  0.39999999673E+01  0.40000000000E+01  0.51109989000E-03 0. -1.
     -623   -1    0    0    0    0  0.00000000000E+00  0.00000000000E+00  0.12525980253E-10  0.17130000000E+03  0.17130000000E+03 0.  1.
       11    1    1    2    0    0  0.15777160929E-02 -0.11644233485E-02  0.25413455932E+00  0.25414263816E+00  0.51109989000E-03 0. -1.
     -623    1    1    2    0    0  0.30379670170E-03  0.17108274618E-03  0.76226090512E-04  0.17130000000E+03  0.17130000000E+03 0.  1.
      622    1    1    2    0    0 -0.18815127945E-02  0.99334060236E-03  0.37457891809E+01  0.37458573604E+01  0.22500000000E-01 0. -1.
</event>
<event>
 5   0  0.9908800E+08  0.9118800E+02  0.7818608E-02  0.1180000E+00
       11   -1    0    0    0    0  0.00000000000E+00  0.00000000000E+00  0.39999999673E+01  0.40000000000E+01  0.51109989000E-03 0. -1.
     -623   -1    0    0    0    0  0.00000000000E+00  0.00000000000E+00  0.12525980253E-10  0.17130000000E+03  0.17130000000E+03 0.  1.
       11    1    1    2    0    0  0.43849750667E-03 -0.22558328626E-03  0.33516918498E-01  0.33524442077E-01  0.51109989000E-03 0. -1.
     -623    1    1    2    0    0  0.15581236836E-03 -0.12783016734E-03  0.71367954707E-04  0.17130000000E+03  0.17130000000E+03 0.  1.
      622    1    1    2    0    0 -0.59430987516E-03  0.35341345372E-03  0.39664116844E+01  0.39664755613E+01  0.22500000000E-01 0. -1.
</event>
<event>
 5   0  0.9908800E+08  0.9118800E+02  0.7818608E-02  0.1180000E+00
       11   -1    0    0    0    0  0.00000000000E+00  0.00000000000E+00  0.39999999673E+01  0.40000000000E+01  0.51109989000E-03 0. -1.
     -623   -1    0    0    0    0  0.00000000000E+00  0.00000000000E+00  0.12525980253E-10  0.17130000000E+03  0.17130000000E+03 0. -1.
       11    1    1    2    0    0 -0.19288443171E-03  0.22234974553E-03  0.21668080799E+00  0.21668161071E+00  0.51109989000E-03 0. -1.
     -623    1    1    2    0    0  0.72153263589E-03 -0.64498667898E-03  0.67739507159E-04  0.17130000000E+03  0.17130000000E+03 0. -1.
      622    1    1    2    0    0 -0.52864820477E-03  0.42263693399E-03  0.37832514231E+01  0.37833183898E+01  0.22500000000E-01 0. -1.
</event>
<event>
 5   0  0.9908800E+08  0.9118800E+02  0.7818608E-02  0.1180000E+00
       11   -1    0    0    0    0  0.00000000000E+00  0.00000000000E+00  0.39999999673E+01  0.40000000000E+01  0.51109989000E-03 0. -1.
     -623   -1    0    0    0    0  0.00000000000E+00  0.00000000000E+00  0.12525980253E-10  0.17130000000E+03  0.17130000000E+03 0.  1.
       11    1    1    2    0    0 -0.27781960568E-03  0.22769153221E-03  0.19979186201E-01  0.19988950185E-01  0.51109989000E-03 0. -1.
     -623    1    1    2    0    0 -0.11676039385E-03 -0.50678971402E-03  0.73361072619E-04  0.17130000000E+03  0.17130000000E+03 0.  1.
      622    1    1    2    0    0  0.39457999953E-03  0.27909818181E-03  0.39799474201E+01  0.39800110490E+01  0.22500000000E-01 0. -1.
</event>
<event>
 5   0  0.9908800E+08  0.9118800E+02  0.7818608E-02  0.1180000E+00
       11   -1    0    0    0    0  0.00000000000E+00  0.00000000000E+00  0.39999999673E+01  0.40000000000E+01  0.51109989000E-03 0. -1.
     -623   -1    0    0    0    0  0.00000000000E+00  0.00000000000E+00  0.12525980253E-10  0.17130000000E+03  0.17130000000E+03 0.  1.
       11    1    1    2    0    0 -0.28738170614E-01  0.27361354217E-01  0.85919600959E+00  0.86011195217E+00  0.51109989000E-03 0. -1.
     -623    1    1    2    0    0  0.34970675859E-02 -0.37432355081E-01  0.11182674243E-02  0.17130000413E+03  0.17130000000E+03 0.  1.
      622    1    1    2    0    0  0.25241103028E-01  0.10071000864E-01  0.31396856903E+01  0.31398839186E+01  0.22500000000E-01 0. -1.
</event>
<event>
 5   0  0.9908800E+08  0.9118800E+02  0.7818608E-02  0.1180000E+00
       11   -1    0    0    0    0  0.00000000000E+00  0.00000000000E+00  0.39999999673E+01  0.40000000000E+01  0.51109989000E-03 0.  1.
     -623   -1    0    0    0    0  0.00000000000E+00  0.00000000000E+00  0.12525980253E-10  0.17130000000E+03  0.17130000000E+03 0.  1.
       11    1    1    2    0    0 -0.42621441026E-02  0.88316150911E-02  0.40441163637E+00  0.40453083461E+00  0.51109989000E-03 0.  1.
     -623    1    1    2    0    0  0.27955037908E-03  0.31939560970E-03  0.20341938835E-03  0.17130000000E+03  0.17130000000E+03 0.  1.
      622    1    1    2    0    0  0.39825937235E-02 -0.91510107008E-02  0.35953849116E+01  0.35954691647E+01  0.22500000000E-01 0.  1.
</event>
<event>
 5   0  0.9908800E+08  0.9118800E+02  0.7818608E-02  0.1180000E+00
       11   -1    0    0    0    0  0.00000000000E+00  0.00000000000E+00  0.39999999673E+01  0.40000000000E+01  0.51109989000E-03 0.  1.
     -623   -1    0    0    0    0  0.00000000000E+00  0.00000000000E+00  0.12525980253E-10  0.17130000000E+03  0.17130000000E+03 0. -1.
       11    1    1    2    0    0 -0.74319792925E-03  0.17212038455E-03  0.54338002959E-01  0.54345761171E-01  0.51109989000E-03 0.  1.
     -623    1    1    2    0    0  0.25739751489E-05 -0.21987864263E-04  0.71951336095E-04  0.17130000000E+03  0.17130000000E+03 0. -1.
      622    1    1    2    0    0  0.74062395409E-03 -0.15013252025E-03  0.39455900197E+01  0.39456542454E+01  0.22500000000E-01 0.  1.
</event>
<event>
 5   0  0.9908800E+08  0.9118800E+02  0.7818608E-02  0.1180000E+00
       11   -1    0    0    0    0  0.00000000000E+00  0.00000000000E+00  0.39999999673E+01  0.40000000000E+01  0.51109989000E-03 0.  1.
     -623   -1    0    0    0    0  0.00000000000E+00  0.00000000000E+00  0.12525980253E-10  0.17130000000E+03  0.17130000000E+03 0.  1.
       11    1    1    2    0    0 -0.59553711076E-03 -0.24016770898E-03  0.11340304191E-01  0.11369963378E-01  0.51109989000E-03 0.  1.
     -623    1    1    2    0    0  0.17571804243E-03 -0.78117049110E-05  0.93118609483E-04  0.17130000000E+03  0.17130000000E+03 0.  1.
      622    1    1    2    0    0  0.41981906823E-03  0.24797941390E-03  0.39885665468E+01  0.39886300388E+01  0.22500000000E-01 0.  1.
</event>
<event>
 5   0  0.9908800E+08  0.9118800E+02  0.7818608E-02  0.1180000E+00
       11   -1    0    0    0    0  0.00000000000E+00  0.00000000000E+00  0.39999999673E+01  0.40000000000E+01  0.51109989000E-03 0. -1.
     -623   -1    0    0    0    0  0.00000000000E+00  0.00000000000E+00  0.12525980253E-10  0.17130000000E+03  0.17130000000E+03 0.  1.
       11    1    1    2    0    0 -0.61367129284E-02 -0.42471252086E-02  0.28331005562E+00  0.28340879689E+00  0.51109989000E-03 0. -1.
     -623    1    1    2    0    0 -0.33857079249E-02  0.47394915126E-02  0.17914687743E-03  0.17130000010E+03  0.17130000000E+03 0.  1.
      622    1    1    2    0    0  0.95224208533E-02 -0.49236630403E-03  0.37165107649E+01  0.37165911040E+01  0.22500000000E-01 0. -1.
</event>
<event>
 5   0  0.9908800E+08  0.9118800E+02  0.7818608E-02  0.1180000E+00
       11   -1    0    0    0    0  0.00000000000E+00  0.00000000000E+00  0.39999999673E+01  0.40000000000E+01  0.51109989000E-03 0. -1.
     -623   -1    0    0    0    0  0.00000000000E+00  0.00000000000E+00  0.12525980253E-10  0.17130000000E+03  0.17130000000E+03 0. -1.
       11    1    1    2    0    0  0.16244941430E-02  0.64270709510E-02  0.22981937206E+00  0.22991553062E+00  0.51109989000E-03 0. -1.
     -623    1    1    2    0    0 -0.12217919318E-02 -0.13928210169E-02  0.16665974571E-03  0.17130000001E+03  0.17130000000E+03 0. -1.
      622    1    1    2    0    0 -0.40270221103E-03 -0.50342499340E-02  0.37700139359E+01  0.37700844597E+01  0.22500000000E-01 0.  0.
</event>
<event>
 5   0  0.9908800E+08  0.9118800E+02  0.7818608E-02  0.1180000E+00
       11   -1    0    0    0    0  0.00000000000E+00  0.00000000000E+00  0.39999999673E+01  0.40000000000E+01  0.51109989000E-03 0. -1.
     -623   -1    0    0    0    0  0.00000000000E+00  0.00000000000E+00  0.12525980253E-10  0.17130000000E+03  0.17130000000E+03 0. -1.
       11    1    1    2    0    0  0.59538767193E-03  0.11042909536E-02  0.10425292276E+00  0.10426172391E+00  0.51109989000E-03 0. -1.
     -623    1    1    2    0    0 -0.29324372830E-03 -0.26282982305E-03  0.73846954288E-04  0.17130000000E+03  0.17130000000E+03 0. -1.
      622    1    1    2    0    0 -0.30214394363E-03 -0.84146113052E-03  0.38956731976E+01  0.38957382756E+01  0.22500000000E-01 0. -1.
</event>
<event>
 5   0  0.9908800E+08  0.9118800E+02  0.7818608E-02  0.1180000E+00
       11   -1    0    0    0    0  0.00000000000E+00  0.00000000000E+00  0.39999999673E+01  0.40000000000E+01  0.51109989000E-03 0. -1.
     -623   -1    0    0    0    0  0.00000000000E+00  0.00000000000E+00  0.12525980253E-10  0.17130000000E+03  0.17130000000E+03 0. -1.
       11    1    1    2    0    0 -0.20104904371E-03 -0.36970475775E-02  0.10224942466E+00  0.10231771424E+00  0.51109989000E-03 0. -1.
     -623    1    1    2    0    0  0.68611881303E-03  0.24734702592E-03  0.13475834390E-03  0.17130000000E+03  0.17130000000E+03 0. -1.
      622    1    1    2    0    0 -0.48506976935E-03  0.34497005515E-02  0.38976157845E+01  0.38976822843E+01  0.22500000000E-01 0. -1.
</event>
<event>
 5   0  0.9908800E+08  0.9118800E+02  0.7818608E-02  0.1180000E+00
       11   -1    0    0    0    0  0.00000000000E+00  0.00000000000E+00  0.39999999673E+01  0.40000000000E+01  0.51109989000E-03 0.  1.
     -623   -1    0    0    0    0  0.00000000000E+00  0.00000000000E+00  0.12525980253E-10  0.17130000000E+03  0.17130000000E+03 0. -1.
       11    1    1    2    0    0 -0.12912100724E-03 -0.32982336448E-02  0.31972631170E+00  0.31974375777E+00  0.51109989000E-03 0.  1.
     -623    1    1    2    0    0 -0.16274761150E-03  0.45865292278E-03  0.87301030018E-04  0.17130000000E+03  0.17130000000E+03 0. -1.
      622    1    1    2    0    0  0.29186861870E-03  0.28395807222E-02  0.36801863537E+01  0.36802562406E+01  0.22500000000E-01 0.  1.
</event>
<event>
 5   0  0.9908800E+08  0.9118800E+02  0.7818608E-02  0.1180000E+00
       11   -1    0    0    0    0  0.00000000000E+00  0.00000000000E+00  0.39999999673E+01  0.40000000000E+01  0.51109989000E-03 0. -1.
     -623   -1    0    0    0    0  0.00000000000E+00  0.00000000000E+00  0.12525980253E-10  0.17130000000E+03  0.17130000000E+03 0.  1.
       11    1    1    2    0    0 -0.66000800923E-03  0.24294588593E-02  0.10007467595E-01  0.10331917135E-01  0.51109989000E-03 0. -1.
     -623    1    1    2    0    0 -0.12852615565E-02 -0.18208488659E-02  0.38839813461E-03  0.17130000001E+03  0.17130000000E+03 0.  1.
      622    1    1    2    0    0  0.19452695655E-02 -0.60860999361E-03  0.39896041011E+01  0.39896680674E+01  0.22500000000E-01 0. -1.
</event>
<event>
 5   0  0.9908800E+08  0.9118800E+02  0.7818608E-02  0.1180000E+00
       11   -1    0    0    0    0  0.00000000000E+00  0.00000000000E+00  0.39999999673E+01  0.40000000000E+01  0.51109989000E-03 0. -1.
     -623   -1    0    0    0    0  0.00000000000E+00  0.00000000000E+00  0.12525980253E-10  0.17130000000E+03  0.17130000000E+03 0.  1.
       11    1    1    2    0    0 -0.16194189635E-02 -0.73001439807E-02  0.19683959738E+00  0.19698224016E+00  0.51109989000E-03 0. -1.
     -623    1    1    2    0    0 -0.34910065109E-02  0.37844117546E-02  0.21430602874E-03  0.17130000008E+03  0.17130000000E+03 0.  1.
      622    1    1    2    0    0  0.51104254744E-02  0.35157322261E-02  0.38029460639E+01  0.38030176823E+01  0.22500000000E-01 0. -1.
</event>
<event>
 5   0  0.9908800E+08  0.9118800E+02  0.7818608E-02  0.1180000E+00
       11   -1    0    0    0    0  0.00000000000E+00  0.00000000000E+00  0.39999999673E+01  0.40000000000E+01  0.51109989000E-03 0.  1.
     -623   -1    0    0    0    0  0.00000000000E+00  0.00000000000E+00  0.12525980253E-10  0.17130000000E+03  0.17130000000E+03 0.  1.
       11    1    1    2    0    0 -0.78130350872E-04  0.25073664137E-02  0.92305706334E-01  0.92341202261E-01  0.51109989000E-03 0.  1.
     -623    1    1    2    0    0 -0.12138700635E-02 -0.20308927772E-02  0.10049947265E-03  0.17130000002E+03  0.17130000000E+03 0.  1.
      622    1    1    2    0    0  0.12920004144E-02 -0.47647363651E-03  0.39075937616E+01  0.39076587814E+01  0.22500000000E-01 0.  1.
</event>
<event>
 5   0  0.9908800E+08  0.9118800E+02  0.7818608E-02  0.1180000E+00
       11   -1    0    0    0    0  0.00000000000E+00  0.00000000000E+00  0.39999999673E+01  0.40000000000E+01  0.51109989000E-03 0.  1.
     -623   -1    0    0    0    0  0.00000000000E+00  0.00000000000E+00  0.12525980253E-10  0.17130000000E+03  0.17130000000E+03 0.  1.
       11    1    1    2    0    0  0.60930570112E-02 -0.18975890601E-02  0.19406903798E+00  0.19417460934E+00  0.51109989000E-03 0.  1.
     -623    1    1    2    0    0 -0.47270958056E-02  0.29907302030E-02  0.17254273285E-03  0.17130000009E+03  0.17130000000E+03 0.  1.
      622    1    1    2    0    0 -0.13659612056E-02 -0.10931411429E-02  0.38057583866E+01  0.38058252992E+01  0.22500000000E-01 0.  1.
</event>
<event>
 5   0  0.9908800E+08  0.9118800E+02  0.7818608E-02  0.1180000E+00
       11   -1    0    0    0    0  0.00000000000E+00  0.00000000000E+00  0.39999999673E+01  0.40000000000E+01  0.51109989000E-03 0. -1.
     -623   -1    0    0    0    0  0.00000000000E+00  0.00000000000E+00  0.12525980253E-10  0.17130000000E+03  0.17130000000E+03 0. -1.
       11    1    1    2    0    0  0.24432279096E-02 -0.18446796545E-02  0.20810371307E-01  0.21040555665E-01  0.51109989000E-03 0. -1.
     -623    1    1    2    0    0  0.26049559432E-02  0.56258017017E-02  0.29887956314E-03  0.17130000011E+03  0.17130000000E+03 0. -1.
      622    1    1    2    0    0 -0.50481838540E-02 -0.37811220498E-02  0.39788907183E+01  0.39789593337E+01  0.22500000000E-01 0. -1.
</event>
<event>
 5   0  0.9908800E+08  0.9118800E+02  0.7818608E-02  0.1180000E+00
       11   -1    0    0    0    0  0.00000000000E+00  0.00000000000E+00  0.39999999673E+01  0.40000000000E+01  0.51109989000E-03 0.  1.
     -623   -1    0    0    0    0  0.00000000000E+00  0.00000000000E+00  0.12525980253E-10  0.17130000000E+03  0.17130000000E+03 0. -1.
       11    1    1    2    0    0  0.98388544712E-02  0.17011867229E-02  0.47733521334E+00  0.47743990639E+00  0.51109989000E-03 0.  1.
     -623    1    1    2    0    0  0.73341804332E-05  0.17575818951E-02  0.19198786253E-03  0.17130000001E+03  0.17130000000E+03 0. -1.
      622    1    1    2    0    0 -0.98461886516E-02 -0.34587686183E-02  0.35224727669E+01  0.35225600852E+01  0.22500000000E-01 0.  1.
</event>
<event>
 5   0  0.9908800E+08  0.9118800E+02  0.7818608E-02  0.1180000E+00
       11   -1    0    0    0    0  0.00000000000E+00  0.00000000000E+00  0.39999999673E+01  0.40000000000E+01  0.51109989000E-03 0.  1.
     -623   -1    0    0    0    0  0.00000000000E+00  0.00000000000E+00  0.12525980253E-10  0.17130000000E+03  0.17130000000E+03 0.  1.
       11    1    1    2    0    0  0.30935628790E-02  0.40300227795E-02  0.21731944646E+00  0.21737942462E+00  0.51109989000E-03 0.  1.
     -623    1    1    2    0    0  0.19872492180E-05 -0.21231312863E-03  0.13005744415E-03  0.17130000000E+03  0.17130000000E+03 0.  1.
      622    1    1    2    0    0 -0.30955501282E-02 -0.38177096509E-02  0.37825504627E+01  0.37826205744E+01  0.22500000000E-01 0.  1.
</event>
<event>
 5   0  0.9908800E+08  0.9118800E+02  0.7818608E-02  0.1180000E+00
       11   -1    0    0    0    0  0.00000000000E+00  0.00000000000E+00  0.39999999673E+01  0.40000000000E+01  0.51109989000E-03 0. -1.
     -623   -1    0    0    0    0  0.00000000000E+00  0.00000000000E+00  0.12525980253E-10  0.17130000000E+03  0.17130000000E+03 0.  1.
       11    1    1    2    0    0 -0.46039206739E-02 -0.33744952361E-02  0.67336675763E+00  0.67339114548E+00  0.51109989000E-03 0. -1.
     -623    1    1    2    0    0  0.40878327706E-02 -0.23759487961E-02  0.10552268396E-03  0.17130000007E+03  0.17130000000E+03 0.  1.
      622    1    1    2    0    0  0.51608790336E-03  0.57504440322E-02  0.33265276870E+01  0.33266087892E+01  0.22500000000E-01 0. -1.
</event>
<event>
 5   0  0.9908800E+08  0.9118800E+02  0.7818608E-02  0.1180000E+00
       11   -1    0    0    0    0  0.00000000000E+00  0.00000000000E+00  0.39999999673E+01  0.40000000000E+01  0.51109989000E-03 0. -1.
     -623   -1    0    0    0    0  0.00000000000E+00  0.00000000000E+00  0.12525980253E-10  0.17130000000E+03  0.17130000000E+03 0. -1.
       11    1    1    2    0    0  0.48187291392E-02 -0.22493300608E-02  0.10889745367E+01  0.10889876411E+01  0.51109989000E-03 0. -1.
     -623    1    1    2    0    0 -0.26951431004E-02 -0.60775896797E-02  0.11284090541E-03  0.17130000013E+03  0.17130000000E+03 0. -1.
      622    1    1    2    0    0 -0.21235860388E-02  0.83269197405E-02  0.29109125898E+01  0.29110122299E+01  0.22500000000E-01 0. -1.
</event>
<event>
 5   0  0.9908800E+08  0.9118800E+02  0.7818608E-02  0.1180000E+00
       11   -1    0    0    0    0  0.00000000000E+00  0.00000000000E+00  0.39999999673E+01  0.40000000000E+01  0.51109989000E-03 0.  1.
     -623   -1    0    0    0    0  0.00000000000E+00  0.00000000000E+00  0.12525980253E-10  0.17130000000E+03  0.17130000000E+03 0. -1.
       11    1    1    2    0    0 -0.90537191981E-03  0.64839139142E-03  0.67897730531E-01  0.67908785463E-01  0.51109989000E-03 0.  1.
     -623    1    1    2    0    0  0.31991407385E-04 -0.12172660063E-03  0.75529292273E-04  0.17130000000E+03  0.17130000000E+03 0. -1.
      622    1    1    2    0    0  0.87338051243E-03 -0.52666479078E-03  0.39320267075E+01  0.39320912145E+01  0.22500000000E-01 0.  1.
</event>
<event>
 5   0  0.9908800E+08  0.9118800E+02  0.7818608E-02  0.1180000E+00
       11   -1    0    0    0    0  0.00000000000E+00  0.00000000000E+00  0.39999999673E+01  0.40000000000E+01  0.51109989000E-03 0. -1.
     -623   -1    0    0    0    0  0.00000000000E+00  0.00000000000E+00  0.12525980253E-10  0.17130000000E+03  0.17130000000E+03 0. -1.
       11    1    1    2    0    0 -0.85558991133E-03  0.86099854365E-02  0.11343011345E+00  0.11376078298E+00  0.51109989000E-03 0. -1.
     -623    1    1    2    0    0  0.74004195070E-03  0.27518148183E-03  0.40593244451E-03  0.17130000000E+03  0.17130000000E+03 0. -1.
      622    1    1    2    0    0  0.11554796061E-03 -0.88851669184E-02  0.38861639216E+01  0.38862392149E+01  0.22500000000E-01 0. -1.
</event>
<event>
 5   0  0.9908800E+08  0.9118800E+02  0.7818608E-02  0.1180000E+00
       11   -1    0    0    0    0  0.00000000000E+00  0.00000000000E+00  0.39999999673E+01  0.40000000000E+01  0.51109989000E-03 0. -1.
     -623   -1    0    0    0    0  0.00000000000E+00  0.00000000000E+00  0.12525980253E-10  0.17130000000E+03  0.17130000000E+03 0. -1.
       11    1    1    2    0    0 -0.38838754072E-03  0.84476652294E-03  0.18203470140E-01  0.18234363811E-01  0.51109989000E-03 0. -1.
     -623    1    1    2    0    0  0.10754902523E-02 -0.43632853331E-03  0.94516774304E-04  0.17130000000E+03  0.17130000000E+03 0. -1.
      622    1    1    2    0    0 -0.68710271201E-03 -0.40843798946E-03  0.39817019820E+01  0.39817656338E+01  0.22500000000E-01 0. -1.
</event>
<event>
 5   0  0.9908800E+08  0.9118800E+02  0.7818608E-02  0.1180000E+00
       11   -1    0    0    0    0  0.00000000000E+00  0.00000000000E+00  0.39999999673E+01  0.40000000000E+01  0.51109989000E-03 0.  1.
     -623   -1    0    0    0    0  0.00000000000E+00  0.00000000000E+00  0.12525980253E-10  0.17130000000E+03  0.17130000000E+03 0.  1.
       11    1    1    2    0    0  0.63948640042E-02  0.44926908380E-03  0.18917050803E+00  0.18927978883E+00  0.51109989000E-03 0.  1.
     -623    1    1    2    0    0 -0.70465414446E-04  0.36535206136E-04  0.18095245843E-03  0.17130000000E+03  0.17130000000E+03 0.  1.
      622    1    1    2    0    0 -0.63243985898E-02 -0.48580428991E-03  0.38106485044E+01  0.38107202086E+01  0.22500000000E-01 0.  0.
</event>
<event>
 5   0  0.9908800E+08  0.9118800E+02  0.7818608E-02  0.1180000E+00
       11   -1    0    0    0    0  0.00000000000E+00  0.00000000000E+00  0.39999999673E+01  0.40000000000E+01  0.51109989000E-03 0.  1.
     -623   -1    0    0    0    0  0.00000000000E+00  0.00000000000E+00  0.12525980253E-10  0.17130000000E+03  0.17130000000E+03 0.  1.
       11    1    1    2    0    0 -0.30974813577E-04  0.72587947383E-03  0.38961353894E-02  0.39961174307E-02  0.51109989000E-03 0. -1.
     -623    1    1    2    0    0 -0.52345239703E-03  0.36842283281E-03  0.16348401221E-03  0.17130000000E+03  0.17130000000E+03 0.  1.
      622    1    1    2    0    0  0.55442721073E-03 -0.10943023067E-02  0.39959403489E+01  0.39960038822E+01  0.22500000000E-01 0.  1.
</event>
<event>
 5   0  0.9908800E+08  0.9118800E+02  0.7818608E-02  0.1180000E+00
       11   -1    0    0    0    0  0.00000000000E+00  0.00000000000E+00  0.39999999673E+01  0.40000000000E+01  0.51109989000E-03 0. -1.
     -623   -1    0    0    0    0  0.00000000000E+00  0.00000000000E+00  0.12525980253E-10  0.17130000000E+03  0.17130000000E+03 0. -1.
       11    1    1    2    0    0  0.10600966633E-02 -0.12550751826E-02  0.26171556009E-01  0.26228049597E-01  0.51109989000E-03 0. -1.
     -623    1    1    2    0    0  0.36360257237E-03  0.70209159154E-03  0.12045576848E-03  0.17130000000E+03  0.17130000000E+03 0. -1.
      622    1    1    2    0    0 -0.14236992358E-02  0.55298359080E-03  0.39737079571E+01  0.39737719501E+01  0.22500000000E-01 0. -1.
</event>
<event>
 5   0  0.9908800E+08  0.9118800E+02  0.7818608E-02  0.1180000E+00
       11   -1    0    0    0    0  0.00000000000E+00  0.00000000000E+00  0.39999999673E+01  0.40000000000E+01  0.51109989000E-03 0. -1.
     -623   -1    0    0    0    0  0.00000000000E+00  0.00000000000E+00  0.12525980253E-10  0.17130000000E+03  0.17130000000E+03 0.  1.
       11    1    1    2    0    0  0.48917492865E-03  0.24743957984E-03  0.64994031516E-02  0.65424752870E-02  0.51109989000E-03 0. -1.
     -623    1    1    2    0    0 -0.20723397891E-03  0.93874554766E-04  0.10644964487E-03  0.17130000000E+03  0.17130000000E+03 0.  1.
      622    1    1    2    0    0 -0.28194094978E-03 -0.34131413459E-03  0.39933941137E+01  0.39934575237E+01  0.22500000000E-01 0. -1.
</event>
<event>
 5   0  0.9908800E+08  0.9118800E+02  0.7818608E-02  0.1180000E+00
       11   -1    0    0    0    0  0.00000000000E+00  0.00000000000E+00  0.39999999673E+01  0.40000000000E+01  0.51109989000E-03 0.  1.
     -623   -1    0    0    0    0  0.00000000000E+00  0.00000000000E+00  0.12525980253E-10  0.17130000000E+03  0.17130000000E+03 0.  1.
       11    1    1    2    0    0 -0.39764766301E-02 -0.25625020749E-02  0.88720045239E+00  0.88721321154E+00  0.51109989000E-03 0.  1.
     -623    1    1    2    0    0 -0.16553145742E-02  0.13516781449E-02  0.99389020171E-04  0.17130000001E+03  0.17130000000E+03 0.  1.
      622    1    1    2    0    0  0.56317912053E-02  0.12108239293E-02  0.31127001281E+01  0.31127867773E+01  0.22500000000E-01 0.  1.
</event>
<event>
 5   0  0.9908800E+08  0.9118800E+02  0.7818608E-02  0.1180000E+00
       11   -1    0    0    0    0  0.00000000000E+00  0.00000000000E+00  0.39999999673E+01  0.40000000000E+01  0.51109989000E-03 0. -1.
     -623   -1    0    0    0    0  0.00000000000E+00  0.00000000000E+00  0.12525980253E-10  0.17130000000E+03  0.17130000000E+03 0.  1.
       11    1    1    2    0    0 -0.27468498620E-02 -0.16995301613E-01  0.74022604405E+00  0.74042639268E+00  0.51109989000E-03 0. -1.
     -623    1    1    2    0    0  0.64417216188E-03 -0.79118373230E-03  0.32718354081E-03  0.17130000000E+03  0.17130000000E+03 0.  1.
      622    1    1    2    0    0  0.21026777002E-02  0.17786485346E-01  0.32594467392E+01  0.32595736034E+01  0.22500000000E-01 0.  0.
</event>
<event>
 5   0  0.9908800E+08  0.9118800E+02  0.7818608E-02  0.1180000E+00
       11   -1    0    0    0    0  0.00000000000E+00  0.00000000000E+00  0.39999999673E+01  0.40000000000E+01  0.51109989000E-03 0.  1.
     -623   -1    0    0    0    0  0.00000000000E+00  0.00000000000E+00  0.12525980253E-10  0.17130000000E+03  0.17130000000E+03 0. -1.
       11    1    1    2    0    0  0.21220412844E-02 -0.79810706921E-03  0.19380198977E-01  0.19519051452E-01  0.51109989000E-03 0.  1.
     -623    1    1    2    0    0 -0.37961819987E-04  0.25900896778E-03  0.20299432656E-03  0.17130000000E+03  0.17130000000E+03 0. -1.
      622    1    1    2    0    0 -0.20840794644E-02  0.53909810137E-03  0.39804167750E+01  0.39804809491E+01  0.22500000000E-01 0.  1.
</event>
<event>
 5   0  0.9908800E+08  0.9118800E+02  0.7818608E-02  0.1180000E+00
       11   -1    0    0    0    0  0.00000000000E+00  0.00000000000E+00  0.39999999673E+01  0.40000000000E+01  0.51109989000E-03 0. -1.
     -623   -1    0    0    0    0  0.00000000000E+00  0.00000000000E+00  0.12525980253E-10  0.17130000000E+03  0.17130000000E+03 0. -1.
       11    1    1    2    0    0  0.24697462553E-02  0.46432154298E-03  0.26744124267E+00  0.26745353755E+00  0.51109989000E-03 0. -1.
     -623    1    1    2    0    0 -0.34255094020E-03  0.10099795536E-03  0.80727846037E-04  0.17130000000E+03  0.17130000000E+03 0. -1.
      622    1    1    2    0    0 -0.21271953148E-02 -0.56531949843E-03  0.37324780006E+01  0.37325464658E+01  0.22500000000E-01 0. -1.
</event>
<event>
 5   0  0.9908800E+08  0.9118800E+02  0.7818608E-02  0.1180000E+00
       11   -1    0    0    0    0  0.00000000000E+00  0.00000000000E+00  0.39999999673E+01  0.40000000000E+01  0.51109989000E-03 0.  1.
     -623   -1    0    0    0    0  0.00000000000E+00  0.00000000000E+00  0.12525980253E-10  0.17130000000E+03  0.17130000000E+03 0. -1.
       11    1    1    2    0    0  0.59546325259E-03 -0.12770421051E-04  0.29657362639E-01  0.29667745472E-01  0.51109989000E-03 0.  1.
     -623    1    1    2    0    0  0.47006555487E-03  0.13354984859E-02  0.74474002328E-04  0.17130000001E+03  0.17130000000E+03 0. -1.
      622    1    1    2    0    0 -0.10655288077E-02 -0.13227280655E-02  0.39702681328E+01  0.39703322507E+01  0.22500000000E-01 0.  1.
</event>
<event>
 5   0  0.9908800E+08  0.9118800E+02  0.7818608E-02  0.1180000E+00
       11   -1    0    0    0    0  0.00000000000E+00  0.00000000000E+00  0.39999999673E+01  0.40000000000E+01  0.51109989000E-03 0.  1.
     -623   -1    0    0    0    0  0.00000000000E+00  0.00000000000E+00  0.12525980253E-10  0.17130000000E+03  0.17130000000E+03 0. -1.
       11    1    1    2    0    0 -0.19614374570E-02 -0.68300212328E-03  0.71439608571E-01  0.71471621114E-01  0.51109989000E-03 0.  1.
     -623    1    1    2    0    0  0.20580195598E-02 -0.35566674452E-03  0.96564211865E-04  0.17130000001E+03  0.17130000000E+03 0. -1.
      622    1    1    2    0    0 -0.96582103608E-04  0.10386688679E-02  0.39284637962E+01  0.39285283677E+01  0.22500000000E-01 0.  1.
</event>
<event>
 5   0  0.9908800E+08  0.9118800E+02  0.7818608E-02  0.1180000E+00
       11   -1    0    0    0    0  0.00000000000E+00  0.00000000000E+00  0.39999999673E+01  0.40000000000E+01  0.51109989000E-03 0. -1.
     -623   -1    0    0    0    0  0.00000000000E+00  0.00000000000E+00  0.12525980253E-10  0.17130000000E+03  0.17130000000E+03 0.  1.
       11    1    1    2    0    0  0.17615638268E-03 -0.12359482331E-02  0.75827264624E-02  0.77017894554E-02  0.51109989000E-03 0. -1.
     -623    1    1    2    0    0  0.22641644472E-03 -0.11419879750E-03  0.18268307408E-03  0.17130000000E+03  0.17130000000E+03 0.  1.
      622    1    1    2    0    0 -0.40257282740E-03  0.13501470306E-02  0.39922345578E+01  0.39922982103E+01  0.22500000000E-01 0. -1.
</event>
<event>
 5   0  0.9908800E+08  0.9118800E+02  0.7818608E-02  0.1180000E+00
       11   -1    0    0    0    0  0.00000000000E+00  0.00000000000E+00  0.39999999673E+01  0.40000000000E+01  0.51109989000E-03 0.  1.
     -623   -1    0    0    0    0  0.00000000000E+00  0.00000000000E+00  0.12525980253E-10  0.17130000000E+03  0.17130000000E+03 0. -1.
       11    1    1    2    0    0  0.11145995359E-01 -0.21769742815E-02  0.87951747400E+00  0.87959093943E+00  0.51109989000E-03 0.  1.
     -623    1    1    2    0    0 -0.41053400802E-02 -0.34401569982E-02  0.16763597680E-03  0.17130000008E+03  0.17130000000E+03 0. -1.
      622    1    1    2    0    0 -0.70406552790E-02  0.56171312796E-02  0.31203148572E+01  0.31204089765E+01  0.22500000000E-01 0.  1.
</event>
<event>
 5   0  0.9908800E+08  0.9118800E+02  0.7818608E-02  0.1180000E+00
       11   -1    0    0    0    0  0.00000000000E+00  0.00000000000E+00  0.39999999673E+01  0.40000000000E+01  0.51109989000E-03 0.  1.
     -623   -1    0    0    0    0  0.00000000000E+00  0.00000000000E+00  0.12525980253E-10  0.17130000000E+03  0.17130000000E+03 0.  1.
       11    1    1    2    0    0 -0.77504514913E-02  0.66451729320E-02  0.49188684495E+00  0.49199304596E+00  0.51109989000E-03 0.  1.
     -623    1    1    2    0    0  0.61908270787E-03  0.59389141381E-03  0.19304589006E-03  0.17130000000E+03  0.17130000000E+03 0.  1.
      622    1    1    2    0    0  0.71313687834E-02 -0.72390643458E-02  0.35079200765E+01  0.35080069518E+01  0.22500000000E-01 0.  1.
</event>
<event>
 5   0  0.9908800E+08  0.9118800E+02  0.7818608E-02  0.1180000E+00
       11   -1    0    0    0    0  0.00000000000E+00  0.00000000000E+00  0.39999999673E+01  0.40000000000E+01  0.51109989000E-03 0. -1.
     -623   -1    0    0    0    0  0.00000000000E+00  0.00000000000E+00  0.12525980253E-10  0.17130000000E+03  0.17130000000E+03 0. -1.
       11    1    1    2    0    0 -0.24383345105E-01  0.12778017592E-01  0.70958901250E-01  0.76113416293E-01  0.51109989000E-03 0. -1.
     -623    1    1    2    0    0  0.13863981202E-01 -0.82592208939E-03  0.52519392739E-02  0.17130000064E+03  0.17130000000E+03 0. -1.
      622    1    1    2    0    0  0.10519363903E-01 -0.11952095503E-01  0.39237891268E+01  0.39238859402E+01  0.22500000000E-01 0. -1.
</event>
<event>
 5   0  0.9908800E+08  0.9118800E+02  0.7818608E-02  0.1180000E+00
       11   -1    0    0    0    0  0.00000000000E+00  0.00000000000E+00  0.39999999673E+01  0.40000000000E+01  0.51109989000E-03 0.  1.
     -623   -1    0    0    0    0  0.00000000000E+00  0.00000000000E+00  0.12525980253E-10  0.17130000000E+03  0.17130000000E+03 0.  1.
       11    1    1    2    0    0 -0.48887092821E-02  0.23851864040E-02  0.15583677985E+00  0.15593252312E+00  0.51109989000E-03 0.  1.
     -623    1    1    2    0    0  0.70887394306E-02 -0.29656783630E-04  0.16305745409E-03  0.17130000015E+03  0.17130000000E+03 0.  1.
      622    1    1    2    0    0 -0.22000301485E-02 -0.23555296204E-02  0.38440001301E+01  0.38440673301E+01  0.22500000000E-01 0.  1.
</event>
<event>
 5   0  0.9908800E+08  0.9118800E+02  0.7818608E-02  0.1180000E+00
       11   -1    0    0    0    0  0.00000000000E+00  0.00000000000E+00  0.39999999673E+01  0.40000000000E+01  0.51109989000E-03 0. -1.
     -623   -1    0    0    0    0  0.00000000000E+00  0.00000000000E+00  0.12525980253E-10  0.17130000000E+03  0.17130000000E+03 0. -1.
       11    1    1    2    0    0 -0.61115661067E-02 -0.17815103088E-01  0.35192737129E+00  0.35243136215E+00  0.51109989000E-03 0. -1.
     -623    1    1    2    0    0  0.28498314278E-01 -0.40767594716E-02  0.71017378166E-03  0.17130000242E+03  0.17130000000E+03 0. -1.
      622    1    1    2    0    0 -0.22386748172E-01  0.21891862559E-01  0.36473624223E+01  0.36475662173E+01  0.22500000000E-01 0. -1.
</event>
<event>
 5   0  0.9908800E+08  0.9118800E+02  0.7818608E-02  0.1180000E+00
       11   -1    0    0    0    0  0.00000000000E+00  0.00000000000E+00  0.39999999673E+01  0.40000000000E+01  0.51109989000E-03 0. -1.
     -623   -1    0    0    0    0  0.00000000000E+00  0.00000000000E+00  0.12525980253E-10  0.17130000000E+03  0.17130000000E+03 0. -1.
       11    1    1    2    0    0 -0.94609212819E-02 -0.15107652426E-01  0.88379170754E+00  0.88397160233E+00  0.51109989000E-03 0. -1.
     -623    1    1    2    0    0  0.30701806427E-02  0.23037282569E-02  0.29400017551E-03  0.17130000004E+03  0.17130000000E+03 0. -1.
      622    1    1    2    0    0  0.63907406392E-02  0.12803924170E-01  0.31159142596E+01  0.31160283544E+01  0.22500000000E-01 0.  0.
</event>
<event>
 5   0  0.9908800E+08  0.9118800E+02  0.7818608E-02  0.1180000E+00
       11   -1    0    0    0    0  0.00000000000E+00  0.00000000000E+00  0.39999999673E+01  0.40000000000E+01  0.51109989000E-03 0. -1.
     -623   -1    0    0    0    0  0.00000000000E+00  0.00000000000E+00  0.12525980253E-10  0.17130000000E+03  0.17130000000E+03 0.  1.
       11    1    1    2    0    0 -0.11392981854E-03 -0.28912415720E-03  0.22448475268E-01  0.22456443103E-01  0.51109989000E-03 0. -1.
     -623    1    1    2    0    0  0.14240230887E-05 -0.83717931464E-04  0.71593329147E-04  0.17130000000E+03  0.17130000000E+03 0.  1.
      622    1    1    2    0    0  0.11250579546E-03  0.37284208867E-03  0.39774798988E+01  0.39775435569E+01  0.22500000000E-01 0. -1.
</event>
<event>
 5   0  0.9908800E+08  0.9118800E+02  0.7818608E-02  0.1180000E+00
       11   -1    0    0    0    0  0.00000000000E+00  0.00000000000E+00  0.39999999673E+01  0.40000000000E+01  0.51109989000E-03 0. -1.
     -623   -1    0    0    0    0  0.00000000000E+00  0.00000000000E+00  0.12525980253E-10  0.17130000000E+03  0.17130000000E+03 0. -1.
       11    1    1    2    0    0 -0.31636885089E-02 -0.10115519624E-01  0.36263861670E+00  0.36279382603E+00  0.51109989000E-03 0. -1.
     -623    1    1    2    0    0 -0.59236286410E-03  0.21422793991E-02  0.23546400281E-03  0.17130000001E+03  0.17130000000E+03 0. -1.
      622    1    1    2    0    0  0.37560513731E-02  0.79732402246E-02  0.36371258869E+01  0.36372061596E+01  0.22500000000E-01 0. -1.
</event>
<event>
 5   0  0.9908800E+08  0.9118800E+02  0.7818608E-02  0.1180000E+00
       11   -1    0    0    0    0  0.00000000000E+00  0.00000000000E+00  0.39999999673E+01  0.40000000000E+01  0.51109989000E-03 0. -1.
     -623   -1    0    0    0    0  0.00000000000E+00  0.00000000000E+00  0.12525980253E-10  0.17130000000E+03  0.17130000000E+03 0. -1.
       11    1    1    2    0    0  0.77887134032E-04 -0.42476459585E-03  0.37567754992E-01  0.37573713243E-01  0.51109989000E-03 0. -1.
     -623    1    1    2    0    0 -0.18519594387E-05  0.59404990185E-04  0.69825038283E-04  0.17130000000E+03  0.17130000000E+03 0. -1.
      622    1    1    2    0    0 -0.76035174593E-04  0.36535960567E-03  0.39623623873E+01  0.39624262867E+01  0.22500000000E-01 0. -1.
</event>
<event>
 5   0  0.9908800E+08  0.9118800E+02  0.7818608E-02  0.1180000E+00
       11   -1    0    0    0    0  0.00000000000E+00  0.00000000000E+00  0.39999999673E+01  0.40000000000E+01  0.51109989000E-03 0. -1.
     -623   -1    0    0    0    0  0.00000000000E+00  0.00000000000E+00  0.12525980253E-10  0.17130000000E+03  0.17130000000E+03 0. -1.
       11    1    1    2    0    0  0.16017715838E-02  0.26981046952E-02  0.38239107646E+00  0.38240429132E+00  0.51109989000E-03 0. -1.
     -623    1    1    2    0    0  0.66393609934E-03 -0.45455043166E-03  0.84560551220E-04  0.17130000000E+03  0.17130000000E+03 0. -1.
      622    1    1    2    0    0 -0.22657076834E-02 -0.22435542634E-02  0.36175243317E+01  0.36175957081E+01  0.22500000000E-01 0. -1.
</event>
<event>
 5   0  0.9908800E+08  0.9118800E+02  0.7818608E-02  0.1180000E+00
       11   -1    0    0    0    0  0.00000000000E+00  0.00000000000E+00  0.39999999673E+01  0.40000000000E+01  0.51109989000E-03 0. -1.
     -623   -1    0    0    0    0  0.00000000000E+00  0.00000000000E+00  0.12525980253E-10  0.17130000000E+03  0.17130000000E+03 0. -1.
       11    1    1    2    0    0 -0.32847683725E-02 -0.10485781670E-01  0.65600824394E+00  0.65610046384E+00  0.51109989000E-03 0. -1.
     -623    1    1    2    0    0 -0.13252874130E-02  0.80871058915E-03  0.18507353097E-03  0.17130000001E+03  0.17130000000E+03 0. -1.
      622    1    1    2    0    0  0.46100557858E-02  0.96770710802E-02  0.33438066508E+01  0.33438995299E+01  0.22500000000E-01 0. -1.
</event>
<event>
 5   0  0.9908800E+08  0.9118800E+02  0.7818608E-02  0.1180000E+00
       11   -1    0    0    0    0  0.00000000000E+00  0.00000000000E+00  0.39999999673E+01  0.40000000000E+01  0.51109989000E-03 0. -1.
     -623   -1    0    0    0    0  0.00000000000E+00  0.00000000000E+00  0.12525980253E-10  0.17130000000E+03  0.17130000000E+03 0. -1.
       11    1    1    2    0    0  0.48446186126E-01  0.40754039035E-02  0.47710150482E+00  0.47957246479E+00  0.51109989000E-03 0. -1.
     -623    1    1    2    0    0 -0.37127578449E-01 -0.87991065140E-02  0.25684637115E-02  0.17130000427E+03  0.17130000000E+03 0. -1.
      622    1    1    2    0    0 -0.11318607677E-01  0.47237026105E-02  0.35203299988E+01  0.35204232664E+01  0.22500000000E-01 0. -1.
</event>
<event>
 5   0  0.9908800E+08  0.9118800E+02  0.7818608E-02  0.1180000E+00
       11   -1    0    0    0    0  0.00000000000E+00  0.00000000000E+00  0.39999999673E+01  0.40000000000E+01  0.51109989000E-03 0.  1.
     -623   -1    0    0    0    0  0.00000000000E+00  0.00000000000E+00  0.12525980253E-10  0.17130000000E+03  0.17130000000E+03 0. -1.
       11    1    1    2    0    0 -0.10115576323E-02 -0.75220910854E-02  0.38437351685E-01  0.39182857611E-01  0.51109989000E-03 0.  1.
     -623    1    1    2    0    0 -0.63378414649E-03  0.10547806409E-01  0.81120636350E-03  0.17130000033E+03  0.17130000000E+03 0. -1.
      622    1    1    2    0    0  0.16453417787E-02 -0.30257153235E-02  0.39607514093E+01  0.39608168146E+01  0.22500000000E-01 0.  1.
</event>
<event>
 5   0  0.9908800E+08  0.9118800E+02  0.7818608E-02  0.1180000E+00
       11   -1    0    0    0    0  0.00000000000E+00  0.00000000000E+00  0.39999999673E+01  0.40000000000E+01  0.51109989000E-03 0.  1.
     -623   -1    0    0    0    0  0.00000000000E+00  0.00000000000E+00  0.12525980253E-10  0.17130000000E+03  0.17130000000E+03 0.  1.
       11    1    1    2    0    0  0.55158202082E-02  0.51709891084E-02  0.67170064540E-01  0.67596169968E-01  0.51109989000E-03 0.  1.
     -623    1    1    2    0    0  0.42288653839E-03  0.36203173155E-03  0.49882099734E-03  0.17130000000E+03  0.17130000000E+03 0.  1.
      622    1    1    2    0    0 -0.59387067466E-02 -0.55330208400E-02  0.39323310822E+01  0.39324038288E+01  0.22500000000E-01 0.  1.
</event>
<event>
 5   0  0.9908800E+08  0.9118800E+02  0.7818608E-02  0.1180000E+00
       11   -1    0    0    0    0  0.00000000000E+00  0.00000000000E+00  0.39999999673E+01  0.40000000000E+01  0.51109989000E-03 0. -1.
     -623   -1    0    0    0    0  0.00000000000E+00  0.00000000000E+00  0.12525980253E-10  0.17130000000E+03  0.17130000000E+03 0.  1.
       11    1    1    2    0    0  0.20501791624E-03 -0.15197329004E-01  0.67666837763E+00  0.67683923892E+00  0.51109989000E-03 0. -1.
     -623    1    1    2    0    0 -0.96994624655E-03 -0.39347476263E-03  0.28366457799E-03  0.17130000000E+03  0.17130000000E+03 0.  1.
      622    1    1    2    0    0  0.76492833085E-03  0.15590803767E-01  0.33230479274E+01  0.33231607599E+01  0.22500000000E-01 0. -1.
</event>
<event>
 5   0  0.9908800E+08  0.9118800E+02  0.7818608E-02  0.1180000E+00
       11   -1    0    0    0    0  0.00000000000E+00  0.00000000000E+00  0.39999999673E+01  0.40000000000E+01  0.51109989000E-03 0. -1.
     -623   -1    0    0    0    0  0.00000000000E+00  0.00000000000E+00  0.12525980253E-10  0.17130000000E+03  0.17130000000E+03 0.  1.
       11    1    1    2    0    0  0.13604059081E-01 -0.10157828021E-02  0.40342483430E+00  0.40365574490E+00  0.51109989000E-03 0. -1.
     -623    1    1    2    0    0 -0.82941925128E-02  0.10431271343E-01  0.31802681164E-03  0.17130000052E+03  0.17130000000E+03 0.  1.
      622    1    1    2    0    0 -0.53098665676E-02 -0.94154885416E-02  0.35962571067E+01  0.35963437369E+01  0.22500000000E-01 0. -1.
</event>
<event>
 5   0  0.9908800E+08  0.9118800E+02  0.7818608E-02  0.1180000E+00
       11   -1    0    0    0    0  0.00000000000E+00  0.00000000000E+00  0.39999999673E+01  0.40000000000E+01  0.51109989000E-03 0.  1.
     -623   -1    0    0    0    0  0.00000000000E+00  0.00000000000E+00  0.12525980253E-10  0.17130000000E+03  0.17130000000E+03 0. -1.
       11    1    1    2    0    0  0.77913406694E-02  0.61718073049E-02  0.11346046524E+00  0.11389615704E+00  0.51109989000E-03 0.  1.
     -623    1    1    2    0    0  0.45264418594E-03 -0.95240837756E-02  0.51125224832E-03  0.17130000027E+03  0.17130000000E+03 0. -1.
      622    1    1    2    0    0 -0.82439848554E-02  0.33522764707E-02  0.38860282499E+01  0.38861035768E+01  0.22500000000E-01 0.  1.
</event>
<event>
 5   0  0.9908800E+08  0.9118800E+02  0.7818608E-02  0.1180000E+00
       11   -1    0    0    0    0  0.00000000000E+00  0.00000000000E+00  0.39999999673E+01  0.40000000000E+01  0.51109989000E-03 0.  1.
     -623   -1    0    0    0    0  0.00000000000E+00  0.00000000000E+00  0.12525980253E-10  0.17130000000E+03  0.17130000000E+03 0. -1.
       11    1    1    2    0    0  0.18262266681E-03  0.84473072781E-03  0.23297149261E-01  0.23318775823E-01  0.51109989000E-03 0.  1.
     -623    1    1    2    0    0  0.16168318056E-03 -0.20384441741E-04  0.85347201265E-04  0.17130000000E+03  0.17130000000E+03 0. -1.
      622    1    1    2    0    0 -0.34430584737E-03 -0.82434628606E-03  0.39766174709E+01  0.39766812241E+01  0.22500000000E-01 0.  1.
</event>
<event>
 5   0  0.9908800E+08  0.9118800E+02  0.7818608E-02  0.1180000E+00
       11   -1    0    0    0    0  0.00000000000E+00  0.00000000000E+00  0.39999999673E+01  0.40000000000E+01  0.51109989000E-03 0. -1.
     -623   -1    0    0    0    0  0.00000000000E+00  0.00000000000E+00  0.12525980253E-10  0.17130000000E+03  0.17130000000E+03 0. -1.
       11    1    1    2    0    0 -0.32647002872E-02  0.14780079422E-01  0.31385882032E+00  0.31422401138E+00  0.51109989000E-03 0. -1.
     -623    1    1    2    0    0 -0.25946663038E-03  0.46270549548E-03  0.46704108909E-03  0.17130000000E+03  0.17130000000E+03 0. -1.
      622    1    1    2    0    0  0.35241669176E-02 -0.15242784917E-01  0.36856741060E+01  0.36857759872E+01  0.22500000000E-01 0. -1.
</event>
<event>
 5   0  0.9908800E+08  0.9118800E+02  0.7818608E-02  0.1180000E+00
       11   -1    0    0    0    0  0.00000000000E+00  0.00000000000E+00  0.39999999673E+01  0.40000000000E+01  0.51109989000E-03 0.  1.
     -623   -1    0    0    0    0  0.00000000000E+00  0.00000000000E+00  0.12525980253E-10  0.17130000000E+03  0.17130000000E+03 0.  1.
       11    1    1    2    0    0  0.36906544759E-02 -0.16541226176E-02  0.27641851501E+00  0.27644857337E+00  0.51109989000E-03 0.  1.
     -623    1    1    2    0    0 -0.72649597741E-03  0.23906626923E-02  0.99276731227E-04  0.17130000002E+03  0.17130000000E+03 0.  1.
      622    1    1    2    0    0 -0.29641584980E-02 -0.73654007622E-03  0.37234821783E+01  0.37235514110E+01  0.22500000000E-01 0.  1.
</event>
<event>
 5   0  0.9908800E+08  0.9118800E+02  0.7818608E-02  0.1180000E+00
       11   -1    0    0    0    0  0.00000000000E+00  0.00000000000E+00  0.39999999673E+01  0.40000000000E+01  0.51109989000E-03 0.  1.
     -623   -1    0    0    0    0  0.00000000000E+00  0.00000000000E+00  0.12525980253E-10  0.17130000000E+03  0.17130000000E+03 0. -1.
       11    1    1    2    0    0  0.93232690342E-03  0.36686583033E-03  0.38640207354E-01  0.38656573419E-01  0.51109989000E-03 0.  1.
     -623    1    1    2    0    0  0.14957299738E-03  0.15187148628E-03  0.80414577060E-04  0.17130000000E+03  0.17130000000E+03 0. -1.
      622    1    1    2    0    0 -0.10818999008E-02 -0.51873731662E-03  0.39612793454E+01  0.39613434264E+01  0.22500000000E-01 0.  1.
</event>
<event>
 5   0  0.9908800E+08  0.9118800E+02  0.7818608E-02  0.1180000E+00
       11   -1    0    0    0    0  0.00000000000E+00  0.00000000000E+00  0.39999999673E+01  0.40000000000E+01  0.51109989000E-03 0.  1.
     -623   -1    0    0    0    0  0.00000000000E+00  0.00000000000E+00  0.12525980253E-10  0.17130000000E+03  0.17130000000E+03 0.  1.
       11    1    1    2    0    0 -0.99266409916E-03  0.22921003003E-02  0.15452126364E+00  0.15454229598E+00  0.51109989000E-03 0.  1.
     -623    1    1    2    0    0 -0.28233715844E-02 -0.39165440757E-02  0.89129303943E-04  0.17130000007E+03  0.17130000000E+03 0.  1.
      622    1    1    2    0    0  0.38160356835E-02  0.16244437754E-02  0.38453895744E+01  0.38454576360E+01  0.22500000000E-01 0.  1.
</event>
<event>
 5   0  0.9908800E+08  0.9118800E+02  0.7818608E-02  0.1180000E+00
       11   -1    0    0    0    0  0.00000000000E+00  0.00000000000E+00  0.39999999673E+01  0.40000000000E+01  0.51109989000E-03 0.  1.
     -623   -1    0    0    0    0  0.00000000000E+00  0.00000000000E+00  0.12525980253E-10  0.17130000000E+03  0.17130000000E+03 0.  1.
       11    1    1    2    0    0  0.16040476416E-03  0.10012601139E-02  0.26267666786E-01  0.26292200201E-01  0.51109989000E-03 0.  1.
     -623    1    1    2    0    0  0.86010961618E-04 -0.18490685865E-03  0.88292879980E-04  0.17130000000E+03  0.17130000000E+03 0.  1.
      622    1    1    2    0    0 -0.24641572578E-03 -0.81635325528E-03  0.39736440077E+01  0.39737077997E+01  0.22500000000E-01 0.  1.
</event>
<event>
 5   0  0.9908800E+08  0.9118800E+02  0.7818608E-02  0.1180000E+00
       11   -1    0    0    0    0  0.00000000000E+00  0.00000000000E+00  0.39999999673E+01  0.40000000000E+01  0.51109989000E-03 0. -1.
     -623   -1    0    0    0    0  0.00000000000E+00  0.00000000000E+00  0.12525980253E-10  0.17130000000E+03  0.17130000000E+03 0. -1.
       11    1    1    2    0    0 -0.65902443803E-02  0.87821412193E-02  0.67101278891E-01  0.67995589392E-01  0.51109989000E-03 0. -1.
     -623    1    1    2    0    0  0.59637761312E-02 -0.32065406039E-02  0.96279357238E-03  0.17130000014E+03  0.17130000000E+03 0. -1.
      622    1    1    2    0    0  0.62646824914E-03 -0.55756006154E-02  0.39319358949E+01  0.39320042741E+01  0.22500000000E-01 0. -1.
</event>
<event>
 5   0  0.9908800E+08  0.9118800E+02  0.7818608E-02  0.1180000E+00
       11   -1    0    0    0    0  0.00000000000E+00  0.00000000000E+00  0.39999999673E+01  0.40000000000E+01  0.51109989000E-03 0.  1.
     -623   -1    0    0    0    0  0.00000000000E+00  0.00000000000E+00  0.12525980253E-10  0.17130000000E+03  0.17130000000E+03 0.  1.
       11    1    1    2    0    0  0.45392219146E-03  0.95047888167E-04  0.19521088306E+00  0.19521210302E+00  0.51109989000E-03 0.  1.
     -623    1    1    2    0    0 -0.21102368979E-03  0.89395493444E-04  0.67728311218E-04  0.17130000000E+03  0.17130000000E+03 0.  1.
      622    1    1    2    0    0 -0.24289850167E-03 -0.18444338161E-03  0.38047213560E+01  0.38047878968E+01  0.22500000000E-01 0.  1.
</event>
<event>
 5   0  0.9908800E+08  0.9118800E+02  0.7818608E-02  0.1180000E+00
       11   -1    0    0    0    0  0.00000000000E+00  0.00000000000E+00  0.39999999673E+01  0.40000000000E+01  0.51109989000E-03 0.  1.
     -623   -1    0    0    0    0  0.00000000000E+00  0.00000000000E+00  0.12525980253E-10  0.17130000000E+03  0.17130000000E+03 0.  1.
       11    1    1    2    0    0  0.86686359053E-03 -0.83769359696E-03  0.12161543117E-01  0.12231824717E-01  0.51109989000E-03 0.  1.
     -623    1    1    2    0    0 -0.14294868714E-02  0.16083430802E-04  0.13385516879E-03  0.17130000001E+03  0.17130000000E+03 0.  1.
      622    1    1    2    0    0  0.56262328087E-03  0.82161016616E-03  0.39877045691E+01  0.39877681693E+01  0.22500000000E-01 0.  1.
</event>
<event>
 5   0  0.9908800E+08  0.9118800E+02  0.7818608E-02  0.1180000E+00
       11   -1    0    0    0    0  0.00000000000E+00  0.00000000000E+00  0.39999999673E+01  0.40000000000E+01  0.51109989000E-03 0.  1.
     -623   -1    0    0    0    0  0.00000000000E+00  0.00000000000E+00  0.12525980253E-10  0.17130000000E+03  0.17130000000E+03 0.  1.
       11    1    1    2    0    0  0.42087831632E-03 -0.60913635988E-03  0.58870244053E-02  0.59553727934E-02  0.51109989000E-03 0. -1.
     -623    1    1    2    0    0 -0.46013969104E-03 -0.10094346019E-02  0.13202365821E-03  0.17130000000E+03  0.17130000000E+03 0.  1.
      622    1    1    2    0    0  0.39261374773E-04  0.16185709619E-02  0.39939809198E+01  0.39940446240E+01  0.22500000000E-01 0.  1.
</event>
<event>
 5   0  0.9908800E+08  0.9118800E+02  0.7818608E-02  0.1180000E+00
       11   -1    0    0    0    0  0.00000000000E+00  0.00000000000E+00  0.39999999673E+01  0.40000000000E+01  0.51109989000E-03 0. -1.
     -623   -1    0    0    0    0  0.00000000000E+00  0.00000000000E+00  0.12525980253E-10  0.17130000000E+03  0.17130000000E+03 0. -1.
       11    1    1    2    0    0 -0.22867791084E-02 -0.21990655799E-02  0.31975184364E-01  0.32136255014E-01  0.51109989000E-03 0. -1.
     -623    1    1    2    0    0 -0.11534700516E-02  0.19926031354E-03  0.22683182592E-03  0.17130000000E+03  0.17130000000E+03 0. -1.
      622    1    1    2    0    0  0.34402491598E-02  0.19998052664E-02  0.39677979505E+01  0.39678637401E+01  0.22500000000E-01 0. -1.
</event>
<event>
 5   0  0.9908800E+08  0.9118800E+02  0.7818608E-02  0.1180000E+00
       11   -1    0    0    0    0  0.00000000000E+00  0.00000000000E+00  0.39999999673E+01  0.40000000000E+01  0.51109989000E-03 0. -1.
     -623   -1    0    0    0    0  0.00000000000E+00  0.00000000000E+00  0.12525980253E-10  0.17130000000E+03  0.17130000000E+03 0. -1.
       11    1    1    2    0    0  0.24008804218E-03  0.22258621423E-03  0.19551458659E-01  0.19560877875E-01  0.51109989000E-03 0. -1.
     -623    1    1    2    0    0 -0.15254174508E-04 -0.75130328491E-04  0.72988426837E-04  0.17130000000E+03  0.17130000000E+03 0. -1.
      622    1    1    2    0    0 -0.22483386767E-03 -0.14745588574E-03  0.39803755203E+01  0.39804391221E+01  0.22500000000E-01 0. -1.
</event>
<event>
 5   0  0.9908800E+08  0.9118800E+02  0.7818608E-02  0.1180000E+00
       11   -1    0    0    0    0  0.00000000000E+00  0.00000000000E+00  0.39999999673E+01  0.40000000000E+01  0.51109989000E-03 0.  1.
     -623   -1    0    0    0    0  0.00000000000E+00  0.00000000000E+00  0.12525980253E-10  0.17130000000E+03  0.17130000000E+03 0.  1.
       11    1    1    2    0    0 -0.32688897469E-02  0.10246387887E-02  0.48693099276E-01  0.48816131197E-01  0.51109989000E-03 0.  1.
     -623    1    1    2    0    0 -0.12427816299E-03 -0.20597683258E-03  0.18860496651E-03  0.17130000000E+03  0.17130000000E+03 0.  1.
      622    1    1    2    0    0  0.33931679099E-02 -0.81866195604E-03  0.39511182637E+01  0.39511838692E+01  0.22500000000E-01 0.  1.
</event>
<event>
 5   0  0.9908800E+08  0.9118800E+02  0.7818608E-02  0.1180000E+00
       11   -1    0    0    0    0  0.00000000000E+00  0.00000000000E+00  0.39999999673E+01  0.40000000000E+01  0.51109989000E-03 0. -1.
     -623   -1    0    0    0    0  0.00000000000E+00  0.00000000000E+00  0.12525980253E-10  0.17130000000E+03  0.17130000000E+03 0. -1.
       11    1    1    2    0    0  0.41241298149E-02 -0.26089392494E-02  0.20670944571E-01  0.21245333212E-01  0.51109989000E-03 0. -1.
     -623    1    1    2    0    0  0.23914015026E-01 -0.25510148495E-01  0.83970984137E-03  0.17130000357E+03  0.17130000000E+03 0. -1.
      622    1    1    2    0    0 -0.28038144841E-01  0.28119087745E-01  0.39784893130E+01  0.39787510961E+01  0.22500000000E-01 0. -1.
</event>
<event>
 5   0  0.9908800E+08  0.9118800E+02  0.7818608E-02  0.1180000E+00
       11   -1    0    0    0    0  0.00000000000E+00  0.00000000000E+00  0.39999999673E+01  0.40000000000E+01  0.51109989000E-03 0.  1.
     -623   -1    0    0    0    0  0.00000000000E+00  0.00000000000E+00  0.12525980253E-10  0.17130000000E+03  0.17130000000E+03 0.  1.
       11    1    1    2    0    0 -0.79731395853E-03  0.69043206526E-03  0.13966446934E-01  0.14015536615E-01  0.51109989000E-03 0.  1.
     -623    1    1    2    0    0 -0.42252052874E-03 -0.25294891290E-03  0.11277271692E-03  0.17130000000E+03  0.17130000000E+03 0.  1.
      622    1    1    2    0    0  0.12198344873E-02 -0.43748315236E-03  0.39859207477E+01  0.39859844626E+01  0.22500000000E-01 0.  1.
</event>
<event>
 5   0  0.9908800E+08  0.9118800E+02  0.7818608E-02  0.1180000E+00
       11   -1    0    0    0    0  0.00000000000E+00  0.00000000000E+00  0.39999999673E+01  0.40000000000E+01  0.51109989000E-03 0.  1.
     -623   -1    0    0    0    0  0.00000000000E+00  0.00000000000E+00  0.12525980253E-10  0.17130000000E+03  0.17130000000E+03 0.  1.
       11    1    1    2    0    0 -0.16997833720E-01 -0.21122262435E-02  0.70640760630E+00  0.70661542249E+00  0.51109989000E-03 0.  1.
     -623    1    1    2    0    0  0.14219354399E-01  0.11919742864E-03  0.28700866887E-03  0.17130000059E+03  0.17130000000E+03 0.  1.
      622    1    1    2    0    0  0.27784793194E-02  0.19930288149E-02  0.32933053528E+01  0.32933839875E+01  0.22500000000E-01 0.  1.
</event>
<event>
 5   0  0.9908800E+08  0.9118800E+02  0.7818608E-02  0.1180000E+00
       11   -1    0    0    0    0  0.00000000000E+00  0.00000000000E+00  0.39999999673E+01  0.40000000000E+01  0.51109989000E-03 0.  1.
     -623   -1    0    0    0    0  0.00000000000E+00  0.00000000000E+00  0.12525980253E-10  0.17130000000E+03  0.17130000000E+03 0. -1.
       11    1    1    2    0    0  0.56160910911E-03 -0.36208777710E-03  0.22417208365E-02  0.23943782339E-02  0.51109989000E-03 0.  1.
     -623    1    1    2    0    0 -0.23952924206E-02 -0.54673604349E-03  0.21648603357E-03  0.17130000002E+03  0.17130000000E+03 0. -1.
      622    1    1    2    0    0  0.18336833114E-02  0.90882382059E-03  0.39975417605E+01  0.39976056040E+01  0.22500000000E-01 0.  1.
</event>
<event>
 5   0  0.9908800E+08  0.9118800E+02  0.7818608E-02  0.1180000E+00
       11   -1    0    0    0    0  0.00000000000E+00  0.00000000000E+00  0.39999999673E+01  0.40000000000E+01  0.51109989000E-03 0. -1.
     -623   -1    0    0    0    0  0.00000000000E+00  0.00000000000E+00  0.12525980253E-10  0.17130000000E+03  0.17130000000E+03 0.  1.
       11    1    1    2    0    0  0.27523842248E-03  0.51459756330E-06  0.22413457854E-02  0.23152992207E-02  0.51109989000E-03 0. -1.
     -623    1    1    2    0    0 -0.50347084237E-03  0.88903533452E-04  0.13724752972E-03  0.17130000000E+03  0.17130000000E+03 0.  1.
      622    1    1    2    0    0  0.22823241985E-03 -0.89418131009E-04  0.39976213738E+01  0.39976846997E+01  0.22500000000E-01 0. -1.
</event>
<event>
 5   0  0.9908800E+08  0.9118800E+02  0.7818608E-02  0.1180000E+00
       11   -1    0    0    0    0  0.00000000000E+00  0.00000000000E+00  0.39999999673E+01  0.40000000000E+01  0.51109989000E-03 0.  1.
     -623   -1    0    0    0    0  0.00000000000E+00  0.00000000000E+00  0.12525980253E-10  0.17130000000E+03  0.17130000000E+03 0. -1.
       11    1    1    2    0    0 -0.18704916679E-02 -0.34943553414E-02  0.80597536076E-01  0.80696550734E-01  0.51109989000E-03 0.  1.
     -623    1    1    2    0    0  0.39420821108E-03  0.23039569345E-03  0.16520457907E-03  0.17130000000E+03  0.17130000000E+03 0. -1.
      622    1    1    2    0    0  0.14762834568E-02  0.32639596479E-02  0.39192372267E+01  0.39193034486E+01  0.22500000000E-01 0.  1.
</event>
<event>
 5   0  0.9908800E+08  0.9118800E+02  0.7818608E-02  0.1180000E+00
       11   -1    0    0    0    0  0.00000000000E+00  0.00000000000E+00  0.39999999673E+01  0.40000000000E+01  0.51109989000E-03 0. -1.
     -623   -1    0    0    0    0  0.00000000000E+00  0.00000000000E+00  0.12525980253E-10  0.17130000000E+03  0.17130000000E+03 0.  1.
       11    1    1    2    0    0 -0.22556048350E-01 -0.35516585166E-02  0.11728578290E+01  0.11730801924E+01  0.51109989000E-03 0. -1.
     -623    1    1    2    0    0 -0.13418444979E-02  0.43146235853E-02  0.41305383393E-03  0.17130000006E+03  0.17130000000E+03 0.  1.
      622    1    1    2    0    0  0.23897892848E-01 -0.76296506880E-03  0.28267290846E+01  0.28269197476E+01  0.22500000000E-01 0.  1.
</event>
<event>
 5   0  0.9908800E+08  0.9118800E+02  0.7818608E-02  0.1180000E+00
       11   -1    0    0    0    0  0.00000000000E+00  0.00000000000E+00  0.39999999673E+01  0.40000000000E+01  0.51109989000E-03 0.  1.
     -623   -1    0    0    0    0  0.00000000000E+00  0.00000000000E+00  0.12525980253E-10  0.17130000000E+03  0.17130000000E+03 0. -1.
       11    1    1    2    0    0 -0.21787900815E-03 -0.73573066003E-02  0.12552141806E+00  0.12573808113E+00  0.51109989000E-03 0.  1.
     -623    1    1    2    0    0  0.57984321093E-03 -0.41892053583E-04  0.28904989055E-03  0.17130000000E+03  0.17130000000E+03 0. -1.
      622    1    1    2    0    0 -0.36196420278E-03  0.73991986538E-02  0.38741894994E+01  0.38742619176E+01  0.22500000000E-01 0.  1.
</event>
<event>
 5   0  0.9908800E+08  0.9118800E+02  0.7818608E-02  0.1180000E+00
       11   -1    0    0    0    0  0.00000000000E+00  0.00000000000E+00  0.39999999673E+01  0.40000000000E+01  0.51109989000E-03 0.  1.
     -623   -1    0    0    0    0  0.00000000000E+00  0.00000000000E+00  0.12525980253E-10  0.17130000000E+03  0.17130000000E+03 0.  1.
       11    1    1    2    0    0  0.41430755175E-02 -0.35335820569E-02  0.36235110167E+00  0.36239237489E+00  0.51109989000E-03 0.  1.
     -623    1    1    2    0    0 -0.62731783769E-04  0.29116380092E-02  0.11319331109E-03  0.17130000002E+03  0.17130000000E+03 0.  1.
      622    1    1    2    0    0 -0.40803437337E-02  0.62194404638E-03  0.36375356742E+01  0.36376076021E+01  0.22500000000E-01 0.  1.
</event>
<event>
 5   0  0.9908800E+08  0.9118800E+02  0.7818608E-02  0.1180000E+00
       11   -1    0    0    0    0  0.00000000000E+00  0.00000000000E+00  0.39999999673E+01  0.40000000000E+01  0.51109989000E-03 0.  1.
     -623   -1    0    0    0    0  0.00000000000E+00  0.00000000000E+00  0.12525980253E-10  0.17130000000E+03  0.17130000000E+03 0.  1.
       11    1    1    2    0    0  0.61858933199E-03  0.11778798383E-02  0.59460522055E+00  0.59460692863E+00  0.51109989000E-03 0.  1.
     -623    1    1    2    0    0 -0.32507708136E-03  0.19202421210E-03  0.76295511025E-04  0.17130000000E+03  0.17130000000E+03 0.  1.
      622    1    1    2    0    0 -0.29351225079E-03 -0.13699040503E-02  0.34053184493E+01  0.34053930689E+01  0.22500000000E-01 0.  1.
</event>
<event>
 5   0  0.9908800E+08  0.9118800E+02  0.7818608E-02  0.1180000E+00
       11   -1    0    0    0    0  0.00000000000E+00  0.00000000000E+00  0.39999999673E+01  0.40000000000E+01  0.51109989000E-03 0.  1.
     -623   -1    0    0    0    0  0.00000000000E+00  0.00000000000E+00  0.12525980253E-10  0.17130000000E+03  0.17130000000E+03 0. -1.
       11    1    1    2    0    0 -0.41709634975E-03 -0.92804517721E-03  0.55296873342E-01  0.55308594826E-01  0.51109989000E-03 0.  1.
     -623    1    1    2    0    0 -0.56176214966E-03  0.25570188450E-03  0.76037763586E-04  0.17130000000E+03  0.17130000000E+03 0. -1.
      622    1    1    2    0    0  0.97885850016E-03  0.67234329237E-03  0.39446270616E+01  0.39446914094E+01  0.22500000000E-01 0.  1.
</event>
<event>
 5   0  0.9908800E+08  0.9118800E+02  0.7818608E-02  0.1180000E+00
       11   -1    0    0    0    0  0.00000000000E+00  0.00000000000E+00  0.39999999673E+01  0.40000000000E+01  0.51109989000E-03 0. -1.
     -623   -1    0    0    0    0  0.00000000000E+00  0.00000000000E+00  0.12525980253E-10  0.17130000000E+03  0.17130000000E+03 0.  1.
       11    1    1    2    0    0  0.15064966400E-02 -0.55999832813E-03  0.90594324457E-01  0.90610021395E-01  0.51109989000E-03 0. -1.
     -623    1    1    2    0    0  0.18822056582E-03  0.19292543225E-03  0.80797587021E-04  0.17130000000E+03  0.17130000000E+03 0.  1.
      622    1    1    2    0    0 -0.16947172061E-02  0.36707289568E-03  0.39093248495E+01  0.39093899825E+01  0.22500000000E-01 0. -1.
</event>
<event>
 5   0  0.9908800E+08  0.9118800E+02  0.7818608E-02  0.1180000E+00
       11   -1    0    0    0    0  0.00000000000E+00  0.00000000000E+00  0.39999999673E+01  0.40000000000E+01  0.51109989000E-03 0.  1.
     -623   -1    0    0    0    0  0.00000000000E+00  0.00000000000E+00  0.12525980253E-10  0.17130000000E+03  0.17130000000E+03 0. -1.
       11    1    1    2    0    0 -0.44145430618E-03 -0.50215072508E-03  0.69197976274E-02  0.69707860899E-02  0.51109989000E-03 0.  1.
     -623    1    1    2    0    0  0.15570795709E-04  0.12470775260E-02  0.11444482536E-03  0.17130000000E+03  0.17130000000E+03 0. -1.
      622    1    1    2    0    0  0.42588351048E-03 -0.74492680094E-03  0.39929657249E+01  0.39930292093E+01  0.22500000000E-01 0.  1.
</event>
<event>
 5   0  0.9908800E+08  0.9118800E+02  0.7818608E-02  0.1180000E+00
       11   -1    0    0    0    0  0.00000000000E+00  0.00000000000E+00  0.39999999673E+01  0.40000000000E+01  0.51109989000E-03 0. -1.
     -623   -1    0    0    0    0  0.00000000000E+00  0.00000000000E+00  0.12525980253E-10  0.17130000000E+03  0.17130000000E+03 0. -1.
       11    1    1    2    0    0  0.79608037831E-03 -0.30928954203E-03  0.62999082919E-02  0.63780460624E-02  0.51109989000E-03 0. -1.
     -623    1    1    2    0    0 -0.84158754052E-03 -0.10754996146E-02  0.14173380037E-03  0.17130000001E+03  0.17130000000E+03 0. -1.
      622    1    1    2    0    0  0.45507162691E-04  0.13847891573E-02  0.39935583276E+01  0.39936219507E+01  0.22500000000E-01 0. -1.
</event>
<event>
 5   0  0.9908800E+08  0.9118800E+02  0.7818608E-02  0.1180000E+00
       11   -1    0    0    0    0  0.00000000000E+00  0.00000000000E+00  0.39999999673E+01  0.40000000000E+01  0.51109989000E-03 0.  1.
     -623   -1    0    0    0    0  0.00000000000E+00  0.00000000000E+00  0.12525980253E-10  0.17130000000E+03  0.17130000000E+03 0.  1.
       11    1    1    2    0    0 -0.52534172156E-04 -0.57275548264E-02  0.97911819039E-01  0.98080544323E-01  0.51109989000E-03 0.  1.
     -623    1    1    2    0    0 -0.16968693358E-03 -0.96077584777E-04  0.23791767937E-03  0.17130000000E+03  0.17130000000E+03 0.  1.
      622    1    1    2    0    0  0.22222110580E-03  0.58236324112E-02  0.39018502322E+01  0.39019194569E+01  0.22500000000E-01 0.  1.
</event>
<event>
 5   0  0.9908800E+08  0.9118800E+02  0.7818608E-02  0.1180000E+00
       11   -1    0    0    0    0  0.00000000000E+00  0.00000000000E+00  0.39999999673E+01  0.40000000000E+01  0.51109989000E-03 0. -1.
     -623   -1    0    0    0    0  0.00000000000E+00  0.00000000000E+00  0.12525980253E-10  0.17130000000E+03  0.17130000000E+03 0. -1.
       11    1    1    2    0    0 -0.10987885474E-02 -0.15047478880E-02  0.82403167124E-01  0.82425813783E-01  0.51109989000E-03 0. -1.
     -623    1    1    2    0    0  0.29277455062E-02  0.21237265393E-02  0.87741286728E-04  0.17130000004E+03  0.17130000000E+03 0. -1.
      622    1    1    2    0    0 -0.18289569612E-02 -0.61897865307E-03  0.39175090622E+01  0.39175741512E+01  0.22500000000E-01 0. -1.
</event>
<event>
 5   0  0.9908800E+08  0.9118800E+02  0.7818608E-02  0.1180000E+00
       11   -1    0    0    0    0  0.00000000000E+00  0.00000000000E+00  0.39999999673E+01  0.40000000000E+01  0.51109989000E-03 0.  1.
     -623   -1    0    0    0    0  0.00000000000E+00  0.00000000000E+00  0.12525980253E-10  0.17130000000E+03  0.17130000000E+03 0.  1.
       11    1    1    2    0    0 -0.11680182756E-03  0.13875026051E-02  0.43159034693E-02  0.45636665084E-02  0.51109989000E-03 0.  1.
     -623    1    1    2    0    0 -0.34403144206E-03 -0.24975475928E-02  0.31128404802E-03  0.17130000002E+03  0.17130000000E+03 0.  1.
      622    1    1    2    0    0  0.46083326967E-03  0.11100449880E-02  0.39953727803E+01  0.39954363151E+01  0.22500000000E-01 0.  1.
</event>
<event>
 5   0  0.9908800E+08  0.9118800E+02  0.7818608E-02  0.1180000E+00
       11   -1    0    0    0    0  0.00000000000E+00  0.00000000000E+00  0.39999999673E+01  0.40000000000E+01  0.51109989000E-03 0.  1.
     -623   -1    0    0    0    0  0.00000000000E+00  0.00000000000E+00  0.12525980253E-10  0.17130000000E+03  0.17130000000E+03 0. -1.
       11    1    1    2    0    0 -0.16851146627E-03  0.47046294903E-03  0.23673055226E-02  0.24728708085E-02  0.51109989000E-03 0.  1.
     -623    1    1    2    0    0 -0.17836878823E-03 -0.66135358936E-03  0.16887460402E-03  0.17130000000E+03  0.17130000000E+03 0. -1.
      622    1    1    2    0    0  0.34688025445E-03  0.19089064015E-03  0.39974637862E+01  0.39975271267E+01  0.22500000000E-01 0.  1.
</event>
<event>
 5   0  0.9908800E+08  0.9118800E+02  0.7818608E-02  0.1180000E+00
       11   -1    0    0    0    0  0.00000000000E+00  0.00000000000E+00  0.39999999673E+01  0.40000000000E+01  0.51109989000E-03 0.  1.
     -623   -1    0    0    0    0  0.00000000000E+00  0.00000000000E+00  0.12525980253E-10  0.17130000000E+03  0.17130000000E+03 0.  1.
       11    1    1    2    0    0 -0.25085925714E-03  0.68207913688E-04  0.82150358429E-02  0.82350238290E-02  0.51109989000E-03 0.  1.
     -623    1    1    2    0    0  0.83636276862E-03 -0.74183395229E-04  0.83412672379E-04  0.17130000000E+03  0.17130000000E+03 0.  1.
      622    1    1    2    0    0 -0.58550351148E-03  0.59754815406E-05  0.39917015188E+01  0.39917649741E+01  0.22500000000E-01 0.  1.
</event>
<event>
 5   0  0.9908800E+08  0.9118800E+02  0.7818608E-02  0.1180000E+00
       11   -1    0    0    0    0  0.00000000000E+00  0.00000000000E+00  0.39999999673E+01  0.40000000000E+01  0.51109989000E-03 0.  1.
     -623   -1    0    0    0    0  0.00000000000E+00  0.00000000000E+00  0.12525980253E-10  0.17130000000E+03  0.17130000000E+03 0. -1.
       11    1    1    2    0    0  0.11016601940E-03 -0.18928666110E-03  0.95865717667E-01  0.95867330258E-01  0.51109989000E-03 0.  1.
     -623    1    1    2    0    0  0.43162793152E-05  0.45006532027E-03  0.66426623763E-04  0.17130000000E+03  0.17130000000E+03 0. -1.
      622    1    1    2    0    0 -0.11448229872E-03 -0.26077865917E-03  0.39040678231E+01  0.39041326691E+01  0.22500000000E-01 0.  1.
</event>
<event>
 5   0  0.9908800E+08  0.9118800E+02  0.7818608E-02  0.1180000E+00
       11   -1    0    0    0    0  0.00000000000E+00  0.00000000000E+00  0.39999999673E+01  0.40000000000E+01  0.51109989000E-03 0.  1.
     -623   -1    0    0    0    0  0.00000000000E+00  0.00000000000E+00  0.12525980253E-10  0.17130000000E+03  0.17130000000E+03 0. -1.
       11    1    1    2    0    0  0.35269739275E-02 -0.25340676509E-02  0.53836017911E-02  0.69358080278E-02  0.51109989000E-03 0.  1.
     -623    1    1    2    0    0 -0.30870196097E-02  0.61112397483E-02  0.16173362930E-02  0.17130000014E+03  0.17130000000E+03 0. -1.
      622    1    1    2    0    0 -0.43995431782E-03 -0.35771720974E-02  0.39929990293E+01  0.39930640475E+01  0.22500000000E-01 0.  1.
</event>
<event>
 5   0  0.9908800E+08  0.9118800E+02  0.7818608E-02  0.1180000E+00
       11   -1    0    0    0    0  0.00000000000E+00  0.00000000000E+00  0.39999999673E+01  0.40000000000E+01  0.51109989000E-03 0.  1.
     -623   -1    0    0    0    0  0.00000000000E+00  0.00000000000E+00  0.12525980253E-10  0.17130000000E+03  0.17130000000E+03 0. -1.
       11    1    1    2    0    0  0.22167730123E-03  0.55018071314E-03  0.63980119463E-02  0.64457443019E-02  0.51109989000E-03 0. -1.
     -623    1    1    2    0    0 -0.65307994634E-02 -0.27571154968E-02  0.11682388460E-03  0.17130000015E+03  0.17130000000E+03 0. -1.
      622    1    1    2    0    0  0.63091221635E-02  0.22069347842E-02  0.39934851323E+01  0.39935541098E+01  0.22500000000E-01 0.  1.
</event>
<event>
 5   0  0.9908800E+08  0.9118800E+02  0.7818608E-02  0.1180000E+00
       11   -1    0    0    0    0  0.00000000000E+00  0.00000000000E+00  0.39999999673E+01  0.40000000000E+01  0.51109989000E-03 0. -1.
     -623   -1    0    0    0    0  0.00000000000E+00  0.00000000000E+00  0.12525980253E-10  0.17130000000E+03  0.17130000000E+03 0. -1.
       11    1    1    2    0    0  0.22938613473E-03  0.16450144807E-02  0.35363501206E-01  0.35406173618E-01  0.51109989000E-03 0. -1.
     -623    1    1    2    0    0  0.39529632067E-03 -0.15954876259E-03  0.10681474661E-03  0.17130000000E+03  0.17130000000E+03 0. -1.
      622    1    1    2    0    0 -0.62468245539E-03 -0.14854657181E-02  0.39645296514E+01  0.39645938258E+01  0.22500000000E-01 0. -1.
</event>
<event>
 5   0  0.9908800E+08  0.9118800E+02  0.7818608E-02  0.1180000E+00
       11   -1    0    0    0    0  0.00000000000E+00  0.00000000000E+00  0.39999999673E+01  0.40000000000E+01  0.51109989000E-03 0.  1.
     -623   -1    0    0    0    0  0.00000000000E+00  0.00000000000E+00  0.12525980253E-10  0.17130000000E+03  0.17130000000E+03 0. -1.
       11    1    1    2    0    0 -0.24388509084E-03 -0.27237157509E-03  0.16490991619E-02  0.17647711908E-02  0.51109989000E-03 0.  1.
     -623    1    1    2    0    0 -0.70309764927E-03  0.59056687269E-05  0.17907163595E-03  0.17130000000E+03  0.17130000000E+03 0. -1.
      622    1    1    2    0    0  0.94698274043E-03  0.26646590636E-03  0.39981717984E+01  0.39982352291E+01  0.22500000000E-01 0.  1.
</event>
<event>
 5   0  0.9908800E+08  0.9118800E+02  0.7818608E-02  0.1180000E+00
       11   -1    0    0    0    0  0.00000000000E+00  0.00000000000E+00  0.39999999673E+01  0.40000000000E+01  0.51109989000E-03 0.  1.
     -623   -1    0    0    0    0  0.00000000000E+00  0.00000000000E+00  0.12525980253E-10  0.17130000000E+03  0.17130000000E+03 0. -1.
       11    1    1    2    0    0  0.12098352826E-03 -0.81717824488E-03  0.50778110473E-02  0.51698941409E-02  0.51109989000E-03 0.  1.
     -623    1    1    2    0    0 -0.19052077868E-03  0.92940533871E-04  0.15548055906E-03  0.17130000000E+03  0.17130000000E+03 0. -1.
      622    1    1    2    0    0  0.69537250382E-04  0.72423771103E-03  0.39947666750E+01  0.39948301049E+01  0.22500000000E-01 0.  1.
</event>
<event>
 5   0  0.9908800E+08  0.9118800E+02  0.7818608E-02  0.1180000E+00
       11   -1    0    0    0    0  0.00000000000E+00  0.00000000000E+00  0.39999999673E+01  0.40000000000E+01  0.51109989000E-03 0. -1.
     -623   -1    0    0    0    0  0.00000000000E+00  0.00000000000E+00  0.12525980253E-10  0.17130000000E+03  0.17130000000E+03 0. -1.
       11    1    1    2    0    0  0.14573513518E-02  0.12033741307E-02  0.12947682851E-01  0.13094872912E-01  0.51109989000E-03 0. -1.
     -623    1    1    2    0    0 -0.23671232183E-02 -0.12537663549E-02  0.21077221578E-03  0.17130000002E+03  0.17130000000E+03 0. -1.
      622    1    1    2    0    0  0.90977186651E-03  0.50392224257E-04  0.39868415123E+01  0.39869051060E+01  0.22500000000E-01 0. -1.
</event>
<event>
 5   0  0.9908800E+08  0.9118800E+02  0.7818608E-02  0.1180000E+00
       11   -1    0    0    0    0  0.00000000000E+00  0.00000000000E+00  0.39999999673E+01  0.40000000000E+01  0.51109989000E-03 0. -1.
     -623   -1    0    0    0    0  0.00000000000E+00  0.00000000000E+00  0.12525980253E-10  0.17130000000E+03  0.17130000000E+03 0. -1.
       11    1    1    2    0    0  0.55610554928E-03 -0.16594886005E-03  0.16784041812E-01  0.16801847370E-01  0.51109989000E-03 0. -1.
     -623    1    1    2    0    0 -0.44254896541E-04 -0.11065298848E-02  0.81561350695E-04  0.17130000000E+03  0.17130000000E+03 0. -1.
      622    1    1    2    0    0 -0.51185065276E-03  0.12724787441E-02  0.39831343617E+01  0.39831981465E+01  0.22500000000E-01 0. -1.
</event>
<event>
 5   0  0.9908800E+08  0.9118800E+02  0.7818608E-02  0.1180000E+00
       11   -1    0    0    0    0  0.00000000000E+00  0.00000000000E+00  0.39999999673E+01  0.40000000000E+01  0.51109989000E-03 0. -1.
     -623   -1    0    0    0    0  0.00000000000E+00  0.00000000000E+00  0.12525980253E-10  0.17130000000E+03  0.17130000000E+03 0.  1.
       11    1    1    2    0    0 -0.15008201792E-01 -0.44334143759E-06  0.18359381480E+00  0.18420693846E+00  0.51109989000E-03 0. -1.
     -623    1    1    2    0    0 -0.35491843188E-03  0.20674621991E-02  0.71093003749E-03  0.17130000001E+03  0.17130000000E+03 0.  1.
      622    1    1    2    0    0  0.15363120224E-01 -0.20670188575E-02  0.38156952222E+01  0.38157930469E+01  0.22500000000E-01 0. -1.
</event>
<event>
 5   0  0.9908800E+08  0.9118800E+02  0.7818608E-02  0.1180000E+00
       11   -1    0    0    0    0  0.00000000000E+00  0.00000000000E+00  0.39999999673E+01  0.40000000000E+01  0.51109989000E-03 0.  1.
     -623   -1    0    0    0    0  0.00000000000E+00  0.00000000000E+00  0.12525980253E-10  0.17130000000E+03  0.17130000000E+03 0. -1.
       11    1    1    2    0    0 -0.18383107280E-03 -0.84665775336E-03  0.21307223415E-02  0.23562308904E-02  0.51109989000E-03 0.  1.
     -623    1    1    2    0    0 -0.40729632251E-03  0.65055834955E-03  0.28884543669E-03  0.17130000000E+03  0.17130000000E+03 0. -1.
      622    1    1    2    0    0  0.59112739542E-03  0.19609940364E-03  0.39975804006E+01  0.39976437682E+01  0.22500000000E-01 0.  1.
</event>
<event>
 5   0  0.9908800E+08  0.9118800E+02  0.7818608E-02  0.1180000E+00
       11   -1    0    0    0    0  0.00000000000E+00  0.00000000000E+00  0.39999999673E+01  0.40000000000E+01  0.51109989000E-03 0. -1.
     -623   -1    0    0    0    0  0.00000000000E+00  0.00000000000E+00  0.12525980253E-10  0.17130000000E+03  0.17130000000E+03 0. -1.
       11    1    1    2    0    0  0.12473469190E-02 -0.23699533578E-02  0.13094328251E-01  0.13375171352E-01  0.51109989000E-03 0. -1.
     -623    1    1    2    0    0  0.24716764703E-02  0.87744008634E-02  0.35142657333E-03  0.17130000024E+03  0.17130000000E+03 0. -1.
      622    1    1    2    0    0 -0.37190233894E-02 -0.64044475058E-02  0.39865542126E+01  0.39866245858E+01  0.22500000000E-01 0. -1.
</event>
<event>
 5   0  0.9908800E+08  0.9118800E+02  0.7818608E-02  0.1180000E+00
       11   -1    0    0    0    0  0.00000000000E+00  0.00000000000E+00  0.39999999673E+01  0.40000000000E+01  0.51109989000E-03 0. -1.
     -623   -1    0    0    0    0  0.00000000000E+00  0.00000000000E+00  0.12525980253E-10  0.17130000000E+03  0.17130000000E+03 0. -1.
       11    1    1    2    0    0 -0.70687980524E-02 -0.90384788162E-02  0.17099758678E+00  0.17138289854E+00  0.51109989000E-03 0. -1.
     -623    1    1    2    0    0  0.42605995943E-03 -0.40757572784E-03  0.46881105579E-03  0.17130000000E+03  0.17130000000E+03 0. -1.
      622    1    1    2    0    0  0.66427380930E-02  0.94460545440E-02  0.38285335692E+01  0.38286170995E+01  0.22500000000E-01 0. -1.
</event>
<event>
 5   0  0.9908800E+08  0.9118800E+02  0.7818608E-02  0.1180000E+00
       11   -1    0    0    0    0  0.00000000000E+00  0.00000000000E+00  0.39999999673E+01  0.40000000000E+01  0.51109989000E-03 0.  1.
     -623   -1    0    0    0    0  0.00000000000E+00  0.00000000000E+00  0.12525980253E-10  0.17130000000E+03  0.17130000000E+03 0.  1.
       11    1    1    2    0    0  0.83174209376E-02 -0.10972353716E-01  0.12842611185E-01  0.18835230821E-01  0.51109989000E-03 0.  1.
     -623    1    1    2    0    0 -0.63872578664E-02  0.94997751676E-02  0.60573979942E-02  0.17130000049E+03  0.17130000000E+03 0.  1.
      622    1    1    2    0    0 -0.19301630711E-02  0.14725785486E-02  0.39810999582E+01  0.39811642796E+01  0.22500000000E-01 0.  1.
</event>
<event>
 5   0  0.9908800E+08  0.9118800E+02  0.7818608E-02  0.1180000E+00
       11   -1    0    0    0    0  0.00000000000E+00  0.00000000000E+00  0.39999999673E+01  0.40000000000E+01  0.51109989000E-03 0.  1.
     -623   -1    0    0    0    0  0.00000000000E+00  0.00000000000E+00  0.12525980253E-10  0.17130000000E+03  0.17130000000E+03 0.  1.
       11    1    1    2    0    0 -0.34682036140E-03  0.28810743973E-02  0.26775403765E-02  0.39813715741E-02  0.51109989000E-03 0.  1.
     -623    1    1    2    0    0 -0.20178776764E-02 -0.95286610151E-02  0.13736548542E-02  0.17130000028E+03  0.17130000000E+03 0.  1.
      622    1    1    2    0    0  0.23646980378E-02  0.66475866183E-02  0.39959487723E+01  0.39960183462E+01  0.22500000000E-01 0.  1.
</event>
<event>
 5   0  0.9908800E+08  0.9118800E+02  0.7818608E-02  0.1180000E+00
       11   -1    0    0    0    0  0.00000000000E+00  0.00000000000E+00  0.39999999673E+01  0.40000000000E+01  0.51109989000E-03 0. -1.
     -623   -1    0    0    0    0  0.00000000000E+00  0.00000000000E+00  0.12525980253E-10  0.17130000000E+03  0.17130000000E+03 0.  1.
       11    1    1    2    0    0  0.13833920642E-02  0.57810438326E-03  0.46119958926E-01  0.46147153896E-01  0.51109989000E-03 0. -1.
     -623    1    1    2    0    0  0.12613942651E-03 -0.70407239791E-03  0.91474370817E-04  0.17130000000E+03  0.17130000000E+03 0.  1.
      622    1    1    2    0    0 -0.15095314908E-02  0.12596801497E-03  0.39537885359E+01  0.39538528464E+01  0.22500000000E-01 0. -1.
</event>
<event>
 5   0  0.9908800E+08  0.9118800E+02  0.7818608E-02  0.1180000E+00
       11   -1    0    0    0    0  0.00000000000E+00  0.00000000000E+00  0.39999999673E+01  0.40000000000E+01  0.51109989000E-03 0. -1.
     -623   -1    0    0    0    0  0.00000000000E+00  0.00000000000E+00  0.12525980253E-10  0.17130000000E+03  0.17130000000E+03 0.  1.
       11    1    1    2    0    0  0.21131739887E-02  0.25797152839E-03  0.25249962758E-01  0.25344701537E-01  0.51109989000E-03 0. -1.
     -623    1    1    2    0    0 -0.41287096558E-02  0.40941346651E-03  0.15900881166E-03  0.17130000005E+03  0.17130000000E+03 0.  1.
      622    1    1    2    0    0  0.20155356686E-02 -0.66738499505E-03  0.39745909973E+01  0.39746552496E+01  0.22500000000E-01 0. -1.
</event>
<event>
 5   0  0.9908800E+08  0.9118800E+02  0.7818608E-02  0.1180000E+00
       11   -1    0    0    0    0  0.00000000000E+00  0.00000000000E+00  0.39999999673E+01  0.40000000000E+01  0.51109989000E-03 0.  1.
     -623   -1    0    0    0    0  0.00000000000E+00  0.00000000000E+00  0.12525980253E-10  0.17130000000E+03  0.17130000000E+03 0. -1.
       11    1    1    2    0    0 -0.25870361735E-02  0.13865054160E-03  0.11794282911E+01  0.11794312472E+01  0.51109989000E-03 0.  1.
     -623    1    1    2    0    0  0.80251998494E-03 -0.25384391297E-02  0.94273671604E-04  0.17130000002E+03  0.17130000000E+03 0. -1.
      622    1    1    2    0    0  0.17845161886E-02  0.23997885879E-02  0.28204774023E+01  0.28205687317E+01  0.22500000000E-01 0.  1.
</event>
<event>
 5   0  0.9908800E+08  0.9118800E+02  0.7818608E-02  0.1180000E+00
       11   -1    0    0    0    0  0.00000000000E+00  0.00000000000E+00  0.39999999673E+01  0.40000000000E+01  0.51109989000E-03 0.  1.
     -623   -1    0    0    0    0  0.00000000000E+00  0.00000000000E+00  0.12525980253E-10  0.17130000000E+03  0.17130000000E+03 0.  1.
       11    1    1    2    0    0 -0.31036119330E-03 -0.72319618106E-04  0.53590337950E-01  0.53593722570E-01  0.51109989000E-03 0.  1.
     -623    1    1    2    0    0  0.32062339972E-03 -0.30822102137E-04  0.67494812127E-04  0.17130000000E+03  0.17130000000E+03 0.  1.
      622    1    1    2    0    0 -0.10262206386E-04  0.10314172024E-03  0.39463421341E+01  0.39464062766E+01  0.22500000000E-01 0.  1.
</event>
<event>
 5   0  0.9908800E+08  0.9118800E+02  0.7818608E-02  0.1180000E+00
       11   -1    0    0    0    0  0.00000000000E+00  0.00000000000E+00  0.39999999673E+01  0.40000000000E+01  0.51109989000E-03 0. -1.
     -623   -1    0    0    0    0  0.00000000000E+00  0.00000000000E+00  0.12525980253E-10  0.17130000000E+03  0.17130000000E+03 0. -1.
       11    1    1    2    0    0  0.11633026653E-02  0.73511931162E-02  0.14395009744E+00  0.14414327972E+00  0.51109989000E-03 0. -1.
     -623    1    1    2    0    0  0.28990581597E-02 -0.12454400801E-01  0.26479167410E-03  0.17130000048E+03  0.17130000000E+03 0. -1.
      622    1    1    2    0    0 -0.40623608250E-02  0.51032076845E-02  0.38557850782E+01  0.38558562428E+01  0.22500000000E-01 0. -1.
</event>
<event>
 5   0  0.9908800E+08  0.9118800E+02  0.7818608E-02  0.1180000E+00
       11   -1    0    0    0    0  0.00000000000E+00  0.00000000000E+00  0.39999999673E+01  0.40000000000E+01  0.51109989000E-03 0. -1.
     -623   -1    0    0    0    0  0.00000000000E+00  0.00000000000E+00  0.12525980253E-10  0.17130000000E+03  0.17130000000E+03 0. -1.
       11    1    1    2    0    0 -0.42031397660E-02 -0.45235307610E-02  0.42140148083E+00  0.42144702868E+00  0.51109989000E-03 0. -1.
     -623    1    1    2    0    0 -0.22726209378E-03  0.21766840778E-03  0.12158325750E-03  0.17130000000E+03  0.17130000000E+03 0. -1.
      622    1    1    2    0    0  0.44304018597E-02  0.43058623532E-02  0.35784769032E+01  0.35785529709E+01  0.22500000000E-01 0. -1.
</event>
<event>
 5   0  0.9908800E+08  0.9118800E+02  0.7818608E-02  0.1180000E+00
       11   -1    0    0    0    0  0.00000000000E+00  0.00000000000E+00  0.39999999673E+01  0.40000000000E+01  0.51109989000E-03 0.  1.
     -623   -1    0    0    0    0  0.00000000000E+00  0.00000000000E+00  0.12525980253E-10  0.17130000000E+03  0.17130000000E+03 0. -1.
       11    1    1    2    0    0  0.85068552030E-03  0.15226803486E-02  0.98595315934E-01  0.98612067038E-01  0.51109989000E-03 0.  1.
     -623    1    1    2    0    0 -0.26878786822E-02  0.18091172686E-02  0.83485709657E-04  0.17130000003E+03  0.17130000000E+03 0. -1.
      622    1    1    2    0    0  0.18371931619E-02 -0.33317976172E-02  0.39013211657E+01  0.39013879023E+01  0.22500000000E-01 0.  1.
</event>
<event>
 5   0  0.9908800E+08  0.9118800E+02  0.7818608E-02  0.1180000E+00
       11   -1    0    0    0    0  0.00000000000E+00  0.00000000000E+00  0.39999999673E+01  0.40000000000E+01  0.51109989000E-03 0. -1.
     -623   -1    0    0    0    0  0.00000000000E+00  0.00000000000E+00  0.12525980253E-10  0.17130000000E+03  0.17130000000E+03 0. -1.
       11    1    1    2    0    0 -0.16395984367E-01 -0.26634089428E-01  0.63320349661E+00  0.63397565597E+00  0.51109989000E-03 0. -1.
     -623    1    1    2    0    0 -0.60475534639E-03  0.19739825471E-01  0.89846297716E-03  0.17130000114E+03  0.17130000000E+03 0. -1.
      622    1    1    2    0    0  0.17000739714E-01  0.68942639578E-02  0.33658980076E+01  0.33660232030E+01  0.22500000000E-01 0. -1.
</event>
<event>
 5   0  0.9908800E+08  0.9118800E+02  0.7818608E-02  0.1180000E+00
       11   -1    0    0    0    0  0.00000000000E+00  0.00000000000E+00  0.39999999673E+01  0.40000000000E+01  0.51109989000E-03 0. -1.
     -623   -1    0    0    0    0  0.00000000000E+00  0.00000000000E+00  0.12525980253E-10  0.17130000000E+03  0.17130000000E+03 0.  1.
       11    1    1    2    0    0  0.81998791438E-04 -0.80744772162E-04  0.15391125652E-01  0.15400039363E-01  0.51109989000E-03 0. -1.
     -623    1    1    2    0    0  0.58848621901E-03 -0.60787255591E-03  0.72525422761E-04  0.17130000000E+03  0.17130000000E+03 0.  1.
      622    1    1    2    0    0 -0.67048501045E-03  0.68861732807E-03  0.39845363163E+01  0.39845999585E+01  0.22500000000E-01 0. -1.
</event>
<event>
 5   0  0.9908800E+08  0.9118800E+02  0.7818608E-02  0.1180000E+00
       11   -1    0    0    0    0  0.00000000000E+00  0.00000000000E+00  0.39999999673E+01  0.40000000000E+01  0.51109989000E-03 0. -1.
     -623   -1    0    0    0    0  0.00000000000E+00  0.00000000000E+00  0.12525980253E-10  0.17130000000E+03  0.17130000000E+03 0. -1.
       11    1    1    2    0    0 -0.19279526635E-02 -0.83603213888E-05  0.72697734014E-02  0.75384281359E-02  0.51109989000E-03 0. -1.
     -623    1    1    2    0    0  0.81633345836E-03 -0.83689782493E-03  0.33227187879E-03  0.17130000000E+03  0.17130000000E+03 0. -1.
      622    1    1    2    0    0  0.11116192051E-02  0.84525814632E-03  0.39923979221E+01  0.39924615676E+01  0.22500000000E-01 0. -1.
</event>
<event>
 5   0  0.9908800E+08  0.9118800E+02  0.7818608E-02  0.1180000E+00
       11   -1    0    0    0    0  0.00000000000E+00  0.00000000000E+00  0.39999999673E+01  0.40000000000E+01  0.51109989000E-03 0. -1.
     -623   -1    0    0    0    0  0.00000000000E+00  0.00000000000E+00  0.12525980253E-10  0.17130000000E+03  0.17130000000E+03 0.  1.
       11    1    1    2    0    0 -0.88827064984E-03  0.36644842548E-02  0.38427283289E+00  0.38429167151E+00  0.51109989000E-03 0. -1.
     -623    1    1    2    0    0  0.43273496775E-03 -0.35194696950E-03  0.90360733469E-04  0.17130000000E+03  0.17130000000E+03 0.  1.
      622    1    1    2    0    0  0.45553568209E-03 -0.33125372853E-02  0.36156367737E+01  0.36157083276E+01  0.22500000000E-01 0. -1.
</event>
<event>
 5   0  0.9908800E+08  0.9118800E+02  0.7818608E-02  0.1180000E+00
       11   -1    0    0    0    0  0.00000000000E+00  0.00000000000E+00  0.39999999673E+01  0.40000000000E+01  0.51109989000E-03 0.  1.
     -623   -1    0    0    0    0  0.00000000000E+00  0.00000000000E+00  0.12525980253E-10  0.17130000000E+03  0.17130000000E+03 0. -1.
       11    1    1    2    0    0 -0.12433003883E-02 -0.35643341570E-03  0.14954194539E+00  0.14954841187E+00  0.51109989000E-03 0.  1.
     -623    1    1    2    0    0 -0.56720426480E-04  0.18271931257E-03  0.72396956159E-04  0.17130000000E+03  0.17130000000E+03 0. -1.
      622    1    1    2    0    0  0.13000208148E-02  0.17371410309E-03  0.38503856260E+01  0.38504515890E+01  0.22500000000E-01 0.  1.
</event>
<event>
 5   0  0.9908800E+08  0.9118800E+02  0.7818608E-02  0.1180000E+00
       11   -1    0    0    0    0  0.00000000000E+00  0.00000000000E+00  0.39999999673E+01  0.40000000000E+01  0.51109989000E-03 0.  1.
     -623   -1    0    0    0    0  0.00000000000E+00  0.00000000000E+00  0.12525980253E-10  0.17130000000E+03  0.17130000000E+03 0. -1.
       11    1    1    2    0    0 -0.46546743354E-03  0.18132471936E-02  0.54407402787E-01  0.54441998712E-01  0.51109989000E-03 0. -1.
     -623    1    1    2    0    0  0.10762551749E-03  0.38437191444E-04  0.99169037751E-04  0.17130000000E+03  0.17130000000E+03 0. -1.
      622    1    1    2    0    0  0.35784191605E-03 -0.18516843850E-02  0.39454933955E+01  0.39455580012E+01  0.22500000000E-01 0.  1.
</event>
<event>
 5   0  0.9908800E+08  0.9118800E+02  0.7818608E-02  0.1180000E+00
       11   -1    0    0    0    0  0.00000000000E+00  0.00000000000E+00  0.39999999673E+01  0.40000000000E+01  0.51109989000E-03 0. -1.
     -623   -1    0    0    0    0  0.00000000000E+00  0.00000000000E+00  0.12525980253E-10  0.17130000000E+03  0.17130000000E+03 0. -1.
       11    1    1    2    0    0 -0.49838721334E-04 -0.70693110001E-04  0.84594500248E-01  0.84596088419E-01  0.51109989000E-03 0. -1.
     -623    1    1    2    0    0 -0.79931526362E-03 -0.45945412088E-03  0.66335034856E-04  0.17130000000E+03  0.17130000000E+03 0. -1.
      622    1    1    2    0    0  0.84915398495E-03  0.53014723088E-03  0.39153391321E+01  0.39154039091E+01  0.22500000000E-01 0. -1.
</event>
<event>
 5   0  0.9908800E+08  0.9118800E+02  0.7818608E-02  0.1180000E+00
       11   -1    0    0    0    0  0.00000000000E+00  0.00000000000E+00  0.39999999673E+01  0.40000000000E+01  0.51109989000E-03 0.  1.
     -623   -1    0    0    0    0  0.00000000000E+00  0.00000000000E+00  0.12525980253E-10  0.17130000000E+03  0.17130000000E+03 0. -1.
       11    1    1    2    0    0  0.46226811580E-03 -0.19373394677E-03  0.10314135894E-01  0.10338948060E-01  0.51109989000E-03 0. -1.
     -623    1    1    2    0    0 -0.23332860404E-03 -0.25402488271E-04  0.88238040009E-04  0.17130000000E+03  0.17130000000E+03 0. -1.
      622    1    1    2    0    0 -0.22893951134E-03  0.21913643508E-03  0.39895976006E+01  0.39896610589E+01  0.22500000000E-01 0.  1.
</event>
<event>
 5   0  0.9908800E+08  0.9118800E+02  0.7818608E-02  0.1180000E+00
       11   -1    0    0    0    0  0.00000000000E+00  0.00000000000E+00  0.39999999673E+01  0.40000000000E+01  0.51109989000E-03 0.  1.
     -623   -1    0    0    0    0  0.00000000000E+00  0.00000000000E+00  0.12525980253E-10  0.17130000000E+03  0.17130000000E+03 0. -1.
       11    1    1    2    0    0 -0.76875662854E-02 -0.36808047166E-02  0.11957070391E+00  0.11987519116E+00  0.51109989000E-03 0.  1.
     -623    1    1    2    0    0  0.54323839798E-02  0.91885238667E-03  0.37141887373E-03  0.17130000009E+03  0.17130000000E+03 0. -1.
      622    1    1    2    0    0  0.22551823055E-02  0.27619523299E-02  0.38800578447E+01  0.38801247199E+01  0.22500000000E-01 0.  0.
</event>
<event>
 5   0  0.9908800E+08  0.9118800E+02  0.7818608E-02  0.1180000E+00
       11   -1    0    0    0    0  0.00000000000E+00  0.00000000000E+00  0.39999999673E+01  0.40000000000E+01  0.51109989000E-03 0.  1.
     -623   -1    0    0    0    0  0.00000000000E+00  0.00000000000E+00  0.12525980253E-10  0.17130000000E+03  0.17130000000E+03 0.  1.
       11    1    1    2    0    0 -0.43552798442E-02 -0.15936611273E-02  0.65599943035E+00  0.65601602271E+00  0.51109989000E-03 0.  1.
     -623    1    1    2    0    0 -0.79094783650E-03  0.22840485894E-02  0.96304559325E-04  0.17130000002E+03  0.17130000000E+03 0.  1.
      622    1    1    2    0    0  0.51462276808E-02 -0.69038746252E-03  0.33439042333E+01  0.33439839611E+01  0.22500000000E-01 0.  1.
</event>
<event>
 5   0  0.9908800E+08  0.9118800E+02  0.7818608E-02  0.1180000E+00
       11   -1    0    0    0    0  0.00000000000E+00  0.00000000000E+00  0.39999999673E+01  0.40000000000E+01  0.51109989000E-03 0.  1.
     -623   -1    0    0    0    0  0.00000000000E+00  0.00000000000E+00  0.12525980253E-10  0.17130000000E+03  0.17130000000E+03 0. -1.
       11    1    1    2    0    0 -0.50063759007E-03 -0.27849153088E-02  0.10204988771E+00  0.10209038738E+00  0.51109989000E-03 0.  1.
     -623    1    1    2    0    0  0.10560925997E-03  0.86519312955E-04  0.10636035295E-03  0.17130000000E+03  0.17130000000E+03 0. -1.
      622    1    1    2    0    0  0.39502833011E-03  0.26983959959E-02  0.38978437188E+01  0.38979096120E+01  0.22500000000E-01 0.  1.
</event>
<event>
 5   0  0.9908800E+08  0.9118800E+02  0.7818608E-02  0.1180000E+00
       11   -1    0    0    0    0  0.00000000000E+00  0.00000000000E+00  0.39999999673E+01  0.40000000000E+01  0.51109989000E-03 0. -1.
     -623   -1    0    0    0    0  0.00000000000E+00  0.00000000000E+00  0.12525980253E-10  0.17130000000E+03  0.17130000000E+03 0.  1.
       11    1    1    2    0    0  0.22555261242E-02 -0.18898052244E-02  0.94025390598E+00  0.94025864936E+00  0.51109989000E-03 0. -1.
     -623    1    1    2    0    0 -0.52281626878E-02 -0.54423310621E-03  0.89932327491E-04  0.17130000008E+03  0.17130000000E+03 0.  1.
      622    1    1    2    0    0  0.29726365636E-02  0.24340383306E-02  0.30596561291E+01  0.30597412700E+01  0.22500000000E-01 0. -1.
</event>
<event>
 5   0  0.9908800E+08  0.9118800E+02  0.7818608E-02  0.1180000E+00
       11   -1    0    0    0    0  0.00000000000E+00  0.00000000000E+00  0.39999999673E+01  0.40000000000E+01  0.51109989000E-03 0.  1.
     -623   -1    0    0    0    0  0.00000000000E+00  0.00000000000E+00  0.12525980253E-10  0.17130000000E+03  0.17130000000E+03 0. -1.
       11    1    1    2    0    0 -0.40910528914E-02 -0.28587262512E-01  0.96356423497E+00  0.96399702512E+00  0.51109989000E-03 0.  1.
     -623    1    1    2    0    0  0.40217255885E-02 -0.13406284441E-02  0.66370476122E-03  0.17130000005E+03  0.17130000000E+03 0. -1.
      622    1    1    2    0    0  0.69327302717E-04  0.29927890956E-01  0.30357720279E+01  0.30360029214E+01  0.22500000000E-01 0.  1.
</event>
<event>
 5   0  0.9908800E+08  0.9118800E+02  0.7818608E-02  0.1180000E+00
       11   -1    0    0    0    0  0.00000000000E+00  0.00000000000E+00  0.39999999673E+01  0.40000000000E+01  0.51109989000E-03 0.  1.
     -623   -1    0    0    0    0  0.00000000000E+00  0.00000000000E+00  0.12525980253E-10  0.17130000000E+03  0.17130000000E+03 0. -1.
       11    1    1    2    0    0  0.43231852268E-03 -0.23417108396E-02  0.64574366300E-01  0.64620279428E-01  0.51109989000E-03 0.  1.
     -623    1    1    2    0    0  0.14936688993E-02  0.10013520997E-02  0.11091039974E-03  0.17130000001E+03  0.17130000000E+03 0. -1.
      622    1    1    2    0    0 -0.19259874220E-02  0.13403587399E-02  0.39353146907E+01  0.39353797111E+01  0.22500000000E-01 0.  1.
</event>
<event>
 5   0  0.9908800E+08  0.9118800E+02  0.7818608E-02  0.1180000E+00
       11   -1    0    0    0    0  0.00000000000E+00  0.00000000000E+00  0.39999999673E+01  0.40000000000E+01  0.51109989000E-03 0. -1.
     -623   -1    0    0    0    0  0.00000000000E+00  0.00000000000E+00  0.12525980253E-10  0.17130000000E+03  0.17130000000E+03 0. -1.
       11    1    1    2    0    0 -0.10127945209E-02  0.81313275576E-03  0.15029216545E+00  0.15029864655E+00  0.51109989000E-03 0. -1.
     -623    1    1    2    0    0 -0.30610034411E-03 -0.40502797324E-03  0.72449200360E-04  0.17130000000E+03  0.17130000000E+03 0. -1.
      622    1    1    2    0    0  0.13188948650E-02 -0.40810478252E-03  0.38496353527E+01  0.38497013527E+01  0.22500000000E-01 0. -1.
</event>
<event>
 5   0  0.9908800E+08  0.9118800E+02  0.7818608E-02  0.1180000E+00
       11   -1    0    0    0    0  0.00000000000E+00  0.00000000000E+00  0.39999999673E+01  0.40000000000E+01  0.51109989000E-03 0. -1.
     -623   -1    0    0    0    0  0.00000000000E+00  0.00000000000E+00  0.12525980253E-10  0.17130000000E+03  0.17130000000E+03 0.  1.
       11    1    1    2    0    0  0.37146925334E-02  0.15213518809E-01  0.10301753669E+01  0.10302945200E+01  0.51109989000E-03 0. -1.
     -623    1    1    2    0    0  0.10723854112E-01  0.98018332489E-03  0.28395100817E-03  0.17130000034E+03  0.17130000000E+03 0.  1.
      622    1    1    2    0    0 -0.14438546645E-01 -0.16193702134E-01  0.29695406495E+01  0.29697051413E+01  0.22500000000E-01 0.  0.
</event>
<event>
 5   0  0.9908800E+08  0.9118800E+02  0.7818608E-02  0.1180000E+00
       11   -1    0    0    0    0  0.00000000000E+00  0.00000000000E+00  0.39999999673E+01  0.40000000000E+01  0.51109989000E-03 0.  1.
     -623   -1    0    0    0    0  0.00000000000E+00  0.00000000000E+00  0.12525980253E-10  0.17130000000E+03  0.17130000000E+03 0. -1.
       11    1    1    2    0    0 -0.49579445169E-03 -0.85042518878E-03  0.23317928540E+00  0.23318192339E+00  0.51109989000E-03 0.  1.
     -623    1    1    2    0    0 -0.48872972751E-02  0.18521486311E-02  0.73864035002E-04  0.17130000008E+03  0.17130000000E+03 0. -1.
      622    1    1    2    0    0  0.53830917268E-02 -0.10017234423E-02  0.37667468179E+01  0.37668179969E+01  0.22500000000E-01 0.  1.
</event>
<event>
 5   0  0.9908800E+08  0.9118800E+02  0.7818608E-02  0.1180000E+00
       11   -1    0    0    0    0  0.00000000000E+00  0.00000000000E+00  0.39999999673E+01  0.40000000000E+01  0.51109989000E-03 0. -1.
     -623   -1    0    0    0    0  0.00000000000E+00  0.00000000000E+00  0.12525980253E-10  0.17130000000E+03  0.17130000000E+03 0.  1.
       11    1    1    2    0    0  0.26006761061E-02 -0.41048336412E-04  0.15467350982E-01  0.15692844570E-01  0.51109989000E-03 0.  1.
     -623    1    1    2    0    0  0.10630003357E-02  0.74910130898E-03  0.29074449643E-03  0.17130000001E+03  0.17130000000E+03 0.  1.
      622    1    1    2    0    0 -0.36636764420E-02 -0.70805297275E-03  0.39842418728E+01  0.39843071512E+01  0.22500000000E-01 0. -1.
</event>
<event>
 5   0  0.9908800E+08  0.9118800E+02  0.7818608E-02  0.1180000E+00
       11   -1    0    0    0    0  0.00000000000E+00  0.00000000000E+00  0.39999999673E+01  0.40000000000E+01  0.51109989000E-03 0. -1.
     -623   -1    0    0    0    0  0.00000000000E+00  0.00000000000E+00  0.12525980253E-10  0.17130000000E+03  0.17130000000E+03 0. -1.
       11    1    1    2    0    0 -0.19529077546E-02 -0.48608239062E-03  0.53800539365E+00  0.53800940042E+00  0.51109989000E-03 0. -1.
     -623    1    1    2    0    0  0.25913013995E-03 -0.24773948557E-03  0.77582869032E-04  0.17130000000E+03  0.17130000000E+03 0. -1.
      622    1    1    2    0    0  0.16937776146E-02  0.73382187620E-03  0.34619169908E+01  0.34619905992E+01  0.22500000000E-01 0. -1.
</event>
<event>
 5   0  0.9908800E+08  0.9118800E+02  0.7818608E-02  0.1180000E+00
       11   -1    0    0    0    0  0.00000000000E+00  0.00000000000E+00  0.39999999673E+01  0.40000000000E+01  0.51109989000E-03 0. -1.
     -623   -1    0    0    0    0  0.00000000000E+00  0.00000000000E+00  0.12525980253E-10  0.17130000000E+03  0.17130000000E+03 0. -1.
       11    1    1    2    0    0  0.40119104147E-03  0.15734321603E-02  0.81632426531E-02  0.83388486451E-02  0.51109989000E-03 0. -1.
     -623    1    1    2    0    0 -0.25035024938E-02 -0.18640928344E-02  0.23958011865E-03  0.17130000003E+03  0.17130000000E+03 0. -1.
      622    1    1    2    0    0  0.21023114533E-02  0.29066067483E-03  0.39915971462E+01  0.39916611244E+01  0.22500000000E-01 0. -1.
</event>
<event>
 5   0  0.9908800E+08  0.9118800E+02  0.7818608E-02  0.1180000E+00
       11   -1    0    0    0    0  0.00000000000E+00  0.00000000000E+00  0.39999999673E+01  0.40000000000E+01  0.51109989000E-03 0.  1.
     -623   -1    0    0    0    0  0.00000000000E+00  0.00000000000E+00  0.12525980253E-10  0.17130000000E+03  0.17130000000E+03 0. -1.
       11    1    1    2    0    0  0.32899330358E-03 -0.17370544059E-02  0.11440708556E+01  0.11440723357E+01  0.51109989000E-03 0.  1.
     -623    1    1    2    0    0 -0.57578619820E-04 -0.38819008236E-03  0.90884489771E-04  0.17130000000E+03  0.17130000000E+03 0. -1.
      622    1    1    2    0    0 -0.27141468373E-03  0.21252444884E-02  0.28558382290E+01  0.28559276655E+01  0.22500000000E-01 0.  1.
</event>
<event>
 5   0  0.9908800E+08  0.9118800E+02  0.7818608E-02  0.1180000E+00
       11   -1    0    0    0    0  0.00000000000E+00  0.00000000000E+00  0.39999999673E+01  0.40000000000E+01  0.51109989000E-03 0.  1.
     -623   -1    0    0    0    0  0.00000000000E+00  0.00000000000E+00  0.12525980253E-10  0.17130000000E+03  0.17130000000E+03 0. -1.
       11    1    1    2    0    0  0.14482402113E-02  0.41503735794E-03  0.20705186793E+00  0.20705797954E+00  0.51109989000E-03 0.  1.
     -623    1    1    2    0    0  0.73907326942E-03 -0.19253547170E-02  0.73759188877E-04  0.17130000001E+03  0.17130000000E+03 0. -1.
      622    1    1    2    0    0 -0.21873134801E-02  0.15103173572E-02  0.37928743365E+01  0.37929420043E+01  0.22500000000E-01 0.  1.
</event>
<event>
 5   0  0.9908800E+08  0.9118800E+02  0.7818608E-02  0.1180000E+00
       11   -1    0    0    0    0  0.00000000000E+00  0.00000000000E+00  0.39999999673E+01  0.40000000000E+01  0.51109989000E-03 0. -1.
     -623   -1    0    0    0    0  0.00000000000E+00  0.00000000000E+00  0.12525980253E-10  0.17130000000E+03  0.17130000000E+03 0.  1.
       11    1    1    2    0    0  0.45124622760E-03  0.23879391940E-03  0.29103612396E-02  0.29986782649E-02  0.51109989000E-03 0. -1.
     -623    1    1    2    0    0 -0.19890735571E-03 -0.39130038777E-03  0.15162511686E-03  0.17130000000E+03  0.17130000000E+03 0.  1.
      622    1    1    2    0    0 -0.25233887177E-03  0.15250646862E-03  0.39969379835E+01  0.39970013236E+01  0.22500000000E-01 0. -1.
</event>
<event>
 5   0  0.9908800E+08  0.9118800E+02  0.7818608E-02  0.1180000E+00
       11   -1    0    0    0    0  0.00000000000E+00  0.00000000000E+00  0.39999999673E+01  0.40000000000E+01  0.51109989000E-03 0. -1.
     -623   -1    0    0    0    0  0.00000000000E+00  0.00000000000E+00  0.12525980253E-10  0.17130000000E+03  0.17130000000E+03 0.  1.
       11    1    1    2    0    0  0.70279997743E-03 -0.54147525317E-03 -0.13768889949E-03  0.10331032855E-02  0.51109989000E-03 0. -1.
     -623    1    1    2    0    0 -0.24173165128E-02  0.40838407765E-03  0.12344493968E-02  0.17130000002E+03  0.17130000000E+03 0.  1.
      622    1    1    2    0    0  0.17145165353E-02  0.13309117552E-03  0.39989032069E+01  0.39989668747E+01  0.22500000000E-01 0. -1.
</event>
<event>
 5   0  0.9908800E+08  0.9118800E+02  0.7818608E-02  0.1180000E+00
       11   -1    0    0    0    0  0.00000000000E+00  0.00000000000E+00  0.39999999673E+01  0.40000000000E+01  0.51109989000E-03 0. -1.
     -623   -1    0    0    0    0  0.00000000000E+00  0.00000000000E+00  0.12525980253E-10  0.17130000000E+03  0.17130000000E+03 0.  1.
       11    1    1    2    0    0 -0.59257344274E-02 -0.16218785980E-02  0.87165845173E+00  0.87168025245E+00  0.51109989000E-03 0. -1.
     -623    1    1    2    0    0  0.12548739867E-03  0.91931331167E-03  0.10814190106E-03  0.17130000000E+03  0.17130000000E+03 0.  1.
      622    1    1    2    0    0  0.58002470287E-02  0.70256528629E-03  0.31282333737E+01  0.31283197450E+01  0.22500000000E-01 0. -1.
</event>
<event>
 5   0  0.9908800E+08  0.9118800E+02  0.7818608E-02  0.1180000E+00
       11   -1    0    0    0    0  0.00000000000E+00  0.00000000000E+00  0.39999999673E+01  0.40000000000E+01  0.51109989000E-03 0.  1.
     -623   -1    0    0    0    0  0.00000000000E+00  0.00000000000E+00  0.12525980253E-10  0.17130000000E+03  0.17130000000E+03 0.  1.
       11    1    1    2    0    0  0.10962811939E-03  0.40968167348E-03  0.12643641155E-01  0.12661071887E-01  0.51109989000E-03 0.  1.
     -623    1    1    2    0    0  0.17851339750E-03  0.57420189293E-03  0.81013661266E-04  0.17130000000E+03  0.17130000000E+03 0.  1.
      622    1    1    2    0    0 -0.28814151689E-03 -0.98388356640E-03  0.39872753125E+01  0.39873389270E+01  0.22500000000E-01 0.  1.
</event>
<event>
 5   0  0.9908800E+08  0.9118800E+02  0.7818608E-02  0.1180000E+00
       11   -1    0    0    0    0  0.00000000000E+00  0.00000000000E+00  0.39999999673E+01  0.40000000000E+01  0.51109989000E-03 0.  1.
     -623   -1    0    0    0    0  0.00000000000E+00  0.00000000000E+00  0.12525980253E-10  0.17130000000E+03  0.17130000000E+03 0. -1.
       11    1    1    2    0    0 -0.44754055373E-02 -0.63092499273E-02  0.52133377935E+00  0.52139141401E+00  0.51109989000E-03 0.  1.
     -623    1    1    2    0    0  0.88719903626E-04 -0.44218447378E-04  0.13893723803E-03  0.17130000000E+03  0.17130000000E+03 0. -1.
      622    1    1    2    0    0  0.43866856336E-02  0.63534683747E-02  0.34785272508E+01  0.34786085859E+01  0.22500000000E-01 0.  1.
</event>
<event>
 5   0  0.9908800E+08  0.9118800E+02  0.7818608E-02  0.1180000E+00
       11   -1    0    0    0    0  0.00000000000E+00  0.00000000000E+00  0.39999999673E+01  0.40000000000E+01  0.51109989000E-03 0.  1.
     -623   -1    0    0    0    0  0.00000000000E+00  0.00000000000E+00  0.12525980253E-10  0.17130000000E+03  0.17130000000E+03 0.  1.
       11    1    1    2    0    0 -0.14320475755E-02  0.10343077574E-01  0.60130886717E+00  0.60139973809E+00  0.51109989000E-03 0.  1.
     -623    1    1    2    0    0 -0.17188071404E-02 -0.30609933887E-02  0.17461670643E-03  0.17130000004E+03  0.17130000000E+03 0.  1.
      622    1    1    2    0    0  0.31508547164E-02 -0.72820841845E-02  0.33985164847E+01  0.33986002271E+01  0.22500000000E-01 0.  1.
</event>
<event>
 5   0  0.9908800E+08  0.9118800E+02  0.7818608E-02  0.1180000E+00
       11   -1    0    0    0    0  0.00000000000E+00  0.00000000000E+00  0.39999999673E+01  0.40000000000E+01  0.51109989000E-03 0.  1.
     -623   -1    0    0    0    0  0.00000000000E+00  0.00000000000E+00  0.12525980253E-10  0.17130000000E+03  0.17130000000E+03 0. -1.
       11    1    1    2    0    0 -0.15629504164E-03 -0.13701819231E-02  0.10920385658E+00  0.10921375985E+00  0.51109989000E-03 0.  1.
     -623    1    1    2    0    0  0.63500122209E-03 -0.27044695624E-03  0.75305480566E-04  0.17130000000E+03  0.17130000000E+03 0. -1.
      622    1    1    2    0    0 -0.47870618046E-03  0.16406288793E-02  0.38907208053E+01  0.38907862387E+01  0.22500000000E-01 0.  1.
</event>
<event>
 5   0  0.9908800E+08  0.9118800E+02  0.7818608E-02  0.1180000E+00
       11   -1    0    0    0    0  0.00000000000E+00  0.00000000000E+00  0.39999999673E+01  0.40000000000E+01  0.51109989000E-03 0. -1.
     -623   -1    0    0    0    0  0.00000000000E+00  0.00000000000E+00  0.12525980253E-10  0.17130000000E+03  0.17130000000E+03 0.  1.
       11    1    1    2    0    0 -0.81753565883E-02  0.11285564449E-01  0.91430743082E+00  0.91441376832E+00  0.51109989000E-03 0. -1.
     -623    1    1    2    0    0  0.10931460476E-01 -0.10074628059E-02  0.20704214527E-03  0.17130000035E+03  0.17130000000E+03 0.  1.
      622    1    1    2    0    0 -0.27561038912E-02 -0.10278101643E-01  0.30854854958E+01  0.30855858812E+01  0.22500000000E-01 0. -1.
</event>
<event>
 5   0  0.9908800E+08  0.9118800E+02  0.7818608E-02  0.1180000E+00
       11   -1    0    0    0    0  0.00000000000E+00  0.00000000000E+00  0.39999999673E+01  0.40000000000E+01  0.51109989000E-03 0. -1.
     -623   -1    0    0    0    0  0.00000000000E+00  0.00000000000E+00  0.12525980253E-10  0.17130000000E+03  0.17130000000E+03 0.  1.
       11    1    1    2    0    0 -0.84013167725E-03  0.13493795675E-02  0.11534995948E-01  0.11655213472E-01  0.51109989000E-03 0. -1.
     -623    1    1    2    0    0  0.11212171696E-02 -0.28853166347E-02  0.18398529427E-03  0.17130000003E+03  0.17130000000E+03 0.  1.
      622    1    1    2    0    0 -0.28108549204E-03  0.15359370664E-02  0.39882809850E+01  0.39883447574E+01  0.22500000000E-01 0. -1.
</event>
<event>
 5   0  0.9908800E+08  0.9118800E+02  0.7818608E-02  0.1180000E+00
       11   -1    0    0    0    0  0.00000000000E+00  0.00000000000E+00  0.39999999673E+01  0.40000000000E+01  0.51109989000E-03 0.  1.
     -623   -1    0    0    0    0  0.00000000000E+00  0.00000000000E+00  0.12525980253E-10  0.17130000000E+03  0.17130000000E+03 0. -1.
       11    1    1    2    0    0 -0.45972742120E-03  0.40837793419E-03  0.10422727979E+00  0.10423034681E+00  0.51109989000E-03 0.  1.
     -623    1    1    2    0    0  0.22988890961E-03 -0.16137561740E-02  0.68210280047E-04  0.17130000001E+03  0.17130000000E+03 0. -1.
      622    1    1    2    0    0  0.22983851117E-03  0.12053782428E-02  0.38957044846E+01  0.38957696527E+01  0.22500000000E-01 0.  1.
</event>
<event>
 5   0  0.9908800E+08  0.9118800E+02  0.7818608E-02  0.1180000E+00
       11   -1    0    0    0    0  0.00000000000E+00  0.00000000000E+00  0.39999999673E+01  0.40000000000E+01  0.51109989000E-03 0. -1.
     -623   -1    0    0    0    0  0.00000000000E+00  0.00000000000E+00  0.12525980253E-10  0.17130000000E+03  0.17130000000E+03 0.  1.
       11    1    1    2    0    0 -0.92871476526E-02  0.61107239149E-03  0.42609730544E+00  0.42619924853E+00  0.51109989000E-03 0. -1.
     -623    1    1    2    0    0  0.82314379973E-03 -0.28700251656E-02  0.18350223571E-03  0.17130000003E+03  0.17130000000E+03 0.  1.
      622    1    1    2    0    0  0.84640038530E-02  0.22589527737E-02  0.35737191590E+01  0.35738007247E+01  0.22500000000E-01 0. -1.
</event>
<event>
 5   0  0.9908800E+08  0.9118800E+02  0.7818608E-02  0.1180000E+00
       11   -1    0    0    0    0  0.00000000000E+00  0.00000000000E+00  0.39999999673E+01  0.40000000000E+01  0.51109989000E-03 0. -1.
     -623   -1    0    0    0    0  0.00000000000E+00  0.00000000000E+00  0.12525980253E-10  0.17130000000E+03  0.17130000000E+03 0.  1.
       11    1    1    2    0    0  0.12901226370E-02 -0.69634676334E-02  0.86450681870E+00  0.86453597675E+00  0.51109989000E-03 0. -1.
     -623    1    1    2    0    0  0.83782014644E-04  0.34841654281E-03  0.11713580856E-03  0.17130000000E+03  0.17130000000E+03 0.  1.
      622    1    1    2    0    0 -0.13739046517E-02  0.66150510906E-02  0.31353760129E+01  0.31354640228E+01  0.22500000000E-01 0. -1.
</event>
<event>
 5   0  0.9908800E+08  0.9118800E+02  0.7818608E-02  0.1180000E+00
       11   -1    0    0    0    0  0.00000000000E+00  0.00000000000E+00  0.39999999673E+01  0.40000000000E+01  0.51109989000E-03 0. -1.
     -623   -1    0    0    0    0  0.00000000000E+00  0.00000000000E+00  0.12525980253E-10  0.17130000000E+03  0.17130000000E+03 0. -1.
       11    1    1    2    0    0  0.99509907110E-02 -0.50995901130E-02  0.53950561659E-01  0.55099476937E-01  0.51109989000E-03 0. -1.
     -623    1    1    2    0    0 -0.10981053484E-01  0.51709372943E-02  0.12136177228E-02  0.17130000043E+03  0.17130000000E+03 0. -1.
      622    1    1    2    0    0  0.10300627730E-02 -0.71347181255E-04  0.39448357880E+01  0.39449000888E+01  0.22500000000E-01 0. -1.
</event>
<event>
 5   0  0.9908800E+08  0.9118800E+02  0.7818608E-02  0.1180000E+00
       11   -1    0    0    0    0  0.00000000000E+00  0.00000000000E+00  0.39999999673E+01  0.40000000000E+01  0.51109989000E-03 0.  1.
     -623   -1    0    0    0    0  0.00000000000E+00  0.00000000000E+00  0.12525980253E-10  0.17130000000E+03  0.17130000000E+03 0. -1.
       11    1    1    2    0    0 -0.30214293360E-04  0.30429799299E-03  0.44780823622E-02  0.45175164540E-02  0.51109989000E-03 0.  1.
     -623    1    1    2    0    0 -0.38471073034E-03 -0.35953417280E-03  0.10277752033E-03  0.17130000000E+03  0.17130000000E+03 0. -1.
      622    1    1    2    0    0  0.41492502358E-03  0.55236179695E-04  0.39954191062E+01  0.39954824815E+01  0.22500000000E-01 0.  1.
</event>
<event>
 5   0  0.9908800E+08  0.9118800E+02  0.7818608E-02  0.1180000E+00
       11   -1    0    0    0    0  0.00000000000E+00  0.00000000000E+00  0.39999999673E+01  0.40000000000E+01  0.51109989000E-03 0.  1.
     -623   -1    0    0    0    0  0.00000000000E+00  0.00000000000E+00  0.12525980253E-10  0.17130000000E+03  0.17130000000E+03 0.  1.
       11    1    1    2    0    0 -0.55871073863E-02  0.34171476068E-02  0.64188404161E+00  0.64191765575E+00  0.51109989000E-03 0.  1.
     -623    1    1    2    0    0  0.12062812008E-02  0.15181876674E-02  0.11545558405E-03  0.17130000001E+03  0.17130000000E+03 0.  1.
      622    1    1    2    0    0  0.43808261855E-02 -0.49353352742E-02  0.33580004702E+01  0.33580823332E+01  0.22500000000E-01 0.  1.
</event>
<event>
 5   0  0.9908800E+08  0.9118800E+02  0.7818608E-02  0.1180000E+00
       11   -1    0    0    0    0  0.00000000000E+00  0.00000000000E+00  0.39999999673E+01  0.40000000000E+01  0.51109989000E-03 0.  1.
     -623   -1    0    0    0    0  0.00000000000E+00  0.00000000000E+00  0.12525980253E-10  0.17130000000E+03  0.17130000000E+03 0. -1.
       11    1    1    2    0    0 -0.60951101229E-02 -0.22035256987E-02  0.31671217449E-01  0.32331611908E-01  0.51109989000E-03 0.  1.
     -623    1    1    2    0    0  0.81045577825E-03 -0.14485463566E-03  0.72837721538E-03  0.17130000000E+03  0.17130000000E+03 0. -1.
      622    1    1    2    0    0  0.52846543446E-02  0.23483803344E-02  0.39676003727E+01  0.39676683846E+01  0.22500000000E-01 0.  1.
</event>
<event>
 5   0  0.9908800E+08  0.9118800E+02  0.7818608E-02  0.1180000E+00
       11   -1    0    0    0    0  0.00000000000E+00  0.00000000000E+00  0.39999999673E+01  0.40000000000E+01  0.51109989000E-03 0. -1.
     -623   -1    0    0    0    0  0.00000000000E+00  0.00000000000E+00  0.12525980253E-10  0.17130000000E+03  0.17130000000E+03 0.  1.
       11    1    1    2    0    0 -0.90576753476E-01 -0.30203429285E-01  0.74584788779E+00  0.75193465697E+00  0.51109989000E-03 0. -1.
     -623    1    1    2    0    0  0.49070514568E-02  0.21121679744E-02  0.74164541034E-02  0.17130000024E+03  0.17130000000E+03 0.  1.
      622    1    1    2    0    0  0.85669702019E-01  0.28091261311E-01  0.32467356255E+01  0.32480650992E+01  0.22500000000E-01 0. -1.
</event>
<event>
 5   0  0.9908800E+08  0.9118800E+02  0.7818608E-02  0.1180000E+00
       11   -1    0    0    0    0  0.00000000000E+00  0.00000000000E+00  0.39999999673E+01  0.40000000000E+01  0.51109989000E-03 0. -1.
     -623   -1    0    0    0    0  0.00000000000E+00  0.00000000000E+00  0.12525980253E-10  0.17130000000E+03  0.17130000000E+03 0. -1.
       11    1    1    2    0    0  0.17026840204E-02 -0.76254985169E-02  0.94421882880E-01  0.94745979072E-01  0.51109989000E-03 0. -1.
     -623    1    1    2    0    0 -0.61497443742E-02  0.83860743491E-02  0.39180285613E-03  0.17130000032E+03  0.17130000000E+03 0. -1.
      622    1    1    2    0    0  0.44470603550E-02 -0.76057583379E-03  0.39051862824E+01  0.39052537056E+01  0.22500000000E-01 0. -1.
</event>
<event>
 5   0  0.9908800E+08  0.9118800E+02  0.7818608E-02  0.1180000E+00
       11   -1    0    0    0    0  0.00000000000E+00  0.00000000000E+00  0.39999999673E+01  0.40000000000E+01  0.51109989000E-03 0.  1.
     -623   -1    0    0    0    0  0.00000000000E+00  0.00000000000E+00  0.12525980253E-10  0.17130000000E+03  0.17130000000E+03 0. -1.
       11    1    1    2    0    0  0.10017106431E-02 -0.91381557581E-03  0.33787668162E-01  0.33818725968E-01  0.51109989000E-03 0.  1.
     -623    1    1    2    0    0  0.13974218753E-03  0.15786270468E-02  0.95073845140E-04  0.17130000001E+03  0.17130000000E+03 0. -1.
      622    1    1    2    0    0 -0.11414528307E-02 -0.66481147238E-03  0.39661172289E+01  0.39661812702E+01  0.22500000000E-01 0.  1.
</event>
<event>
 5   0  0.9908800E+08  0.9118800E+02  0.7818608E-02  0.1180000E+00
       11   -1    0    0    0    0  0.00000000000E+00  0.00000000000E+00  0.39999999673E+01  0.40000000000E+01  0.51109989000E-03 0.  1.
     -623   -1    0    0    0    0  0.00000000000E+00  0.00000000000E+00  0.12525980253E-10  0.17130000000E+03  0.17130000000E+03 0.  1.
       11    1    1    2    0    0  0.50689529536E-03 -0.56459253221E-04  0.23682165621E+00  0.23682275694E+00  0.51109989000E-03 0.  1.
     -623    1    1    2    0    0  0.19640254233E-03  0.27526435057E-04  0.68398289304E-04  0.17130000000E+03  0.17130000000E+03 0.  1.
      622    1    1    2    0    0 -0.70329783774E-03  0.28932818156E-04  0.37631099140E+01  0.37631772441E+01  0.22500000000E-01 0.  1.
</event>
<event>
 5   0  0.9908800E+08  0.9118800E+02  0.7818608E-02  0.1180000E+00
       11   -1    0    0    0    0  0.00000000000E+00  0.00000000000E+00  0.39999999673E+01  0.40000000000E+01  0.51109989000E-03 0. -1.
     -623   -1    0    0    0    0  0.00000000000E+00  0.00000000000E+00  0.12525980253E-10  0.17130000000E+03  0.17130000000E+03 0. -1.
       11    1    1    2    0    0  0.11930137370E-03  0.18187070454E-02  0.80011386723E-01  0.80033775086E-01  0.51109989000E-03 0. -1.
     -623    1    1    2    0    0  0.99988394257E-03 -0.26305342372E-02  0.87196491563E-04  0.17130000002E+03  0.17130000000E+03 0. -1.
      622    1    1    2    0    0 -0.11191853163E-02  0.81182719188E-03  0.39199013841E+01  0.39199662018E+01  0.22500000000E-01 0. -1.
</event>
<event>
 5   0  0.9908800E+08  0.9118800E+02  0.7818608E-02  0.1180000E+00
       11   -1    0    0    0    0  0.00000000000E+00  0.00000000000E+00  0.39999999673E+01  0.40000000000E+01  0.51109989000E-03 0.  1.
     -623   -1    0    0    0    0  0.00000000000E+00  0.00000000000E+00  0.12525980253E-10  0.17130000000E+03  0.17130000000E+03 0.  1.
       11    1    1    2    0    0 -0.42920794045E-02 -0.33099115531E-03  0.77731837409E+00  0.77733046217E+00  0.51109989000E-03 0.  1.
     -623    1    1    2    0    0  0.21465248698E-02 -0.14357387222E-02  0.91819550508E-04  0.17130000002E+03  0.17130000000E+03 0.  1.
      622    1    1    2    0    0  0.21455545328E-02  0.17667298787E-02  0.32225897772E+01  0.32226695218E+01  0.22500000000E-01 0.  1.
</event>
<event>
 5   0  0.9908800E+08  0.9118800E+02  0.7818608E-02  0.1180000E+00
       11   -1    0    0    0    0  0.00000000000E+00  0.00000000000E+00  0.39999999673E+01  0.40000000000E+01  0.51109989000E-03 0. -1.
     -623   -1    0    0    0    0  0.00000000000E+00  0.00000000000E+00  0.12525980253E-10  0.17130000000E+03  0.17130000000E+03 0. -1.
       11    1    1    2    0    0 -0.16973641933E-02  0.80554839958E-03  0.17062136989E+00  0.17063247944E+00  0.51109989000E-03 0. -1.
     -623    1    1    2    0    0  0.97273649060E-03 -0.17986195123E-02  0.77388026537E-04  0.17130000001E+03  0.17130000000E+03 0. -1.
      622    1    1    2    0    0  0.72462770215E-03  0.99307111378E-03  0.38293012118E+01  0.38293675107E+01  0.22500000000E-01 0. -1.
</event>
<event>
 5   0  0.9908800E+08  0.9118800E+02  0.7818608E-02  0.1180000E+00
       11   -1    0    0    0    0  0.00000000000E+00  0.00000000000E+00  0.39999999673E+01  0.40000000000E+01  0.51109989000E-03 0.  1.
     -623   -1    0    0    0    0  0.00000000000E+00  0.00000000000E+00  0.12525980253E-10  0.17130000000E+03  0.17130000000E+03 0. -1.
       11    1    1    2    0    0  0.29820073160E-02  0.15113564710E-02  0.54729799213E-01  0.54834192893E-01  0.51109989000E-03 0.  1.
     -623    1    1    2    0    0 -0.96448653841E-04  0.19072766436E-03  0.16994504665E-03  0.17130000000E+03  0.17130000000E+03 0. -1.
      622    1    1    2    0    0 -0.28855586622E-02 -0.17020841354E-02  0.39451002231E+01  0.39451658069E+01  0.22500000000E-01 0.  1.
</event>
<event>
 5   0  0.9908800E+08  0.9118800E+02  0.7818608E-02  0.1180000E+00
       11   -1    0    0    0    0  0.00000000000E+00  0.00000000000E+00  0.39999999673E+01  0.40000000000E+01  0.51109989000E-03 0.  1.
     -623   -1    0    0    0    0  0.00000000000E+00  0.00000000000E+00  0.12525980253E-10  0.17130000000E+03  0.17130000000E+03 0. -1.
       11    1    1    2    0    0 -0.13887769779E-01  0.77905995158E-03  0.52686772129E+00  0.52705154781E+00  0.51109989000E-03 0.  1.
     -623    1    1    2    0    0  0.61179664143E-02 -0.37083637282E-02  0.26675603825E-03  0.17130000015E+03  0.17130000000E+03 0. -1.
      622    1    1    2    0    0  0.77698033643E-02  0.29293037766E-02  0.34728654900E+01  0.34729483026E+01  0.22500000000E-01 0.  1.
</event>
<event>
 5   0  0.9908800E+08  0.9118800E+02  0.7818608E-02  0.1180000E+00
       11   -1    0    0    0    0  0.00000000000E+00  0.00000000000E+00  0.39999999673E+01  0.40000000000E+01  0.51109989000E-03 0.  1.
     -623   -1    0    0    0    0  0.00000000000E+00  0.00000000000E+00  0.12525980253E-10  0.17130000000E+03  0.17130000000E+03 0.  1.
       11    1    1    2    0    0  0.62221245160E-03  0.15992646836E-02  0.37496221095E-01  0.37538947959E-01  0.51109989000E-03 0.  1.
     -623    1    1    2    0    0  0.92524039009E-03 -0.18362812427E-02  0.10689712240E-03  0.17130000001E+03  0.17130000000E+03 0.  1.
      622    1    1    2    0    0 -0.15474528417E-02  0.23701655908E-03  0.39623968491E+01  0.39624610397E+01  0.22500000000E-01 0.  1.
</event>
<event>
 5   0  0.9908800E+08  0.9118800E+02  0.7818608E-02  0.1180000E+00
       11   -1    0    0    0    0  0.00000000000E+00  0.00000000000E+00  0.39999999673E+01  0.40000000000E+01  0.51109989000E-03 0.  1.
     -623   -1    0    0    0    0  0.00000000000E+00  0.00000000000E+00  0.12525980253E-10  0.17130000000E+03  0.17130000000E+03 0. -1.
       11    1    1    2    0    0  0.17802050998E-02  0.23240078698E-02  0.19105240569E+00  0.19107551670E+00  0.51109989000E-03 0.  1.
     -623    1    1    2    0    0 -0.88182751831E-04 -0.86556373609E-03  0.90192006444E-04  0.17130000000E+03  0.17130000000E+03 0. -1.
      622    1    1    2    0    0 -0.16920223480E-02 -0.14584441337E-02  0.38088573697E+01  0.38089244811E+01  0.22500000000E-01 0.  1.
</event>
<event>
 5   0  0.9908800E+08  0.9118800E+02  0.7818608E-02  0.1180000E+00
       11   -1    0    0    0    0  0.00000000000E+00  0.00000000000E+00  0.39999999673E+01  0.40000000000E+01  0.51109989000E-03 0. -1.
     -623   -1    0    0    0    0  0.00000000000E+00  0.00000000000E+00  0.12525980253E-10  0.17130000000E+03  0.17130000000E+03 0.  1.
       11    1    1    2    0    0  0.88166361497E-02  0.12280394509E-01  0.47563281512E+00  0.47587327852E+00  0.51109989000E-03 0. -1.
     -623    1    1    2    0    0  0.87552299784E-02  0.13201516940E-02  0.38254133376E-03  0.17130000023E+03  0.17130000000E+03 0.  1.
      622    1    1    2    0    0 -0.17571866128E-01 -0.13600546203E-01  0.35239846109E+01  0.35241264922E+01  0.22500000000E-01 0. -1.
</event>
<event>
 5   0  0.9908800E+08  0.9118800E+02  0.7818608E-02  0.1180000E+00
       11   -1    0    0    0    0  0.00000000000E+00  0.00000000000E+00  0.39999999673E+01  0.40000000000E+01  0.51109989000E-03 0. -1.
     -623   -1    0    0    0    0  0.00000000000E+00  0.00000000000E+00  0.12525980253E-10  0.17130000000E+03  0.17130000000E+03 0.  1.
       11    1    1    2    0    0 -0.10886928440E-01  0.11490720685E-01  0.11518448277E+01  0.11519537014E+01  0.51109989000E-03 0. -1.
     -623    1    1    2    0    0 -0.10660985450E-02  0.79301851158E-02  0.28920942315E-03  0.17130000019E+03  0.17130000000E+03 0.  1.
      622    1    1    2    0    0  0.11953026984E-01 -0.19420905798E-01  0.28478659290E+01  0.28480461102E+01  0.22500000000E-01 0. -1.
</event>
<event>
 5   0  0.9908800E+08  0.9118800E+02  0.7818608E-02  0.1180000E+00
       11   -1    0    0    0    0  0.00000000000E+00  0.00000000000E+00  0.39999999673E+01  0.40000000000E+01  0.51109989000E-03 0.  1.
     -623   -1    0    0    0    0  0.00000000000E+00  0.00000000000E+00  0.12525980253E-10  0.17130000000E+03  0.17130000000E+03 0.  1.
       11    1    1    2    0    0 -0.40476532633E-02 -0.16291335246E-02  0.37377356448E+00  0.37379937975E+00  0.51109989000E-03 0.  1.
     -623    1    1    2    0    0  0.64220588211E-03 -0.69620447889E-04  0.97586022410E-04  0.17130000000E+03  0.17130000000E+03 0.  1.
      622    1    1    2    0    0  0.34054473803E-02  0.16987539726E-02  0.36261288218E+01  0.36262006240E+01  0.22500000000E-01 0.  1.
</event>
<event>
 5   0  0.9908800E+08  0.9118800E+02  0.7818608E-02  0.1180000E+00
       11   -1    0    0    0    0  0.00000000000E+00  0.00000000000E+00  0.39999999673E+01  0.40000000000E+01  0.51109989000E-03 0. -1.
     -623   -1    0    0    0    0  0.00000000000E+00  0.00000000000E+00  0.12525980253E-10  0.17130000000E+03  0.17130000000E+03 0. -1.
       11    1    1    2    0    0 -0.20634459061E-02 -0.79765139663E-02  0.41700658070E+00  0.41708827861E+00  0.51109989000E-03 0. -1.
     -623    1    1    2    0    0 -0.25880181528E-03  0.25601897348E-04  0.16188888054E-03  0.17130000000E+03  0.17130000000E+03 0. -1.
      622    1    1    2    0    0  0.23222477213E-02  0.79509120689E-02  0.35828314978E+01  0.35829117211E+01  0.22500000000E-01 0. -1.
</event>
<event>
 5   0  0.9908800E+08  0.9118800E+02  0.7818608E-02  0.1180000E+00
       11   -1    0    0    0    0  0.00000000000E+00  0.00000000000E+00  0.39999999673E+01  0.40000000000E+01  0.51109989000E-03 0. -1.
     -623   -1    0    0    0    0  0.00000000000E+00  0.00000000000E+00  0.12525980253E-10  0.17130000000E+03  0.17130000000E+03 0. -1.
       11    1    1    2    0    0 -0.74875318446E-05  0.53539111384E-02  0.42810870600E-02  0.68741070561E-02  0.51109989000E-03 0.  1.
     -623    1    1    2    0    0 -0.14527381250E-02 -0.68903780772E-02  0.26571059962E-02  0.17130000017E+03  0.17130000000E+03 0. -1.
      622    1    1    2    0    0  0.14602256568E-02  0.15364669389E-02  0.39930617743E+01  0.39931257276E+01  0.22500000000E-01 0. -1.
</event>
<event>
 5   0  0.9908800E+08  0.9118800E+02  0.7818608E-02  0.1180000E+00
       11   -1    0    0    0    0  0.00000000000E+00  0.00000000000E+00  0.39999999673E+01  0.40000000000E+01  0.51109989000E-03 0. -1.
     -623   -1    0    0    0    0  0.00000000000E+00  0.00000000000E+00  0.12525980253E-10  0.17130000000E+03  0.17130000000E+03 0. -1.
       11    1    1    2    0    0 -0.34902853639E-02 -0.28514575643E-02  0.78175992980E+00  0.78177308854E+00  0.51109989000E-03 0. -1.
     -623    1    1    2    0    0 -0.45461125105E-02  0.50943037987E-02  0.10273260077E-03  0.17130000014E+03  0.17130000000E+03 0. -1.
      622    1    1    2    0    0  0.80363978744E-02 -0.22428462345E-02  0.32181373050E+01  0.32182267754E+01  0.22500000000E-01 0. -1.
</event>
<event>
 5   0  0.9908800E+08  0.9118800E+02  0.7818608E-02  0.1180000E+00
       11   -1    0    0    0    0  0.00000000000E+00  0.00000000000E+00  0.39999999673E+01  0.40000000000E+01  0.51109989000E-03 0.  1.
     -623   -1    0    0    0    0  0.00000000000E+00  0.00000000000E+00  0.12525980253E-10  0.17130000000E+03  0.17130000000E+03 0.  1.
       11    1    1    2    0    0  0.65939429815E-04 -0.67190149851E-03  0.10696619147E+00  0.10696954305E+00  0.51109989000E-03 0.  1.
     -623    1    1    2    0    0  0.14769122458E-03  0.10532792399E-03  0.68386724027E-04  0.17130000000E+03  0.17130000000E+03 0.  1.
      622    1    1    2    0    0 -0.21363065450E-03  0.56657357444E-03  0.38929653922E+01  0.38930304599E+01  0.22500000000E-01 0.  1.
</event>
<event>
 5   0  0.9908800E+08  0.9118800E+02  0.7818608E-02  0.1180000E+00
       11   -1    0    0    0    0  0.00000000000E+00  0.00000000000E+00  0.39999999673E+01  0.40000000000E+01  0.51109989000E-03 0.  1.
     -623   -1    0    0    0    0  0.00000000000E+00  0.00000000000E+00  0.12525980253E-10  0.17130000000E+03  0.17130000000E+03 0. -1.
       11    1    1    2    0    0 -0.66830954302E-03  0.54587586268E-03  0.87343219315E-01  0.87348977094E-01  0.51109989000E-03 0.  1.
     -623    1    1    2    0    0 -0.18805364158E-03 -0.20671217729E-03  0.70528323080E-04  0.17130000000E+03  0.17130000000E+03 0. -1.
      622    1    1    2    0    0  0.85636318460E-03 -0.33916368539E-03  0.39125862197E+01  0.39126510227E+01  0.22500000000E-01 0.  1.
</event>
<event>
 5   0  0.9908800E+08  0.9118800E+02  0.7818608E-02  0.1180000E+00
       11   -1    0    0    0    0  0.00000000000E+00  0.00000000000E+00  0.39999999673E+01  0.40000000000E+01  0.51109989000E-03 0. -1.
     -623   -1    0    0    0    0  0.00000000000E+00  0.00000000000E+00  0.12525980253E-10  0.17130000000E+03  0.17130000000E+03 0. -1.
       11    1    1    2    0    0  0.13703789258E-01  0.74489774830E-02  0.26615944689E+00  0.26661656643E+00  0.51109989000E-03 0. -1.
     -623    1    1    2    0    0 -0.44768006700E-02 -0.16151746238E-01  0.54725480082E-03  0.17130000082E+03  0.17130000000E+03 0. -1.
      622    1    1    2    0    0 -0.92269885873E-02  0.87027687594E-02  0.37332932667E+01  0.37333826138E+01  0.22500000000E-01 0. -1.
</event>
<event>
 5   0  0.9908800E+08  0.9118800E+02  0.7818608E-02  0.1180000E+00
       11   -1    0    0    0    0  0.00000000000E+00  0.00000000000E+00  0.39999999673E+01  0.40000000000E+01  0.51109989000E-03 0.  1.
     -623   -1    0    0    0    0  0.00000000000E+00  0.00000000000E+00  0.12525980253E-10  0.17130000000E+03  0.17130000000E+03 0. -1.
       11    1    1    2    0    0 -0.17081532774E-02 -0.41387083614E-02  0.52471406808E+00  0.52473341913E+00  0.51109989000E-03 0.  1.
     -623    1    1    2    0    0 -0.78583211189E-02 -0.61148906807E-02  0.12073879567E-03  0.17130000029E+03  0.17130000000E+03 0. -1.
      622    1    1    2    0    0  0.95664743963E-02  0.10253599042E-01  0.34751651605E+01  0.34752662914E+01  0.22500000000E-01 0.  0.
</event>
<event>
 5   0  0.9908800E+08  0.9118800E+02  0.7818608E-02  0.1180000E+00
       11   -1    0    0    0    0  0.00000000000E+00  0.00000000000E+00  0.39999999673E+01  0.40000000000E+01  0.51109989000E-03 0.  1.
     -623   -1    0    0    0    0  0.00000000000E+00  0.00000000000E+00  0.12525980253E-10  0.17130000000E+03  0.17130000000E+03 0.  1.
       11    1    1    2    0    0 -0.10867717061E-02 -0.43714078411E-03  0.30649471352E-01  0.30676106044E-01  0.51109989000E-03 0.  1.
     -623    1    1    2    0    0 -0.35126644183E-03  0.95692498780E-03  0.90670457628E-04  0.17130000000E+03  0.17130000000E+03 0.  1.
      622    1    1    2    0    0  0.14380381478E-02 -0.51978420342E-03  0.39692598244E+01  0.39693238898E+01  0.22500000000E-01 0.  1.
</event>
<event>
 5   0  0.9908800E+08  0.9118800E+02  0.7818608E-02  0.1180000E+00
       11   -1    0    0    0    0  0.00000000000E+00  0.00000000000E+00  0.39999999673E+01  0.40000000000E+01  0.51109989000E-03 0. -1.
     -623   -1    0    0    0    0  0.00000000000E+00  0.00000000000E+00  0.12525980253E-10  0.17130000000E+03  0.17130000000E+03 0. -1.
       11    1    1    2    0    0 -0.42738214345E-01 -0.13290813105E-01  0.35270449562E+00  0.35553329398E+00  0.51109989000E-03 0. -1.
     -623    1    1    2    0    0  0.16992214697E-02  0.61004081112E-02  0.31365347703E-02  0.17130000015E+03  0.17130000000E+03 0. -1.
      622    1    1    2    0    0  0.41038992875E-01  0.71904049938E-02  0.36441589370E+01  0.36444665603E+01  0.22500000000E-01 0. -1.
</event>
<event>
 5   0  0.9908800E+08  0.9118800E+02  0.7818608E-02  0.1180000E+00
       11   -1    0    0    0    0  0.00000000000E+00  0.00000000000E+00  0.39999999673E+01  0.40000000000E+01  0.51109989000E-03 0.  1.
     -623   -1    0    0    0    0  0.00000000000E+00  0.00000000000E+00  0.12525980253E-10  0.17130000000E+03  0.17130000000E+03 0. -1.
       11    1    1    2    0    0  0.36937619254E-02 -0.62404170016E-03  0.42767492237E-01  0.42934286073E-01  0.51109989000E-03 0.  1.
     -623    1    1    2    0    0  0.43145021070E-03  0.52640809940E-03  0.23288256792E-03  0.17130000000E+03  0.17130000000E+03 0. -1.
      622    1    1    2    0    0 -0.41252121361E-02  0.97633600724E-04  0.39569995928E+01  0.39570657127E+01  0.22500000000E-01 0.  1.
</event>
<event>
 5   0  0.9908800E+08  0.9118800E+02  0.7818608E-02  0.1180000E+00
       11   -1    0    0    0    0  0.00000000000E+00  0.00000000000E+00  0.39999999673E+01  0.40000000000E+01  0.51109989000E-03 0. -1.
     -623   -1    0    0    0    0  0.00000000000E+00  0.00000000000E+00  0.12525980253E-10  0.17130000000E+03  0.17130000000E+03 0. -1.
       11    1    1    2    0    0 -0.18985441808E-02  0.33106586835E-03  0.30798628951E-01  0.30863098375E-01  0.51109989000E-03 0. -1.
     -623    1    1    2    0    0  0.15466956118E-03  0.35038220317E-03  0.12865268156E-03  0.17130000000E+03  0.17130000000E+03 0. -1.
      622    1    1    2    0    0  0.17438746196E-02 -0.68144807152E-03  0.39690726857E+01  0.39691369011E+01  0.22500000000E-01 0. -1.
</event>
<event>
 5   0  0.9908800E+08  0.9118800E+02  0.7818608E-02  0.1180000E+00
       11   -1    0    0    0    0  0.00000000000E+00  0.00000000000E+00  0.39999999673E+01  0.40000000000E+01  0.51109989000E-03 0. -1.
     -623   -1    0    0    0    0  0.00000000000E+00  0.00000000000E+00  0.12525980253E-10  0.17130000000E+03  0.17130000000E+03 0.  1.
       11    1    1    2    0    0 -0.81982416002E-03  0.19596526748E-03  0.61025872188E-01  0.61033833322E-01  0.51109989000E-03 0. -1.
     -623    1    1    2    0    0 -0.39546004134E-03  0.53443415771E-04  0.72386658696E-04  0.17130000000E+03  0.17130000000E+03 0.  1.
      622    1    1    2    0    0  0.12152842014E-02 -0.24940868325E-03  0.39389017085E+01  0.39389661662E+01  0.22500000000E-01 0. -1.
</event>
<event>
 5   0  0.9908800E+08  0.9118800E+02  0.7818608E-02  0.1180000E+00
       11   -1    0    0    0    0  0.00000000000E+00  0.00000000000E+00  0.39999999673E+01  0.40000000000E+01  0.51109989000E-03 0.  1.
     -623   -1    0    0    0    0  0.00000000000E+00  0.00000000000E+00  0.12525980253E-10  0.17130000000E+03  0.17130000000E+03 0.  1.
       11    1    1    2    0    0  0.93958166260E-03 -0.10246624745E-02  0.58892408239E-01  0.58911032228E-01  0.51109989000E-03 0.  1.
     -623    1    1    2    0    0  0.99291266153E-04 -0.11216892622E-02  0.83544162650E-04  0.17130000000E+03  0.17130000000E+03 0.  1.
      622    1    1    2    0    0 -0.10388729288E-02  0.21463517377E-02  0.39410240182E+01  0.39410889673E+01  0.22500000000E-01 0.  1.
</event>
<event>
 5   0  0.9908800E+08  0.9118800E+02  0.7818608E-02  0.1180000E+00
       11   -1    0    0    0    0  0.00000000000E+00  0.00000000000E+00  0.39999999673E+01  0.40000000000E+01  0.51109989000E-03 0. -1.
     -623   -1    0    0    0    0  0.00000000000E+00  0.00000000000E+00  0.12525980253E-10  0.17130000000E+03  0.17130000000E+03 0. -1.
       11    1    1    2    0    0 -0.26580997240E-02 -0.45282307536E-02  0.23817727133E+00  0.23823569037E+00  0.51109989000E-03 0. -1.
     -623    1    1    2    0    0  0.66837484204E-03  0.12365438228E-02  0.12764815102E-03  0.17130000001E+03  0.17130000000E+03 0. -1.
      622    1    1    2    0    0  0.19897248820E-02  0.32916869308E-02  0.37616950479E+01  0.37617643038E+01  0.22500000000E-01 0.  0.
</event>
<event>
 5   0  0.9908800E+08  0.9118800E+02  0.7818608E-02  0.1180000E+00
       11   -1    0    0    0    0  0.00000000000E+00  0.00000000000E+00  0.39999999673E+01  0.40000000000E+01  0.51109989000E-03 0.  1.
     -623   -1    0    0    0    0  0.00000000000E+00  0.00000000000E+00  0.12525980253E-10  0.17130000000E+03  0.17130000000E+03 0. -1.
       11    1    1    2    0    0  0.80526686769E-03  0.17250320779E-02  0.90233635976E-01  0.90255163148E-01  0.51109989000E-03 0.  1.
     -623    1    1    2    0    0  0.53616202658E-03 -0.27909134294E-03  0.86735739169E-04  0.17130000000E+03  0.17130000000E+03 0. -1.
      622    1    1    2    0    0 -0.13414288941E-02 -0.14459407351E-02  0.39096795946E+01  0.39097448348E+01  0.22500000000E-01 0.  1.
</event>
<event>
 5   0  0.9908800E+08  0.9118800E+02  0.7818608E-02  0.1180000E+00
       11   -1    0    0    0    0  0.00000000000E+00  0.00000000000E+00  0.39999999673E+01  0.40000000000E+01  0.51109989000E-03 0.  1.
     -623   -1    0    0    0    0  0.00000000000E+00  0.00000000000E+00  0.12525980253E-10  0.17130000000E+03  0.17130000000E+03 0.  1.
       11    1    1    2    0    0 -0.30499191268E-02 -0.33193819295E-03  0.98222804622E-01  0.98272034478E-01  0.51109989000E-03 0.  1.
     -623    1    1    2    0    0  0.17170394511E-03 -0.18305534355E-03  0.11516868258E-03  0.17130000000E+03  0.17130000000E+03 0.  1.
      622    1    1    2    0    0  0.28782151815E-02  0.51499353666E-03  0.39016619978E+01  0.39017279691E+01  0.22500000000E-01 0.  1.
</event>
<event>
 5   0  0.9908800E+08  0.9118800E+02  0.7818608E-02  0.1180000E+00
       11   -1    0    0    0    0  0.00000000000E+00  0.00000000000E+00  0.39999999673E+01  0.40000000000E+01  0.51109989000E-03 0.  1.
     -623   -1    0    0    0    0  0.00000000000E+00  0.00000000000E+00  0.12525980253E-10  0.17130000000E+03  0.17130000000E+03 0.  1.
       11    1    1    2    0    0  0.33808030594E-02 -0.11889957082E-02  0.89405426196E-01  0.89478684586E-01  0.51109989000E-03 0.  1.
     -623    1    1    2    0    0 -0.21212665764E-02  0.48251384524E-02  0.13993003693E-03  0.17130000008E+03  0.17130000000E+03 0.  1.
      622    1    1    2    0    0 -0.12595364830E-02 -0.36361427442E-02  0.39104546111E+01  0.39105212343E+01  0.22500000000E-01 0.  1.
</event>
<event>
 5   0  0.9908800E+08  0.9118800E+02  0.7818608E-02  0.1180000E+00
       11   -1    0    0    0    0  0.00000000000E+00  0.00000000000E+00  0.39999999673E+01  0.40000000000E+01  0.51109989000E-03 0. -1.
     -623   -1    0    0    0    0  0.00000000000E+00  0.00000000000E+00  0.12525980253E-10  0.17130000000E+03  0.17130000000E+03 0. -1.
       11    1    1    2    0    0 -0.83608264824E-03  0.12994552043E-03  0.10849984264E+00  0.10850434552E+00  0.51109989000E-03 0. -1.
     -623    1    1    2    0    0  0.14035219183E-02 -0.99137267622E-02  0.82149626163E-04  0.17130000029E+03  0.17130000000E+03 0. -1.
      622    1    1    2    0    0 -0.56743927194E-03  0.97837812550E-02  0.38914179804E+01  0.38914953672E+01  0.22500000000E-01 0. -1.
</event>
<event>
 5   0  0.9908800E+08  0.9118800E+02  0.7818608E-02  0.1180000E+00
       11   -1    0    0    0    0  0.00000000000E+00  0.00000000000E+00  0.39999999673E+01  0.40000000000E+01  0.51109989000E-03 0. -1.
     -623   -1    0    0    0    0  0.00000000000E+00  0.00000000000E+00  0.12525980253E-10  0.17130000000E+03  0.17130000000E+03 0. -1.
       11    1    1    2    0    0 -0.61111186919E-02 -0.96534109175E-02  0.10651267522E+01  0.10651881494E+01  0.51109989000E-03 0. -1.
     -623    1    1    2    0    0  0.19504273114E-03 -0.81954488359E-04  0.16972588434E-03  0.17130000000E+03  0.17130000000E+03 0. -1.
      622    1    1    2    0    0  0.59160759607E-02  0.97353654059E-02  0.29347034893E+01  0.29348118504E+01  0.22500000000E-01 0. -1.
</event>
<event>
 5   0  0.9908800E+08  0.9118800E+02  0.7818608E-02  0.1180000E+00
       11   -1    0    0    0    0  0.00000000000E+00  0.00000000000E+00  0.39999999673E+01  0.40000000000E+01  0.51109989000E-03 0.  1.
     -623   -1    0    0    0    0  0.00000000000E+00  0.00000000000E+00  0.12525980253E-10  0.17130000000E+03  0.17130000000E+03 0.  1.
       11    1    1    2    0    0 -0.98363988404E-03 -0.33235403734E-02  0.13861698223E+00  0.13866125073E+00  0.51109989000E-03 0.  1.
     -623    1    1    2    0    0  0.52001186069E-03 -0.44987855165E-03  0.11166313702E-03  0.17130000000E+03  0.17130000000E+03 0.  1.
      622    1    1    2    0    0  0.46362802275E-03  0.37734189256E-02  0.38612713266E+01  0.38613387524E+01  0.22500000000E-01 0.  1.
</event>
<event>
 5   0  0.9908800E+08  0.9118800E+02  0.7818608E-02  0.1180000E+00
       11   -1    0    0    0    0  0.00000000000E+00  0.00000000000E+00  0.39999999673E+01  0.40000000000E+01  0.51109989000E-03 0.  1.
     -623   -1    0    0    0    0  0.00000000000E+00  0.00000000000E+00  0.12525980253E-10  0.17130000000E+03  0.17130000000E+03 0.  1.
       11    1    1    2    0    0  0.19696400091E-03  0.69486084573E-04  0.57338123247E-01  0.57340781486E-01  0.51109989000E-03 0.  1.
     -623    1    1    2    0    0  0.59166372273E-04  0.58734498318E-04  0.66838152043E-04  0.17130000000E+03  0.17130000000E+03 0.  1.
      622    1    1    2    0    0 -0.25613037318E-03 -0.12822058289E-03  0.39425950060E+01  0.39426592185E+01  0.22500000000E-01 0.  1.
</event>
<event>
 5   0  0.9908800E+08  0.9118800E+02  0.7818608E-02  0.1180000E+00
       11   -1    0    0    0    0  0.00000000000E+00  0.00000000000E+00  0.39999999673E+01  0.40000000000E+01  0.51109989000E-03 0. -1.
     -623   -1    0    0    0    0  0.00000000000E+00  0.00000000000E+00  0.12525980253E-10  0.17130000000E+03  0.17130000000E+03 0. -1.
       11    1    1    2    0    0 -0.30194708670E-02  0.79979653469E-03  0.89665888639E-01  0.89721734742E-01  0.51109989000E-03 0. -1.
     -623    1    1    2    0    0 -0.48556125714E-03  0.36542220228E-03  0.12229289797E-03  0.17130000000E+03  0.17130000000E+03 0. -1.
      622    1    1    2    0    0  0.35050321242E-02 -0.11652187370E-02  0.39102117858E+01  0.39102782641E+01  0.22500000000E-01 0. -1.
</event>
<event>
 5   0  0.9908800E+08  0.9118800E+02  0.7818608E-02  0.1180000E+00
       11   -1    0    0    0    0  0.00000000000E+00  0.00000000000E+00  0.39999999673E+01  0.40000000000E+01  0.51109989000E-03 0.  1.
     -623   -1    0    0    0    0  0.00000000000E+00  0.00000000000E+00  0.12525980253E-10  0.17130000000E+03  0.17130000000E+03 0. -1.
       11    1    1    2    0    0 -0.37479897141E-03 -0.60755173554E-03  0.52693074868E-02  0.53419488238E-02  0.51109989000E-03 0.  1.
     -623    1    1    2    0    0 -0.18737484133E-03  0.82165528468E-04  0.13604935879E-03  0.17130000000E+03  0.17130000000E+03 0. -1.
      622    1    1    2    0    0  0.56217381274E-03  0.52538620708E-03  0.39945946105E+01  0.39946580510E+01  0.22500000000E-01 0.  1.
</event>
<event>
 5   0  0.9908800E+08  0.9118800E+02  0.7818608E-02  0.1180000E+00
       11   -1    0    0    0    0  0.00000000000E+00  0.00000000000E+00  0.39999999673E+01  0.40000000000E+01  0.51109989000E-03 0.  1.
     -623   -1    0    0    0    0  0.00000000000E+00  0.00000000000E+00  0.12525980253E-10  0.17130000000E+03  0.17130000000E+03 0.  1.
       11    1    1    2    0    0  0.12194591846E-03 -0.27196031846E-02  0.11664410528E-01  0.11988778434E-01  0.51109989000E-03 0.  1.
     -623    1    1    2    0    0 -0.23796703100E-02 -0.23251426852E-03  0.38955614577E-03  0.17130000002E+03  0.17130000000E+03 0.  1.
      622    1    1    2    0    0  0.22577243917E-02  0.29521174531E-02  0.39879460009E+01  0.39880112047E+01  0.22500000000E-01 0.  1.
</event>
<event>
 5   0  0.9908800E+08  0.9118800E+02  0.7818608E-02  0.1180000E+00
       11   -1    0    0    0    0  0.00000000000E+00  0.00000000000E+00  0.39999999673E+01  0.40000000000E+01  0.51109989000E-03 0. -1.
     -623   -1    0    0    0    0  0.00000000000E+00  0.00000000000E+00  0.12525980253E-10  0.17130000000E+03  0.17130000000E+03 0. -1.
       11    1    1    2    0    0 -0.22911513034E-02 -0.48206109890E-02  0.10743778862E+00  0.10757149859E+00  0.51109989000E-03 0. -1.
     -623    1    1    2    0    0  0.23026910169E-03 -0.89767793208E-04  0.20235117880E-03  0.17130000000E+03  0.17130000000E+03 0. -1.
      622    1    1    2    0    0  0.20608822018E-02  0.49103787822E-02  0.38923598276E+01  0.38924285011E+01  0.22500000000E-01 0. -1.
</event>
<event>
 5   0  0.9908800E+08  0.9118800E+02  0.7818608E-02  0.1180000E+00
       11   -1    0    0    0    0  0.00000000000E+00  0.00000000000E+00  0.39999999673E+01  0.40000000000E+01  0.51109989000E-03 0.  1.
     -623   -1    0    0    0    0  0.00000000000E+00  0.00000000000E+00  0.12525980253E-10  0.17130000000E+03  0.17130000000E+03 0.  1.
       11    1    1    2    0    0  0.45216847488E-02  0.15822289756E-02  0.13809918607E+00  0.13818319542E+00  0.51109989000E-03 0.  1.
     -623    1    1    2    0    0  0.64226613032E-04  0.49151776276E-03  0.15280335348E-03  0.17130000000E+03  0.17130000000E+03 0.  1.
      622    1    1    2    0    0 -0.45859113618E-02 -0.20737467383E-02  0.38617479779E+01  0.38618168038E+01  0.22500000000E-01 0.  1.
</event>
<event>
 5   0  0.9908800E+08  0.9118800E+02  0.7818608E-02  0.1180000E+00
       11   -1    0    0    0    0  0.00000000000E+00  0.00000000000E+00  0.39999999673E+01  0.40000000000E+01  0.51109989000E-03 0. -1.
     -623   -1    0    0    0    0  0.00000000000E+00  0.00000000000E+00  0.12525980253E-10  0.17130000000E+03  0.17130000000E+03 0.  1.
       11    1    1    2    0    0  0.18085735212E-01  0.16677116367E-01  0.94359137398E+00  0.94391215814E+00  0.51109989000E-03 0. -1.
     -623    1    1    2    0    0  0.19465343975E-02 -0.13884728583E-01  0.47108634547E-03  0.17130000057E+03  0.17130000000E+03 0.  1.
      622    1    1    2    0    0 -0.20032269609E-01 -0.27923877839E-02  0.30559375070E+01  0.30560872674E+01  0.22500000000E-01 0.  1.
</event>
<event>
 5   0  0.9908800E+08  0.9118800E+02  0.7818608E-02  0.1180000E+00
       11   -1    0    0    0    0  0.00000000000E+00  0.00000000000E+00  0.39999999673E+01  0.40000000000E+01  0.51109989000E-03 0.  1.
     -623   -1    0    0    0    0  0.00000000000E+00  0.00000000000E+00  0.12525980253E-10  0.17130000000E+03  0.17130000000E+03 0. -1.
       11    1    1    2    0    0 -0.50187640969E-02 -0.64998382696E-02  0.32319403036E+00  0.32329874478E+00  0.51109989000E-03 0.  1.
     -623    1    1    2    0    0 -0.40388848605E-02  0.94670855418E-02  0.18619190124E-03  0.17130000031E+03  0.17130000000E+03 0. -1.
      622    1    1    2    0    0  0.90576489590E-02 -0.29672472761E-02  0.36766197467E+01  0.36767009475E+01  0.22500000000E-01 0.  1.
</event>
<event>
 5   0  0.9908800E+08  0.9118800E+02  0.7818608E-02  0.1180000E+00
       11   -1    0    0    0    0  0.00000000000E+00  0.00000000000E+00  0.39999999673E+01  0.40000000000E+01  0.51109989000E-03 0. -1.
     -623   -1    0    0    0    0  0.00000000000E+00  0.00000000000E+00  0.12525980253E-10  0.17130000000E+03  0.17130000000E+03 0. -1.
       11    1    1    2    0    0 -0.99653311718E-02  0.73830864584E-03  0.22017303487E+00  0.22040027094E+00  0.51109989000E-03 0. -1.
     -623    1    1    2    0    0  0.26902667883E-02  0.24206463432E-02  0.30253577525E-03  0.17130000004E+03  0.17130000000E+03 0. -1.
      622    1    1    2    0    0  0.72750643835E-02 -0.31589549890E-02  0.37795243967E+01  0.37795996906E+01  0.22500000000E-01 0. -1.
</event>
<event>
 5   0  0.9908800E+08  0.9118800E+02  0.7818608E-02  0.1180000E+00
       11   -1    0    0    0    0  0.00000000000E+00  0.00000000000E+00  0.39999999673E+01  0.40000000000E+01  0.51109989000E-03 0. -1.
     -623   -1    0    0    0    0  0.00000000000E+00  0.00000000000E+00  0.12525980253E-10  0.17130000000E+03  0.17130000000E+03 0. -1.
       11    1    1    2    0    0 -0.15446158437E-02 -0.36016117943E-03  0.87644814956E-01  0.87660654606E-01  0.51109989000E-03 0. -1.
     -623    1    1    2    0    0 -0.14247935959E-02 -0.33210731372E-04  0.81659300028E-04  0.17130000001E+03  0.17130000000E+03 0. -1.
      622    1    1    2    0    0  0.29694094403E-02  0.39337191081E-03  0.39122734951E+01  0.39123393415E+01  0.22500000000E-01 0.  0.
</event>
<event>
 5   0  0.9908800E+08  0.9118800E+02  0.7818608E-02  0.1180000E+00
       11   -1    0    0    0    0  0.00000000000E+00  0.00000000000E+00  0.39999999673E+01  0.40000000000E+01  0.51109989000E-03 0. -1.
     -623   -1    0    0    0    0  0.00000000000E+00  0.00000000000E+00  0.12525980253E-10  0.17130000000E+03  0.17130000000E+03 0. -1.
       11    1    1    2    0    0 -0.43572539982E-03 -0.46910228335E-03  0.17586106246E-01  0.17605177351E-01  0.51109989000E-03 0. -1.
     -623    1    1    2    0    0  0.86925284040E-03 -0.82899609232E-04  0.82664073126E-04  0.17130000000E+03  0.17130000000E+03 0. -1.
      622    1    1    2    0    0 -0.43352744178E-03  0.55200189269E-03  0.39823312026E+01  0.39823948259E+01  0.22500000000E-01 0. -1.
</event>
<event>
 5   0  0.9908800E+08  0.9118800E+02  0.7818608E-02  0.1180000E+00
       11   -1    0    0    0    0  0.00000000000E+00  0.00000000000E+00  0.39999999673E+01  0.40000000000E+01  0.51109989000E-03 0.  1.
     -623   -1    0    0    0    0  0.00000000000E+00  0.00000000000E+00  0.12525980253E-10  0.17130000000E+03  0.17130000000E+03 0.  1.
       11    1    1    2    0    0  0.53083460930E-02  0.26547119969E-02  0.59995478744E+00  0.59998436165E+00  0.51109989000E-03 0.  1.
     -623    1    1    2    0    0 -0.88822436119E-03 -0.57528957043E-04  0.10785811372E-03  0.17130000000E+03  0.17130000000E+03 0.  1.
      622    1    1    2    0    0 -0.44201217318E-02 -0.25971830399E-02  0.33999373218E+01  0.34000156360E+01  0.22500000000E-01 0.  1.
</event>
<event>
 5   0  0.9908800E+08  0.9118800E+02  0.7818608E-02  0.1180000E+00
       11   -1    0    0    0    0  0.00000000000E+00  0.00000000000E+00  0.39999999673E+01  0.40000000000E+01  0.51109989000E-03 0.  1.
     -623   -1    0    0    0    0  0.00000000000E+00  0.00000000000E+00  0.12525980253E-10  0.17130000000E+03  0.17130000000E+03 0.  1.
       11    1    1    2    0    0  0.70901242857E-02 -0.86351811806E-03  0.24927050705E+00  0.24937333946E+00  0.51109989000E-03 0.  1.
     -623    1    1    2    0    0 -0.40273150526E-02 -0.31881974226E-02  0.17380531589E-03  0.17130000008E+03  0.17130000000E+03 0.  1.
      622    1    1    2    0    0 -0.30628092335E-02  0.40517155403E-02  0.37505556546E+01  0.37506265830E+01  0.22500000000E-01 0.  1.
</event>
<event>
 5   0  0.9908800E+08  0.9118800E+02  0.7818608E-02  0.1180000E+00
       11   -1    0    0    0    0  0.00000000000E+00  0.00000000000E+00  0.39999999673E+01  0.40000000000E+01  0.51109989000E-03 0.  1.
     -623   -1    0    0    0    0  0.00000000000E+00  0.00000000000E+00  0.12525980253E-10  0.17130000000E+03  0.17130000000E+03 0. -1.
       11    1    1    2    0    0 -0.17363755093E-02  0.17471858904E-02  0.69091371146E-02  0.73528943542E-02  0.51109989000E-03 0.  1.
     -623    1    1    2    0    0 -0.28294132051E-02  0.71867399219E-03  0.51052064318E-03  0.17130000003E+03  0.17130000000E+03 0. -1.
      622    1    1    2    0    0  0.45657887144E-02 -0.24658598826E-02  0.39925803096E+01  0.39926470800E+01  0.22500000000E-01 0.  1.
</event>
<event>
 5   0  0.9908800E+08  0.9118800E+02  0.7818608E-02  0.1180000E+00
       11   -1    0    0    0    0  0.00000000000E+00  0.00000000000E+00  0.39999999673E+01  0.40000000000E+01  0.51109989000E-03 0.  1.
     -623   -1    0    0    0    0  0.00000000000E+00  0.00000000000E+00  0.12525980253E-10  0.17130000000E+03  0.17130000000E+03 0. -1.
       11    1    1    2    0    0 -0.14329421089E-02 -0.75855786701E-03  0.22227370667E-01  0.22292284831E-01  0.51109989000E-03 0.  1.
     -623    1    1    2    0    0  0.74371302593E-04 -0.59604223932E-03  0.12898169994E-03  0.17130000000E+03  0.17130000000E+03 0. -1.
      622    1    1    2    0    0  0.13585708063E-02  0.13546001064E-02  0.39776436158E+01  0.39777077148E+01  0.22500000000E-01 0.  1.
</event>
<event>
 5   0  0.9908800E+08  0.9118800E+02  0.7818608E-02  0.1180000E+00
       11   -1    0    0    0    0  0.00000000000E+00  0.00000000000E+00  0.39999999673E+01  0.40000000000E+01  0.51109989000E-03 0. -1.
     -623   -1    0    0    0    0  0.00000000000E+00  0.00000000000E+00  0.12525980253E-10  0.17130000000E+03  0.17130000000E+03 0.  1.
       11    1    1    2    0    0  0.12344584051E-02  0.25793884927E-03  0.33463998849E-02  0.36124832582E-02  0.51109989000E-03 0. -1.
     -623    1    1    2    0    0 -0.98461219013E-03 -0.10231160585E-03  0.32940370488E-03  0.17130000000E+03  0.17130000000E+03 0.  1.
      622    1    1    2    0    0 -0.24984621515E-03 -0.15562724344E-03  0.39963241631E+01  0.39963875129E+01  0.22500000000E-01 0. -1.
</event>
<event>
 5   0  0.9908800E+08  0.9118800E+02  0.7818608E-02  0.1180000E+00
       11   -1    0    0    0    0  0.00000000000E+00  0.00000000000E+00  0.39999999673E+01  0.40000000000E+01  0.51109989000E-03 0. -1.
     -623   -1    0    0    0    0  0.00000000000E+00  0.00000000000E+00  0.12525980253E-10  0.17130000000E+03  0.17130000000E+03 0.  1.
       11    1    1    2    0    0  0.21417844126E-02  0.38135926028E-02  0.36595751312E+00  0.36598400698E+00  0.51109989000E-03 0. -1.
     -623    1    1    2    0    0  0.14414474398E-03  0.97500279623E-04  0.98940012267E-04  0.17130000000E+03  0.17130000000E+03 0.  1.
      622    1    1    2    0    0 -0.22859291567E-02 -0.39110928825E-02  0.36339435183E+01  0.36340159970E+01  0.22500000000E-01 0. -1.
</event>
<event>
 5   0  0.9908800E+08  0.9118800E+02  0.7818608E-02  0.1180000E+00
       11   -1    0    0    0    0  0.00000000000E+00  0.00000000000E+00  0.39999999673E+01  0.40000000000E+01  0.51109989000E-03 0. -1.
     -623   -1    0    0    0    0  0.00000000000E+00  0.00000000000E+00  0.12525980253E-10  0.17130000000E+03  0.17130000000E+03 0. -1.
       11    1    1    2    0    0  0.33277465311E-03  0.15567943881E-03  0.58758302021E-01  0.58761673347E-01  0.51109989000E-03 0. -1.
     -623    1    1    2    0    0 -0.33184693988E-04 -0.15650223065E-03  0.67575422112E-04  0.17130000000E+03  0.17130000000E+03 0. -1.
      622    1    1    2    0    0 -0.29958995906E-03  0.82279213473E-06  0.39411740974E+01  0.39412383340E+01  0.22500000000E-01 0. -1.
</event>
<event>
 5   0  0.9908800E+08  0.9118800E+02  0.7818608E-02  0.1180000E+00
       11   -1    0    0    0    0  0.00000000000E+00  0.00000000000E+00  0.39999999673E+01  0.40000000000E+01  0.51109989000E-03 0.  1.
     -623   -1    0    0    0    0  0.00000000000E+00  0.00000000000E+00  0.12525980253E-10  0.17130000000E+03  0.17130000000E+03 0. -1.
       11    1    1    2    0    0 -0.34102678886E-02  0.20515941628E-01  0.85501744092E+00  0.85527049481E+00  0.51109989000E-03 0.  1.
     -623    1    1    2    0    0 -0.65216110397E-02 -0.51680124992E-02  0.38685516060E-03  0.17130000020E+03  0.17130000000E+03 0. -1.
      622    1    1    2    0    0  0.99318789303E-02 -0.15347929128E-01  0.31445956725E+01  0.31447293039E+01  0.22500000000E-01 0.  1.
</event>
<event>
 5   0  0.9908800E+08  0.9118800E+02  0.7818608E-02  0.1180000E+00
       11   -1    0    0    0    0  0.00000000000E+00  0.00000000000E+00  0.39999999673E+01  0.40000000000E+01  0.51109989000E-03 0.  1.
     -623   -1    0    0    0    0  0.00000000000E+00  0.00000000000E+00  0.12525980253E-10  0.17130000000E+03  0.17130000000E+03 0. -1.
       11    1    1    2    0    0  0.10961898588E-02  0.54886924978E-02  0.33375913789E+00  0.33380645698E+00  0.51109989000E-03 0.  1.
     -623    1    1    2    0    0  0.84342117345E-04 -0.15661791754E-03  0.12039784548E-03  0.17130000000E+03  0.17130000000E+03 0. -1.
      622    1    1    2    0    0 -0.11805319762E-02 -0.53320745801E-02  0.36661204338E+01  0.36661935450E+01  0.22500000000E-01 0.  1.
</event>
<event>
 5   0  0.9908800E+08  0.9118800E+02  0.7818608E-02  0.1180000E+00
       11   -1    0    0    0    0  0.00000000000E+00  0.00000000000E+00  0.39999999673E+01  0.40000000000E+01  0.51109989000E-03 0. -1.
     -623   -1    0    0    0    0  0.00000000000E+00  0.00000000000E+00  0.12525980253E-10  0.17130000000E+03  0.17130000000E+03 0. -1.
       11    1    1    2    0    0 -0.14315651796E-01  0.17717903574E-02  0.56563987799E+00  0.56582400968E+00  0.51109989000E-03 0. -1.
     -623    1    1    2    0    0  0.17181979953E-01 -0.18317828999E-02  0.25987592581E-03  0.17130000087E+03  0.17130000000E+03 0. -1.
      622    1    1    2    0    0 -0.28663281519E-02  0.59992541954E-04  0.34341002123E+01  0.34341751174E+01  0.22500000000E-01 0.  0.
</event>
<event>
 5   0  0.9908800E+08  0.9118800E+02  0.7818608E-02  0.1180000E+00
       11   -1    0    0    0    0  0.00000000000E+00  0.00000000000E+00  0.39999999673E+01  0.40000000000E+01  0.51109989000E-03 0.  1.
     -623   -1    0    0    0    0  0.00000000000E+00  0.00000000000E+00  0.12525980253E-10  0.17130000000E+03  0.17130000000E+03 0.  1.
       11    1    1    2    0    0  0.26377703991E-02 -0.24568389186E-02  0.23070282237E-01  0.23355792293E-01  0.51109989000E-03 0.  1.
     -623    1    1    2    0    0 -0.23745015825E-02  0.16280666209E-03  0.34981814503E-03  0.17130000002E+03  0.17130000000E+03 0.  1.
      622    1    1    2    0    0 -0.26326881662E-03  0.22940322565E-02  0.39765798670E+01  0.39766441908E+01  0.22500000000E-01 0.  1.
</event>
<event>
 5   0  0.9908800E+08  0.9118800E+02  0.7818608E-02  0.1180000E+00
       11   -1    0    0    0    0  0.00000000000E+00  0.00000000000E+00  0.39999999673E+01  0.40000000000E+01  0.51109989000E-03 0.  1.
     -623   -1    0    0    0    0  0.00000000000E+00  0.00000000000E+00  0.12525980253E-10  0.17130000000E+03  0.17130000000E+03 0. -1.
       11    1    1    2    0    0  0.68161780744E-03 -0.59645214007E-02  0.36755897315E-02  0.70577121893E-02  0.51109989000E-03 0.  1.
     -623    1    1    2    0    0 -0.31085693909E-02  0.77773053997E-02  0.34468719436E-02  0.17130000024E+03  0.17130000000E+03 0. -1.
      622    1    1    2    0    0  0.24269515835E-02 -0.18127839992E-02  0.39928775058E+01  0.39929420485E+01  0.22500000000E-01 0.  1.
</event>
<event>
 5   0  0.9908800E+08  0.9118800E+02  0.7818608E-02  0.1180000E+00
       11   -1    0    0    0    0  0.00000000000E+00  0.00000000000E+00  0.39999999673E+01  0.40000000000E+01  0.51109989000E-03 0. -1.
     -623   -1    0    0    0    0  0.00000000000E+00  0.00000000000E+00  0.12525980253E-10  0.17130000000E+03  0.17130000000E+03 0. -1.
       11    1    1    2    0    0  0.13508895709E-02  0.32476728620E-03  0.76175630909E-02  0.77600814601E-02  0.51109989000E-03 0. -1.
     -623    1    1    2    0    0 -0.13993996966E-03 -0.56451961782E-03  0.20608245790E-03  0.17130000000E+03  0.17130000000E+03 0. -1.
      622    1    1    2    0    0 -0.12109496012E-02  0.23975233163E-03  0.39921763218E+01  0.39922399174E+01  0.22500000000E-01 0. -1.
</event>
<event>
 5   0  0.9908800E+08  0.9118800E+02  0.7818608E-02  0.1180000E+00
       11   -1    0    0    0    0  0.00000000000E+00  0.00000000000E+00  0.39999999673E+01  0.40000000000E+01  0.51109989000E-03 0. -1.
     -623   -1    0    0    0    0  0.00000000000E+00  0.00000000000E+00  0.12525980253E-10  0.17130000000E+03  0.17130000000E+03 0. -1.
       11    1    1    2    0    0 -0.65773920238E-02 -0.14820567891E-02  0.88489313087E+00  0.88491896401E+00  0.51109989000E-03 0. -1.
     -623    1    1    2    0    0 -0.17038571837E-02 -0.37810906691E-02  0.12256398808E-03  0.17130000005E+03  0.17130000000E+03 0. -1.
      622    1    1    2    0    0  0.82812492081E-02  0.52631474594E-02  0.31149842738E+01  0.31150809871E+01  0.22500000000E-01 0.  0.
</event>
<event>
 5   0  0.9908800E+08  0.9118800E+02  0.7818608E-02  0.1180000E+00
       11   -1    0    0    0    0  0.00000000000E+00  0.00000000000E+00  0.39999999673E+01  0.40000000000E+01  0.51109989000E-03 0.  1.
     -623   -1    0    0    0    0  0.00000000000E+00  0.00000000000E+00  0.12525980253E-10  0.17130000000E+03  0.17130000000E+03 0.  1.
       11    1    1    2    0    0 -0.65751214704E-02 -0.98415220030E-02  0.94817710831E+00  0.94825111533E+00  0.51109989000E-03 0.  1.
     -623    1    1    2    0    0  0.15562324425E-01 -0.25340815603E-03  0.18755788950E-03  0.17130000071E+03  0.17130000000E+03 0.  1.
      622    1    1    2    0    0 -0.89872029697E-02  0.10094930159E-01  0.30516353051E+01  0.30517481814E+01  0.22500000000E-01 0.  1.
</event>
<event>
 5   0  0.9908800E+08  0.9118800E+02  0.7818608E-02  0.1180000E+00
       11   -1    0    0    0    0  0.00000000000E+00  0.00000000000E+00  0.39999999673E+01  0.40000000000E+01  0.51109989000E-03 0. -1.
     -623   -1    0    0    0    0  0.00000000000E+00  0.00000000000E+00  0.12525980253E-10  0.17130000000E+03  0.17130000000E+03 0. -1.
       11    1    1    2    0    0  0.93908684137E-02  0.99090424603E-02  0.10534556646E+00  0.10622771356E+00  0.51109989000E-03 0. -1.
     -623    1    1    2    0    0 -0.11653738482E-01 -0.11501883031E-01  0.94889119433E-03  0.17130000079E+03  0.17130000000E+03 0. -1.
      622    1    1    2    0    0  0.22628700684E-02  0.15928405706E-02  0.38937055097E+01  0.38937715013E+01  0.22500000000E-01 0. -1.
</event>
<event>
 5   0  0.9908800E+08  0.9118800E+02  0.7818608E-02  0.1180000E+00
       11   -1    0    0    0    0  0.00000000000E+00  0.00000000000E+00  0.39999999673E+01  0.40000000000E+01  0.51109989000E-03 0.  1.
     -623   -1    0    0    0    0  0.00000000000E+00  0.00000000000E+00  0.12525980253E-10  0.17130000000E+03  0.17130000000E+03 0. -1.
       11    1    1    2    0    0 -0.11815590579E-02 -0.79079822082E-03  0.36139254597E-01  0.36170822351E-01  0.51109989000E-03 0.  1.
     -623    1    1    2    0    0 -0.13413913467E-03  0.36312410150E-02  0.96668996561E-04  0.17130000004E+03  0.17130000000E+03 0. -1.
      622    1    1    2    0    0  0.13156981928E-02 -0.28404427994E-02  0.39637640495E+01  0.39638291448E+01  0.22500000000E-01 0.  1.
</event>
<event>
 5   0  0.9908800E+08  0.9118800E+02  0.7818608E-02  0.1180000E+00
       11   -1    0    0    0    0  0.00000000000E+00  0.00000000000E+00  0.39999999673E+01  0.40000000000E+01  0.51109989000E-03 0. -1.
     -623   -1    0    0    0    0  0.00000000000E+00  0.00000000000E+00  0.12525980253E-10  0.17130000000E+03  0.17130000000E+03 0.  1.
       11    1    1    2    0    0  0.83930443666E-03  0.57681940225E-03  0.56416239991E-02  0.57555448141E-02  0.51109989000E-03 0. -1.
     -623    1    1    2    0    0  0.23999448613E-03 -0.86838513417E-03  0.17742003906E-03  0.17130000000E+03  0.17130000000E+03 0.  1.
      622    1    1    2    0    0 -0.10792989228E-02  0.29156573193E-03  0.39941809233E+01  0.39942444527E+01  0.22500000000E-01 0. -1.
</event>
<event>
 5   0  0.9908800E+08  0.9118800E+02  0.7818608E-02  0.1180000E+00
       11   -1    0    0    0    0  0.00000000000E+00  0.00000000000E+00  0.39999999673E+01  0.40000000000E+01  0.51109989000E-03 0. -1.
     -623   -1    0    0    0    0  0.00000000000E+00  0.00000000000E+00  0.12525980253E-10  0.17130000000E+03  0.17130000000E+03 0. -1.
       11    1    1    2    0    0  0.43856304443E-02 -0.17191986986E-01  0.34166555577E+00  0.34212630911E+00  0.51109989000E-03 0. -1.
     -623    1    1    2    0    0 -0.24921222134E-02  0.69096651239E-03  0.56765170899E-03  0.17130000002E+03  0.17130000000E+03 0. -1.
      622    1    1    2    0    0 -0.18935082308E-02  0.16501020474E-01  0.36577667599E+01  0.36578736704E+01  0.22500000000E-01 0. -1.
</event>
<event>
 5   0  0.9908800E+08  0.9118800E+02  0.7818608E-02  0.1180000E+00
       11   -1    0    0    0    0  0.00000000000E+00  0.00000000000E+00  0.39999999673E+01  0.40000000000E+01  0.51109989000E-03 0. -1.
     -623   -1    0    0    0    0  0.00000000000E+00  0.00000000000E+00  0.12525980253E-10  0.17130000000E+03  0.17130000000E+03 0.  1.
       11    1    1    2    0    0  0.60782581129E-03 -0.99554658837E-03  0.35363682183E-01  0.35386604893E-01  0.51109989000E-03 0. -1.
     -623    1    1    2    0    0  0.14544147306E-03  0.27018467365E-02  0.87196797346E-04  0.17130000002E+03  0.17130000000E+03 0.  1.
      622    1    1    2    0    0 -0.75326728439E-03 -0.17063001489E-02  0.39645490895E+01  0.39646133748E+01  0.22500000000E-01 0. -1.
</event>
<event>
 5   0  0.9908800E+08  0.9118800E+02  0.7818608E-02  0.1180000E+00
       11   -1    0    0    0    0  0.00000000000E+00  0.00000000000E+00  0.39999999673E+01  0.40000000000E+01  0.51109989000E-03 0.  1.
     -623   -1    0    0    0    0  0.00000000000E+00  0.00000000000E+00  0.12525980253E-10  0.17130000000E+03  0.17130000000E+03 0.  1.
       11    1    1    2    0    0 -0.84138890817E-02 -0.23167727379E-02  0.22494420230E+00  0.22511400742E+00  0.51109989000E-03 0.  1.
     -623    1    1    2    0    0  0.53577907165E-02  0.59371140563E-02  0.23998813244E-03  0.17130000019E+03  0.17130000000E+03 0.  1.
      622    1    1    2    0    0  0.30560983652E-02 -0.36203413184E-02  0.37748157769E+01  0.37748858057E+01  0.22500000000E-01 0.  1.
</event>
<event>
 5   0  0.9908800E+08  0.9118800E+02  0.7818608E-02  0.1180000E+00
       11   -1    0    0    0    0  0.00000000000E+00  0.00000000000E+00  0.39999999673E+01  0.40000000000E+01  0.51109989000E-03 0. -1.
     -623   -1    0    0    0    0  0.00000000000E+00  0.00000000000E+00  0.12525980253E-10  0.17130000000E+03  0.17130000000E+03 0. -1.
       11    1    1    2    0    0 -0.80406376779E-03  0.15589215400E-02  0.61809494864E-02  0.64453172584E-02  0.51109989000E-03 0. -1.
     -623    1    1    2    0    0 -0.16563262378E-02  0.38603466291E-03  0.32895932594E-03  0.17130000001E+03  0.17130000000E+03 0. -1.
      622    1    1    2    0    0  0.24603900053E-02 -0.19449562028E-02  0.39934900576E+01  0.39935546731E+01  0.22500000000E-01 0. -1.
</event>
<event>
 5   0  0.9908800E+08  0.9118800E+02  0.7818608E-02  0.1180000E+00
       11   -1    0    0    0    0  0.00000000000E+00  0.00000000000E+00  0.39999999673E+01  0.40000000000E+01  0.51109989000E-03 0.  1.
     -623   -1    0    0    0    0  0.00000000000E+00  0.00000000000E+00  0.12525980253E-10  0.17130000000E+03  0.17130000000E+03 0.  1.
       11    1    1    2    0    0 -0.73110719588E-02 -0.35360686084E-02  0.33533118251E+00  0.33542990138E+00  0.51109989000E-03 0.  1.
     -623    1    1    2    0    0  0.10008510310E-02 -0.31869884530E-04  0.17493350651E-03  0.17130000000E+03  0.17130000000E+03 0.  1.
      622    1    1    2    0    0  0.63102209278E-02  0.35679384929E-02  0.36644938513E+01  0.36645700956E+01  0.22500000000E-01 0.  1.
</event>
<event>
 5   0  0.9908800E+08  0.9118800E+02  0.7818608E-02  0.1180000E+00
       11   -1    0    0    0    0  0.00000000000E+00  0.00000000000E+00  0.39999999673E+01  0.40000000000E+01  0.51109989000E-03 0.  1.
     -623   -1    0    0    0    0  0.00000000000E+00  0.00000000000E+00  0.12525980253E-10  0.17130000000E+03  0.17130000000E+03 0. -1.
       11    1    1    2    0    0  0.11777800104E-03  0.74643767566E-03  0.21058331866E-02  0.22949504065E-02  0.51109989000E-03 0.  1.
     -623    1    1    2    0    0  0.11454471258E-03 -0.85342238665E-04  0.25246431829E-03  0.17130000000E+03  0.17130000000E+03 0. -1.
      622    1    1    2    0    0 -0.23232271366E-03 -0.66109543697E-03  0.39976416710E+01  0.39977050505E+01  0.22500000000E-01 0.  1.
</event>
<event>
 5   0  0.9908800E+08  0.9118800E+02  0.7818608E-02  0.1180000E+00
       11   -1    0    0    0    0  0.00000000000E+00  0.00000000000E+00  0.39999999673E+01  0.40000000000E+01  0.51109989000E-03 0.  1.
     -623   -1    0    0    0    0  0.00000000000E+00  0.00000000000E+00  0.12525980253E-10  0.17130000000E+03  0.17130000000E+03 0.  1.
       11    1    1    2    0    0  0.15907979564E-02  0.43299667807E-02  0.39605650929E+00  0.39608370204E+00  0.51109989000E-03 0.  1.
     -623    1    1    2    0    0 -0.42293220362E-03 -0.16516830835E-04  0.10016806059E-03  0.17130000000E+03  0.17130000000E+03 0.  1.
      622    1    1    2    0    0 -0.11678657528E-02 -0.43134499499E-02  0.36038432900E+01  0.36039162974E+01  0.22500000000E-01 0.  1.
</event>
<event>
 5   0  0.9908800E+08  0.9118800E+02  0.7818608E-02  0.1180000E+00
       11   -1    0    0    0    0  0.00000000000E+00  0.00000000000E+00  0.39999999673E+01  0.40000000000E+01  0.51109989000E-03 0. -1.
     -623   -1    0    0    0    0  0.00000000000E+00  0.00000000000E+00  0.12525980253E-10  0.17130000000E+03  0.17130000000E+03 0. -1.
       11    1    1    2    0    0  0.84869807878E-02  0.10378949537E-01  0.93781735403E+00  0.93791332338E+00  0.51109989000E-03 0. -1.
     -623    1    1    2    0    0 -0.18807881655E-03 -0.18356443692E-02  0.20177673317E-03  0.17130000001E+03  0.17130000000E+03 0. -1.
      622    1    1    2    0    0 -0.82989019712E-02 -0.85433051674E-02  0.30619808379E+01  0.30620866679E+01  0.22500000000E-01 0. -1.
</event>
<event>
 5   0  0.9908800E+08  0.9118800E+02  0.7818608E-02  0.1180000E+00
       11   -1    0    0    0    0  0.00000000000E+00  0.00000000000E+00  0.39999999673E+01  0.40000000000E+01  0.51109989000E-03 0.  1.
     -623   -1    0    0    0    0  0.00000000000E+00  0.00000000000E+00  0.12525980253E-10  0.17130000000E+03  0.17130000000E+03 0.  1.
       11    1    1    2    0    0 -0.11511348036E-02  0.19317285645E-03  0.30351733781E-01  0.30378469246E-01  0.51109989000E-03 0.  1.
     -623    1    1    2    0    0 -0.36325683762E-04 -0.19421872093E-03  0.90646608692E-04  0.17130000000E+03  0.17130000000E+03 0.  1.
      622    1    1    2    0    0  0.11874604874E-02  0.10458646942E-05  0.39695575915E+01  0.39696215352E+01  0.22500000000E-01 0.  1.
</event>
<event>
 5   0  0.9908800E+08  0.9118800E+02  0.7818608E-02  0.1180000E+00
       11   -1    0    0    0    0  0.00000000000E+00  0.00000000000E+00  0.39999999673E+01  0.40000000000E+01  0.51109989000E-03 0. -1.
     -623   -1    0    0    0    0  0.00000000000E+00  0.00000000000E+00  0.12525980253E-10  0.17130000000E+03  0.17130000000E+03 0. -1.
       11    1    1    2    0    0  0.94020141230E-03  0.65926106800E-03  0.34053415492E-01  0.34076603897E-01  0.51109989000E-03 0. -1.
     -623    1    1    2    0    0  0.12256572147E-03  0.21346470139E-03  0.87219887746E-04  0.17130000000E+03  0.17130000000E+03 0. -1.
      622    1    1    2    0    0 -0.10627671338E-02 -0.87272576940E-03  0.39658593320E+01  0.39659233959E+01  0.22500000000E-01 0. -1.
</event>
<event>
 5   0  0.9908800E+08  0.9118800E+02  0.7818608E-02  0.1180000E+00
       11   -1    0    0    0    0  0.00000000000E+00  0.00000000000E+00  0.39999999673E+01  0.40000000000E+01  0.51109989000E-03 0.  1.
     -623   -1    0    0    0    0  0.00000000000E+00  0.00000000000E+00  0.12525980253E-10  0.17130000000E+03  0.17130000000E+03 0. -1.
       11    1    1    2    0    0 -0.38198041739E-02  0.18733473931E-02  0.42930766154E+00  0.42932904608E+00  0.51109989000E-03 0.  1.
     -623    1    1    2    0    0  0.52811731569E-04 -0.79815985385E-03  0.94393518555E-04  0.17130000000E+03  0.17130000000E+03 0. -1.
      622    1    1    2    0    0  0.37669924424E-02 -0.10751875394E-02  0.35705979117E+01  0.35706709514E+01  0.22500000000E-01 0.  1.
</event>
<event>
 5   0  0.9908800E+08  0.9118800E+02  0.7818608E-02  0.1180000E+00
       11   -1    0    0    0    0  0.00000000000E+00  0.00000000000E+00  0.39999999673E+01  0.40000000000E+01  0.51109989000E-03 0.  1.
     -623   -1    0    0    0    0  0.00000000000E+00  0.00000000000E+00  0.12525980253E-10  0.17130000000E+03  0.17130000000E+03 0.  1.
       11    1    1    2    0    0 -0.57046192791E-03 -0.80920749552E-04  0.19697741268E-01  0.19712792980E-01  0.51109989000E-03 0.  1.
     -623    1    1    2    0    0  0.20931563370E-02 -0.27865681830E-02  0.79973893254E-04  0.17130000004E+03  0.17130000000E+03 0.  1.
      622    1    1    2    0    0 -0.15226944091E-02  0.28674889326E-02  0.39802222522E+01  0.39802871715E+01  0.22500000000E-01 0.  1.
</event>
<event>
 5   0  0.9908800E+08  0.9118800E+02  0.7818608E-02  0.1180000E+00
       11   -1    0    0    0    0  0.00000000000E+00  0.00000000000E+00  0.39999999673E+01  0.40000000000E+01  0.51109989000E-03 0. -1.
     -623   -1    0    0    0    0  0.00000000000E+00  0.00000000000E+00  0.12525980253E-10  0.17130000000E+03  0.17130000000E+03 0. -1.
       11    1    1    2    0    0  0.39051749428E-03 -0.13477108817E-03  0.84850231749E-04  0.66263852810E-03  0.51109989000E-03 0. -1.
     -623    1    1    2    0    0 -0.68193432796E-03 -0.83238399844E-04  0.64106702854E-03  0.17130000000E+03  0.17130000000E+03 0. -1.
      622    1    1    2    0    0  0.29141683377E-03  0.21800948802E-03  0.39992740506E+01  0.39993373594E+01  0.22500000000E-01 0. -1.
</event>
<event>
 5   0  0.9908800E+08  0.9118800E+02  0.7818608E-02  0.1180000E+00
       11   -1    0    0    0    0  0.00000000000E+00  0.00000000000E+00  0.39999999673E+01  0.40000000000E+01  0.51109989000E-03 0.  1.
     -623   -1    0    0    0    0  0.00000000000E+00  0.00000000000E+00  0.12525980253E-10  0.17130000000E+03  0.17130000000E+03 0.  1.
       11    1    1    2    0    0  0.16733377399E-02  0.20968245703E-02  0.15686333163E+00  0.15688710198E+00  0.51109989000E-03 0.  1.
     -623    1    1    2    0    0 -0.60639097292E-05  0.16214378923E-03  0.90628528856E-04  0.17130000000E+03  0.17130000000E+03 0.  1.
      622    1    1    2    0    0 -0.16672738302E-02 -0.22589683597E-02  0.38430460098E+01  0.38431129005E+01  0.22500000000E-01 0.  1.
</event>
<event>
 5   0  0.9908800E+08  0.9118800E+02  0.7818608E-02  0.1180000E+00
       11   -1    0    0    0    0  0.00000000000E+00  0.00000000000E+00  0.39999999673E+01  0.40000000000E+01  0.51109989000E-03 0.  1.
     -623   -1    0    0    0    0  0.00000000000E+00  0.00000000000E+00  0.12525980253E-10  0.17130000000E+03  0.17130000000E+03 0. -1.
       11    1    1    2    0    0 -0.74664838141E-02  0.15823898608E-01  0.15026880493E+00  0.15128489384E+00  0.51109989000E-03 0.  1.
     -623    1    1    2    0    0  0.11061545827E-01 -0.19995055846E-01  0.10872925642E-02  0.17130000153E+03  0.17130000000E+03 0. -1.
      622    1    1    2    0    0 -0.35950620132E-02  0.41711572379E-02  0.38486438699E+01  0.38487135786E+01  0.22500000000E-01 0.  1.
</event>
<event>
 5   0  0.9908800E+08  0.9118800E+02  0.7818608E-02  0.1180000E+00
       11   -1    0    0    0    0  0.00000000000E+00  0.00000000000E+00  0.39999999673E+01  0.40000000000E+01  0.51109989000E-03 0.  1.
     -623   -1    0    0    0    0  0.00000000000E+00  0.00000000000E+00  0.12525980253E-10  0.17130000000E+03  0.17130000000E+03 0.  1.
       11    1    1    2    0    0 -0.51546831583E-02  0.16091318800E-02  0.20626880238E+00  0.20634010789E+00  0.51109989000E-03 0.  1.
     -623    1    1    2    0    0  0.21964146648E-03 -0.21638525074E-02  0.14126101138E-03  0.17130000001E+03  0.17130000000E+03 0.  1.
      622    1    1    2    0    0  0.49350416919E-02  0.55472062738E-03  0.37935899040E+01  0.37936598782E+01  0.22500000000E-01 0.  1.
</event>
<event>
 5   0  0.9908800E+08  0.9118800E+02  0.7818608E-02  0.1180000E+00
       11   -1    0    0    0    0  0.00000000000E+00  0.00000000000E+00  0.39999999673E+01  0.40000000000E+01  0.51109989000E-03 0. -1.
     -623   -1    0    0    0    0  0.00000000000E+00  0.00000000000E+00  0.12525980253E-10  0.17130000000E+03  0.17130000000E+03 0.  1.
       11    1    1    2    0    0  0.26212382330E-01  0.11150808887E-01  0.82599806884E+00  0.82648926216E+00  0.51109989000E-03 0. -1.
     -623    1    1    2    0    0 -0.36073247212E-02  0.75031425414E-02  0.70646611441E-03  0.17130000020E+03  0.17130000000E+03 0.  1.
      622    1    1    2    0    0 -0.22605057609E-01 -0.18653951429E-01  0.31732954326E+01  0.31735105343E+01  0.22500000000E-01 0. -1.
</event>
<event>
 5   0  0.9908800E+08  0.9118800E+02  0.7818608E-02  0.1180000E+00
       11   -1    0    0    0    0  0.00000000000E+00  0.00000000000E+00  0.39999999673E+01  0.40000000000E+01  0.51109989000E-03 0. -1.
     -623   -1    0    0    0    0  0.00000000000E+00  0.00000000000E+00  0.12525980253E-10  0.17130000000E+03  0.17130000000E+03 0.  1.
       11    1    1    2    0    0  0.20503677442E-02  0.28309730090E-02  0.76447174311E-01  0.76528753397E-01  0.51109989000E-03 0. -1.
     -623    1    1    2    0    0  0.10605365162E-03 -0.22847214164E-02  0.14670852639E-03  0.17130000002E+03  0.17130000000E+03 0.  1.
      622    1    1    2    0    0 -0.21564213958E-02 -0.54625159251E-03  0.39234060845E+01  0.39234712313E+01  0.22500000000E-01 0. -1.
</event>
<event>
 5   0  0.9908800E+08  0.9118800E+02  0.7818608E-02  0.1180000E+00
       11   -1    0    0    0    0  0.00000000000E+00  0.00000000000E+00  0.39999999673E+01  0.40000000000E+01  0.51109989000E-03 0.  1.
     -623   -1    0    0    0    0  0.00000000000E+00  0.00000000000E+00  0.12525980253E-10  0.17130000000E+03  0.17130000000E+03 0. -1.
       11    1    1    2    0    0  0.14683848741E-02 -0.99583730907E-03  0.49096031924E-02  0.52453095894E-02  0.51109989000E-03 0.  1.
     -623    1    1    2    0    0 -0.20536881416E-02  0.32204760115E-02  0.39974398017E-03  0.17130000004E+03  0.17130000000E+03 0. -1.
      622    1    1    2    0    0  0.58530326761E-03 -0.22246387026E-02  0.39946906204E+01  0.39947546475E+01  0.22500000000E-01 0.  1.
</event>
<event>
 5   0  0.9908800E+08  0.9118800E+02  0.7818608E-02  0.1180000E+00
       11   -1    0    0    0    0  0.00000000000E+00  0.00000000000E+00  0.39999999673E+01  0.40000000000E+01  0.51109989000E-03 0.  1.
     -623   -1    0    0    0    0  0.00000000000E+00  0.00000000000E+00  0.12525980253E-10  0.17130000000E+03  0.17130000000E+03 0.  1.
       11    1    1    2    0    0  0.29834987529E-01 -0.75026734685E-02  0.22374011702E+00  0.22584578318E+00  0.51109989000E-03 0.  1.
     -623    1    1    2    0    0 -0.76623170843E-02 -0.13191346787E-01  0.22952653068E-02  0.17130000069E+03  0.17130000000E+03 0.  1.
      622    1    1    2    0    0 -0.22172670444E-01  0.20694020256E-01  0.37739645851E+01  0.37741535222E+01  0.22500000000E-01 0.  1.
</event>
<event>
 5   0  0.9908800E+08  0.9118800E+02  0.7818608E-02  0.1180000E+00
       11   -1    0    0    0    0  0.00000000000E+00  0.00000000000E+00  0.39999999673E+01  0.40000000000E+01  0.51109989000E-03 0. -1.
     -623   -1    0    0    0    0  0.00000000000E+00  0.00000000000E+00  0.12525980253E-10  0.17130000000E+03  0.17130000000E+03 0.  1.
       11    1    1    2    0    0  0.84017134422E-02 -0.16031141901E-01  0.62388942355E+00  0.62415211314E+00  0.51109989000E-03 0. -1.
     -623    1    1    2    0    0 -0.20708937834E-01  0.20846944125E-01  0.36602940411E-03  0.17130000252E+03  0.17130000000E+03 0.  1.
      622    1    1    2    0    0  0.12307224392E-01 -0.48158022240E-02  0.33757445144E+01  0.33758453662E+01  0.22500000000E-01 0. -1.
</event>
<event>
 5   0  0.9908800E+08  0.9118800E+02  0.7818608E-02  0.1180000E+00
       11   -1    0    0    0    0  0.00000000000E+00  0.00000000000E+00  0.39999999673E+01  0.40000000000E+01  0.51109989000E-03 0. -1.
     -623   -1    0    0    0    0  0.00000000000E+00  0.00000000000E+00  0.12525980253E-10  0.17130000000E+03  0.17130000000E+03 0.  1.
       11    1    1    2    0    0 -0.70781231687E-03  0.98884822573E-03  0.13375484316E+00  0.13376134760E+00  0.51109989000E-03 0. -1.
     -623    1    1    2    0    0  0.45899238365E-03 -0.87669840521E-04  0.72056648724E-04  0.17130000000E+03  0.17130000000E+03 0.  1.
      622    1    1    2    0    0  0.24881993248E-03 -0.90117838506E-03  0.38661730740E+01  0.38662386582E+01  0.22500000000E-01 0. -1.
</event>
<event>
 5   0  0.9908800E+08  0.9118800E+02  0.7818608E-02  0.1180000E+00
       11   -1    0    0    0    0  0.00000000000E+00  0.00000000000E+00  0.39999999673E+01  0.40000000000E+01  0.51109989000E-03 0.  1.
     -623   -1    0    0    0    0  0.00000000000E+00  0.00000000000E+00  0.12525980253E-10  0.17130000000E+03  0.17130000000E+03 0.  1.
       11    1    1    2    0    0  0.79213490557E-02 -0.66780419282E-02  0.63754509803E+00  0.63762948274E+00  0.51109989000E-03 0.  1.
     -623    1    1    2    0    0  0.11180376675E-02  0.16440938427E-04  0.17838861937E-03  0.17130000000E+03  0.17130000000E+03 0.  1.
      622    1    1    2    0    0 -0.90393867231E-02  0.66616009897E-02  0.33622764807E+01  0.33623705135E+01  0.22500000000E-01 0.  0.
</event>
<event>
 5   0  0.9908800E+08  0.9118800E+02  0.7818608E-02  0.1180000E+00
       11   -1    0    0    0    0  0.00000000000E+00  0.00000000000E+00  0.39999999673E+01  0.40000000000E+01  0.51109989000E-03 0.  1.
     -623   -1    0    0    0    0  0.00000000000E+00  0.00000000000E+00  0.12525980253E-10  0.17130000000E+03  0.17130000000E+03 0.  1.
       11    1    1    2    0    0  0.34029062088E-03 -0.90668544883E-03  0.21368137375E-01  0.21396177093E-01  0.51109989000E-03 0.  1.
     -623    1    1    2    0    0 -0.79540903841E-05  0.54108272924E-03  0.91660708741E-04  0.17130000000E+03  0.17130000000E+03 0.  1.
      622    1    1    2    0    0 -0.33233653048E-03  0.36560271911E-03  0.39785401727E+01  0.39786038255E+01  0.22500000000E-01 0.  1.
</event>
<event>
 5   0  0.9908800E+08  0.9118800E+02  0.7818608E-02  0.1180000E+00
       11   -1    0    0    0    0  0.00000000000E+00  0.00000000000E+00  0.39999999673E+01  0.40000000000E+01  0.51109989000E-03 0.  1.
     -623   -1    0    0    0    0  0.00000000000E+00  0.00000000000E+00  0.12525980253E-10  0.17130000000E+03  0.17130000000E+03 0. -1.
       11    1    1    2    0    0 -0.10774732400E-02  0.18912239825E-03  0.92251566363E-02  0.93038406999E-02  0.51109989000E-03 0.  1.
     -623    1    1    2    0    0  0.10118433813E-02 -0.81165768107E-03  0.14213477784E-03  0.17130000000E+03  0.17130000000E+03 0. -1.
      622    1    1    2    0    0  0.65629858710E-04  0.62253528282E-03  0.39906326759E+01  0.39906961543E+01  0.22500000000E-01 0.  1.
</event>
<event>
 5   0  0.9908800E+08  0.9118800E+02  0.7818608E-02  0.1180000E+00
       11   -1    0    0    0    0  0.00000000000E+00  0.00000000000E+00  0.39999999673E+01  0.40000000000E+01  0.51109989000E-03 0.  1.
     -623   -1    0    0    0    0  0.00000000000E+00  0.00000000000E+00  0.12525980253E-10  0.17130000000E+03  0.17130000000E+03 0.  1.
       11    1    1    2    0    0  0.87259782707E-03  0.10472316475E-02  0.85553256983E-02  0.86783028087E-02  0.51109989000E-03 0.  1.
     -623    1    1    2    0    0  0.36439253312E-03 -0.25721694602E-03  0.18663437193E-03  0.17130000000E+03  0.17130000000E+03 0.  1.
      622    1    1    2    0    0 -0.12369903602E-02 -0.79001470144E-03  0.39912580073E+01  0.39913216965E+01  0.22500000000E-01 0.  1.
</event>
<event>
 5   0  0.9908800E+08  0.9118800E+02  0.7818608E-02  0.1180000E+00
       11   -1    0    0    0    0  0.00000000000E+00  0.00000000000E+00  0.39999999673E+01  0.40000000000E+01  0.51109989000E-03 0.  1.
     -623   -1    0    0    0    0  0.00000000000E+00  0.00000000000E+00  0.12525980253E-10  0.17130000000E+03  0.17130000000E+03 0. -1.
       11    1    1    2    0    0  0.13682609304E-03  0.61577292748E-03  0.44399376018E-02  0.45135536646E-02  0.51109989000E-03 0.  1.
     -623    1    1    2    0    0  0.52689985668E-03 -0.10177173579E-02  0.13701589746E-03  0.17130000000E+03  0.17130000000E+03 0. -1.
      622    1    1    2    0    0 -0.66372594988E-03  0.40194443072E-03  0.39954230151E+01  0.39954864437E+01  0.22500000000E-01 0.  1.
</event>
<event>
 5   0  0.9908800E+08  0.9118800E+02  0.7818608E-02  0.1180000E+00
       11   -1    0    0    0    0  0.00000000000E+00  0.00000000000E+00  0.39999999673E+01  0.40000000000E+01  0.51109989000E-03 0.  1.
     -623   -1    0    0    0    0  0.00000000000E+00  0.00000000000E+00  0.12525980253E-10  0.17130000000E+03  0.17130000000E+03 0.  1.
       11    1    1    2    0    0  0.65843379855E-03 -0.14504821505E-03  0.21743416417E-01  0.21759870251E-01  0.51109989000E-03 0.  1.
     -623    1    1    2    0    0 -0.78782868459E-03 -0.61571416466E-03  0.80126867034E-04  0.17130000000E+03  0.17130000000E+03 0.  1.
      622    1    1    2    0    0  0.12939488604E-03  0.76076237971E-03  0.39781764241E+01  0.39782401268E+01  0.22500000000E-01 0.  1.
</event>
<event>
 5   0  0.9908800E+08  0.9118800E+02  0.7818608E-02  0.1180000E+00
       11   -1    0    0    0    0  0.00000000000E+00  0.00000000000E+00  0.39999999673E+01  0.40000000000E+01  0.51109989000E-03 0. -1.
     -623   -1    0    0    0    0  0.00000000000E+00  0.00000000000E+00  0.12525980253E-10  0.17130000000E+03  0.17130000000E+03 0. -1.
       11    1    1    2    0    0  0.31971265170E-02  0.68918723629E-02  0.19760625988E+00  0.19775291321E+00  0.51109989000E-03 0. -1.
     -623    1    1    2    0    0 -0.19040511365E-03  0.35286724754E-03  0.22128534328E-03  0.17130000000E+03  0.17130000000E+03 0. -1.
      622    1    1    2    0    0 -0.30067214033E-02 -0.72447396104E-02  0.38021724221E+01  0.38022470862E+01  0.22500000000E-01 0. -1.
</event>
<event>
 5   0  0.9908800E+08  0.9118800E+02  0.7818608E-02  0.1180000E+00
       11   -1    0    0    0    0  0.00000000000E+00  0.00000000000E+00  0.39999999673E+01  0.40000000000E+01  0.51109989000E-03 0.  1.
     -623   -1    0    0    0    0  0.00000000000E+00  0.00000000000E+00  0.12525980253E-10  0.17130000000E+03  0.17130000000E+03 0. -1.
       11    1    1    2    0    0  0.52591763223E-02  0.40484081448E-02  0.23810891807E+00  0.23820194506E+00  0.51109989000E-03 0.  1.
     -623    1    1    2    0    0  0.30932340410E-01  0.80643513323E-02  0.35687178521E-03  0.17130000298E+03  0.17130000000E+03 0. -1.
      622    1    1    2    0    0 -0.36191516728E-01 -0.12112759476E-01  0.37615341770E+01  0.37617950715E+01  0.22500000000E-01 0.  1.
</event>
<event>
 5   0  0.9908800E+08  0.9118800E+02  0.7818608E-02  0.1180000E+00
       11   -1    0    0    0    0  0.00000000000E+00  0.00000000000E+00  0.39999999673E+01  0.40000000000E+01  0.51109989000E-03 0.  1.
     -623   -1    0    0    0    0  0.00000000000E+00  0.00000000000E+00  0.12525980253E-10  0.17130000000E+03  0.17130000000E+03 0. -1.
       11    1    1    2    0    0 -0.10772553363E-01  0.74480655359E-02  0.98511708253E+00  0.98520426770E+00  0.51109989000E-03 0.  1.
     -623    1    1    2    0    0  0.44617528677E-02 -0.29610154707E-02  0.18114296327E-03  0.17130000008E+03  0.17130000000E+03 0. -1.
      622    1    1    2    0    0  0.63108004950E-02 -0.44870500652E-02  0.30147017419E+01  0.30147956485E+01  0.22500000000E-01 0.  0.
</event>
<event>
 5   0  0.9908800E+08  0.9118800E+02  0.7818608E-02  0.1180000E+00
       11   -1    0    0    0    0  0.00000000000E+00  0.00000000000E+00  0.39999999673E+01  0.40000000000E+01  0.51109989000E-03 0.  1.
     -623   -1    0    0    0    0  0.00000000000E+00  0.00000000000E+00  0.12525980253E-10  0.17130000000E+03  0.17130000000E+03 0.  1.
       11    1    1    2    0    0 -0.36892294894E-02 -0.17150102104E-02  0.44473194008E-01  0.44661816830E-01  0.51109989000E-03 0.  1.
     -623    1    1    2    0    0 -0.38919278146E-03 -0.30430020762E-02  0.25757869684E-03  0.17130000003E+03  0.17130000000E+03 0.  1.
      622    1    1    2    0    0  0.40784222709E-02  0.47580122867E-02  0.39552691947E+01  0.39553381556E+01  0.22500000000E-01 0.  1.
</event>
<event>
 5   0  0.9908800E+08  0.9118800E+02  0.7818608E-02  0.1180000E+00
       11   -1    0    0    0    0  0.00000000000E+00  0.00000000000E+00  0.39999999673E+01  0.40000000000E+01  0.51109989000E-03 0. -1.
     -623   -1    0    0    0    0  0.00000000000E+00  0.00000000000E+00  0.12525980253E-10  0.17130000000E+03  0.17130000000E+03 0. -1.
       11    1    1    2    0    0 -0.28407522603E-02 -0.64261090820E-03  0.21545879911E+00  0.21547908985E+00  0.51109989000E-03 0. -1.
     -623    1    1    2    0    0  0.80495155200E-03 -0.16068200471E-02  0.88368508677E-04  0.17130000001E+03  0.17130000000E+03 0. -1.
      622    1    1    2    0    0  0.20358007083E-02  0.22494309552E-02  0.37844527995E+01  0.37845209005E+01  0.22500000000E-01 0. -1.
</event>
<event>
 5   0  0.9908800E+08  0.9118800E+02  0.7818608E-02  0.1180000E+00
       11   -1    0    0    0    0  0.00000000000E+00  0.00000000000E+00  0.39999999673E+01  0.40000000000E+01  0.51109989000E-03 0. -1.
     -623   -1    0    0    0    0  0.00000000000E+00  0.00000000000E+00  0.12525980253E-10  0.17130000000E+03  0.17130000000E+03 0. -1.
       11    1    1    2    0    0 -0.14164467271E-01 -0.42609998608E-02  0.18959452667E+00  0.19017132807E+00  0.51109989000E-03 0. -1.
     -623    1    1    2    0    0  0.23985524441E-02  0.27842765457E-02  0.66170495875E-03  0.17130000004E+03  0.17130000000E+03 0. -1.
      622    1    1    2    0    0  0.11765914827E-01  0.14767233151E-02  0.38097437357E+01  0.38098286312E+01  0.22500000000E-01 0. -1.
</event>
<event>
 5   0  0.9908800E+08  0.9118800E+02  0.7818608E-02  0.1180000E+00
       11   -1    0    0    0    0  0.00000000000E+00  0.00000000000E+00  0.39999999673E+01  0.40000000000E+01  0.51109989000E-03 0. -1.
     -623   -1    0    0    0    0  0.00000000000E+00  0.00000000000E+00  0.12525980253E-10  0.17130000000E+03  0.17130000000E+03 0.  1.
       11    1    1    2    0    0  0.23521351734E-02  0.11068345847E-02  0.34513205256E+00  0.34514222076E+00  0.51109989000E-03 0. -1.
     -623    1    1    2    0    0 -0.15441623736E-03 -0.34210403097E-03  0.80134561292E-04  0.17130000000E+03  0.17130000000E+03 0.  1.
      622    1    1    2    0    0 -0.21977189360E-02 -0.76473055376E-03  0.36547877802E+01  0.36548577788E+01  0.22500000000E-01 0. -1.
</event>
<event>
 5   0  0.9908800E+08  0.9118800E+02  0.7818608E-02  0.1180000E+00
       11   -1    0    0    0    0  0.00000000000E+00  0.00000000000E+00  0.39999999673E+01  0.40000000000E+01  0.51109989000E-03 0. -1.
     -623   -1    0    0    0    0  0.00000000000E+00  0.00000000000E+00  0.12525980253E-10  0.17130000000E+03  0.17130000000E+03 0.  1.
       11    1    1    2    0    0 -0.15561543964E-02  0.22783482346E-03  0.43922847217E+00  0.43923158528E+00  0.51109989000E-03 0. -1.
     -623    1    1    2    0    0  0.51080851267E-03 -0.12751164532E-03  0.74324051119E-04  0.17130000000E+03  0.17130000000E+03 0.  1.
      622    1    1    2    0    0  0.10453458837E-02 -0.10032317814E-03  0.35606971711E+01  0.35607684139E+01  0.22500000000E-01 0. -1.
</event>
<event>
 5   0  0.9908800E+08  0.9118800E+02  0.7818608E-02  0.1180000E+00
       11   -1    0    0    0    0  0.00000000000E+00  0.00000000000E+00  0.39999999673E+01  0.40000000000E+01  0.51109989000E-03 0.  1.
     -623   -1    0    0    0    0  0.00000000000E+00  0.00000000000E+00  0.12525980253E-10  0.17130000000E+03  0.17130000000E+03 0. -1.
       11    1    1    2    0    0 -0.45881924443E-02  0.52081320885E-02  0.43057003472E+00  0.43062627901E+00  0.51109989000E-03 0.  1.
     -623    1    1    2    0    0  0.47017183552E-04 -0.54155220417E-03  0.13306850169E-03  0.17130000000E+03  0.17130000000E+03 0. -1.
      622    1    1    2    0    0  0.45411752607E-02 -0.46665798844E-02  0.35692968636E+01  0.35693737195E+01  0.22500000000E-01 0.  1.
</event>
<event>
 5   0  0.9908800E+08  0.9118800E+02  0.7818608E-02  0.1180000E+00
       11   -1    0    0    0    0  0.00000000000E+00  0.00000000000E+00  0.39999999673E+01  0.40000000000E+01  0.51109989000E-03 0. -1.
     -623   -1    0    0    0    0  0.00000000000E+00  0.00000000000E+00  0.12525980253E-10  0.17130000000E+03  0.17130000000E+03 0.  1.
       11    1    1    2    0    0  0.35534958063E-02 -0.21727914717E-02  0.11895067594E+00  0.11902467343E+00  0.51109989000E-03 0. -1.
     -623    1    1    2    0    0 -0.17755845815E-01 -0.12707885123E-02  0.16762735480E-03  0.17130000093E+03  0.17130000000E+03 0.  1.
      622    1    1    2    0    0  0.14202350003E-01  0.34435799835E-02  0.38808816628E+01  0.38809744003E+01  0.22500000000E-01 0. -1.
</event>
<event>
 5   0  0.9908800E+08  0.9118800E+02  0.7818608E-02  0.1180000E+00
       11   -1    0    0    0    0  0.00000000000E+00  0.00000000000E+00  0.39999999673E+01  0.40000000000E+01  0.51109989000E-03 0. -1.
     -623   -1    0    0    0    0  0.00000000000E+00  0.00000000000E+00  0.12525980253E-10  0.17130000000E+03  0.17130000000E+03 0.  1.
       11    1    1    2    0    0 -0.23275788968E-02 -0.13525290792E-01  0.11607153757E+01  0.11607966211E+01  0.51109989000E-03 0. -1.
     -623    1    1    2    0    0  0.35434884830E-03  0.31682904062E-03  0.20177940679E-03  0.17130000000E+03  0.17130000000E+03 0.  1.
      622    1    1    2    0    0  0.19732300484E-02  0.13208461751E-01  0.28390828128E+01  0.28392033786E+01  0.22500000000E-01 0. -1.
</event>
<event>
 5   0  0.9908800E+08  0.9118800E+02  0.7818608E-02  0.1180000E+00
       11   -1    0    0    0    0  0.00000000000E+00  0.00000000000E+00  0.39999999673E+01  0.40000000000E+01  0.51109989000E-03 0. -1.
     -623   -1    0    0    0    0  0.00000000000E+00  0.00000000000E+00  0.12525980253E-10  0.17130000000E+03  0.17130000000E+03 0.  1.
       11    1    1    2    0    0  0.44959952428E-03 -0.81549746120E-05  0.59141611325E-02  0.59532116089E-02  0.51109989000E-03 0. -1.
     -623    1    1    2    0    0  0.10729720227E-03  0.93514251296E-04  0.10243373831E-03  0.17130000000E+03  0.17130000000E+03 0.  1.
      622    1    1    2    0    0 -0.55689672654E-03 -0.85359276684E-04  0.39939833725E+01  0.39940467883E+01  0.22500000000E-01 0. -1.
</event>
<event>
 5   0  0.9908800E+08  0.9118800E+02  0.7818608E-02  0.1180000E+00
       11   -1    0    0    0    0  0.00000000000E+00  0.00000000000E+00  0.39999999673E+01  0.40000000000E+01  0.51109989000E-03 0.  1.
     -623   -1    0    0    0    0  0.00000000000E+00  0.00000000000E+00  0.12525980253E-10  0.17130000000E+03  0.17130000000E+03 0. -1.
       11    1    1    2    0    0  0.15383906187E-04 -0.17457625791E-02  0.12472579280E-01  0.12604538027E-01  0.51109989000E-03 0.  1.
     -623    1    1    2    0    0 -0.66472759137E-03  0.17135205806E-03  0.19577309126E-03  0.17130000000E+03  0.17130000000E+03 0. -1.
      622    1    1    2    0    0  0.64934368519E-03  0.15744105210E-02  0.39873316150E+01  0.39873954605E+01  0.22500000000E-01 0.  1.
</event>
<event>
 5   0  0.9908800E+08  0.9118800E+02  0.7818608E-02  0.1180000E+00
       11   -1    0    0    0    0  0.00000000000E+00  0.00000000000E+00  0.39999999673E+01  0.40000000000E+01  0.51109989000E-03 0. -1.
     -623   -1    0    0    0    0  0.00000000000E+00  0.00000000000E+00  0.12525980253E-10  0.17130000000E+03  0.17130000000E+03 0. -1.
       11    1    1    2    0    0 -0.44723370732E-02  0.83726593831E-02  0.67340327491E-01  0.68007971252E-01  0.51109989000E-03 0. -1.
     -623    1    1    2    0    0  0.90016396021E-02 -0.42813929366E-02  0.73701627338E-03  0.17130000029E+03  0.17130000000E+03 0. -1.
      622    1    1    2    0    0 -0.45293025288E-02 -0.40912664464E-02  0.39319226236E+01  0.39319917371E+01  0.22500000000E-01 0. -1.
</event>
<event>
 5   0  0.9908800E+08  0.9118800E+02  0.7818608E-02  0.1180000E+00
       11   -1    0    0    0    0  0.00000000000E+00  0.00000000000E+00  0.39999999673E+01  0.40000000000E+01  0.51109989000E-03 0.  1.
     -623   -1    0    0    0    0  0.00000000000E+00  0.00000000000E+00  0.12525980253E-10  0.17130000000E+03  0.17130000000E+03 0. -1.
       11    1    1    2    0    0 -0.42809056011E-02  0.78065559719E-02  0.11991342171E+01  0.11991673779E+01  0.51109989000E-03 0.  1.
     -623    1    1    2    0    0  0.12286218925E-02  0.23935220662E-02  0.14376297055E-03  0.17130000002E+03  0.17130000000E+03 0. -1.
      622    1    1    2    0    0  0.30522837085E-02 -0.10200078038E-01  0.28007219877E+01  0.28008326013E+01  0.22500000000E-01 0.  1.
</event>
<event>
 5   0  0.9908800E+08  0.9118800E+02  0.7818608E-02  0.1180000E+00
       11   -1    0    0    0    0  0.00000000000E+00  0.00000000000E+00  0.39999999673E+01  0.40000000000E+01  0.51109989000E-03 0.  1.
     -623   -1    0    0    0    0  0.00000000000E+00  0.00000000000E+00  0.12525980253E-10  0.17130000000E+03  0.17130000000E+03 0. -1.
       11    1    1    2    0    0  0.80220815614E-02 -0.79228481761E-02  0.78777507818E+00  0.78785592613E+00  0.51109989000E-03 0.  1.
     -623    1    1    2    0    0 -0.99662002932E-02  0.15404363672E-01  0.16990273703E-03  0.17130000098E+03  0.17130000000E+03 0. -1.
      622    1    1    2    0    0  0.19441187391E-02 -0.74815155075E-02  0.32120549894E+01  0.32121430942E+01  0.22500000000E-01 0. -1.
</event>
<event>
 5   0  0.9908800E+08  0.9118800E+02  0.7818608E-02  0.1180000E+00
       11   -1    0    0    0    0  0.00000000000E+00  0.00000000000E+00  0.39999999673E+01  0.40000000000E+01  0.51109989000E-03 0.  1.
     -623   -1    0    0    0    0  0.00000000000E+00  0.00000000000E+00  0.12525980253E-10  0.17130000000E+03  0.17130000000E+03 0.  1.
       11    1    1    2    0    0 -0.64322346585E-02  0.66402442507E-03  0.11009138659E+01  0.11009329752E+01  0.51109989000E-03 0.  1.
     -623    1    1    2    0    0  0.11387698990E-02 -0.16391209609E-02  0.11139909321E-03  0.17130000001E+03  0.17130000000E+03 0.  1.
      622    1    1    2    0    0  0.52934647595E-02  0.97509653578E-03  0.28989747023E+01  0.28990670130E+01  0.22500000000E-01 0. -1.
</event>
<event>
 5   0  0.9908800E+08  0.9118800E+02  0.7818608E-02  0.1180000E+00
       11   -1    0    0    0    0  0.00000000000E+00  0.00000000000E+00  0.39999999673E+01  0.40000000000E+01  0.51109989000E-03 0. -1.
     -623   -1    0    0    0    0  0.00000000000E+00  0.00000000000E+00  0.12525980253E-10  0.17130000000E+03  0.17130000000E+03 0.  1.
       11    1    1    2    0    0  0.17905225655E-01  0.55899111507E-02  0.43034137535E+00  0.43075028122E+00  0.51109989000E-03 0. -1.
     -623    1    1    2    0    0  0.76218256823E-03  0.76872083062E-03  0.53427779846E-03  0.17130000000E+03  0.17130000000E+03 0.  1.
      622    1    1    2    0    0 -0.18667408224E-01 -0.63586319814E-02  0.35691243147E+01  0.35692497150E+01  0.22500000000E-01 0. -1.
</event>
<event>
 5   0  0.9908800E+08  0.9118800E+02  0.7818608E-02  0.1180000E+00
       11   -1    0    0    0    0  0.00000000000E+00  0.00000000000E+00  0.39999999673E+01  0.40000000000E+01  0.51109989000E-03 0.  1.
     -623   -1    0    0    0    0  0.00000000000E+00  0.00000000000E+00  0.12525980253E-10  0.17130000000E+03  0.17130000000E+03 0. -1.
       11    1    1    2    0    0 -0.26429707908E-02 -0.41917784960E-03  0.13164909107E+00  0.13167727749E+00  0.51109989000E-03 0.  1.
     -623    1    1    2    0    0  0.71852279214E-03  0.57581538308E-03  0.94074041344E-04  0.17130000000E+03  0.17130000000E+03 0. -1.
      622    1    1    2    0    0  0.19244479986E-02 -0.15663753348E-03  0.38682568022E+01  0.38683227200E+01  0.22500000000E-01 0.  1.
</event>
<event>
 5   0  0.9908800E+08  0.9118800E+02  0.7818608E-02  0.1180000E+00
       11   -1    0    0    0    0  0.00000000000E+00  0.00000000000E+00  0.39999999673E+01  0.40000000000E+01  0.51109989000E-03 0. -1.
     -623   -1    0    0    0    0  0.00000000000E+00  0.00000000000E+00  0.12525980253E-10  0.17130000000E+03  0.17130000000E+03 0. -1.
       11    1    1    2    0    0  0.11682322962E-02  0.35538871893E-02  0.40589147326E+00  0.40590903436E+00  0.51109989000E-03 0. -1.
     -623    1    1    2    0    0 -0.13119348376E-03 -0.10807839475E-03  0.89758821308E-04  0.17130000000E+03  0.17130000000E+03 0. -1.
      622    1    1    2    0    0 -0.10370388125E-02 -0.34458087945E-02  0.35940187353E+01  0.35940909655E+01  0.22500000000E-01 0. -1.
</event>
<event>
 5   0  0.9908800E+08  0.9118800E+02  0.7818608E-02  0.1180000E+00
       11   -1    0    0    0    0  0.00000000000E+00  0.00000000000E+00  0.39999999673E+01  0.40000000000E+01  0.51109989000E-03 0.  1.
     -623   -1    0    0    0    0  0.00000000000E+00  0.00000000000E+00  0.12525980253E-10  0.17130000000E+03  0.17130000000E+03 0. -1.
       11    1    1    2    0    0 -0.32626646912E-02  0.21673866260E-02  0.10424348448E+01  0.10424423290E+01  0.51109989000E-03 0.  1.
     -623    1    1    2    0    0  0.66478903051E-04 -0.20622261706E-03  0.95416175014E-04  0.17130000000E+03  0.17130000000E+03 0. -1.
      622    1    1    2    0    0  0.31961857881E-02 -0.19611640088E-02  0.29574697084E+01  0.29575576728E+01  0.22500000000E-01 0.  1.
</event>
<event>
 5   0  0.9908800E+08  0.9118800E+02  0.7818608E-02  0.1180000E+00
       11   -1    0    0    0    0  0.00000000000E+00  0.00000000000E+00  0.39999999673E+01  0.40000000000E+01  0.51109989000E-03 0. -1.
     -623   -1    0    0    0    0  0.00000000000E+00  0.00000000000E+00  0.12525980253E-10  0.17130000000E+03  0.17130000000E+03 0.  1.
       11    1    1    2    0    0  0.14902954526E-02  0.19126456381E-02  0.95603905648E-02  0.98763092662E-02  0.51109989000E-03 0. -1.
     -623    1    1    2    0    0  0.39247991237E-02  0.43867164625E-03  0.38373775088E-03  0.17130000005E+03  0.17130000000E+03 0.  1.
      622    1    1    2    0    0 -0.54150945761E-02 -0.23513172843E-02  0.39900558389E+01  0.39901236446E+01  0.22500000000E-01 0. -1.
</event>
<event>
 5   0  0.9908800E+08  0.9118800E+02  0.7818608E-02  0.1180000E+00
       11   -1    0    0    0    0  0.00000000000E+00  0.00000000000E+00  0.39999999673E+01  0.40000000000E+01  0.51109989000E-03 0.  1.
     -623   -1    0    0    0    0  0.00000000000E+00  0.00000000000E+00  0.12525980253E-10  0.17130000000E+03  0.17130000000E+03 0.  1.
       11    1    1    2    0    0  0.82722357649E-03 -0.11752191160E-02  0.56082434085E-01  0.56103173483E-01  0.51109989000E-03 0.  1.
     -623    1    1    2    0    0 -0.89573041128E-03  0.91664696365E-03  0.84902612316E-04  0.17130000000E+03  0.17130000000E+03 0.  1.
      622    1    1    2    0    0  0.68506835280E-04  0.25857215188E-03  0.39438326329E+01  0.39438968239E+01  0.22500000000E-01 0.  1.
</event>
<event>
 5   0  0.9908800E+08  0.9118800E+02  0.7818608E-02  0.1180000E+00
       11   -1    0    0    0    0  0.00000000000E+00  0.00000000000E+00  0.39999999673E+01  0.40000000000E+01  0.51109989000E-03 0.  1.
     -623   -1    0    0    0    0  0.00000000000E+00  0.00000000000E+00  0.12525980253E-10  0.17130000000E+03  0.17130000000E+03 0. -1.
       11    1    1    2    0    0 -0.28170028542E-02  0.34543712738E-02  0.42958157661E-01  0.43191813069E-01  0.51109989000E-03 0.  1.
     -623    1    1    2    0    0  0.93080224579E-02 -0.25754041243E-02  0.30328969775E-03  0.17130000027E+03  0.17130000000E+03 0. -1.
      622    1    1    2    0    0 -0.64910196037E-02 -0.87896714953E-03  0.39567385200E+01  0.39568079144E+01  0.22500000000E-01 0.  1.
</event>
<event>
 5   0  0.9908800E+08  0.9118800E+02  0.7818608E-02  0.1180000E+00
       11   -1    0    0    0    0  0.00000000000E+00  0.00000000000E+00  0.39999999673E+01  0.40000000000E+01  0.51109989000E-03 0.  1.
     -623   -1    0    0    0    0  0.00000000000E+00  0.00000000000E+00  0.12525980253E-10  0.17130000000E+03  0.17130000000E+03 0.  1.
       11    1    1    2    0    0 -0.30335223088E-04  0.95729884484E-03  0.46783120998E+00  0.46783246958E+00  0.51109989000E-03 0.  1.
     -623    1    1    2    0    0 -0.25275752932E-03  0.56914424887E-03  0.73232814009E-04  0.17130000000E+03  0.17130000000E+03 0.  1.
      622    1    1    2    0    0  0.28309275253E-03 -0.15264430940E-02  0.35320955265E+01  0.35321675312E+01  0.22500000000E-01 0.  0.
</event>
<event>
 5   0  0.9908800E+08  0.9118800E+02  0.7818608E-02  0.1180000E+00
       11   -1    0    0    0    0  0.00000000000E+00  0.00000000000E+00  0.39999999673E+01  0.40000000000E+01  0.51109989000E-03 0. -1.
     -623   -1    0    0    0    0  0.00000000000E+00  0.00000000000E+00  0.12525980253E-10  0.17130000000E+03  0.17130000000E+03 0.  1.
       11    1    1    2    0    0  0.80999060275E-03 -0.92798009644E-03  0.21334535146E+00  0.21334951944E+00  0.51109989000E-03 0. -1.
     -623    1    1    2    0    0  0.10695426728E-03  0.59271956819E-03  0.71109539768E-04  0.17130000000E+03  0.17130000000E+03 0.  1.
      622    1    1    2    0    0 -0.91694487003E-03  0.33526052825E-03  0.37865835064E+01  0.37866504795E+01  0.22500000000E-01 0. -1.
</event>
<event>
 5   0  0.9908800E+08  0.9118800E+02  0.7818608E-02  0.1180000E+00
       11   -1    0    0    0    0  0.00000000000E+00  0.00000000000E+00  0.39999999673E+01  0.40000000000E+01  0.51109989000E-03 0.  1.
     -623   -1    0    0    0    0  0.00000000000E+00  0.00000000000E+00  0.12525980253E-10  0.17130000000E+03  0.17130000000E+03 0.  1.
       11    1    1    2    0    0  0.27850799396E-02  0.29667650622E-01  0.81029674058E+00  0.81084461839E+00  0.51109989000E-03 0.  1.
     -623    1    1    2    0    0  0.92339331055E-02  0.26474111164E-05  0.78814233796E-03  0.17130000025E+03  0.17130000000E+03 0.  1.
      622    1    1    2    0    0 -0.12019013045E-01 -0.29670298033E-01  0.31889150844E+01  0.31891551309E+01  0.22500000000E-01 0.  1.
</event>
<event>
 5   0  0.9908800E+08  0.9118800E+02  0.7818608E-02  0.1180000E+00
       11   -1    0    0    0    0  0.00000000000E+00  0.00000000000E+00  0.39999999673E+01  0.40000000000E+01  0.51109989000E-03 0. -1.
     -623   -1    0    0    0    0  0.00000000000E+00  0.00000000000E+00  0.12525980253E-10  0.17130000000E+03  0.17130000000E+03 0.  1.
       11    1    1    2    0    0 -0.23967974897E-02  0.11631799135E-02  0.10489162446E+00  0.10492669694E+00  0.51109989000E-03 0. -1.
     -623    1    1    2    0    0  0.93436077842E-03 -0.13856574328E-03  0.10043826852E-03  0.17130000000E+03  0.17130000000E+03 0.  1.
      622    1    1    2    0    0  0.14624367111E-02 -0.10246141702E-02  0.38950079051E+01  0.38950733009E+01  0.22500000000E-01 0. -1.
</event>
<event>
 5   0  0.9908800E+08  0.9118800E+02  0.7818608E-02  0.1180000E+00
       11   -1    0    0    0    0  0.00000000000E+00  0.00000000000E+00  0.39999999673E+01  0.40000000000E+01  0.51109989000E-03 0. -1.
     -623   -1    0    0    0    0  0.00000000000E+00  0.00000000000E+00  0.12525980253E-10  0.17130000000E+03  0.17130000000E+03 0. -1.
       11    1    1    2    0    0  0.25032340606E-02  0.11734008954E-01  0.11065925628E+00  0.11130896357E+00  0.51109989000E-03 0. -1.
     -623    1    1    2    0    0  0.13204820394E-01 -0.56364912702E-02  0.75187812669E-03  0.17130000060E+03  0.17130000000E+03 0. -1.
      622    1    1    2    0    0 -0.15708054458E-01 -0.60975176829E-02  0.38885888338E+01  0.38886904340E+01  0.22500000000E-01 0. -1.
</event>
<event>
 5   0  0.9908800E+08  0.9118800E+02  0.7818608E-02  0.1180000E+00
       11   -1    0    0    0    0  0.00000000000E+00  0.00000000000E+00  0.39999999673E+01  0.40000000000E+01  0.51109989000E-03 0. -1.
     -623   -1    0    0    0    0  0.00000000000E+00  0.00000000000E+00  0.12525980253E-10  0.17130000000E+03  0.17130000000E+03 0.  1.
       11    1    1    2    0    0 -0.14414622892E-01  0.10502243231E-01  0.44107263587E+00  0.44143335828E+00  0.51109989000E-03 0. -1.
     -623    1    1    2    0    0  0.91872760269E-02 -0.11168223681E-01  0.43633439993E-03  0.17130000061E+03  0.17130000000E+03 0.  1.
      622    1    1    2    0    0  0.52273468643E-02  0.66598044988E-03  0.35584909973E+01  0.35585660309E+01  0.22500000000E-01 0.  0.
</event>
<event>
 5   0  0.9908800E+08  0.9118800E+02  0.7818608E-02  0.1180000E+00
       11   -1    0    0    0    0  0.00000000000E+00  0.00000000000E+00  0.39999999673E+01  0.40000000000E+01  0.51109989000E-03 0.  1.
     -623   -1    0    0    0    0  0.00000000000E+00  0.00000000000E+00  0.12525980253E-10  0.17130000000E+03  0.17130000000E+03 0.  1.
       11    1    1    2    0    0  0.45143570652E-02  0.32860072130E-02  0.78327526935E+00  0.78329533770E+00  0.51109989000E-03 0.  1.
     -623    1    1    2    0    0  0.96426133616E-05  0.36271207259E-03  0.10397867173E-03  0.17130000000E+03  0.17130000000E+03 0.  1.
      622    1    1    2    0    0 -0.45239996785E-02 -0.36487192856E-02  0.32166207193E+01  0.32167046619E+01  0.22500000000E-01 0.  1.
</event>
<event>
 5   0  0.9908800E+08  0.9118800E+02  0.7818608E-02  0.1180000E+00
       11   -1    0    0    0    0  0.00000000000E+00  0.00000000000E+00  0.39999999673E+01  0.40000000000E+01  0.51109989000E-03 0. -1.
     -623   -1    0    0    0    0  0.00000000000E+00  0.00000000000E+00  0.12525980253E-10  0.17130000000E+03  0.17130000000E+03 0. -1.
       11    1    1    2    0    0 -0.18244526480E-02  0.28642743990E-03  0.20117577511E-01  0.20208632218E-01  0.51109989000E-03 0. -1.
     -623    1    1    2    0    0 -0.12978319594E-03 -0.34289226546E-03  0.15510583072E-03  0.17130000000E+03  0.17130000000E+03 0. -1.
      622    1    1    2    0    0  0.19542358440E-02  0.56464825591E-04  0.39797272844E+01  0.39797913677E+01  0.22500000000E-01 0. -1.
</event>
<event>
 5   0  0.9908800E+08  0.9118800E+02  0.7818608E-02  0.1180000E+00
       11   -1    0    0    0    0  0.00000000000E+00  0.00000000000E+00  0.39999999673E+01  0.40000000000E+01  0.51109989000E-03 0. -1.
     -623   -1    0    0    0    0  0.00000000000E+00  0.00000000000E+00  0.12525980253E-10  0.17130000000E+03  0.17130000000E+03 0.  1.
       11    1    1    2    0    0 -0.65430228237E-02  0.74484949263E-02  0.11208992056E+01  0.11209431661E+01  0.51109989000E-03 0. -1.
     -623    1    1    2    0    0  0.40091651713E-03  0.38212693986E-03  0.14905091874E-03  0.17130000000E+03  0.17130000000E+03 0.  1.
      622    1    1    2    0    0  0.61421063066E-02 -0.78306218661E-02  0.28789517109E+01  0.28790568330E+01  0.22500000000E-01 0. -1.
</event>
<event>
 5   0  0.9908800E+08  0.9118800E+02  0.7818608E-02  0.1180000E+00
       11   -1    0    0    0    0  0.00000000000E+00  0.00000000000E+00  0.39999999673E+01  0.40000000000E+01  0.51109989000E-03 0. -1.
     -623   -1    0    0    0    0  0.00000000000E+00  0.00000000000E+00  0.12525980253E-10  0.17130000000E+03  0.17130000000E+03 0.  1.
       11    1    1    2    0    0  0.42525642561E-03 -0.32109730517E-02  0.61720004403E-01  0.61807049409E-01  0.51109989000E-03 0. -1.
     -623    1    1    2    0    0 -0.26597725562E-03  0.14286099720E-03  0.15248599848E-03  0.17130000000E+03  0.17130000000E+03 0.  1.
      622    1    1    2    0    0 -0.15927916999E-03  0.30681120545E-02  0.39381274770E+01  0.39381929503E+01  0.22500000000E-01 0. -1.
</event>
<event>
 5   0  0.9908800E+08  0.9118800E+02  0.7818608E-02  0.1180000E+00
       11   -1    0    0    0    0  0.00000000000E+00  0.00000000000E+00  0.39999999673E+01  0.40000000000E+01  0.51109989000E-03 0. -1.
     -623   -1    0    0    0    0  0.00000000000E+00  0.00000000000E+00  0.12525980253E-10  0.17130000000E+03  0.17130000000E+03 0. -1.
       11    1    1    2    0    0 -0.72965161981E-03  0.67395269785E-04  0.97752749429E-02  0.98160153278E-02  0.51109989000E-03 0.  1.
     -623    1    1    2    0    0 -0.51047059975E-04  0.13323588481E-02  0.10447228990E-03  0.17130000001E+03  0.17130000000E+03 0. -1.
      622    1    1    2    0    0  0.78069867977E-03 -0.13997541176E-02  0.39901202191E+01  0.39901839785E+01  0.22500000000E-01 0. -1.
</event>
<event>
 5   0  0.9908800E+08  0.9118800E+02  0.7818608E-02  0.1180000E+00
       11   -1    0    0    0    0  0.00000000000E+00  0.00000000000E+00  0.39999999673E+01  0.40000000000E+01  0.51109989000E-03 0.  1.
     -623   -1    0    0    0    0  0.00000000000E+00  0.00000000000E+00  0.12525980253E-10  0.17130000000E+03  0.17130000000E+03 0. -1.
       11    1    1    2    0    0  0.50815890671E-02 -0.15712330770E-02  0.18027426769E+00  0.18035344226E+00  0.51109989000E-03 0.  1.
     -623    1    1    2    0    0 -0.84561586763E-02 -0.55881945265E-02  0.15391220108E-03  0.17130000030E+03  0.17130000000E+03 0. -1.
      622    1    1    2    0    0  0.33745696087E-02  0.71594276033E-02  0.38195717872E+01  0.38196462576E+01  0.22500000000E-01 0.  1.
</event>
<event>
 5   0  0.9908800E+08  0.9118800E+02  0.7818608E-02  0.1180000E+00
       11   -1    0    0    0    0  0.00000000000E+00  0.00000000000E+00  0.39999999673E+01  0.40000000000E+01  0.51109989000E-03 0. -1.
     -623   -1    0    0    0    0  0.00000000000E+00  0.00000000000E+00  0.12525980253E-10  0.17130000000E+03  0.17130000000E+03 0.  1.
       11    1    1    2    0    0  0.40550763888E-01 -0.15630739087E-01  0.48436846172E+00  0.48631445834E+00  0.51109989000E-03 0. -1.
     -623    1    1    2    0    0 -0.22155896135E-02  0.12242060665E-01  0.22292385690E-02  0.17130000047E+03  0.17130000000E+03 0.  1.
      622    1    1    2    0    0 -0.38335174274E-01  0.33886784217E-02  0.35134022672E+01  0.35136850755E+01  0.22500000000E-01 0. -1.
</event>
<event>
 5   0  0.9908800E+08  0.9118800E+02  0.7818608E-02  0.1180000E+00
       11   -1    0    0    0    0  0.00000000000E+00  0.00000000000E+00  0.39999999673E+01  0.40000000000E+01  0.51109989000E-03 0. -1.
     -623   -1    0    0    0    0  0.00000000000E+00  0.00000000000E+00  0.12525980253E-10  0.17130000000E+03  0.17130000000E+03 0. -1.
       11    1    1    2    0    0 -0.30213626013E-02 -0.75891340469E-02  0.11049201909E+00  0.11079472502E+00  0.51109989000E-03 0. -1.
     -623    1    1    2    0    0 -0.21130267969E-02 -0.23750626971E-03  0.37903593842E-03  0.17130000001E+03  0.17130000000E+03 0. -1.
      622    1    1    2    0    0  0.51343893989E-02  0.78266403166E-02  0.38891289137E+01  0.38892052627E+01  0.22500000000E-01 0. -1.
</event>
<event>
 5   0  0.9908800E+08  0.9118800E+02  0.7818608E-02  0.1180000E+00
       11   -1    0    0    0    0  0.00000000000E+00  0.00000000000E+00  0.39999999673E+01  0.40000000000E+01  0.51109989000E-03 0.  1.
     -623   -1    0    0    0    0  0.00000000000E+00  0.00000000000E+00  0.12525980253E-10  0.17130000000E+03  0.17130000000E+03 0.  1.
       11    1    1    2    0    0  0.36890767060E-03 -0.11865584854E-02  0.36906600140E-02  0.39276210216E-02  0.51109989000E-03 0.  1.
     -623    1    1    2    0    0 -0.81355536505E-03  0.44674811399E-03  0.30036831659E-03  0.17130000000E+03  0.17130000000E+03 0.  1.
      622    1    1    2    0    0  0.44464769445E-03  0.73981037140E-03  0.39960089390E+01  0.39960723762E+01  0.22500000000E-01 0.  1.
</event>
<event>
 5   0  0.9908800E+08  0.9118800E+02  0.7818608E-02  0.1180000E+00
       11   -1    0    0    0    0  0.00000000000E+00  0.00000000000E+00  0.39999999673E+01  0.40000000000E+01  0.51109989000E-03 0.  1.
     -623   -1    0    0    0    0  0.00000000000E+00  0.00000000000E+00  0.12525980253E-10  0.17130000000E+03  0.17130000000E+03 0.  1.
       11    1    1    2    0    0  0.74683289610E-03 -0.40713544563E-02  0.28433414635E+00  0.28436473355E+00  0.51109989000E-03 0.  1.
     -623    1    1    2    0    0  0.35743623239E-02  0.23063302147E-02  0.10166431698E-03  0.17130000005E+03  0.17130000000E+03 0.  1.
      622    1    1    2    0    0 -0.43211952200E-02  0.17650242417E-02  0.37155641567E+01  0.37156352136E+01  0.22500000000E-01 0.  1.
</event>
<event>
 5   0  0.9908800E+08  0.9118800E+02  0.7818608E-02  0.1180000E+00
       11   -1    0    0    0    0  0.00000000000E+00  0.00000000000E+00  0.39999999673E+01  0.40000000000E+01  0.51109989000E-03 0.  1.
     -623   -1    0    0    0    0  0.00000000000E+00  0.00000000000E+00  0.12525980253E-10  0.17130000000E+03  0.17130000000E+03 0.  1.
       11    1    1    2    0    0  0.17046050898E-03  0.27516940435E-03  0.48786681997E-02  0.49160351389E-02  0.51109989000E-03 0. -1.
     -623    1    1    2    0    0  0.10143798271E-02  0.15584517548E-03  0.10089597464E-03  0.17130000000E+03  0.17130000000E+03 0.  1.
      622    1    1    2    0    0 -0.11848403361E-02 -0.43101457983E-03  0.39950204032E+01  0.39950839617E+01  0.22500000000E-01 0.  1.
</event>
<event>
 5   0  0.9908800E+08  0.9118800E+02  0.7818608E-02  0.1180000E+00
       11   -1    0    0    0    0  0.00000000000E+00  0.00000000000E+00  0.39999999673E+01  0.40000000000E+01  0.51109989000E-03 0. -1.
     -623   -1    0    0    0    0  0.00000000000E+00  0.00000000000E+00  0.12525980253E-10  0.17130000000E+03  0.17130000000E+03 0.  1.
       11    1    1    2    0    0  0.87186406424E-02  0.82414179152E-02  0.15484449996E+00  0.15530942037E+00  0.51109989000E-03 0. -1.
     -623    1    1    2    0    0 -0.74978070060E-02  0.43501343412E-02  0.55175931929E-03  0.17130000022E+03  0.17130000000E+03 0.  1.
      622    1    1    2    0    0 -0.12208336339E-02 -0.12591552258E-01  0.38446037094E+01  0.38446903608E+01  0.22500000000E-01 0. -1.
</event>
<event>
 5   0  0.9908800E+08  0.9118800E+02  0.7818608E-02  0.1180000E+00
       11   -1    0    0    0    0  0.00000000000E+00  0.00000000000E+00  0.39999999673E+01  0.40000000000E+01  0.51109989000E-03 0.  1.
     -623   -1    0    0    0    0  0.00000000000E+00  0.00000000000E+00  0.12525980253E-10  0.17130000000E+03  0.17130000000E+03 0.  1.
       11    1    1    2    0    0 -0.19669344102E-02 -0.12785360168E-01  0.10414066857E+01  0.10414871485E+01  0.51109989000E-03 0.  1.
     -623    1    1    2    0    0 -0.47310193568E-04 -0.15141507369E-03  0.19496094450E-03  0.17130000000E+03  0.17130000000E+03 0.  1.
      622    1    1    2    0    0  0.20142446037E-02  0.12936775241E-01  0.29583983208E+01  0.29585128513E+01  0.22500000000E-01 0.  0.
</event>
<event>
 5   0  0.9908800E+08  0.9118800E+02  0.7818608E-02  0.1180000E+00
       11   -1    0    0    0    0  0.00000000000E+00  0.00000000000E+00  0.39999999673E+01  0.40000000000E+01  0.51109989000E-03 0.  1.
     -623   -1    0    0    0    0  0.00000000000E+00  0.00000000000E+00  0.12525980253E-10  0.17130000000E+03  0.17130000000E+03 0.  1.
       11    1    1    2    0    0 -0.11839906865E-02  0.17156855158E-02  0.53454214237E-01  0.53497286396E-01  0.51109989000E-03 0.  1.
     -623    1    1    2    0    0  0.26453058554E-03  0.22035073824E-03  0.10776148474E-03  0.17130000000E+03  0.17130000000E+03 0.  1.
      622    1    1    2    0    0  0.91946010100E-03 -0.19360362540E-02  0.39464379916E+01  0.39465027132E+01  0.22500000000E-01 0.  1.
</event>
<event>
 5   0  0.9908800E+08  0.9118800E+02  0.7818608E-02  0.1180000E+00
       11   -1    0    0    0    0  0.00000000000E+00  0.00000000000E+00  0.39999999673E+01  0.40000000000E+01  0.51109989000E-03 0.  1.
     -623   -1    0    0    0    0  0.00000000000E+00  0.00000000000E+00  0.12525980253E-10  0.17130000000E+03  0.17130000000E+03 0. -1.
       11    1    1    2    0    0  0.15723092033E-02 -0.82458116577E-02  0.37851476830E+00  0.37860818350E+00  0.51109989000E-03 0.  1.
     -623    1    1    2    0    0 -0.18221850187E-02  0.17069710013E-02  0.16921072477E-03  0.17130000002E+03  0.17130000000E+03 0. -1.
      622    1    1    2    0    0  0.24987581535E-03  0.65388406563E-02  0.36213159883E+01  0.36213917982E+01  0.22500000000E-01 0.  1.
</event>
<event>
 5   0  0.9908800E+08  0.9118800E+02  0.7818608E-02  0.1180000E+00
       11   -1    0    0    0    0  0.00000000000E+00  0.00000000000E+00  0.39999999673E+01  0.40000000000E+01  0.51109989000E-03 0. -1.
     -623   -1    0    0    0    0  0.00000000000E+00  0.00000000000E+00  0.12525980253E-10  0.17130000000E+03  0.17130000000E+03 0. -1.
       11    1    1    2    0    0 -0.22657177056E-03 -0.27985274482E-03  0.92800649726E-02  0.93011010810E-02  0.51109989000E-03 0. -1.
     -623    1    1    2    0    0  0.33447257292E-03 -0.25005404903E-05  0.84444506350E-04  0.17130000000E+03  0.17130000000E+03 0. -1.
      622    1    1    2    0    0 -0.10790080289E-03  0.28235328531E-03  0.39906354642E+01  0.39906989049E+01  0.22500000000E-01 0. -1.
</event>
<event>
 5   0  0.9908800E+08  0.9118800E+02  0.7818608E-02  0.1180000E+00
       11   -1    0    0    0    0  0.00000000000E+00  0.00000000000E+00  0.39999999673E+01  0.40000000000E+01  0.51109989000E-03 0.  1.
     -623   -1    0    0    0    0  0.00000000000E+00  0.00000000000E+00  0.12525980253E-10  0.17130000000E+03  0.17130000000E+03 0. -1.
       11    1    1    2    0    0  0.12204111441E-02  0.51854399914E-02  0.11271045405E-01  0.12477013992E-01  0.51109989000E-03 0.  1.
     -623    1    1    2    0    0 -0.11792093589E-02 -0.28794064135E-02  0.12701157052E-02  0.17130000003E+03  0.17130000000E+03 0. -1.
      622    1    1    2    0    0 -0.41201785191E-04 -0.23060335779E-02  0.39874588062E+01  0.39875229530E+01  0.22500000000E-01 0.  1.
</event>
<event>
 5   0  0.9908800E+08  0.9118800E+02  0.7818608E-02  0.1180000E+00
       11   -1    0    0    0    0  0.00000000000E+00  0.00000000000E+00  0.39999999673E+01  0.40000000000E+01  0.51109989000E-03 0.  1.
     -623   -1    0    0    0    0  0.00000000000E+00  0.00000000000E+00  0.12525980253E-10  0.17130000000E+03  0.17130000000E+03 0.  1.
       11    1    1    2    0    0  0.16714655980E-04  0.89122115120E-03  0.29592883289E-02  0.31325971703E-02  0.51109989000E-03 0.  1.
     -623    1    1    2    0    0 -0.66269215432E-03  0.14107071732E-02  0.23732989714E-03  0.17130000001E+03  0.17130000000E+03 0.  1.
      622    1    1    2    0    0  0.64597749850E-03 -0.23019283247E-02  0.39968033501E+01  0.39968673965E+01  0.22500000000E-01 0.  1.
</event>
<event>
 5   0  0.9908800E+08  0.9118800E+02  0.7818608E-02  0.1180000E+00
       11   -1    0    0    0    0  0.00000000000E+00  0.00000000000E+00  0.39999999673E+01  0.40000000000E+01  0.51109989000E-03 0.  1.
     -623   -1    0    0    0    0  0.00000000000E+00  0.00000000000E+00  0.12525980253E-10  0.17130000000E+03  0.17130000000E+03 0.  1.
       11    1    1    2    0    0 -0.63252082647E-03 -0.14639591294E-01  0.46833854421E+00  0.46856800032E+00  0.51109989000E-03 0.  1.
     -623    1    1    2    0    0 -0.15994288759E-02  0.26941322614E-02  0.32204010884E-03  0.17130000003E+03  0.17130000000E+03 0.  1.
      622    1    1    2    0    0  0.22319497024E-02  0.11945459032E-01  0.35313393830E+01  0.35314319707E+01  0.22500000000E-01 0.  1.
</event>
<event>
 5   0  0.9908800E+08  0.9118800E+02  0.7818608E-02  0.1180000E+00
       11   -1    0    0    0    0  0.00000000000E+00  0.00000000000E+00  0.39999999673E+01  0.40000000000E+01  0.51109989000E-03 0.  1.
     -623   -1    0    0    0    0  0.00000000000E+00  0.00000000000E+00  0.12525980253E-10  0.17130000000E+03  0.17130000000E+03 0. -1.
       11    1    1    2    0    0  0.78341331822E-02 -0.11688924339E-02  0.29410397288E-01  0.30462643390E-01  0.51109989000E-03 0.  1.
     -623    1    1    2    0    0 -0.95401317603E-02  0.63343306216E-02  0.11200947631E-02  0.17130000039E+03  0.17130000000E+03 0. -1.
      622    1    1    2    0    0  0.17059985781E-02 -0.51654381877E-02  0.39694694753E+01  0.39695369702E+01  0.22500000000E-01 0.  1.
</event>
<event>
 5   0  0.9908800E+08  0.9118800E+02  0.7818608E-02  0.1180000E+00
       11   -1    0    0    0    0  0.00000000000E+00  0.00000000000E+00  0.39999999673E+01  0.40000000000E+01  0.51109989000E-03 0. -1.
     -623   -1    0    0    0    0  0.00000000000E+00  0.00000000000E+00  0.12525980253E-10  0.17130000000E+03  0.17130000000E+03 0.  1.
       11    1    1    2    0    0  0.21846091785E-03  0.25622199618E-02  0.23453101936E-01  0.23599192942E-01  0.51109989000E-03 0. -1.
     -623    1    1    2    0    0 -0.22073022663E-02 -0.53640158058E-03  0.21074430232E-03  0.17130000002E+03  0.17130000000E+03 0.  1.
      622    1    1    2    0    0  0.19888413485E-02 -0.20258183812E-02  0.39763361211E+01  0.39764007919E+01  0.22500000000E-01 0. -1.
</event>
<event>
 5   0  0.9908800E+08  0.9118800E+02  0.7818608E-02  0.1180000E+00
       11   -1    0    0    0    0  0.00000000000E+00  0.00000000000E+00  0.39999999673E+01  0.40000000000E+01  0.51109989000E-03 0. -1.
     -623   -1    0    0    0    0  0.00000000000E+00  0.00000000000E+00  0.12525980253E-10  0.17130000000E+03  0.17130000000E+03 0.  1.
       11    1    1    2    0    0  0.41683015571E-03 -0.77357441316E-03  0.42112035225E-02  0.43321614648E-02  0.51109989000E-03 0. -1.
     -623    1    1    2    0    0  0.10105171849E-02  0.11994246523E-02  0.18456058279E-03  0.17130000001E+03  0.17130000000E+03 0.  1.
      622    1    1    2    0    0 -0.14273473405E-02 -0.42585023900E-03  0.39956042029E+01  0.39956678309E+01  0.22500000000E-01 0. -1.
</event>
<event>
 5   0  0.9908800E+08  0.9118800E+02  0.7818608E-02  0.1180000E+00
       11   -1    0    0    0    0  0.00000000000E+00  0.00000000000E+00  0.39999999673E+01  0.40000000000E+01  0.51109989000E-03 0.  1.
     -623   -1    0    0    0    0  0.00000000000E+00  0.00000000000E+00  0.12525980253E-10  0.17130000000E+03  0.17130000000E+03 0.  1.
       11    1    1    2    0    0 -0.17796496983E-01  0.32346405972E-01  0.27039404200E+00  0.27290328773E+00  0.51109989000E-03 0.  1.
     -623    1    1    2    0    0  0.12308391658E-01 -0.57893229464E-02  0.26763481696E-02  0.17130000056E+03  0.17130000000E+03 0.  1.
      622    1    1    2    0    0  0.54881053254E-02 -0.26557083026E-01  0.37269295772E+01  0.37270961513E+01  0.22500000000E-01 0.  1.
</event>
<event>
 5   0  0.9908800E+08  0.9118800E+02  0.7818608E-02  0.1180000E+00
       11   -1    0    0    0    0  0.00000000000E+00  0.00000000000E+00  0.39999999673E+01  0.40000000000E+01  0.51109989000E-03 0.  1.
     -623   -1    0    0    0    0  0.00000000000E+00  0.00000000000E+00  0.12525980253E-10  0.17130000000E+03  0.17130000000E+03 0.  1.
       11    1    1    2    0    0  0.71039392545E-03 -0.67237651384E-03  0.54018593894E-01  0.54029866361E-01  0.51109989000E-03 0.  1.
     -623    1    1    2    0    0 -0.36284084180E-05  0.20094281041E-03  0.75479664724E-04  0.17130000000E+03  0.17130000000E+03 0.  1.
      622    1    1    2    0    0 -0.70676551703E-03  0.47143370343E-03  0.39459058939E+01  0.39459701336E+01  0.22500000000E-01 0.  1.
</event>
<event>
 5   0  0.9908800E+08  0.9118800E+02  0.7818608E-02  0.1180000E+00
       11   -1    0    0    0    0  0.00000000000E+00  0.00000000000E+00  0.39999999673E+01  0.40000000000E+01  0.51109989000E-03 0. -1.
     -623   -1    0    0    0    0  0.00000000000E+00  0.00000000000E+00  0.12525980253E-10  0.17130000000E+03  0.17130000000E+03 0. -1.
       11    1    1    2    0    0  0.33535225391E-02 -0.13739151474E-01  0.14089277919E+00  0.14160171909E+00  0.51109989000E-03 0. -1.
     -623    1    1    2    0    0 -0.12012237151E-02 -0.25036538591E-03  0.80047966985E-03  0.17130000001E+03  0.17130000000E+03 0. -1.
      622    1    1    2    0    0 -0.21522988239E-02  0.13989516860E-01  0.38583067091E+01  0.38583982753E+01  0.22500000000E-01 0. -1.
</event>
<event>
 5   0  0.9908800E+08  0.9118800E+02  0.7818608E-02  0.1180000E+00
       11   -1    0    0    0    0  0.00000000000E+00  0.00000000000E+00  0.39999999673E+01  0.40000000000E+01  0.51109989000E-03 0. -1.
     -623   -1    0    0    0    0  0.00000000000E+00  0.00000000000E+00  0.12525980253E-10  0.17130000000E+03  0.17130000000E+03 0.  1.
       11    1    1    2    0    0  0.82468250678E-03  0.93344862900E-03  0.42203852486E-02  0.44299323179E-02  0.51109989000E-03 0. -1.
     -623    1    1    2    0    0 -0.13166388950E-03 -0.27628291599E-03  0.27298097856E-03  0.17130000000E+03  0.17130000000E+03 0.  1.
      622    1    1    2    0    0 -0.69301861729E-03 -0.65716571302E-03  0.39955066011E+01  0.39955700672E+01  0.22500000000E-01 0. -1.
</event>
<event>
 5   0  0.9908800E+08  0.9118800E+02  0.7818608E-02  0.1180000E+00
       11   -1    0    0    0    0  0.00000000000E+00  0.00000000000E+00  0.39999999673E+01  0.40000000000E+01  0.51109989000E-03 0.  1.
     -623   -1    0    0    0    0  0.00000000000E+00  0.00000000000E+00  0.12525980253E-10  0.17130000000E+03  0.17130000000E+03 0.  1.
       11    1    1    2    0    0 -0.95175442359E-03 -0.27517476228E-03  0.12897976189E-01  0.12946063900E-01  0.51109989000E-03 0.  1.
     -623    1    1    2    0    0  0.14045845480E-02 -0.46627464843E-03  0.11164338978E-03  0.17130000001E+03  0.17130000000E+03 0.  1.
      622    1    1    2    0    0 -0.45283012501E-03  0.74144941092E-03  0.39869903495E+01  0.39870539314E+01  0.22500000000E-01 0.  1.
</event>
<event>
 5   0  0.9908800E+08  0.9118800E+02  0.7818608E-02  0.1180000E+00
       11   -1    0    0    0    0  0.00000000000E+00  0.00000000000E+00  0.39999999673E+01  0.40000000000E+01  0.51109989000E-03 0. -1.
     -623   -1    0    0    0    0  0.00000000000E+00  0.00000000000E+00  0.12525980253E-10  0.17130000000E+03  0.17130000000E+03 0.  1.
       11    1    1    2    0    0 -0.20445840807E-03  0.37952365429E-03  0.45999877561E-01  0.46004736706E-01  0.51109989000E-03 0. -1.
     -623    1    1    2    0    0 -0.14189068542E-03  0.33114886228E-03  0.68923979961E-04  0.17130000000E+03  0.17130000000E+03 0.  1.
      622    1    1    2    0    0  0.34634909349E-03 -0.71067251657E-03  0.39539311658E+01  0.39539952629E+01  0.22500000000E-01 0. -1.
</event>
<event>
 5   0  0.9908800E+08  0.9118800E+02  0.7818608E-02  0.1180000E+00
       11   -1    0    0    0    0  0.00000000000E+00  0.00000000000E+00  0.39999999673E+01  0.40000000000E+01  0.51109989000E-03 0. -1.
     -623   -1    0    0    0    0  0.00000000000E+00  0.00000000000E+00  0.12525980253E-10  0.17130000000E+03  0.17130000000E+03 0. -1.
       11    1    1    2    0    0 -0.51343031538E-03 -0.18383809710E-03  0.43305748186E+00  0.43305812685E+00  0.51109989000E-03 0. -1.
     -623    1    1    2    0    0  0.23776886014E-03 -0.30686588702E-03  0.71622060463E-04  0.17130000000E+03  0.17130000000E+03 0. -1.
      622    1    1    2    0    0  0.27566145524E-03  0.49070398411E-03  0.35668708633E+01  0.35669418725E+01  0.22500000000E-01 0. -1.
</event>
<event>
 5   0  0.9908800E+08  0.9118800E+02  0.7818608E-02  0.1180000E+00
       11   -1    0    0    0    0  0.00000000000E+00  0.00000000000E+00  0.39999999673E+01  0.40000000000E+01  0.51109989000E-03 0. -1.
     -623   -1    0    0    0    0  0.00000000000E+00  0.00000000000E+00  0.12525980253E-10  0.17130000000E+03  0.17130000000E+03 0. -1.
       11    1    1    2    0    0  0.88330064004E-03  0.10945299747E-02  0.13151325386E-01  0.13236192656E-01  0.51109989000E-03 0. -1.
     -623    1    1    2    0    0 -0.81080534446E-04 -0.75894709642E-05  0.14855545062E-03  0.17130000000E+03  0.17130000000E+03 0. -1.
      622    1    1    2    0    0 -0.80222010559E-03 -0.10869405037E-02  0.39867000865E+01  0.39867638073E+01  0.22500000000E-01 0. -1.
</event>
<event>
 5   0  0.9908800E+08  0.9118800E+02  0.7818608E-02  0.1180000E+00
       11   -1    0    0    0    0  0.00000000000E+00  0.00000000000E+00  0.39999999673E+01  0.40000000000E+01  0.51109989000E-03 0.  1.
     -623   -1    0    0    0    0  0.00000000000E+00  0.00000000000E+00  0.12525980253E-10  0.17130000000E+03  0.17130000000E+03 0.  1.
       11    1    1    2    0    0 -0.30602893295E-02 -0.92225881161E-02  0.91988641225E+00  0.91993787517E+00  0.51109989000E-03 0.  1.
     -623    1    1    2    0    0 -0.13008007662E-04 -0.10586934912E-03  0.14927334394E-03  0.17130000000E+03  0.17130000000E+03 0.  1.
      622    1    1    2    0    0  0.30732973372E-02  0.93284574652E-02  0.30799642818E+01  0.30800621247E+01  0.22500000000E-01 0.  0.
</event>
<event>
 5   0  0.9908800E+08  0.9118800E+02  0.7818608E-02  0.1180000E+00
       11   -1    0    0    0    0  0.00000000000E+00  0.00000000000E+00  0.39999999673E+01  0.40000000000E+01  0.51109989000E-03 0.  1.
     -623   -1    0    0    0    0  0.00000000000E+00  0.00000000000E+00  0.12525980253E-10  0.17130000000E+03  0.17130000000E+03 0.  1.
       11    1    1    2    0    0 -0.35426751541E-02 -0.16826090646E-02  0.22294786911E+00  0.22298294841E+00  0.51109989000E-03 0.  1.
     -623    1    1    2    0    0 -0.28864536561E-02  0.23623994148E-02  0.10763808551E-03  0.17130000004E+03  0.17130000000E+03 0.  1.
      622    1    1    2    0    0  0.64291288102E-02 -0.67979035017E-03  0.37769444602E+01  0.37770170110E+01  0.22500000000E-01 0.  1.
</event>
<event>
 5   0  0.9908800E+08  0.9118800E+02  0.7818608E-02  0.1180000E+00
       11   -1    0    0    0    0  0.00000000000E+00  0.00000000000E+00  0.39999999673E+01  0.40000000000E+01  0.51109989000E-03 0. -1.
     -623   -1    0    0    0    0  0.00000000000E+00  0.00000000000E+00  0.12525980253E-10  0.17130000000E+03  0.17130000000E+03 0. -1.
       11    1    1    2    0    0 -0.99159115011E-02 -0.40201562348E-02  0.31657196167E+00  0.31675314536E+00  0.51109989000E-03 0. -1.
     -623    1    1    2    0    0  0.47286923674E-02  0.61327101836E-02  0.25430883245E-03  0.17130000018E+03  0.17130000000E+03 0. -1.
      622    1    1    2    0    0  0.51872191324E-02 -0.21125539505E-02  0.36831736980E+01  0.36832466805E+01  0.22500000000E-01 0. -1.
</event>
<event>
 5   0  0.9908800E+08  0.9118800E+02  0.7818608E-02  0.1180000E+00
       11   -1    0    0    0    0  0.00000000000E+00  0.00000000000E+00  0.39999999673E+01  0.40000000000E+01  0.51109989000E-03 0.  1.
     -623   -1    0    0    0    0  0.00000000000E+00  0.00000000000E+00  0.12525980253E-10  0.17130000000E+03  0.17130000000E+03 0. -1.
       11    1    1    2    0    0 -0.17786086781E-02 -0.10733962885E-02  0.15415362525E-02  0.26368893677E-02  0.51109989000E-03 0.  1.
     -623    1    1    2    0    0  0.22193359257E-02  0.97411157439E-03  0.11586905655E-02  0.17130000002E+03  0.17130000000E+03 0. -1.
      622    1    1    2    0    0 -0.44072724762E-03  0.99284714114E-04  0.39972997406E+01  0.39973630896E+01  0.22500000000E-01 0.  1.
</event>
<event>
 5   0  0.9908800E+08  0.9118800E+02  0.7818608E-02  0.1180000E+00
       11   -1    0    0    0    0  0.00000000000E+00  0.00000000000E+00  0.39999999673E+01  0.40000000000E+01  0.51109989000E-03 0.  1.
     -623   -1    0    0    0    0  0.00000000000E+00  0.00000000000E+00  0.12525980253E-10  0.17130000000E+03  0.17130000000E+03 0. -1.
       11    1    1    2    0    0  0.39135726867E-02  0.84059064606E-02  0.78018873524E+00  0.78024399974E+00  0.51109989000E-03 0.  1.
     -623    1    1    2    0    0  0.19490247151E-03  0.12594511782E-04  0.14747648546E-03  0.17130000000E+03  0.17130000000E+03 0. -1.
      622    1    1    2    0    0 -0.41084751582E-02 -0.84185009724E-02  0.32196637553E+01  0.32197559998E+01  0.22500000000E-01 0.  1.
</event>
<event>
 5   0  0.9908800E+08  0.9118800E+02  0.7818608E-02  0.1180000E+00
       11   -1    0    0    0    0  0.00000000000E+00  0.00000000000E+00  0.39999999673E+01  0.40000000000E+01  0.51109989000E-03 0.  1.
     -623   -1    0    0    0    0  0.00000000000E+00  0.00000000000E+00  0.12525980253E-10  0.17130000000E+03  0.17130000000E+03 0.  1.
       11    1    1    2    0    0  0.43240781227E-02 -0.12106642232E-02  0.28546470649E+00  0.28550047852E+00  0.51109989000E-03 0.  1.
     -623    1    1    2    0    0  0.12345545596E-02  0.67734267300E-03  0.10808847711E-03  0.17130000001E+03  0.17130000000E+03 0.  1.
      622    1    1    2    0    0 -0.55586326824E-02  0.53332155019E-03  0.37144271726E+01  0.37144995159E+01  0.22500000000E-01 0.  1.
</event>
<event>
 5   0  0.9908800E+08  0.9118800E+02  0.7818608E-02  0.1180000E+00
       11   -1    0    0    0    0  0.00000000000E+00  0.00000000000E+00  0.39999999673E+01  0.40000000000E+01  0.51109989000E-03 0. -1.
     -623   -1    0    0    0    0  0.00000000000E+00  0.00000000000E+00  0.12525980253E-10  0.17130000000E+03  0.17130000000E+03 0. -1.
       11    1    1    2    0    0  0.60173307004E-04  0.26987633628E-02  0.16725946153E+00  0.16728202426E+00  0.51109989000E-03 0. -1.
     -623    1    1    2    0    0 -0.22225222812E-03  0.77467169091E-04  0.89582973911E-04  0.17130000000E+03  0.17130000000E+03 0. -1.
      622    1    1    2    0    0  0.16207892112E-03 -0.27762305318E-02  0.38326509229E+01  0.38327179756E+01  0.22500000000E-01 0. -1.
</event>
<event>
 5   0  0.9908800E+08  0.9118800E+02  0.7818608E-02  0.1180000E+00
       11   -1    0    0    0    0  0.00000000000E+00  0.00000000000E+00  0.39999999673E+01  0.40000000000E+01  0.51109989000E-03 0. -1.
     -623   -1    0    0    0    0  0.00000000000E+00  0.00000000000E+00  0.12525980253E-10  0.17130000000E+03  0.17130000000E+03 0. -1.
       11    1    1    2    0    0  0.21679609492E-01  0.16036803439E-01  0.11004849190E+01  0.11008153809E+01  0.51109989000E-03 0. -1.
     -623    1    1    2    0    0 -0.23258477248E-02  0.94669775321E-03  0.53210825224E-03  0.17130000002E+03  0.17130000000E+03 0. -1.
      622    1    1    2    0    0 -0.19353761767E-01 -0.16983501192E-01  0.28989829401E+01  0.28991845999E+01  0.22500000000E-01 0. -1.
</event>
<event>
 5   0  0.9908800E+08  0.9118800E+02  0.7818608E-02  0.1180000E+00
       11   -1    0    0    0    0  0.00000000000E+00  0.00000000000E+00  0.39999999673E+01  0.40000000000E+01  0.51109989000E-03 0.  1.
     -623   -1    0    0    0    0  0.00000000000E+00  0.00000000000E+00  0.12525980253E-10  0.17130000000E+03  0.17130000000E+03 0. -1.
       11    1    1    2    0    0 -0.79386630435E-03 -0.18498880727E-02  0.76851551142E-02  0.79608505712E-02  0.51109989000E-03 0. -1.
     -623    1    1    2    0    0 -0.60792625266E-03 -0.10594522824E-02  0.34038173909E-03  0.17130000000E+03  0.17130000000E+03 0. -1.
      622    1    1    2    0    0  0.14017925571E-02  0.29093403553E-02  0.39919744312E+01  0.39920391454E+01  0.22500000000E-01 0.  1.
</event>
<event>
 5   0  0.9908800E+08  0.9118800E+02  0.7818608E-02  0.1180000E+00
       11   -1    0    0    0    0  0.00000000000E+00  0.00000000000E+00  0.39999999673E+01  0.40000000000E+01  0.51109989000E-03 0.  1.
     -623   -1    0    0    0    0  0.00000000000E+00  0.00000000000E+00  0.12525980253E-10  0.17130000000E+03  0.17130000000E+03 0.  1.
       11    1    1    2    0    0 -0.54183099826E-03  0.11146798830E-02  0.16603715734E-01  0.16657751689E-01  0.51109989000E-03 0.  1.
     -623    1    1    2    0    0  0.72188184688E-03 -0.12128349591E-03  0.11767925116E-03  0.17130000000E+03  0.17130000000E+03 0.  1.
      622    1    1    2    0    0 -0.18005084860E-03 -0.99339638713E-03  0.39832785722E+01  0.39833422466E+01  0.22500000000E-01 0.  1.
</event>
<event>
 5   0  0.9908800E+08  0.9118800E+02  0.7818608E-02  0.1180000E+00
       11   -1    0    0    0    0  0.00000000000E+00  0.00000000000E+00  0.39999999673E+01  0.40000000000E+01  0.51109989000E-03 0.  1.
     -623   -1    0    0    0    0  0.00000000000E+00  0.00000000000E+00  0.12525980253E-10  0.17130000000E+03  0.17130000000E+03 0.  1.
       11    1    1    2    0    0  0.17894469151E-03 -0.54973208388E-02  0.40554491479E+00  0.40558253375E+00  0.51109989000E-03 0.  1.
     -623    1    1    2    0    0  0.14375699252E-02  0.43360283053E-03  0.11194572922E-03  0.17130000001E+03  0.17130000000E+03 0.  1.
      622    1    1    2    0    0 -0.16165146167E-02  0.50637180083E-02  0.35943431068E+01  0.35944174596E+01  0.22500000000E-01 0.  1.
</event>
<event>
 5   0  0.9908800E+08  0.9118800E+02  0.7818608E-02  0.1180000E+00
       11   -1    0    0    0    0  0.00000000000E+00  0.00000000000E+00  0.39999999673E+01  0.40000000000E+01  0.51109989000E-03 0. -1.
     -623   -1    0    0    0    0  0.00000000000E+00  0.00000000000E+00  0.12525980253E-10  0.17130000000E+03  0.17130000000E+03 0.  1.
       11    1    1    2    0    0  0.23712044005E-02  0.21872024588E-04  0.62580012153E-01  0.62627008813E-01  0.51109989000E-03 0. -1.
     -623    1    1    2    0    0 -0.71196203562E-03  0.34231099523E-02  0.11314477615E-03  0.17130000004E+03  0.17130000000E+03 0.  1.
      622    1    1    2    0    0 -0.16592423647E-02 -0.34449819778E-02  0.39373068115E+01  0.39373729565E+01  0.22500000000E-01 0. -1.
</event>
<event>
 5   0  0.9908800E+08  0.9118800E+02  0.7818608E-02  0.1180000E+00
       11   -1    0    0    0    0  0.00000000000E+00  0.00000000000E+00  0.39999999673E+01  0.40000000000E+01  0.51109989000E-03 0. -1.
     -623   -1    0    0    0    0  0.00000000000E+00  0.00000000000E+00  0.12525980253E-10  0.17130000000E+03  0.17130000000E+03 0. -1.
       11    1    1    2    0    0  0.32410320280E-03  0.20525965552E-02  0.58160697530E-02  0.61972643944E-02  0.51109989000E-03 0. -1.
     -623    1    1    2    0    0 -0.40456329033E-02 -0.58560288053E-03  0.44659467407E-03  0.17130000005E+03  0.17130000000E+03 0. -1.
      622    1    1    2    0    0  0.37215297001E-02 -0.14669936747E-02  0.39937373026E+01  0.39938026859E+01  0.22500000000E-01 0. -1.
</event>
<event>
 5   0  0.9908800E+08  0.9118800E+02  0.7818608E-02  0.1180000E+00
       11   -1    0    0    0    0  0.00000000000E+00  0.00000000000E+00  0.39999999673E+01  0.40000000000E+01  0.51109989000E-03 0.  1.
     -623   -1    0    0    0    0  0.00000000000E+00  0.00000000000E+00  0.12525980253E-10  0.17130000000E+03  0.17130000000E+03 0.  1.
       11    1    1    2    0    0  0.83412102488E-02  0.12061125067E-03  0.90884865242E-01  0.91268342204E-01  0.51109989000E-03 0.  1.
     -623    1    1    2    0    0 -0.67839080044E-02 -0.71722976082E-02  0.45516007398E-03  0.17130000029E+03  0.17130000000E+03 0.  1.
      622    1    1    2    0    0 -0.15573022440E-02  0.70516863579E-02  0.39086599423E+01  0.39087313729E+01  0.22500000000E-01 0.  1.
</event>
<event>
 5   0  0.9908800E+08  0.9118800E+02  0.7818608E-02  0.1180000E+00
       11   -1    0    0    0    0  0.00000000000E+00  0.00000000000E+00  0.39999999673E+01  0.40000000000E+01  0.51109989000E-03 0. -1.
     -623   -1    0    0    0    0  0.00000000000E+00  0.00000000000E+00  0.12525980253E-10  0.17130000000E+03  0.17130000000E+03 0.  1.
       11    1    1    2    0    0  0.99102843112E-02 -0.11110193942E-01  0.10787119691E+01  0.10788148236E+01  0.51109989000E-03 0. -1.
     -623    1    1    2    0    0 -0.94551497966E-03 -0.48254245998E-03  0.22623820962E-03  0.17130000000E+03  0.17130000000E+03 0.  1.
      622    1    1    2    0    0 -0.89647693313E-02  0.11592736402E-01  0.29210617610E+01  0.29211851739E+01  0.22500000000E-01 0.  1.
</event>
<event>
 5   0  0.9908800E+08  0.9118800E+02  0.7818608E-02  0.1180000E+00
       11   -1    0    0    0    0  0.00000000000E+00  0.00000000000E+00  0.39999999673E+01  0.40000000000E+01  0.51109989000E-03 0. -1.
     -623   -1    0    0    0    0  0.00000000000E+00  0.00000000000E+00  0.12525980253E-10  0.17130000000E+03  0.17130000000E+03 0.  1.
       11    1    1    2    0    0  0.60268691977E-03  0.30560270156E-02  0.11770873281E+00  0.11775104898E+00  0.51109989000E-03 0. -1.
     -623    1    1    2    0    0 -0.18394410918E-02 -0.55155464464E-03  0.10850032374E-03  0.17130000001E+03  0.17130000000E+03 0.  1.
      622    1    1    2    0    0  0.12367541731E-02 -0.25044723706E-02  0.38821827367E+01  0.38822489427E+01  0.22500000000E-01 0. -1.
</event>
<event>
 5   0  0.9908800E+08  0.9118800E+02  0.7818608E-02  0.1180000E+00
       11   -1    0    0    0    0  0.00000000000E+00  0.00000000000E+00  0.39999999673E+01  0.40000000000E+01  0.51109989000E-03 0. -1.
     -623   -1    0    0    0    0  0.00000000000E+00  0.00000000000E+00  0.12525980253E-10  0.17130000000E+03  0.17130000000E+03 0.  1.
       11    1    1    2    0    0  0.25141315570E-03  0.62399985277E-03  0.67646238816E-03  0.10823154219E-02  0.51109989000E-03 0. -1.
     -623    1    1    2    0    0 -0.15670200189E-02  0.38309914773E-02  0.47186792331E-03  0.17130000005E+03  0.17130000000E+03 0.  1.
      622    1    1    2    0    0  0.13156068632E-02 -0.44549913301E-02  0.39988516370E+01  0.39989176339E+01  0.22500000000E-01 0. -1.
</event>
<event>
 5   0  0.9908800E+08  0.9118800E+02  0.7818608E-02  0.1180000E+00
       11   -1    0    0    0    0  0.00000000000E+00  0.00000000000E+00  0.39999999673E+01  0.40000000000E+01  0.51109989000E-03 0.  1.
     -623   -1    0    0    0    0  0.00000000000E+00  0.00000000000E+00  0.12525980253E-10  0.17130000000E+03  0.17130000000E+03 0.  1.
       11    1    1    2    0    0 -0.17357884873E-02 -0.63813764721E-02  0.10389757909E+01  0.10389969635E+01  0.51109989000E-03 0.  1.
     -623    1    1    2    0    0  0.37568554448E-03 -0.20211211998E-03  0.11425948933E-03  0.17130000000E+03  0.17130000000E+03 0.  1.
      622    1    1    2    0    0  0.13601029428E-02  0.65834885921E-02  0.29609099170E+01  0.29610030359E+01  0.22500000000E-01 0. -1.
</event>
<event>
 5   0  0.9908800E+08  0.9118800E+02  0.7818608E-02  0.1180000E+00
       11   -1    0    0    0    0  0.00000000000E+00  0.00000000000E+00  0.39999999673E+01  0.40000000000E+01  0.51109989000E-03 0. -1.
     -623   -1    0    0    0    0  0.00000000000E+00  0.00000000000E+00  0.12525980253E-10  0.17130000000E+03  0.17130000000E+03 0.  1.
       11    1    1    2    0    0 -0.34854149712E-03  0.75797275759E-02  0.60883853413E+00  0.60888602843E+00  0.51109989000E-03 0. -1.
     -623    1    1    2    0    0  0.20162570870E-01 -0.16994160322E-02  0.18628753649E-03  0.17130000120E+03  0.17130000000E+03 0.  1.
      622    1    1    2    0    0 -0.19814029386E-01 -0.58803115426E-02  0.33909751484E+01  0.33911127791E+01  0.22500000000E-01 0. -1.
</event>
<event>
 5   0  0.9908800E+08  0.9118800E+02  0.7818608E-02  0.1180000E+00
       11   -1    0    0    0    0  0.00000000000E+00  0.00000000000E+00  0.39999999673E+01  0.40000000000E+01  0.51109989000E-03 0. -1.
     -623   -1    0    0    0    0  0.00000000000E+00  0.00000000000E+00  0.12525980253E-10  0.17130000000E+03  0.17130000000E+03 0.  1.
       11    1    1    2    0    0  0.14349661258E-03 -0.72308275876E-03  0.10220068017E-01  0.10259359304E-01  0.51109989000E-03 0. -1.
     -623    1    1    2    0    0  0.11625937869E-02  0.12619667606E-02  0.10296192864E-03  0.17130000001E+03  0.17130000000E+03 0.  1.
      622    1    1    2    0    0 -0.13060903992E-02 -0.53888400153E-03  0.39896769365E+01  0.39897406312E+01  0.22500000000E-01 0. -1.
</event>
<event>
 5   0  0.9908800E+08  0.9118800E+02  0.7818608E-02  0.1180000E+00
       11   -1    0    0    0    0  0.00000000000E+00  0.00000000000E+00  0.39999999673E+01  0.40000000000E+01  0.51109989000E-03 0.  1.
     -623   -1    0    0    0    0  0.00000000000E+00  0.00000000000E+00  0.12525980253E-10  0.17130000000E+03  0.17130000000E+03 0.  1.
       11    1    1    2    0    0  0.99082024881E-02 -0.22364104840E-02  0.64605197427E+00  0.64613202110E+00  0.51109989000E-03 0.  1.
     -623    1    1    2    0    0 -0.40386197985E-04 -0.43079373509E-03  0.17106581903E-03  0.17130000000E+03  0.17130000000E+03 0.  1.
      622    1    1    2    0    0 -0.98678162901E-02  0.26672042191E-02  0.33537769273E+01  0.33538679783E+01  0.22500000000E-01 0.  1.
</event>
<event>
 5   0  0.9908800E+08  0.9118800E+02  0.7818608E-02  0.1180000E+00
       11   -1    0    0    0    0  0.00000000000E+00  0.00000000000E+00  0.39999999673E+01  0.40000000000E+01  0.51109989000E-03 0.  1.
     -623   -1    0    0    0    0  0.00000000000E+00  0.00000000000E+00  0.12525980253E-10  0.17130000000E+03  0.17130000000E+03 0.  1.
       11    1    1    2    0    0 -0.33480251892E-03  0.49277928028E-02  0.24099759094E-01  0.24605992078E-01  0.51109989000E-03 0.  1.
     -623    1    1    2    0    0 -0.12428787755E-02 -0.52601785477E-02  0.57028697144E-03  0.17130000009E+03  0.17130000000E+03 0.  1.
      622    1    1    2    0    0  0.15776812943E-02  0.33238574466E-03  0.39753299211E+01  0.39753939216E+01  0.22500000000E-01 0.  1.
</event>
<event>
 5   0  0.9908800E+08  0.9118800E+02  0.7818608E-02  0.1180000E+00
       11   -1    0    0    0    0  0.00000000000E+00  0.00000000000E+00  0.39999999673E+01  0.40000000000E+01  0.51109989000E-03 0. -1.
     -623   -1    0    0    0    0  0.00000000000E+00  0.00000000000E+00  0.12525980253E-10  0.17130000000E+03  0.17130000000E+03 0. -1.
       11    1    1    2    0    0  0.49863928189E-03 -0.24806494312E-02  0.31304056373E+00  0.31305120671E+00  0.51109989000E-03 0. -1.
     -623    1    1    2    0    0  0.63722138904E-02  0.70999123580E-02  0.88826974485E-04  0.17130000027E+03  0.17130000000E+03 0. -1.
      622    1    1    2    0    0 -0.68708531723E-02 -0.46192629268E-02  0.36868705767E+01  0.36869485276E+01  0.22500000000E-01 0. -1.
</event>
<event>
 5   0  0.9908800E+08  0.9118800E+02  0.7818608E-02  0.1180000E+00
       11   -1    0    0    0    0  0.00000000000E+00  0.00000000000E+00  0.39999999673E+01  0.40000000000E+01  0.51109989000E-03 0. -1.
     -623   -1    0    0    0    0  0.00000000000E+00  0.00000000000E+00  0.12525980253E-10  0.17130000000E+03  0.17130000000E+03 0.  1.
       11    1    1    2    0    0  0.19625259787E-02 -0.28796884677E-02  0.19889371088E+00  0.19892489428E+00  0.51109989000E-03 0. -1.
     -623    1    1    2    0    0 -0.14317195921E-02 -0.57416057696E-03  0.99357581623E-04  0.17130000001E+03  0.17130000000E+03 0.  1.
      622    1    1    2    0    0 -0.53080638557E-03  0.34538490451E-02  0.38010069018E+01  0.38010751016E+01  0.22500000000E-01 0. -1.
</event>
<event>
 5   0  0.9908800E+08  0.9118800E+02  0.7818608E-02  0.1180000E+00
       11   -1    0    0    0    0  0.00000000000E+00  0.00000000000E+00  0.39999999673E+01  0.40000000000E+01  0.51109989000E-03 0.  1.
     -623   -1    0    0    0    0  0.00000000000E+00  0.00000000000E+00  0.12525980253E-10  0.17130000000E+03  0.17130000000E+03 0. -1.
       11    1    1    2    0    0 -0.54529158495E-03 -0.54960484086E-02  0.26650960832E+00  0.26656732065E+00  0.51109989000E-03 0.  1.
     -623    1    1    2    0    0 -0.19740976629E-02 -0.35291670054E-03  0.13092342527E-03  0.17130000001E+03  0.17130000000E+03 0. -1.
      622    1    1    2    0    0  0.25193892479E-02  0.58489651091E-02  0.37333594356E+01  0.37334326676E+01  0.22500000000E-01 0.  1.
</event>
<event>
 5   0  0.9908800E+08  0.9118800E+02  0.7818608E-02  0.1180000E+00
       11   -1    0    0    0    0  0.00000000000E+00  0.00000000000E+00  0.39999999673E+01  0.40000000000E+01  0.51109989000E-03 0.  1.
     -623   -1    0    0    0    0  0.00000000000E+00  0.00000000000E+00  0.12525980253E-10  0.17130000000E+03  0.17130000000E+03 0. -1.
       11    1    1    2    0    0 -0.85124104347E-02 -0.24514433498E-02  0.74730197355E+00  0.74735464915E+00  0.51109989000E-03 0.  1.
     -623    1    1    2    0    0 -0.36093525277E-02  0.15906980808E-02  0.15321248024E-03  0.17130000005E+03  0.17130000000E+03 0. -1.
      622    1    1    2    0    0  0.12121762965E-01  0.86074526796E-03  0.32525447840E+01  0.32526453081E+01  0.22500000000E-01 0.  1.
</event>
<event>
 5   0  0.9908800E+08  0.9118800E+02  0.7818608E-02  0.1180000E+00
       11   -1    0    0    0    0  0.00000000000E+00  0.00000000000E+00  0.39999999673E+01  0.40000000000E+01  0.51109989000E-03 0.  1.
     -623   -1    0    0    0    0  0.00000000000E+00  0.00000000000E+00  0.12525980253E-10  0.17130000000E+03  0.17130000000E+03 0. -1.
       11    1    1    2    0    0 -0.16047872185E-02 -0.15817345178E-02  0.21649153054E+00  0.21650385965E+00  0.51109989000E-03 0.  1.
     -623    1    1    2    0    0  0.52119205313E-02  0.15824480012E-02  0.81005616507E-04  0.17130000009E+03  0.17130000000E+03 0. -1.
      622    1    1    2    0    0 -0.36071333182E-02 -0.71348507551E-06  0.37834274353E+01  0.37834960579E+01  0.22500000000E-01 0.  1.
</event>
<event>
 5   0  0.9908800E+08  0.9118800E+02  0.7818608E-02  0.1180000E+00
       11   -1    0    0    0    0  0.00000000000E+00  0.00000000000E+00  0.39999999673E+01  0.40000000000E+01  0.51109989000E-03 0.  1.
     -623   -1    0    0    0    0  0.00000000000E+00  0.00000000000E+00  0.12525980253E-10  0.17130000000E+03  0.17130000000E+03 0.  1.
       11    1    1    2    0    0  0.10347158163E-01  0.67126949620E-02  0.24365569864E+00  0.24396820420E+00  0.51109989000E-03 0.  1.
     -623    1    1    2    0    0 -0.38660815332E-02 -0.16248986019E-03  0.39121258502E-03  0.17130000004E+03  0.17130000000E+03 0.  1.
      622    1    1    2    0    0 -0.64810766285E-02 -0.65502051017E-02  0.37559530575E+01  0.37560317530E+01  0.22500000000E-01 0.  1.
</event>
<event>
 5   0  0.9908800E+08  0.9118800E+02  0.7818608E-02  0.1180000E+00
       11   -1    0    0    0    0  0.00000000000E+00  0.00000000000E+00  0.39999999673E+01  0.40000000000E+01  0.51109989000E-03 0. -1.
     -623   -1    0    0    0    0  0.00000000000E+00  0.00000000000E+00  0.12525980253E-10  0.17130000000E+03  0.17130000000E+03 0.  1.
       11    1    1    2    0    0  0.58957598191E-03 -0.19689796273E-02  0.67338041010E+00  0.67338374083E+00  0.51109989000E-03 0. -1.
     -623    1    1    2    0    0 -0.71298632984E-03 -0.31494341018E-03  0.80177913594E-04  0.17130000000E+03  0.17130000000E+03 0.  1.
      622    1    1    2    0    0  0.12341034793E-03  0.22839230374E-02  0.33265393793E+01  0.33266162574E+01  0.22500000000E-01 0. -1.
</event>
<event>
 5   0  0.9908800E+08  0.9118800E+02  0.7818608E-02  0.1180000E+00
       11   -1    0    0    0    0  0.00000000000E+00  0.00000000000E+00  0.39999999673E+01  0.40000000000E+01  0.51109989000E-03 0.  1.
     -623   -1    0    0    0    0  0.00000000000E+00  0.00000000000E+00  0.12525980253E-10  0.17130000000E+03  0.17130000000E+03 0.  1.
       11    1    1    2    0    0 -0.71194817658E-02  0.64914010009E-02  0.12925848045E+00  0.12961805930E+00  0.51109989000E-03 0.  1.
     -623    1    1    2    0    0  0.10550341361E-01 -0.66683723926E-02  0.42692722012E-03  0.17130000046E+03  0.17130000000E+03 0.  1.
      622    1    1    2    0    0 -0.34308595963E-02  0.17697139264E-03  0.38703145602E+01  0.38703814860E+01  0.22500000000E-01 0.  1.
</event>
<event>
 5   0  0.9908800E+08  0.9118800E+02  0.7818608E-02  0.1180000E+00
       11   -1    0    0    0    0  0.00000000000E+00  0.00000000000E+00  0.39999999673E+01  0.40000000000E+01  0.51109989000E-03 0.  1.
     -623   -1    0    0    0    0  0.00000000000E+00  0.00000000000E+00  0.12525980253E-10  0.17130000000E+03  0.17130000000E+03 0.  1.
       11    1    1    2    0    0  0.15085452624E-03  0.57081542434E-02  0.58252633320E-02  0.81731693938E-02  0.51109989000E-03 0.  1.
     -623    1    1    2    0    0 -0.72200053227E-02 -0.77863946164E-02  0.24184314458E-02  0.17130000035E+03  0.17130000000E+03 0.  1.
      622    1    1    2    0    0  0.70691507966E-02  0.20782403731E-02  0.39917562727E+01  0.39918264845E+01  0.22500000000E-01 0.  1.
</event>
<event>
 5   0  0.9908800E+08  0.9118800E+02  0.7818608E-02  0.1180000E+00
       11   -1    0    0    0    0  0.00000000000E+00  0.00000000000E+00  0.39999999673E+01  0.40000000000E+01  0.51109989000E-03 0.  1.
     -623   -1    0    0    0    0  0.00000000000E+00  0.00000000000E+00  0.12525980253E-10  0.17130000000E+03  0.17130000000E+03 0.  1.
       11    1    1    2    0    0 -0.16610802627E-02 -0.61610288886E-04  0.16845742839E-01  0.16935266705E-01  0.51109989000E-03 0.  1.
     -623    1    1    2    0    0 -0.13601450867E-03 -0.26195886373E-03  0.15346092571E-03  0.17130000000E+03  0.17130000000E+03 0.  1.
      622    1    1    2    0    0  0.17970947714E-02  0.32356915256E-03  0.39830007627E+01  0.39830647321E+01  0.22500000000E-01 0.  1.
</event>
<event>
 5   0  0.9908800E+08  0.9118800E+02  0.7818608E-02  0.1180000E+00
       11   -1    0    0    0    0  0.00000000000E+00  0.00000000000E+00  0.39999999673E+01  0.40000000000E+01  0.51109989000E-03 0.  1.
     -623   -1    0    0    0    0  0.00000000000E+00  0.00000000000E+00  0.12525980253E-10  0.17130000000E+03  0.17130000000E+03 0.  1.
       11    1    1    2    0    0  0.76819108147E-03  0.70013166947E-03  0.51611846150E-01  0.51624840804E-01  0.51109989000E-03 0.  1.
     -623    1    1    2    0    0 -0.10373689039E-03  0.28807735009E-03  0.77251052158E-04  0.17130000000E+03  0.17130000000E+03 0.  1.
      622    1    1    2    0    0 -0.66445419093E-03 -0.98820901999E-03  0.39483108761E+01  0.39483751648E+01  0.22500000000E-01 0.  1.
</event>
<event>
 5   0  0.9908800E+08  0.9118800E+02  0.7818608E-02  0.1180000E+00
       11   -1    0    0    0    0  0.00000000000E+00  0.00000000000E+00  0.39999999673E+01  0.40000000000E+01  0.51109989000E-03 0.  1.
     -623   -1    0    0    0    0  0.00000000000E+00  0.00000000000E+00  0.12525980253E-10  0.17130000000E+03  0.17130000000E+03 0. -1.
       11    1    1    2    0    0  0.10461628486E-01 -0.16553784617E-02  0.51743552500E+00  0.51754417174E+00  0.51109989000E-03 0.  1.
     -623    1    1    2    0    0 -0.84762844070E-03 -0.37159064586E-04  0.19498512481E-03  0.17130000000E+03  0.17130000000E+03 0. -1.
      622    1    1    2    0    0 -0.96140000454E-02  0.16925375262E-02  0.34823694556E+01  0.34824558245E+01  0.22500000000E-01 0.  0.
</event>
<event>
 5   0  0.9908800E+08  0.9118800E+02  0.7818608E-02  0.1180000E+00
       11   -1    0    0    0    0  0.00000000000E+00  0.00000000000E+00  0.39999999673E+01  0.40000000000E+01  0.51109989000E-03 0.  1.
     -623   -1    0    0    0    0  0.00000000000E+00  0.00000000000E+00  0.12525980253E-10  0.17130000000E+03  0.17130000000E+03 0.  1.
       11    1    1    2    0    0  0.29633293723E-03 -0.37330835259E-02  0.76736335675E+00  0.76737266450E+00  0.51109989000E-03 0.  1.
     -623    1    1    2    0    0  0.22693653938E-03 -0.14260034636E-03  0.89945217873E-04  0.17130000000E+03  0.17130000000E+03 0.  1.
      622    1    1    2    0    0 -0.52326947675E-03  0.38756838724E-02  0.32325466680E+01  0.32326273379E+01  0.22500000000E-01 0.  1.
</event>
<event>
 5   0  0.9908800E+08  0.9118800E+02  0.7818608E-02  0.1180000E+00
       11   -1    0    0    0    0  0.00000000000E+00  0.00000000000E+00  0.39999999673E+01  0.40000000000E+01  0.51109989000E-03 0. -1.
     -623   -1    0    0    0    0  0.00000000000E+00  0.00000000000E+00  0.12525980253E-10  0.17130000000E+03  0.17130000000E+03 0.  1.
       11    1    1    2    0    0  0.29113889125E-02  0.15975375402E-02  0.72415405536E-01  0.72493313421E-01  0.51109989000E-03 0. -1.
     -623    1    1    2    0    0  0.88621929140E-04 -0.42965129034E-03  0.14364511860E-03  0.17130000000E+03  0.17130000000E+03 0.  1.
      622    1    1    2    0    0 -0.30000108417E-02 -0.11678862498E-02  0.39274409167E+01  0.39275066860E+01  0.22500000000E-01 0. -1.
</event>
<event>
 5   0  0.9908800E+08  0.9118800E+02  0.7818608E-02  0.1180000E+00
       11   -1    0    0    0    0  0.00000000000E+00  0.00000000000E+00  0.39999999673E+01  0.40000000000E+01  0.51109989000E-03 0. -1.
     -623   -1    0    0    0    0  0.00000000000E+00  0.00000000000E+00  0.12525980253E-10  0.17130000000E+03  0.17130000000E+03 0. -1.
       11    1    1    2    0    0  0.53794647601E-02  0.70774213999E-02  0.30150493303E+00  0.30163639435E+00  0.51109989000E-03 0. -1.
     -623    1    1    2    0    0 -0.77869426596E-03  0.39049467326E-02  0.21908644304E-03  0.17130000005E+03  0.17130000000E+03 0. -1.
      622    1    1    2    0    0 -0.46007704940E-02 -0.10982368133E-01  0.36982759486E+01  0.36983635600E+01  0.22500000000E-01 0.  0.
</event>
<event>
 5   0  0.9908800E+08  0.9118800E+02  0.7818608E-02  0.1180000E+00
       11   -1    0    0    0    0  0.00000000000E+00  0.00000000000E+00  0.39999999673E+01  0.40000000000E+01  0.51109989000E-03 0.  1.
     -623   -1    0    0    0    0  0.00000000000E+00  0.00000000000E+00  0.12525980253E-10  0.17130000000E+03  0.17130000000E+03 0.  1.
       11    1    1    2    0    0  0.11489586902E-01  0.96599418137E-02  0.10242145201E+01  0.10243246407E+01  0.51109989000E-03 0.  1.
     -623    1    1    2    0    0 -0.90464483436E-04 -0.72655416482E-03  0.23040013498E-03  0.17130000000E+03  0.17130000000E+03 0.  1.
      622    1    1    2    0    0 -0.11399122419E-01 -0.89333876489E-02  0.29755550471E+01  0.29756753576E+01  0.22500000000E-01 0.  1.
</event>
<event>
 5   0  0.9908800E+08  0.9118800E+02  0.7818608E-02  0.1180000E+00
       11   -1    0    0    0    0  0.00000000000E+00  0.00000000000E+00  0.39999999673E+01  0.40000000000E+01  0.51109989000E-03 0.  1.
     -623   -1    0    0    0    0  0.00000000000E+00  0.00000000000E+00  0.12525980253E-10  0.17130000000E+03  0.17130000000E+03 0.  1.
       11    1    1    2    0    0 -0.46861546587E-02 -0.59595235780E-03  0.11419105483E+00  0.11428986583E+00  0.51109989000E-03 0.  1.
     -623    1    1    2    0    0  0.27543573227E-03  0.15141244783E-02  0.16654028663E-03  0.17130000001E+03  0.17130000000E+03 0.  1.
      622    1    1    2    0    0  0.44107189263E-02 -0.91817212112E-03  0.38856423739E+01  0.38857101289E+01  0.22500000000E-01 0.  1.
</event>
<event>
 5   0  0.9908800E+08  0.9118800E+02  0.7818608E-02  0.1180000E+00
       11   -1    0    0    0    0  0.00000000000E+00  0.00000000000E+00  0.39999999673E+01  0.40000000000E+01  0.51109989000E-03 0. -1.
     -623   -1    0    0    0    0  0.00000000000E+00  0.00000000000E+00  0.12525980253E-10  0.17130000000E+03  0.17130000000E+03 0.  1.
       11    1    1    2    0    0  0.21188903597E-02  0.12955223429E-01  0.34382103299E+00  0.34407192774E+00  0.51109989000E-03 0. -1.
     -623    1    1    2    0    0 -0.50201560966E-03 -0.11402994951E-03  0.34301069573E-03  0.17130000000E+03  0.17130000000E+03 0.  1.
      622    1    1    2    0    0 -0.16168747499E-02 -0.12841193480E-01  0.36558359250E+01  0.36559280725E+01  0.22500000000E-01 0.  0.
</event>
<event>
 5   0  0.9908800E+08  0.9118800E+02  0.7818608E-02  0.1180000E+00
       11   -1    0    0    0    0  0.00000000000E+00  0.00000000000E+00  0.39999999673E+01  0.40000000000E+01  0.51109989000E-03 0.  1.
     -623   -1    0    0    0    0  0.00000000000E+00  0.00000000000E+00  0.12525980253E-10  0.17130000000E+03  0.17130000000E+03 0.  1.
       11    1    1    2    0    0  0.98375210892E-02  0.14885049663E-02  0.79447603023E+00  0.79453849265E+00  0.51109989000E-03 0.  1.
     -623    1    1    2    0    0 -0.86984541735E-02 -0.51996319437E-02  0.14404809710E-03  0.17130000030E+03  0.17130000000E+03 0.  1.
      622    1    1    2    0    0 -0.11390669164E-02  0.37111269769E-02  0.32053798887E+01  0.32054612072E+01  0.22500000000E-01 0.  1.
</event>
<event>
 5   0  0.9908800E+08  0.9118800E+02  0.7818608E-02  0.1180000E+00
       11   -1    0    0    0    0  0.00000000000E+00  0.00000000000E+00  0.39999999673E+01  0.40000000000E+01  0.51109989000E-03 0.  1.
     -623   -1    0    0    0    0  0.00000000000E+00  0.00000000000E+00  0.12525980253E-10  0.17130000000E+03  0.17130000000E+03 0. -1.
       11    1    1    2    0    0 -0.33158365953E-03 -0.23153050881E-02  0.21839246325E+00  0.21840558558E+00  0.51109989000E-03 0.  1.
     -623    1    1    2    0    0 -0.28556344051E-03 -0.34483096934E-03  0.81012938904E-04  0.17130000000E+03  0.17130000000E+03 0. -1.
      622    1    1    2    0    0  0.61714710004E-03  0.26601360575E-02  0.37815264912E+01  0.37815944138E+01  0.22500000000E-01 0.  1.
</event>
<event>
 5   0  0.9908800E+08  0.9118800E+02  0.7818608E-02  0.1180000E+00
       11   -1    0    0    0    0  0.00000000000E+00  0.00000000000E+00  0.39999999673E+01  0.40000000000E+01  0.51109989000E-03 0.  1.
     -623   -1    0    0    0    0  0.00000000000E+00  0.00000000000E+00  0.12525980253E-10  0.17130000000E+03  0.17130000000E+03 0.  1.
       11    1    1    2    0    0  0.40726070917E-03 -0.46940359745E-03  0.15609307125E-02  0.17561118442E-02  0.51109989000E-03 0.  1.
     -623    1    1    2    0    0 -0.43914527558E-03  0.87320572257E-03  0.25848153922E-03  0.17130000000E+03  0.17130000000E+03 0.  1.
      622    1    1    2    0    0  0.31884566447E-04 -0.40380212518E-03  0.39981805554E+01  0.39982438855E+01  0.22500000000E-01 0.  1.
</event>
<event>
 5   0  0.9908800E+08  0.9118800E+02  0.7818608E-02  0.1180000E+00
       11   -1    0    0    0    0  0.00000000000E+00  0.00000000000E+00  0.39999999673E+01  0.40000000000E+01  0.51109989000E-03 0. -1.
     -623   -1    0    0    0    0  0.00000000000E+00  0.00000000000E+00  0.12525980253E-10  0.17130000000E+03  0.17130000000E+03 0. -1.
       11    1    1    2    0    0 -0.82751824720E-02  0.49340375282E-02  0.46075508397E+00  0.46085608600E+00  0.51109989000E-03 0. -1.
     -623    1    1    2    0    0  0.21682577908E-01  0.44093924469E-02  0.21165095556E-03  0.17130000143E+03  0.17130000000E+03 0. -1.
      622    1    1    2    0    0 -0.13407395434E-01 -0.93434299747E-02  0.35390332321E+01  0.35391424845E+01  0.22500000000E-01 0. -1.
</event>
<event>
 5   0  0.9908800E+08  0.9118800E+02  0.7818608E-02  0.1180000E+00
       11   -1    0    0    0    0  0.00000000000E+00  0.00000000000E+00  0.39999999673E+01  0.40000000000E+01  0.51109989000E-03 0.  1.
     -623   -1    0    0    0    0  0.00000000000E+00  0.00000000000E+00  0.12525980253E-10  0.17130000000E+03  0.17130000000E+03 0. -1.
       11    1    1    2    0    0 -0.12952510224E-02  0.32070031153E-03  0.20397814371E+00  0.20398314846E+00  0.51109989000E-03 0.  1.
     -623    1    1    2    0    0  0.52265494632E-02 -0.11859337313E-02  0.73872637735E-04  0.17130000008E+03  0.17130000000E+03 0. -1.
      622    1    1    2    0    0 -0.39312984408E-02  0.86523341976E-03  0.37959479510E+01  0.37960167677E+01  0.22500000000E-01 0.  1.
</event>
<event>
 5   0  0.9908800E+08  0.9118800E+02  0.7818608E-02  0.1180000E+00
       11   -1    0    0    0    0  0.00000000000E+00  0.00000000000E+00  0.39999999673E+01  0.40000000000E+01  0.51109989000E-03 0. -1.
     -623   -1    0    0    0    0  0.00000000000E+00  0.00000000000E+00  0.12525980253E-10  0.17130000000E+03  0.17130000000E+03 0. -1.
       11    1    1    2    0    0 -0.53369262489E-03  0.94928731059E-05  0.47223279530E-03  0.87700903247E-03  0.51109989000E-03 0. -1.
     -623    1    1    2    0    0  0.20416561027E-03  0.15340613568E-03  0.46805694974E-03  0.17130000000E+03  0.17130000000E+03 0. -1.
      622    1    1    2    0    0  0.32952701457E-03 -0.16289900882E-03  0.39990596786E+01  0.39991229911E+01  0.22500000000E-01 0. -1.
</event>
<event>
 5   0  0.9908800E+08  0.9118800E+02  0.7818608E-02  0.1180000E+00
       11   -1    0    0    0    0  0.00000000000E+00  0.00000000000E+00  0.39999999673E+01  0.40000000000E+01  0.51109989000E-03 0. -1.
     -623   -1    0    0    0    0  0.00000000000E+00  0.00000000000E+00  0.12525980253E-10  0.17130000000E+03  0.17130000000E+03 0. -1.
       11    1    1    2    0    0  0.20220144331E-03 -0.34167499668E-03  0.78513375489E-02  0.78779660733E-02  0.51109989000E-03 0. -1.
     -623    1    1    2    0    0 -0.53185377888E-04 -0.45775821191E-04  0.90024136882E-04  0.17130000000E+03  0.17130000000E+03 0. -1.
      622    1    1    2    0    0 -0.14901606542E-03  0.38745081787E-03  0.39920586057E+01  0.39921220339E+01  0.22500000000E-01 0. -1.
</event>
<event>
 5   0  0.9908800E+08  0.9118800E+02  0.7818608E-02  0.1180000E+00
       11   -1    0    0    0    0  0.00000000000E+00  0.00000000000E+00  0.39999999673E+01  0.40000000000E+01  0.51109989000E-03 0. -1.
     -623   -1    0    0    0    0  0.00000000000E+00  0.00000000000E+00  0.12525980253E-10  0.17130000000E+03  0.17130000000E+03 0.  1.
       11    1    1    2    0    0 -0.31613969518E-03 -0.18942357000E-02  0.38165921474E+00  0.38166438856E+00  0.51109989000E-03 0. -1.
     -623    1    1    2    0    0 -0.14718737977E-03 -0.23537655236E-03  0.75754669334E-04  0.17130000000E+03  0.17130000000E+03 0.  1.
      622    1    1    2    0    0  0.46332707495E-03  0.21296122523E-02  0.36182649979E+01  0.36183356112E+01  0.22500000000E-01 0. -1.
</event>
<event>
 5   0  0.9908800E+08  0.9118800E+02  0.7818608E-02  0.1180000E+00
       11   -1    0    0    0    0  0.00000000000E+00  0.00000000000E+00  0.39999999673E+01  0.40000000000E+01  0.51109989000E-03 0. -1.
     -623   -1    0    0    0    0  0.00000000000E+00  0.00000000000E+00  0.12525980253E-10  0.17130000000E+03  0.17130000000E+03 0. -1.
       11    1    1    2    0    0  0.72441412057E-02  0.48300548481E-02  0.62259039002E+00  0.62265147714E+00  0.51109989000E-03 0. -1.
     -623    1    1    2    0    0  0.28321017592E-02 -0.82267860085E-02  0.15296383501E-03  0.17130000022E+03  0.17130000000E+03 0. -1.
      622    1    1    2    0    0 -0.10076242965E-01  0.33967311604E-02  0.33772566135E+01  0.33773483018E+01  0.22500000000E-01 0. -1.
</event>
<event>
 5   0  0.9908800E+08  0.9118800E+02  0.7818608E-02  0.1180000E+00
       11   -1    0    0    0    0  0.00000000000E+00  0.00000000000E+00  0.39999999673E+01  0.40000000000E+01  0.51109989000E-03 0. -1.
     -623   -1    0    0    0    0  0.00000000000E+00  0.00000000000E+00  0.12525980253E-10  0.17130000000E+03  0.17130000000E+03 0.  1.
       11    1    1    2    0    0 -0.66449897588E-02  0.27769229475E-02  0.96534212200E+00  0.96536912159E+00  0.51109989000E-03 0. -1.
     -623    1    1    2    0    0  0.45544241350E-03 -0.14382962815E-02  0.11699455204E-03  0.17130000001E+03  0.17130000000E+03 0.  1.
      622    1    1    2    0    0  0.61895473453E-02 -0.13386266661E-02  0.30345408508E+01  0.30346308717E+01  0.22500000000E-01 0. -1.
</event>
<event>
 5   0  0.9908800E+08  0.9118800E+02  0.7818608E-02  0.1180000E+00
       11   -1    0    0    0    0  0.00000000000E+00  0.00000000000E+00  0.39999999673E+01  0.40000000000E+01  0.51109989000E-03 0.  1.
     -623   -1    0    0    0    0  0.00000000000E+00  0.00000000000E+00  0.12525980253E-10  0.17130000000E+03  0.17130000000E+03 0.  1.
       11    1    1    2    0    0  0.51779431966E-04 -0.13136319341E-02  0.41723575412E-02  0.44043274762E-02  0.51109989000E-03 0.  1.
     -623    1    1    2    0    0 -0.15600754781E-02  0.11740394802E-02  0.29558731014E-03  0.17130000001E+03  0.17130000000E+03 0.  1.
      622    1    1    2    0    0  0.15082960467E-02  0.13959245347E-03  0.39955320239E+01  0.39955956626E+01  0.22500000000E-01 0.  1.
</event>
</LesHouchesEvents>
