<LesHouchesEvents version="1.0">
<header>
<!--
#*********************************************************************
#                                                                    *
#                       MadGraph/MadEvent                            *
#                                                                    *
#                      The new web generation                        *
#                                                                    *
#                   http://madgraph.hep.uiuc.edu                     *
#                   http://madgraph.phys.ucl.ac.be                   *
#                   http://madgraph.roma2.infn.it                    *
#                                                                    *
#            CP3 team                      Tim Stelzer               *
#      Universite de Louvain          University of Illinois         *
#                                                                    *
#....................................................................*
#                                                                    *
# This file contains all the information necessary to reproduce      *
# the events generated:                                              *
#                                                                    *
# 1. software version                                                *
# 2. proc_card.dat      : code generation info including model       *
# 3. param_card.dat     : model primary parameters in the LH format  *
# 4. run_card.dat       : running parameters (collider and cuts)     *
# 5. pythia_card.dat    : present only in the pythia event file      *
# 6. pgs_card.dat       : present only in the pgs event file         *
#                                                                    *
#                                                                    *
#*********************************************************************
-->
<MGVersion>
# MG/ME version    : 4.4.17
# madgraph version : 4.4.2
# template version : 2.4.8
# helas version    : 3.5
# model version    : usrmod_1.0.4
</MGVersion>
<MGProcCard>
#*********************************************************************
#                        MadGraph/MadEvent                           *
#                   http://madgraph.hep.uiuc.edu                     *
#                                                                    *
#                          proc_card.dat                             *
#                                                                    *
# This file is used to generate the code for a specific process.     *
# Some notation/conventions:                                         *
#                                                                    *
# 0. Do not modify the TAGS and their order.                         *
# 1. hash/pound is a comment.                                        *
# 2. The number after the @ is used as an identifier for the class   *
#    of processes. It can be any positive integer.                   *
# 3. The number of lines for the max couplings depends on how many   *
#    different classes of couplings are present in the model         *
#    In the SM these are just two: QED (which include EW) and QCD    *
# 4. Write "end_coup" after  the couplings list,                     *
#    to tell MG that the couplings input is over.                    *
# 5. Write "done" after the proc list to                             *
#    to tell MG that the proc input is over.                         *
# 6. Some model names available at present are:                      *
#    sm     =  Standard Model                                        *
#    smckm =  Standard Model with Cabibbo matrix                     *
#    mssm   =  Minimal Supersymmetric Standard Model                 *
#    2hdm   =  Generic Two Higgs Doublet model                       *
#    heft   =  Higgs EFT (+Standard Model)                           *
#    usrmod =  User Model                                            *
# 7. Don't leave spaces between the particles name in the            *
#    definition of the multiparticles.                               *
#*********************************************************************
#*********************************************************************
# Process(es) requested : mg2 input                                  *
#*********************************************************************
# Begin PROCESS # This is TAG. Do not modify this line
e- N+ > e- N+ x      # Radiative
QCD=0             # Max QCD couplings
QED=1             # Max QED couplings
QFD=0 
QND=1
QWD=9
QDS=2
end_coup           # End the couplings input
done               # this tells MG there are no more procs
# End PROCESS  # This is TAG. Do not modify this line
#*********************************************************************
# Model information                                                  *
#*********************************************************************
# Begin MODEL  # This is TAG. Do not modify this line
fixedAP2     
# End   MODEL  # This is TAG. Do not modify this line
#*********************************************************************
# Start multiparticle definitions                                    *
#*********************************************************************
# Begin MULTIPARTICLES # This is TAG. Do not modify this line
P uu~cc~dd~ss~gf+f-
J uu~cc~dd~ss~gf+f-
L+ e+mu+
L- e-mu-
vl vevm
vl~ ve~vm~
# End  MULTIPARTICLES # This is TAG. Do not modify this line
</MGProcCard>
<slha>
#*********************************************************************
#                        MadGraph/MadEvent                           *
#                   http://madgraph.hep.uiuc.edu                     *
#                                                                    *
#                         param_card.dat                             *
#                                                                    *
#   Les Houches friendly file for the SM parameters of MadGraph      *
#        Spectrum and decay widths produced by SMCalc                *
#                                                                    *
#  Please note the following IMPORTANT issues:                       *
#                                                                    *
# 0. REFRAIN from editing this file by hand! Some of the parame-     *
#    ters are not independent                                        *
#    (such as G_Fermi, alpha_em, sin(theta_W),MZ,MW) and serious     *
#    problems might be encountered (such as violation of unitarity   *
#    or gauge invariance).  Always use a calculator.                 *
#                                                                    *
# 1. alpha_S(MZ) has been used in the calculation of the parameters  *
#    but, for consistency, it will be reset by madgraph to the       *
#    value expected IF the pdfs for collisions with hadrons are      *
#    used. This value is KEPT by madgraph when no pdf are used       *
#    lpp(i)=0 .                                                      *
#                                                                    *
#  2. Values of the charm and bottom kinematic (pole) masses are     *
#     those used in the matrix elements and phase space UNLESS they  *
#     are set to ZERO from the start in the model (particles.dat)    *
#     This happens, for example,  when using 5-flavor QCD where      *
#     charm and bottom are treated as partons in the initial state   *
#     and a zero mass might be hardwired in the model definition.    *
#                                                                    *
##********************************************************************
Block MODSEL # Select Model
     0   1   #  0 1 = SM
Block SMINPUTS      # Standard Model inputs
     1         1.27900000E+02   # alpha_em(MZ)(-1) SM MSbar
     2         1.16600000E-05   # G_Fermi
     3         1.18000000E-01   # alpha_s(MZ) SM MSbar
     4         9.15445065E+01   # Z mass (as input parameter)
Block MGYUKAWA     # Yukawa masses m/v=y/sqrt(2)
#    PDG          YMASS
     5         4.20000000E+00   # mbottom for the Yukawa  y_b
     4         1.25000000E+00   # mcharm  for the Yukawa  y_c
     6         1.74300000E+02   # mtop    for the Yukawa  y_t
    15         1.77700000E+00   # mtau    for the Yukawa  y_ta
Block MGCKM     # CKM elements for MadGraph
     1   1     9.75000000E-01   # Vud for Cabibbo matrix
#===========================================================
# QUANTUM NUMBERS OF NEW STATE(S) (NON SM PDG CODE) IF ANY
# (see below for masses and decay tables)
# These blocks are automatically created by the MadGraph
# qnumbers.pl script from the particles.dat model file
#===========================================================
BLOCK QNUMBERS 611 # f-
         1  -3 # 3 times electric charge
         2  2 # number of spin states (2S+1)
         3  1 # colour rep (1: singlet, 3: triplet, 8: octet)
         4  1 # Particle/Antiparticle distinction (0=own anti)
BLOCK QNUMBERS 622 # x
         1  0 # 3 times electric charge
         2  3 # number of spin states (2S+1)
         3  1 # colour rep (1: singlet, 3: triplet, 8: octet)
         4  0 # Particle/Antiparticle distinction (0=own anti)
BLOCK QNUMBERS 623 # N-
         1  0 # 3 times electric charge
         2  2 # number of spin states (2S+1)
         3  1 # colour rep (1: singlet, 3: triplet, 8: octet)
         4  1 # Particle/Antiparticle distinction (0=own anti)
# END of QNUMBERS blocks
#===========================================================
Block MASS      #  Mass spectrum (kinematic masses)
#       PDG       Mass
         4     1.40000000E+00   # charm    pole mass
         5     4.20000000E+00   # bottom   pole mass
         6     1.74300000E+02   # top      pole mass
        11     0.51109989E-03   # electron mass
        13     0.10565837E+00   # muon     mass
        15     1.77700000E+00   # tau      mass
        23     9.15445065E+01   # Z        mass
        24     8.02673592E+01   # W        mass
        25     1.20000000E+02   # H        mass
       611 0.4 # FMASS
       622 1.2 # APMASS
       623     1.71300000e+02   # HPMASS (tungsten)
#            PDG       Width
DECAY       611     0.00000000e+00   # ELWIDTH
DECAY 622 0.0364396263 # APWIDTH
DECAY       623     0.00000000e+00   # HPWIDTH
DECAY         6     1.51013490E+00   # top width
DECAY        23     2.44639985E+00   # Z   width
DECAY        24     2.03535570E+00   # W   width
DECAY        25     6.79485838E-03   # H   width
#        BR           NDA        ID1       ID2
     7.00588389E-02    2           4        -4   # BR( H -> c  cbar  )
     7.61074375E-01    2           5        -5   # BR( H -> b  bbar  )
     0.00000000E+00    2           6        -6   # BR( H -> t  tbar  )
     3.65529942E-02    2          15       -15   # BR( H -> tau- tau+)
     5.84716539E-03    2          23        23   # BR( H -> Z   Z^(*))
     6.31545979E-02    2          24       -24   # BR( H -> W   W^(*))
     2.55499652E-02    2          21        21   # BR( H -> g   g    )
     1.20906932E-03    2          22        22   # BR( H -> A   A    )
BLOCK MGUSER
         1     1.00000000e-00   # epsilon ,mixing coefficient
         2     74.0000000e+00   # Znuc    ,nuclear charge
</slha>
<MGRunCard>
#*********************************************************************
#                       MadGraph/MadEvent                            *
#                  http://madgraph.hep.uiuc.edu                      *
#                                                                    *
#                        run_card.dat                                *
#                                                                    *
#  This file is used to set the parameters of the run.               *
#                                                                    *
#  Some notation/conventions:                                        *
#                                                                    *
#   Lines starting with a '# ' are info or comments                  *
#                                                                    *
#   mind the format:   value    = variable     ! comment             *
#*********************************************************************
#
#*******************                                                 
# Running parameters
#*******************                                                 
#                                                                    
#*********************************************************************
# Tag name for the run (one word)                                    *
#*********************************************************************
  'HPS'     = run_tag ! name of the run 
#*********************************************************************
# Run to generate the grid pack                                      *
#*********************************************************************
  .false.     = gridpack  !True = setting up the grid pack
#*********************************************************************
# Number of events and rnd seed                                      *
#*********************************************************************
   1000      = nevents ! Number of unweighted events requested 
188719 = iseed ! rnd seed (0=assigned automatically=default))
#*********************************************************************
# Collider type and energy                                           *
#*********************************************************************
        0     = lpp1  ! beam 1 type (0=NO PDF)
        0     = lpp2  ! beam 2 type (0=NO PDF)
4 = ebeam1  ! beam 1 energy in GeV
    171.3    = ebeam2  ! beam 2 energy in GeV
    0.000511  = mbeam1  ! beam 1 energy in GeV
    171.3    = mbeam2  ! beam 2 energy in GeV
#*********************************************************************
# Beam polarization from -100 (left-handed) to 100 (right-handed)    *
#*********************************************************************
        0     = polbeam1 ! beam polarization for beam 1
        0     = polbeam2 ! beam polarization for beam 2
#*********************************************************************
# PDF CHOICE: this automatically fixes also alpha_s and its evol.    *
#*********************************************************************
 'cteq6l1'    = pdlabel     ! PDF set                                     
#*********************************************************************
# Renormalization and factorization scales                           *
#*********************************************************************
 F        = fixed_ren_scale  ! if .true. use fixed ren scale
 F        = fixed_fac_scale  ! if .true. use fixed fac scale
 91.1880  = scale            ! fixed ren scale
 91.1880  = dsqrt_q2fact1    ! fixed fact scale for pdf1
 91.1880  = dsqrt_q2fact2    ! fixed fact scale for pdf2
 1        = scalefact        ! scale factor for event-by-event scales
 F        = fixed_couplings  ! if .false. calc. coupl. for every event
#*********************************************************************
# Matching - Warning! ickkw > 0 is still beta
#*********************************************************************
 0        = ickkw            ! 0 no matching, 1 MLM, 2 CKKW matching
#*********************************************************************
#                                                                    
#**********************************
32.9311829414 = bwcutoff*Gamma)
#**********************************
32.9311829414 = bwcutoff
#*******************                                                 
# Fixed-Target Cuts
#*******************                                                 
#
 0.0 = ef        ! minimum E for all f's
 100.0 = efmax     ! maximum E for all f's
 0.0 = thetafmin ! min angle for both f's
 100.0 = thetafmax ! max angle for both f's
 0.0 = thetaxfmin ! min angle (x direction) for both f's
 100.0 = thetaxfmax ! max angle (x direction) for both f's 
 0.0 = thetayfmin ! min angle (y direction) for both f's
 100.0 = thetayfmax ! max angle (y direction) for both f's 
 0.0 = xthetaxfmin ! min angle (x direction) for >=1 f's
 100.0 = xthetaxfmax ! max angle (x direction) for >=1 f's 
 0.0 = xthetayfmin ! min angle (y direction) for >=1 f's
 100.0 = xthetayfmax ! max angle (y direction) for >=1 f's 
 0.0 = mmff      ! min invariant mass of f+f- lepton pair
 100.0 = mmffmax  ! max invariant mass of f+f- lepton pair
 0.0 = xef       ! min. energy for at least one f
 0.0 = xthetaf   ! minimum angle for at least one f
 0.0 = eftot     ! minimum energy for the two f's
 0d0 = efrat     ! min. ratio Emin/Emax for the two f's
 0.0  = el     !!! 0.2 = el  !!! was 0.05 with normal cuts! minimum E for the charged leptons 
 0.0  = drll  !!! was 0.1  ! min distance between leptons 
 0.0  = mmll    ! min invariant mass of l+l- (same flavour) lepton pair
#
#*******************                                                 
# Standard Cuts
#*******************                                                 
#                                                                    
#*********************************************************************
# Minimum and maximum pt's                                           *
#*********************************************************************
  0  = ptj       ! minimum pt for the jets 
  0  = ptb       ! minimum pt for the b 
  0  = pta       ! minimum pt for the photons 
  0  = ptl       ! minimum pt for the charged leptons 
  0  = misset    ! minimum missing Et (sum of neutrino's momenta)
  0  = ptheavy   ! minimum pt for one heavy final state
 1.0 = ptonium   ! minimum pt for the quarkonium states
 1d5 = ptjmax    ! maximum pt for the jets
 1d5 = ptbmax    ! maximum pt for the b
 1d5 = ptamax    ! maximum pt for the photons
 1d9 = ptlmax    ! maximum pt for the charged leptons
 1d9 = missetmax ! maximum missing Et (sum of neutrino's momenta)
#*********************************************************************
# Minimum and maximum E's (in the lab frame)                         *
#*********************************************************************
  0  = ej     ! minimum E for the jets 
  0  = eb     ! minimum E for the b 
  0  = ea     ! minimum E for the photons 
 1d5  = ejmax ! maximum E for the jets
 1d5  = ebmax ! maximum E for the b
 1d5  = eamax ! maximum E for the photons
 1.2  = elmax ! maximum E for the charged leptons
#*********************************************************************
# Maximum and minimum rapidity                                       *
#*********************************************************************
 1d5  = etaj    ! max rap for the jets 
 1d5  = etab    ! max rap for the b 
 1d5  = etaa    ! max rap for the photons 
 1d5  = etal     !!! 1(2) wth cuts ! max rap for the charged leptons 
 1d5  = etafl     !!! 0(1) wth cuts ! max rap for the charged leptons 
 0.0  = etaonium ! max rap for the quarkonium states
 0d0  = etajmin ! min rap for the jets
 0d0  = etabmin ! min rap for the b
 0d0  = etaamin ! min rap for the photons
 0d0  = etalmin ! main rap for the charged lepton
#*********************************************************************
# Minimum and maximum DeltaR distance                                *
#*********************************************************************
 0   = drjj    ! min distance between jets 
 0   = drbb    ! min distance between b's 
 0   = draa    ! min distance between gammas 
 0   = drbj    ! min distance between b and jet 
 0   = draj    ! min distance between gamma and jet 
 0   = drjl    ! min distance between jet and lepton 
 0   = drab    ! min distance between gamma and b 
 0   = drbl    ! min distance between b and lepton 
 0   = dral    ! min distance between gamma and lepton 
 1d2 = drjjmax ! max distance between jets
 1d2 = drbbmax ! max distance between b's
 1d9 = drllmax ! max distance between leptons
 1d2 = draamax ! max distance between gammas
 1d2 = drbjmax ! max distance between b and jet
 1d2 = drajmax ! max distance between gamma and jet
 1d2 = drjlmax ! max distance between jet and lepton
 1d2 = drabmax ! max distance between gamma and b
 1d2 = drblmax ! max distance between b and lepton
 1d2 = dralmax ! maxdistance between gamma and lepton
#*********************************************************************
# Minimum and maximum invariant mass for pairs                       *
#*********************************************************************
 0   = mmjj    ! min invariant mass of a jet pair 
 0   = mmbb    ! min invariant mass of a b pair 
 0   = mmaa    ! min invariant mass of gamma gamma pair
 1d5 = mmjjmax ! max invariant mass of a jet pair
 1d5 = mmbbmax ! max invariant mass of a b pair
 1d5 = mmaamax ! max invariant mass of gamma gamma pair
 1d5 = mmllmax ! max invariant mass of l+l- (same flavour) lepton pair
#*********************************************************************
# Minimum and maximum invariant mass for all letpons                 *
#*********************************************************************
 0   = mmnl    ! min invariant mass for all letpons (l+- and vl) 
 1d9 = mmnlmax ! max invariant mass for all letpons (l+- and vl) 
#*********************************************************************
# Inclusive cuts                                                     *
#*********************************************************************
 0  = xptj ! minimum pt for at least one jet  
 0  = xptb ! minimum pt for at least one b 
 0  = xpta ! minimum pt for at least one photon 
 0  = xptl ! minimum pt for at least one charged lepton 
#*********************************************************************
# Control the pt's of the jets sorted by pt                          *
#*********************************************************************
 0   = ptj1min ! minimum pt for the leading jet in pt
 0   = ptj2min ! minimum pt for the second jet in pt
 0   = ptj3min ! minimum pt for the third jet in pt
 0   = ptj4min ! minimum pt for the fourth jet in pt
 1d5 = ptj1max ! maximum pt for the leading jet in pt 
 1d5 = ptj2max ! maximum pt for the second jet in pt
 1d5 = ptj3max ! maximum pt for the third jet in pt
 1d5 = ptj4max ! maximum pt for the fourth jet in pt
 0   = cutuse  ! reject event if fails any (0) / all (1) jet pt cuts
#*********************************************************************
# Control the Ht(k)=Sum of k leading jets                            *
#*********************************************************************
 0   = htjmin ! minimum jet HT=Sum(jet pt)
 1d5 = htjmax ! maximum jet HT=Sum(jet pt)
 0   = ht2min ! minimum Ht for the two leading jets
 0   = ht3min ! minimum Ht for the three leading jets
 0   = ht4min ! minimum Ht for the four leading jets
 1d5 = ht2max ! maximum Ht for the two leading jets
 1d5 = ht3max ! maximum Ht for the three leading jets
 1d5 = ht4max ! maximum Ht for the four leading jets
#*********************************************************************
# WBF cuts                                                           *
#*********************************************************************
 0   = xetamin ! minimum rapidity for two jets in the WBF case  
 0   = deltaeta ! minimum rapidity for two jets in the WBF case 
#*********************************************************************
# maximal pdg code for quark to be considered as a jet               *
# otherwise b cuts are applied                                       *
#*********************************************************************
 4 = maxjetflavor
#*********************************************************************
# Jet measure cuts                                                   *
#*********************************************************************
 0   = xqcut   ! minimum kt jet measure between partons
#*********************************************************************
</MGRunCard>
<MGGenerationInfo>
#  Number of Events        :        1000
#  Integrated weight (pb)  :  .51369E+04
#  Truncated wgt (pb)      :  .63156E+00
#  Unit wgt                :  .51369E+01
</MGGenerationInfo>
</header>
<init>
       11     -623  0.40000000000E+01  0.17130000000E+03 0 0     0     0 3  1
  0.51369636720E+04  0.43752542307E+02  0.51369000000E+01   0
</init>
<event>
 5   0  0.5136900E+01  0.9118800E+02  0.7818608E-02  0.1180000E+00
       11   -1    0    0    0    0  0.00000000000E+00  0.00000000000E+00  0.39999999673E+01  0.40000000000E+01  0.51109989000E-03 0.  1.
     -623   -1    0    0    0    0  0.00000000000E+00  0.00000000000E+00  0.12525980253E-10  0.17130000000E+03  0.17130000000E+03 0.  1.
       11    1    1    2    0    0  0.19318904246E+00  0.19797378411E+00  0.22271925169E+00  0.35513342790E+00  0.51109989000E-03 0.  1.
     -623    1    1    2    0    0 -0.39622010603E+00  0.61011639676E+00  0.44030008829E+00  0.17130211060E+03  0.17130000000E+03 0.  1.
      622    1    1    2    0    0  0.20303106356E+00 -0.80809018087E+00  0.33369806274E+01  0.36427559705E+01  0.12000000000E+01 0.  0.
</event>
<event>
 5   0  0.5136900E+01  0.9118800E+02  0.7818608E-02  0.1180000E+00
       11   -1    0    0    0    0  0.00000000000E+00  0.00000000000E+00  0.39999999673E+01  0.40000000000E+01  0.51109989000E-03 0.  1.
     -623   -1    0    0    0    0  0.00000000000E+00  0.00000000000E+00  0.12525980253E-10  0.17130000000E+03  0.17130000000E+03 0. -1.
       11    1    1    2    0    0  0.23673846704E+00  0.17904531008E+00  0.23091796779E+00  0.37606607652E+00  0.51109989000E-03 0.  1.
     -623    1    1    2    0    0 -0.12131723956E+00 -0.14266908689E+00  0.35222885931E+00  0.17130046450E+03  0.17130000000E+03 0. -1.
      622    1    1    2    0    0 -0.11542122748E+00 -0.36376223186E-01  0.34168531403E+01  0.36234694247E+01  0.12000000000E+01 0.  1.
</event>
<event>
 5   0  0.5136900E+01  0.9118800E+02  0.7818608E-02  0.1180000E+00
       11   -1    0    0    0    0  0.00000000000E+00  0.00000000000E+00  0.39999999673E+01  0.40000000000E+01  0.51109989000E-03 0. -1.
     -623   -1    0    0    0    0  0.00000000000E+00  0.00000000000E+00  0.12525980253E-10  0.17130000000E+03  0.17130000000E+03 0. -1.
       11    1    1    2    0    0  0.10523640622E+00 -0.18713000638E+00 -0.73791237569E-01  0.22701926889E+00  0.51109989000E-03 0. -1.
     -623    1    1    2    0    0 -0.58557778915E-01  0.15798585075E+00  0.49800202801E+00  0.17130080675E+03  0.17130000000E+03 0. -1.
      622    1    1    2    0    0 -0.46678627303E-01  0.29144155626E-01  0.35757891769E+01  0.37721739771E+01  0.12000000000E+01 0. -1.
</event>
<event>
 5   0  0.5136900E+01  0.9118800E+02  0.7818608E-02  0.1180000E+00
       11   -1    0    0    0    0  0.00000000000E+00  0.00000000000E+00  0.39999999673E+01  0.40000000000E+01  0.51109989000E-03 0.  1.
     -623   -1    0    0    0    0  0.00000000000E+00  0.00000000000E+00  0.12525980253E-10  0.17130000000E+03  0.17130000000E+03 0. -1.
       11    1    1    2    0    0 -0.13419415605E+00  0.98400882240E-03  0.73475547364E+00  0.74691024029E+00  0.51109989000E-03 0.  1.
     -623    1    1    2    0    0  0.13289278187E+00  0.44510862279E-01  0.24216081822E+00  0.17130022850E+03  0.17130000000E+03 0. -1.
      622    1    1    2    0    0  0.13013741803E-02 -0.45494871102E-01  0.30230836755E+01  0.32528612614E+01  0.12000000000E+01 0.  1.
</event>
<event>
 5   0  0.5136900E+01  0.9118800E+02  0.7818608E-02  0.1180000E+00
       11   -1    0    0    0    0  0.00000000000E+00  0.00000000000E+00  0.39999999673E+01  0.40000000000E+01  0.51109989000E-03 0.  1.
     -623   -1    0    0    0    0  0.00000000000E+00  0.00000000000E+00  0.12525980253E-10  0.17130000000E+03  0.17130000000E+03 0. -1.
       11    1    1    2    0    0 -0.86889376029E-02  0.36439937461E-01  0.86251070905E-02  0.38445030522E-01  0.51109989000E-03 0.  1.
     -623    1    1    2    0    0 -0.10935644453E+00 -0.14717691671E+00  0.21966078480E+00  0.17130023897E+03  0.17130000000E+03 0. -1.
      622    1    1    2    0    0  0.11804538214E+00  0.11073697925E+00  0.37717140755E+01  0.39613160008E+01  0.12000000000E+01 0.  1.
</event>
<event>
 5   0  0.5136900E+01  0.9118800E+02  0.7818608E-02  0.1180000E+00
       11   -1    0    0    0    0  0.00000000000E+00  0.00000000000E+00  0.39999999673E+01  0.40000000000E+01  0.51109989000E-03 0. -1.
     -623   -1    0    0    0    0  0.00000000000E+00  0.00000000000E+00  0.12525980253E-10  0.17130000000E+03  0.17130000000E+03 0.  1.
       11    1    1    2    0    0  0.10029257915E+00 -0.34022275538E+00 -0.77098624216E-02  0.35478138044E+00  0.51109989000E-03 0. -1.
     -623    1    1    2    0    0 -0.13412351351E+00 -0.10489599513E+00  0.59594042158E+00  0.17130112124E+03  0.17130000000E+03 0.  1.
      622    1    1    2    0    0  0.33830934359E-01  0.44511875051E+00  0.34117694082E+01  0.36440973819E+01  0.12000000000E+01 0.  1.
</event>
<event>
 5   0  0.5136900E+01  0.9118800E+02  0.7818608E-02  0.1180000E+00
       11   -1    0    0    0    0  0.00000000000E+00  0.00000000000E+00  0.39999999673E+01  0.40000000000E+01  0.51109989000E-03 0.  1.
     -623   -1    0    0    0    0  0.00000000000E+00  0.00000000000E+00  0.12525980253E-10  0.17130000000E+03  0.17130000000E+03 0. -1.
       11    1    1    2    0    0 -0.11251919304E+00  0.69240216408E-01 -0.39663299334E-01  0.13794279578E+00  0.51109989000E-03 0.  1.
     -623    1    1    2    0    0 -0.95380445577E-01 -0.76515806858E-01  0.37514408217E+00  0.17130045442E+03  0.17130000000E+03 0. -1.
      622    1    1    2    0    0  0.20789963862E+00  0.72755904505E-02  0.36645191845E+01  0.38616027822E+01  0.12000000000E+01 0.  1.
</event>
<event>
 5   0  0.5136900E+01  0.9118800E+02  0.7818608E-02  0.1180000E+00
       11   -1    0    0    0    0  0.00000000000E+00  0.00000000000E+00  0.39999999673E+01  0.40000000000E+01  0.51109989000E-03 0. -1.
     -623   -1    0    0    0    0  0.00000000000E+00  0.00000000000E+00  0.12525980253E-10  0.17130000000E+03  0.17130000000E+03 0. -1.
       11    1    1    2    0    0  0.70884664356E-01  0.79609467327E-01  0.28520704711E+00  0.30447598242E+00  0.51109989000E-03 0. -1.
     -623    1    1    2    0    0 -0.13853611520E+00 -0.11781564536E+00  0.22064099837E+00  0.17130023863E+03  0.17130000000E+03 0. -1.
      622    1    1    2    0    0  0.67651450846E-01  0.38206178031E-01  0.34941519219E+01  0.36952853860E+01  0.12000000000E+01 0. -1.
</event>
<event>
 5   0  0.5136900E+01  0.9118800E+02  0.7818608E-02  0.1180000E+00
       11   -1    0    0    0    0  0.00000000000E+00  0.00000000000E+00  0.39999999673E+01  0.40000000000E+01  0.51109989000E-03 0. -1.
     -623   -1    0    0    0    0  0.00000000000E+00  0.00000000000E+00  0.12525980253E-10  0.17130000000E+03  0.17130000000E+03 0.  1.
       11    1    1    2    0    0  0.17821679607E+00 -0.33362589431E+00  0.53393763564E+00  0.65433716365E+00  0.51109989000E-03 0. -1.
     -623    1    1    2    0    0 -0.13265528169E+00 -0.19817253247E+00  0.38961971513E+00  0.17130060909E+03  0.17130000000E+03 0.  1.
      622    1    1    2    0    0 -0.45561514389E-01  0.53179842678E+00  0.30764426166E+01  0.33450537502E+01  0.12000000000E+01 0. -1.
</event>
<event>
 5   0  0.5136900E+01  0.9118800E+02  0.7818608E-02  0.1180000E+00
       11   -1    0    0    0    0  0.00000000000E+00  0.00000000000E+00  0.39999999673E+01  0.40000000000E+01  0.51109989000E-03 0.  1.
     -623   -1    0    0    0    0  0.00000000000E+00  0.00000000000E+00  0.12525980253E-10  0.17130000000E+03  0.17130000000E+03 0.  1.
       11    1    1    2    0    0 -0.89957676993E-01  0.16335515091E+00  0.23980933015E+00  0.30378621599E+00  0.51109989000E-03 0.  1.
     -623    1    1    2    0    0  0.62541787356E-01 -0.93732767458E-01  0.26525067041E+00  0.17130024243E+03  0.17130000000E+03 0.  1.
      622    1    1    2    0    0  0.27415889637E-01 -0.69622383451E-01  0.34949399668E+01  0.36959713580E+01  0.12000000000E+01 0.  1.
</event>
<event>
 5   0  0.5136900E+01  0.9118800E+02  0.7818608E-02  0.1180000E+00
       11   -1    0    0    0    0  0.00000000000E+00  0.00000000000E+00  0.39999999673E+01  0.40000000000E+01  0.51109989000E-03 0. -1.
     -623   -1    0    0    0    0  0.00000000000E+00  0.00000000000E+00  0.12525980253E-10  0.17130000000E+03  0.17130000000E+03 0. -1.
       11    1    1    2    0    0  0.13563680537E+00 -0.28191288841E+00  0.22860074148E+00  0.38746713389E+00  0.51109989000E-03 0. -1.
     -623    1    1    2    0    0 -0.28101731661E-02  0.35824794241E+00  0.36825984786E+00  0.17130077047E+03  0.17130000000E+03 0. -1.
      622    1    1    2    0    0 -0.13282663220E+00 -0.76335053998E-01  0.34031393780E+01  0.36117623926E+01  0.12000000000E+01 0. -1.
</event>
<event>
 5   0  0.5136900E+01  0.9118800E+02  0.7818608E-02  0.1180000E+00
       11   -1    0    0    0    0  0.00000000000E+00  0.00000000000E+00  0.39999999673E+01  0.40000000000E+01  0.51109989000E-03 0. -1.
     -623   -1    0    0    0    0  0.00000000000E+00  0.00000000000E+00  0.12525980253E-10  0.17130000000E+03  0.17130000000E+03 0.  1.
       11    1    1    2    0    0 -0.53100115632E-01 -0.93747725317E-01  0.13410327840E+00  0.17202386109E+00  0.51109989000E-03 0. -1.
     -623    1    1    2    0    0  0.88047361024E-01  0.30207050302E+00  0.23749357900E+00  0.17130045360E+03  0.17130000000E+03 0.  1.
      622    1    1    2    0    0 -0.34947245392E-01 -0.20832277770E+00  0.36284031100E+01  0.38275225431E+01  0.12000000000E+01 0. -1.
</event>
<event>
 5   0  0.5136900E+01  0.9118800E+02  0.7818608E-02  0.1180000E+00
       11   -1    0    0    0    0  0.00000000000E+00  0.00000000000E+00  0.39999999673E+01  0.40000000000E+01  0.51109989000E-03 0. -1.
     -623   -1    0    0    0    0  0.00000000000E+00  0.00000000000E+00  0.12525980253E-10  0.17130000000E+03  0.17130000000E+03 0. -1.
       11    1    1    2    0    0  0.22385468231E-01 -0.51948119359E-01  0.13364738661E+00  0.14512615705E+00  0.51109989000E-03 0. -1.
     -623    1    1    2    0    0 -0.76960513368E-01  0.89419155825E-01  0.20378215500E+00  0.17130016184E+03  0.17130000000E+03 0. -1.
      622    1    1    2    0    0  0.54575045137E-01 -0.37471036466E-01  0.36625704258E+01  0.38547120045E+01  0.12000000000E+01 0. -1.
</event>
<event>
 5   0  0.5136900E+01  0.9118800E+02  0.7818608E-02  0.1180000E+00
       11   -1    0    0    0    0  0.00000000000E+00  0.00000000000E+00  0.39999999673E+01  0.40000000000E+01  0.51109989000E-03 0.  1.
     -623   -1    0    0    0    0  0.00000000000E+00  0.00000000000E+00  0.12525980253E-10  0.17130000000E+03  0.17130000000E+03 0.  1.
       11    1    1    2    0    0 -0.15592157033E+00  0.94080346841E-01  0.12279553084E+00  0.21963982192E+00  0.51109989000E-03 0.  1.
     -623    1    1    2    0    0  0.32027286552E+00 -0.38325532110E-01  0.29715434302E+00  0.17130056142E+03  0.17130000000E+03 0.  1.
      622    1    1    2    0    0 -0.16435129518E+00 -0.55754814732E-01  0.35800500935E+01  0.37797987538E+01  0.12000000000E+01 0.  1.
</event>
<event>
 5   0  0.5136900E+01  0.9118800E+02  0.7818608E-02  0.1180000E+00
       11   -1    0    0    0    0  0.00000000000E+00  0.00000000000E+00  0.39999999673E+01  0.40000000000E+01  0.51109989000E-03 0.  1.
     -623   -1    0    0    0    0  0.00000000000E+00  0.00000000000E+00  0.12525980253E-10  0.17130000000E+03  0.17130000000E+03 0.  1.
       11    1    1    2    0    0  0.29341661257E+00  0.80366353188E-01  0.47778064703E+00  0.56641563110E+00  0.51109989000E-03 0.  1.
     -623    1    1    2    0    0 -0.99973388400E-01 -0.34159260445E+00  0.32234107940E+00  0.17130067304E+03  0.17130000000E+03 0.  1.
      622    1    1    2    0    0 -0.19344322417E+00  0.26122625126E+00  0.31998782409E+01  0.34329113289E+01  0.12000000000E+01 0.  1.
</event>
<event>
 5   0  0.5136900E+01  0.9118800E+02  0.7818608E-02  0.1180000E+00
       11   -1    0    0    0    0  0.00000000000E+00  0.00000000000E+00  0.39999999673E+01  0.40000000000E+01  0.51109989000E-03 0. -1.
     -623   -1    0    0    0    0  0.00000000000E+00  0.00000000000E+00  0.12525980253E-10  0.17130000000E+03  0.17130000000E+03 0.  1.
       11    1    1    2    0    0 -0.31694560168E+00 -0.53523180449E-01  0.31080432558E+00  0.44712284139E+00  0.51109989000E-03 0. -1.
     -623    1    1    2    0    0 -0.10616599522E-01  0.30731884316E+00  0.37160584574E+00  0.17130067907E+03  0.17130000000E+03 0.  1.
      622    1    1    2    0    0  0.32756220120E+00 -0.25379566271E+00  0.33175897960E+01  0.35521980926E+01  0.12000000000E+01 0. -1.
</event>
<event>
 5   0  0.5136900E+01  0.9118800E+02  0.7818608E-02  0.1180000E+00
       11   -1    0    0    0    0  0.00000000000E+00  0.00000000000E+00  0.39999999673E+01  0.40000000000E+01  0.51109989000E-03 0. -1.
     -623   -1    0    0    0    0  0.00000000000E+00  0.00000000000E+00  0.12525980253E-10  0.17130000000E+03  0.17130000000E+03 0.  1.
       11    1    1    2    0    0  0.13553869296E+00 -0.28141669967E-01  0.29116958007E-01  0.14145935580E+00  0.51109989000E-03 0. -1.
     -623    1    1    2    0    0 -0.21099020471E+00 -0.18628662780E+00  0.31127964860E+00  0.17130051405E+03  0.17130000000E+03 0.  1.
      622    1    1    2    0    0  0.75451511753E-01  0.21442829777E+00  0.36596033608E+01  0.38580265919E+01  0.12000000000E+01 0. -1.
</event>
<event>
 5   0  0.5136900E+01  0.9118800E+02  0.7818608E-02  0.1180000E+00
       11   -1    0    0    0    0  0.00000000000E+00  0.00000000000E+00  0.39999999673E+01  0.40000000000E+01  0.51109989000E-03 0. -1.
     -623   -1    0    0    0    0  0.00000000000E+00  0.00000000000E+00  0.12525980253E-10  0.17130000000E+03  0.17130000000E+03 0. -1.
       11    1    1    2    0    0 -0.10676708966E+00  0.55107047891E-01 -0.53991694994E-01  0.13172457064E+00  0.51109989000E-03 0. -1.
     -623    1    1    2    0    0  0.26212349297E-01 -0.11441461110E+00  0.37839591758E+00  0.17130045815E+03  0.17130000000E+03 0. -1.
      622    1    1    2    0    0  0.80554740358E-01  0.59307563209E-01  0.36755957448E+01  0.38678172827E+01  0.12000000000E+01 0. -1.
</event>
<event>
 5   0  0.5136900E+01  0.9118800E+02  0.7818608E-02  0.1180000E+00
       11   -1    0    0    0    0  0.00000000000E+00  0.00000000000E+00  0.39999999673E+01  0.40000000000E+01  0.51109989000E-03 0. -1.
     -623   -1    0    0    0    0  0.00000000000E+00  0.00000000000E+00  0.12525980253E-10  0.17130000000E+03  0.17130000000E+03 0.  1.
       11    1    1    2    0    0  0.26016484934E-01  0.40925404300E-01  0.27566071591E-02  0.48575779063E-01  0.51109989000E-03 0. -1.
     -623    1    1    2    0    0 -0.67512294914E-01 -0.19555926051E+00  0.23614694276E+00  0.17130028770E+03  0.17130000000E+03 0.  1.
      622    1    1    2    0    0  0.41495809980E-01  0.15463385621E+00  0.37610964174E+01  0.39511365192E+01  0.12000000000E+01 0. -1.
</event>
<event>
 5   0  0.5136900E+01  0.9118800E+02  0.7818608E-02  0.1180000E+00
       11   -1    0    0    0    0  0.00000000000E+00  0.00000000000E+00  0.39999999673E+01  0.40000000000E+01  0.51109989000E-03 0.  1.
     -623   -1    0    0    0    0  0.00000000000E+00  0.00000000000E+00  0.12525980253E-10  0.17130000000E+03  0.17130000000E+03 0. -1.
       11    1    1    2    0    0  0.23081561534E+00  0.29012094051E+00  0.58873322861E+00  0.69573923570E+00  0.51109989000E-03 0.  1.
     -623    1    1    2    0    0 -0.49848826708E+00  0.10295896778E+00  0.37081775607E+00  0.17130115761E+03  0.17130000000E+03 0. -1.
      622    1    1    2    0    0  0.26767265174E+00 -0.39307990829E+00  0.30404489827E+01  0.33031031590E+01  0.12000000000E+01 0.  1.
</event>
<event>
 5   0  0.5136900E+01  0.9118800E+02  0.7818608E-02  0.1180000E+00
       11   -1    0    0    0    0  0.00000000000E+00  0.00000000000E+00  0.39999999673E+01  0.40000000000E+01  0.51109989000E-03 0. -1.
     -623   -1    0    0    0    0  0.00000000000E+00  0.00000000000E+00  0.12525980253E-10  0.17130000000E+03  0.17130000000E+03 0. -1.
       11    1    1    2    0    0  0.12093641758E+00 -0.22546572323E-01  0.44262085640E+00  0.45939900823E+00  0.51109989000E-03 0. -1.
     -623    1    1    2    0    0 -0.93662508985E-01 -0.75649667997E-01  0.22810080518E+00  0.17130019418E+03  0.17130000000E+03 0. -1.
      622    1    1    2    0    0 -0.27273908598E-01  0.98196240320E-01  0.33292783058E+01  0.35404068135E+01  0.12000000000E+01 0. -1.
</event>
<event>
 5   0  0.5136900E+01  0.9118800E+02  0.7818608E-02  0.1180000E+00
       11   -1    0    0    0    0  0.00000000000E+00  0.00000000000E+00  0.39999999673E+01  0.40000000000E+01  0.51109989000E-03 0. -1.
     -623   -1    0    0    0    0  0.00000000000E+00  0.00000000000E+00  0.12525980253E-10  0.17130000000E+03  0.17130000000E+03 0.  1.
       11    1    1    2    0    0 -0.21513931450E+00 -0.59204020721E-01  0.14562610115E+00  0.26645311646E+00  0.51109989000E-03 0. -1.
     -623    1    1    2    0    0  0.68392790228E-01 -0.30878185601E-01  0.32346464554E+00  0.17130032183E+03  0.17130000000E+03 0.  1.
      622    1    1    2    0    0  0.14674652427E+00  0.90082206322E-01  0.35309092207E+01  0.37332250496E+01  0.12000000000E+01 0. -1.
</event>
<event>
 5   0  0.5136900E+01  0.9118800E+02  0.7818608E-02  0.1180000E+00
       11   -1    0    0    0    0  0.00000000000E+00  0.00000000000E+00  0.39999999673E+01  0.40000000000E+01  0.51109989000E-03 0. -1.
     -623   -1    0    0    0    0  0.00000000000E+00  0.00000000000E+00  0.12525980253E-10  0.17130000000E+03  0.17130000000E+03 0. -1.
       11    1    1    2    0    0  0.20268429602E+00 -0.17105331565E+00  0.36627629165E+00  0.45221537314E+00  0.51109989000E-03 0. -1.
     -623    1    1    2    0    0 -0.16303217947E-01  0.19784764882E+00  0.30076247233E+00  0.17130037906E+03  0.17130000000E+03 0. -1.
      622    1    1    2    0    0 -0.18638107807E+00 -0.26794333167E-01  0.33329612034E+01  0.35474055626E+01  0.12000000000E+01 0. -1.
</event>
<event>
 5   0  0.5136900E+01  0.9118800E+02  0.7818608E-02  0.1180000E+00
       11   -1    0    0    0    0  0.00000000000E+00  0.00000000000E+00  0.39999999673E+01  0.40000000000E+01  0.51109989000E-03 0.  1.
     -623   -1    0    0    0    0  0.00000000000E+00  0.00000000000E+00  0.12525980253E-10  0.17130000000E+03  0.17130000000E+03 0. -1.
       11    1    1    2    0    0 -0.30929577831E-01 -0.28831121552E-01  0.58571302717E-02  0.42690040402E-01  0.51109989000E-03 0.  1.
     -623    1    1    2    0    0 -0.10157554617E-01  0.65307349745E-01  0.22372824124E+00  0.17130015885E+03  0.17130000000E+03 0. -1.
      622    1    1    2    0    0  0.41087132449E-01 -0.36476228193E-01  0.37704145958E+01  0.39571511081E+01  0.12000000000E+01 0.  1.
</event>
<event>
 5   0  0.5136900E+01  0.9118800E+02  0.7818608E-02  0.1180000E+00
       11   -1    0    0    0    0  0.00000000000E+00  0.00000000000E+00  0.39999999673E+01  0.40000000000E+01  0.51109989000E-03 0.  1.
     -623   -1    0    0    0    0  0.00000000000E+00  0.00000000000E+00  0.12525980253E-10  0.17130000000E+03  0.17130000000E+03 0. -1.
       11    1    1    2    0    0  0.92469901591E-02  0.12233181841E-01  0.52771473561E-04  0.15343453696E-01  0.51109989000E-03 0.  1.
     -623    1    1    2    0    0 -0.18866096905E-02  0.22212671268E-01  0.20056568931E+00  0.17130011887E+03  0.17130000000E+03 0. -1.
      622    1    1    2    0    0 -0.73603804687E-02 -0.34445853109E-01  0.37993815066E+01  0.39845376802E+01  0.12000000000E+01 0.  1.
</event>
<event>
 5   0  0.5136900E+01  0.9118800E+02  0.7818608E-02  0.1180000E+00
       11   -1    0    0    0    0  0.00000000000E+00  0.00000000000E+00  0.39999999673E+01  0.40000000000E+01  0.51109989000E-03 0. -1.
     -623   -1    0    0    0    0  0.00000000000E+00  0.00000000000E+00  0.12525980253E-10  0.17130000000E+03  0.17130000000E+03 0.  1.
       11    1    1    2    0    0  0.97717800675E-01  0.79055972925E-01  0.30687186263E-01  0.12938539349E+00  0.51109989000E-03 0. -1.
     -623    1    1    2    0    0 -0.29336246824E-01  0.42963691684E-01  0.29234386852E+00  0.17130025736E+03  0.17130000000E+03 0.  1.
      622    1    1    2    0    0 -0.68381553851E-01 -0.12201966461E+00  0.36769689126E+01  0.38703572470E+01  0.12000000000E+01 0. -1.
</event>
<event>
 5   0  0.5136900E+01  0.9118800E+02  0.7818608E-02  0.1180000E+00
       11   -1    0    0    0    0  0.00000000000E+00  0.00000000000E+00  0.39999999673E+01  0.40000000000E+01  0.51109989000E-03 0. -1.
     -623   -1    0    0    0    0  0.00000000000E+00  0.00000000000E+00  0.12525980253E-10  0.17130000000E+03  0.17130000000E+03 0. -1.
       11    1    1    2    0    0 -0.11453830670E+00  0.43767049762E-01  0.82268779288E-01  0.14765836114E+00  0.51109989000E-03 0. -1.
     -623    1    1    2    0    0  0.16039663059E+00  0.10771529837E+00  0.26080390585E+00  0.17130030750E+03  0.17130000000E+03 0. -1.
      622    1    1    2    0    0 -0.45858323898E-01 -0.15148234814E+00  0.36569272822E+01  0.38520341425E+01  0.12000000000E+01 0. -1.
</event>
<event>
 5   0  0.5136900E+01  0.9118800E+02  0.7818608E-02  0.1180000E+00
       11   -1    0    0    0    0  0.00000000000E+00  0.00000000000E+00  0.39999999673E+01  0.40000000000E+01  0.51109989000E-03 0.  1.
     -623   -1    0    0    0    0  0.00000000000E+00  0.00000000000E+00  0.12525980253E-10  0.17130000000E+03  0.17130000000E+03 0.  1.
       11    1    1    2    0    0 -0.58194991428E-01  0.66448197988E-01 -0.50771266794E-01  0.10188229875E+00  0.51109989000E-03 0.  1.
     -623    1    1    2    0    0  0.46665664659E-02  0.59048838288E-01  0.34484070841E+00  0.17130035734E+03  0.17130000000E+03 0.  1.
      622    1    1    2    0    0  0.53528424962E-01 -0.12549703628E+00  0.37059305257E+01  0.38977603646E+01  0.12000000000E+01 0.  1.
</event>
<event>
 5   0  0.5136900E+01  0.9118800E+02  0.7818608E-02  0.1180000E+00
       11   -1    0    0    0    0  0.00000000000E+00  0.00000000000E+00  0.39999999673E+01  0.40000000000E+01  0.51109989000E-03 0.  1.
     -623   -1    0    0    0    0  0.00000000000E+00  0.00000000000E+00  0.12525980253E-10  0.17130000000E+03  0.17130000000E+03 0.  1.
       11    1    1    2    0    0 -0.86548079457E-01 -0.20360727286E+00  0.15602877626E+00  0.27072445745E+00  0.51109989000E-03 0.  1.
     -623    1    1    2    0    0  0.21415375652E+00 -0.43087741121E-01  0.32445076203E+00  0.17130044655E+03  0.17130000000E+03 0.  1.
      622    1    1    2    0    0 -0.12760567707E+00  0.24669501398E+00  0.35195204291E+01  0.37288289971E+01  0.12000000000E+01 0.  1.
</event>
<event>
 5   0  0.5136900E+01  0.9118800E+02  0.7818608E-02  0.1180000E+00
       11   -1    0    0    0    0  0.00000000000E+00  0.00000000000E+00  0.39999999673E+01  0.40000000000E+01  0.51109989000E-03 0.  1.
     -623   -1    0    0    0    0  0.00000000000E+00  0.00000000000E+00  0.12525980253E-10  0.17130000000E+03  0.17130000000E+03 0.  1.
       11    1    1    2    0    0  0.80382162769E-01  0.28120144774E-01 -0.53947827251E-02  0.85331117052E-01  0.51109989000E-03 0.  1.
     -623    1    1    2    0    0 -0.61040654358E-01 -0.76859754037E-01  0.27982454802E+00  0.17130025667E+03  0.17130000000E+03 0.  1.
      622    1    1    2    0    0 -0.19341508411E-01  0.48739609263E-01  0.37255702021E+01  0.39144122131E+01  0.12000000000E+01 0.  1.
</event>
<event>
 5   0  0.5136900E+01  0.9118800E+02  0.7818608E-02  0.1180000E+00
       11   -1    0    0    0    0  0.00000000000E+00  0.00000000000E+00  0.39999999673E+01  0.40000000000E+01  0.51109989000E-03 0. -1.
     -623   -1    0    0    0    0  0.00000000000E+00  0.00000000000E+00  0.12525980253E-10  0.17130000000E+03  0.17130000000E+03 0.  1.
       11    1    1    2    0    0 -0.45754479766E-01 -0.95838365300E-01  0.11228120513E+00  0.15455029902E+00  0.51109989000E-03 0. -1.
     -623    1    1    2    0    0  0.25408820839E+00  0.10090028648E+00  0.24065459521E+00  0.17130038720E+03  0.17130000000E+03 0.  1.
      622    1    1    2    0    0 -0.20833372863E+00 -0.50619211782E-02  0.36470641670E+01  0.38450624967E+01  0.12000000000E+01 0. -1.
</event>
<event>
 5   0  0.5136900E+01  0.9118800E+02  0.7818608E-02  0.1180000E+00
       11   -1    0    0    0    0  0.00000000000E+00  0.00000000000E+00  0.39999999673E+01  0.40000000000E+01  0.51109989000E-03 0. -1.
     -623   -1    0    0    0    0  0.00000000000E+00  0.00000000000E+00  0.12525980253E-10  0.17130000000E+03  0.17130000000E+03 0.  1.
       11    1    1    2    0    0  0.93509215260E-01 -0.43389519181E-01  0.55884729620E-01  0.11726034258E+00  0.51109989000E-03 0. -1.
     -623    1    1    2    0    0 -0.52246121612E-01  0.92202880689E-01  0.25224780932E+00  0.17130021851E+03  0.17130000000E+03 0.  1.
      622    1    1    2    0    0 -0.41263093648E-01 -0.48813361508E-01  0.36918674284E+01  0.38825211521E+01  0.12000000000E+01 0. -1.
</event>
<event>
 5   0  0.5136900E+01  0.9118800E+02  0.7818608E-02  0.1180000E+00
       11   -1    0    0    0    0  0.00000000000E+00  0.00000000000E+00  0.39999999673E+01  0.40000000000E+01  0.51109989000E-03 0.  1.
     -623   -1    0    0    0    0  0.00000000000E+00  0.00000000000E+00  0.12525980253E-10  0.17130000000E+03  0.17130000000E+03 0.  1.
       11    1    1    2    0    0 -0.10129141329E+00  0.16794819081E-01  0.38673319022E+00  0.40013102603E+00  0.51109989000E-03 0.  1.
     -623    1    1    2    0    0  0.29773557333E+00 -0.67598017128E-01  0.22581123724E+00  0.17130042092E+03  0.17130000000E+03 0.  1.
      622    1    1    2    0    0 -0.19644416004E+00  0.50803198047E-01  0.33874555399E+01  0.35994480560E+01  0.12000000000E+01 0.  1.
</event>
<event>
 5   0  0.5136900E+01  0.9118800E+02  0.7818608E-02  0.1180000E+00
       11   -1    0    0    0    0  0.00000000000E+00  0.00000000000E+00  0.39999999673E+01  0.40000000000E+01  0.51109989000E-03 0. -1.
     -623   -1    0    0    0    0  0.00000000000E+00  0.00000000000E+00  0.12525980253E-10  0.17130000000E+03  0.17130000000E+03 0.  1.
       11    1    1    2    0    0  0.14823620867E+00  0.19906732853E+00  0.16475656432E+00  0.29790394686E+00  0.51109989000E-03 0. -1.
     -623    1    1    2    0    0 -0.29815699580E+00 -0.20516359934E+00  0.33699856096E+00  0.17130071383E+03  0.17130000000E+03 0.  1.
      622    1    1    2    0    0  0.14992078714E+00  0.60962708062E-02  0.34982448421E+01  0.37013822259E+01  0.12000000000E+01 0. -1.
</event>
<event>
 5   0  0.5136900E+01  0.9118800E+02  0.7818608E-02  0.1180000E+00
       11   -1    0    0    0    0  0.00000000000E+00  0.00000000000E+00  0.39999999673E+01  0.40000000000E+01  0.51109989000E-03 0. -1.
     -623   -1    0    0    0    0  0.00000000000E+00  0.00000000000E+00  0.12525980253E-10  0.17130000000E+03  0.17130000000E+03 0.  1.
       11    1    1    2    0    0 -0.12836702750E+00 -0.20951844201E+00  0.13562589722E+00  0.28066121306E+00  0.51109989000E-03 0. -1.
     -623    1    1    2    0    0 -0.39170345890E-01 -0.21401382440E+00  0.37410668779E+00  0.17130054668E+03  0.17130000000E+03 0.  1.
      622    1    1    2    0    0  0.16753737339E+00  0.42353226642E+00  0.34902673824E+01  0.37187921093E+01  0.12000000000E+01 0. -1.
</event>
<event>
 5   0  0.5136900E+01  0.9118800E+02  0.7818608E-02  0.1180000E+00
       11   -1    0    0    0    0  0.00000000000E+00  0.00000000000E+00  0.39999999673E+01  0.40000000000E+01  0.51109989000E-03 0.  1.
     -623   -1    0    0    0    0  0.00000000000E+00  0.00000000000E+00  0.12525980253E-10  0.17130000000E+03  0.17130000000E+03 0.  1.
       11    1    1    2    0    0  0.10794025859E+00 -0.16147451285E+00  0.29428639973E+00  0.35260440158E+00  0.51109989000E-03 0.  1.
     -623    1    1    2    0    0 -0.13006898377E+00  0.35717929819E+00  0.26767593685E+00  0.17130063090E+03  0.17130000000E+03 0.  1.
      622    1    1    2    0    0  0.22128725183E-01 -0.19570478534E+00  0.34380376308E+01  0.36467647023E+01  0.12000000000E+01 0.  1.
</event>
<event>
 5   0  0.5136900E+01  0.9118800E+02  0.7818608E-02  0.1180000E+00
       11   -1    0    0    0    0  0.00000000000E+00  0.00000000000E+00  0.39999999673E+01  0.40000000000E+01  0.51109989000E-03 0.  1.
     -623   -1    0    0    0    0  0.00000000000E+00  0.00000000000E+00  0.12525980253E-10  0.17130000000E+03  0.17130000000E+03 0.  1.
       11    1    1    2    0    0 -0.61322155923E-01  0.11748514002E+00 -0.52802382645E-01  0.14265874585E+00  0.51109989000E-03 0.  1.
     -623    1    1    2    0    0  0.77119513506E-01 -0.35078649725E-01  0.38831270941E+00  0.17130046108E+03  0.17130000000E+03 0.  1.
      622    1    1    2    0    0 -0.15797357584E-01 -0.82406490294E-01  0.36644896406E+01  0.38568801786E+01  0.12000000000E+01 0.  1.
</event>
<event>
 5   0  0.5136900E+01  0.9118800E+02  0.7818608E-02  0.1180000E+00
       11   -1    0    0    0    0  0.00000000000E+00  0.00000000000E+00  0.39999999673E+01  0.40000000000E+01  0.51109989000E-03 0. -1.
     -623   -1    0    0    0    0  0.00000000000E+00  0.00000000000E+00  0.12525980253E-10  0.17130000000E+03  0.17130000000E+03 0. -1.
       11    1    1    2    0    0 -0.29166672591E+00  0.36952479014E-02  0.74467048173E+00  0.79976091517E+00  0.51109989000E-03 0. -1.
     -623    1    1    2    0    0  0.33286075023E-01 -0.66736357002E+00  0.37725426979E+00  0.17130171862E+03  0.17130000000E+03 0. -1.
      622    1    1    2    0    0  0.25838065088E+00  0.66366832212E+00  0.28780752158E+01  0.31985204627E+01  0.12000000000E+01 0. -1.
</event>
<event>
 5   0  0.5136900E+01  0.9118800E+02  0.7818608E-02  0.1180000E+00
       11   -1    0    0    0    0  0.00000000000E+00  0.00000000000E+00  0.39999999673E+01  0.40000000000E+01  0.51109989000E-03 0.  1.
     -623   -1    0    0    0    0  0.00000000000E+00  0.00000000000E+00  0.12525980253E-10  0.17130000000E+03  0.17130000000E+03 0.  1.
       11    1    1    2    0    0  0.18078819307E+00 -0.60360023154E-01  0.39184134349E-01  0.19458509901E+00  0.51109989000E-03 0.  1.
     -623    1    1    2    0    0 -0.41551885757E-01 -0.70335058670E-02  0.35326232367E+00  0.17130036944E+03  0.17130000000E+03 0.  1.
      622    1    1    2    0    0 -0.13923630732E+00  0.67393529022E-01  0.36075535093E+01  0.38050454609E+01  0.12000000000E+01 0.  1.
</event>
<event>
 5   0  0.5136900E+01  0.9118800E+02  0.7818608E-02  0.1180000E+00
       11   -1    0    0    0    0  0.00000000000E+00  0.00000000000E+00  0.39999999673E+01  0.40000000000E+01  0.51109989000E-03 0. -1.
     -623   -1    0    0    0    0  0.00000000000E+00  0.00000000000E+00  0.12525980253E-10  0.17130000000E+03  0.17130000000E+03 0. -1.
       11    1    1    2    0    0  0.12505584683E+00  0.21898881899E-01  0.43869941283E+00  0.45670117352E+00  0.51109989000E-03 0. -1.
     -623    1    1    2    0    0 -0.13916303607E+00 -0.34052603522E+00  0.24328590927E+00  0.17130056775E+03  0.17130000000E+03 0. -1.
      622    1    1    2    0    0  0.14107189241E-01  0.31862715332E+00  0.33180146453E+01  0.35427310739E+01  0.12000000000E+01 0.  0.
</event>
<event>
 5   0  0.5136900E+01  0.9118800E+02  0.7818608E-02  0.1180000E+00
       11   -1    0    0    0    0  0.00000000000E+00  0.00000000000E+00  0.39999999673E+01  0.40000000000E+01  0.51109989000E-03 0. -1.
     -623   -1    0    0    0    0  0.00000000000E+00  0.00000000000E+00  0.12525980253E-10  0.17130000000E+03  0.17130000000E+03 0. -1.
       11    1    1    2    0    0  0.51243344684E-01 -0.21442854021E+00  0.40892637230E+00  0.46457132759E+00  0.51109989000E-03 0. -1.
     -623    1    1    2    0    0  0.75833171164E-01  0.24177382797E+00  0.26849223097E+00  0.17130039782E+03  0.17130000000E+03 0. -1.
      622    1    1    2    0    0 -0.12707651585E+00 -0.27345287755E-01  0.33225813641E+01  0.35350308523E+01  0.12000000000E+01 0. -1.
</event>
<event>
 5   0  0.5136900E+01  0.9118800E+02  0.7818608E-02  0.1180000E+00
       11   -1    0    0    0    0  0.00000000000E+00  0.00000000000E+00  0.39999999673E+01  0.40000000000E+01  0.51109989000E-03 0.  1.
     -623   -1    0    0    0    0  0.00000000000E+00  0.00000000000E+00  0.12525980253E-10  0.17130000000E+03  0.17130000000E+03 0.  1.
       11    1    1    2    0    0  0.53839478632E-02  0.12738385252E+00  0.23223247246E+00  0.26492983083E+00  0.51109989000E-03 0.  1.
     -623    1    1    2    0    0 -0.63223111556E-01 -0.32805674073E+00  0.23740323806E+00  0.17130049030E+03  0.17130000000E+03 0.  1.
      622    1    1    2    0    0  0.57839163693E-01  0.20067288821E+00  0.35303642568E+01  0.37345798643E+01  0.12000000000E+01 0.  1.
</event>
<event>
 5   0  0.5136900E+01  0.9118800E+02  0.7818608E-02  0.1180000E+00
       11   -1    0    0    0    0  0.00000000000E+00  0.00000000000E+00  0.39999999673E+01  0.40000000000E+01  0.51109989000E-03 0.  1.
     -623   -1    0    0    0    0  0.00000000000E+00  0.00000000000E+00  0.12525980253E-10  0.17130000000E+03  0.17130000000E+03 0.  1.
       11    1    1    2    0    0  0.89728270159E-02 -0.64873331851E-01  0.45116613568E-01  0.79528805169E-01  0.51109989000E-03 0.  1.
     -623    1    1    2    0    0 -0.15926103083E+00 -0.27784590875E-01  0.22699588737E+00  0.17130022669E+03  0.17130000000E+03 0.  1.
      622    1    1    2    0    0  0.15028820381E+00  0.92657922726E-01  0.37278874664E+01  0.39202445073E+01  0.12000000000E+01 0.  1.
</event>
<event>
 5   0  0.5136900E+01  0.9118800E+02  0.7818608E-02  0.1180000E+00
       11   -1    0    0    0    0  0.00000000000E+00  0.00000000000E+00  0.39999999673E+01  0.40000000000E+01  0.51109989000E-03 0.  1.
     -623   -1    0    0    0    0  0.00000000000E+00  0.00000000000E+00  0.12525980253E-10  0.17130000000E+03  0.17130000000E+03 0.  1.
       11    1    1    2    0    0  0.23580218261E+00  0.15308138152E-01  0.55818875534E+00  0.60614516102E+00  0.51109989000E-03 0.  1.
     -623    1    1    2    0    0 -0.81983545424E-01  0.42467277571E+00  0.30246587280E+00  0.17130081306E+03  0.17130000000E+03 0.  1.
      622    1    1    2    0    0 -0.15381863719E+00 -0.43998091386E+00  0.31393453392E+01  0.33930417823E+01  0.12000000000E+01 0.  1.
</event>
<event>
 5   0  0.5136900E+01  0.9118800E+02  0.7818608E-02  0.1180000E+00
       11   -1    0    0    0    0  0.00000000000E+00  0.00000000000E+00  0.39999999673E+01  0.40000000000E+01  0.51109989000E-03 0. -1.
     -623   -1    0    0    0    0  0.00000000000E+00  0.00000000000E+00  0.12525980253E-10  0.17130000000E+03  0.17130000000E+03 0. -1.
       11    1    1    2    0    0 -0.14582725565E+00 -0.82038000393E+00  0.59653770580E+00  0.10247665271E+01  0.51109989000E-03 0. -1.
     -623    1    1    2    0    0 -0.35259454284E+00 -0.22407135822E-01  0.86611933434E+00  0.17130255394E+03  0.17130000000E+03 0. -1.
      622    1    1    2    0    0  0.49842179849E+00  0.84278713975E+00  0.25373429272E+01  0.29726795291E+01  0.12000000000E+01 0. -1.
</event>
<event>
 5   0  0.5136900E+01  0.9118800E+02  0.7818608E-02  0.1180000E+00
       11   -1    0    0    0    0  0.00000000000E+00  0.00000000000E+00  0.39999999673E+01  0.40000000000E+01  0.51109989000E-03 0. -1.
     -623   -1    0    0    0    0  0.00000000000E+00  0.00000000000E+00  0.12525980253E-10  0.17130000000E+03  0.17130000000E+03 0.  1.
       11    1    1    2    0    0  0.57972521913E-02  0.27705001499E-01  0.80976569231E-01  0.85782522854E-01  0.51109989000E-03 0. -1.
     -623    1    1    2    0    0  0.12546393808E+00  0.29326353976E-01  0.19620760885E+00  0.17130016082E+03  0.17130000000E+03 0.  1.
      622    1    1    2    0    0 -0.13126119028E+00 -0.57031355475E-01  0.37228157893E+01  0.39140566522E+01  0.12000000000E+01 0. -1.
</event>
<event>
 5   0  0.5136900E+01  0.9118800E+02  0.7818608E-02  0.1180000E+00
       11   -1    0    0    0    0  0.00000000000E+00  0.00000000000E+00  0.39999999673E+01  0.40000000000E+01  0.51109989000E-03 0.  1.
     -623   -1    0    0    0    0  0.00000000000E+00  0.00000000000E+00  0.12525980253E-10  0.17130000000E+03  0.17130000000E+03 0. -1.
       11    1    1    2    0    0 -0.15808800238E-01 -0.51929165694E-01  0.91452163401E+00  0.91613134250E+00  0.51109989000E-03 0.  1.
     -623    1    1    2    0    0  0.49747713102E-01  0.28227710459E+00  0.25468563523E+00  0.17130042913E+03  0.17130000000E+03 0. -1.
      622    1    1    2    0    0 -0.33938912863E-01 -0.23034793889E+00  0.28307926981E+01  0.30834395279E+01  0.12000000000E+01 0.  0.
</event>
<event>
 5   0  0.5136900E+01  0.9118800E+02  0.7818608E-02  0.1180000E+00
       11   -1    0    0    0    0  0.00000000000E+00  0.00000000000E+00  0.39999999673E+01  0.40000000000E+01  0.51109989000E-03 0. -1.
     -623   -1    0    0    0    0  0.00000000000E+00  0.00000000000E+00  0.12525980253E-10  0.17130000000E+03  0.17130000000E+03 0.  1.
       11    1    1    2    0    0 -0.57742121387E-01  0.12478708209E+00 -0.70597922917E-01  0.15456486141E+00  0.51109989000E-03 0. -1.
     -623    1    1    2    0    0 -0.35197835416E+00  0.17771884380E+00  0.45398691210E+00  0.17130105539E+03  0.17130000000E+03 0.  1.
      622    1    1    2    0    0  0.40972047555E+00 -0.30250592588E+00  0.36166109782E+01  0.38443797511E+01  0.12000000000E+01 0. -1.
</event>
<event>
 5   0  0.5136900E+01  0.9118800E+02  0.7818608E-02  0.1180000E+00
       11   -1    0    0    0    0  0.00000000000E+00  0.00000000000E+00  0.39999999673E+01  0.40000000000E+01  0.51109989000E-03 0.  1.
     -623   -1    0    0    0    0  0.00000000000E+00  0.00000000000E+00  0.12525980253E-10  0.17130000000E+03  0.17130000000E+03 0.  1.
       11    1    1    2    0    0  0.16359907505E+00  0.14347760181E+00  0.96484976951E+00  0.98908332233E+00  0.51109989000E-03 0.  1.
     -623    1    1    2    0    0 -0.15524623612E-01 -0.27644349064E+00  0.28137562426E+00  0.17130045486E+03  0.17130000000E+03 0.  1.
      622    1    1    2    0    0 -0.14807445143E+00  0.13296588883E+00  0.27537745736E+01  0.30104618205E+01  0.12000000000E+01 0.  1.
</event>
<event>
 5   0  0.5136900E+01  0.9118800E+02  0.7818608E-02  0.1180000E+00
       11   -1    0    0    0    0  0.00000000000E+00  0.00000000000E+00  0.39999999673E+01  0.40000000000E+01  0.51109989000E-03 0. -1.
     -623   -1    0    0    0    0  0.00000000000E+00  0.00000000000E+00  0.12525980253E-10  0.17130000000E+03  0.17130000000E+03 0. -1.
       11    1    1    2    0    0  0.19221342688E+00 -0.28599447476E+00  0.42108451354E+00  0.54410593623E+00  0.51109989000E-03 0. -1.
     -623    1    1    2    0    0 -0.32621935790E+00  0.52259627299E+00  0.35104850823E+00  0.17130146748E+03  0.17130000000E+03 0. -1.
      622    1    1    2    0    0  0.13400593102E+00 -0.23660179823E+00  0.32278669456E+01  0.34544265832E+01  0.12000000000E+01 0. -1.
</event>
<event>
 5   0  0.5136900E+01  0.9118800E+02  0.7818608E-02  0.1180000E+00
       11   -1    0    0    0    0  0.00000000000E+00  0.00000000000E+00  0.39999999673E+01  0.40000000000E+01  0.51109989000E-03 0.  1.
     -623   -1    0    0    0    0  0.00000000000E+00  0.00000000000E+00  0.12525980253E-10  0.17130000000E+03  0.17130000000E+03 0.  1.
       11    1    1    2    0    0  0.46121454615E-01 -0.61278076076E-01  0.30951171428E+00  0.31887294285E+00  0.51109989000E-03 0.  1.
     -623    1    1    2    0    0 -0.35490641424E-01  0.16900412315E+00  0.21236108770E+00  0.17130021868E+03  0.17130000000E+03 0.  1.
      622    1    1    2    0    0 -0.10630813191E-01 -0.10772604708E+00  0.34781271654E+01  0.36809083789E+01  0.12000000000E+01 0.  1.
</event>
<event>
 5   0  0.5136900E+01  0.9118800E+02  0.7818608E-02  0.1180000E+00
       11   -1    0    0    0    0  0.00000000000E+00  0.00000000000E+00  0.39999999673E+01  0.40000000000E+01  0.51109989000E-03 0.  1.
     -623   -1    0    0    0    0  0.00000000000E+00  0.00000000000E+00  0.12525980253E-10  0.17130000000E+03  0.17130000000E+03 0. -1.
       11    1    1    2    0    0  0.76696150780E-01 -0.27153926272E+00  0.26228428456E+00  0.38523911781E+00  0.51109989000E-03 0.  1.
     -623    1    1    2    0    0 -0.23947789263E+00  0.18846292960E+00  0.33348441167E+00  0.17130059568E+03  0.17130000000E+03 0. -1.
      622    1    1    2    0    0  0.16278174185E+00  0.83076333122E-01  0.34042312711E+01  0.36141652037E+01  0.12000000000E+01 0.  1.
</event>
<event>
 5   0  0.5136900E+01  0.9118800E+02  0.7818608E-02  0.1180000E+00
       11   -1    0    0    0    0  0.00000000000E+00  0.00000000000E+00  0.39999999673E+01  0.40000000000E+01  0.51109989000E-03 0.  1.
     -623   -1    0    0    0    0  0.00000000000E+00  0.00000000000E+00  0.12525980253E-10  0.17130000000E+03  0.17130000000E+03 0. -1.
       11    1    1    2    0    0 -0.74800699178E-01 -0.22363344247E-01  0.31920977003E-02  0.78139071352E-01  0.51109989000E-03 0.  1.
     -623    1    1    2    0    0  0.93880230917E-01  0.24381972162E+00  0.27009976764E+00  0.17130041219E+03  0.17130000000E+03 0. -1.
      622    1    1    2    0    0 -0.19079531740E-01 -0.22145637738E+00  0.37267081020E+01  0.39214487416E+01  0.12000000000E+01 0.  1.
</event>
<event>
 5   0  0.5136900E+01  0.9118800E+02  0.7818608E-02  0.1180000E+00
       11   -1    0    0    0    0  0.00000000000E+00  0.00000000000E+00  0.39999999673E+01  0.40000000000E+01  0.51109989000E-03 0. -1.
     -623   -1    0    0    0    0  0.00000000000E+00  0.00000000000E+00  0.12525980253E-10  0.17130000000E+03  0.17130000000E+03 0. -1.
       11    1    1    2    0    0  0.11967153333E+00  0.78578723752E-01  0.30320973400E+00  0.33530925386E+00  0.51109989000E-03 0. -1.
     -623    1    1    2    0    0  0.31674547326E-02  0.11988052364E+00  0.24223964194E+00  0.17130021326E+03  0.17130000000E+03 0. -1.
      622    1    1    2    0    0 -0.12283898806E+00 -0.19845924739E+00  0.34545505914E+01  0.36644774905E+01  0.12000000000E+01 0. -1.
</event>
<event>
 5   0  0.5136900E+01  0.9118800E+02  0.7818608E-02  0.1180000E+00
       11   -1    0    0    0    0  0.00000000000E+00  0.00000000000E+00  0.39999999673E+01  0.40000000000E+01  0.51109989000E-03 0. -1.
     -623   -1    0    0    0    0  0.00000000000E+00  0.00000000000E+00  0.12525980253E-10  0.17130000000E+03  0.17130000000E+03 0.  1.
       11    1    1    2    0    0  0.10156088516E+00 -0.16210853292E+00  0.54033800490E+00  0.57320084665E+00  0.51109989000E-03 0. -1.
     -623    1    1    2    0    0  0.24195787742E+00  0.11355061160E+00  0.26909587864E+00  0.17130041988E+03  0.17130000000E+03 0.  1.
      622    1    1    2    0    0 -0.34351876258E+00  0.48557921320E-01  0.31905660838E+01  0.34263792766E+01  0.12000000000E+01 0. -1.
</event>
<event>
 5   0  0.5136900E+01  0.9118800E+02  0.7818608E-02  0.1180000E+00
       11   -1    0    0    0    0  0.00000000000E+00  0.00000000000E+00  0.39999999673E+01  0.40000000000E+01  0.51109989000E-03 0.  1.
     -623   -1    0    0    0    0  0.00000000000E+00  0.00000000000E+00  0.12525980253E-10  0.17130000000E+03  0.17130000000E+03 0.  1.
       11    1    1    2    0    0 -0.52558858914E-01 -0.74772539280E-01  0.64343109938E-01  0.11177505669E+00  0.51109989000E-03 0.  1.
     -623    1    1    2    0    0  0.37895997335E+00 -0.97321752372E-01  0.25636712221E+00  0.17130063866E+03  0.17130000000E+03 0.  1.
      622    1    1    2    0    0 -0.32640111443E+00  0.17209429165E+00  0.36792897352E+01  0.38875862805E+01  0.12000000000E+01 0.  1.
</event>
<event>
 5   0  0.5136900E+01  0.9118800E+02  0.7818608E-02  0.1180000E+00
       11   -1    0    0    0    0  0.00000000000E+00  0.00000000000E+00  0.39999999673E+01  0.40000000000E+01  0.51109989000E-03 0.  1.
     -623   -1    0    0    0    0  0.00000000000E+00  0.00000000000E+00  0.12525980253E-10  0.17130000000E+03  0.17130000000E+03 0.  1.
       11    1    1    2    0    0  0.17570144477E+00 -0.42143400849E-01  0.16448370040E+00  0.24434036271E+00  0.51109989000E-03 0.  1.
     -623    1    1    2    0    0 -0.20605298338E+00 -0.18386673059E+00  0.28452615588E+00  0.17130045890E+03  0.17130000000E+03 0.  1.
      622    1    1    2    0    0  0.30351538610E-01  0.22601013144E+00  0.35509901111E+01  0.37552007356E+01  0.12000000000E+01 0.  1.
</event>
<event>
 5   0  0.5136900E+01  0.9118800E+02  0.7818608E-02  0.1180000E+00
       11   -1    0    0    0    0  0.00000000000E+00  0.00000000000E+00  0.39999999673E+01  0.40000000000E+01  0.51109989000E-03 0.  1.
     -623   -1    0    0    0    0  0.00000000000E+00  0.00000000000E+00  0.12525980253E-10  0.17130000000E+03  0.17130000000E+03 0.  1.
       11    1    1    2    0    0 -0.64557370065E+00  0.26444826758E+00  0.45106796720E+00  0.83075920786E+00  0.51109989000E-03 0.  1.
     -623    1    1    2    0    0  0.30594013012E+00  0.22009576982E+00  0.67789971611E+00  0.17130175594E+03  0.17130000000E+03 0.  1.
      622    1    1    2    0    0  0.33963357052E+00 -0.48454403741E+00  0.28710322841E+01  0.31674848480E+01  0.12000000000E+01 0.  1.
</event>
<event>
 5   0  0.5136900E+01  0.9118800E+02  0.7818608E-02  0.1180000E+00
       11   -1    0    0    0    0  0.00000000000E+00  0.00000000000E+00  0.39999999673E+01  0.40000000000E+01  0.51109989000E-03 0.  1.
     -623   -1    0    0    0    0  0.00000000000E+00  0.00000000000E+00  0.12525980253E-10  0.17130000000E+03  0.17130000000E+03 0.  1.
       11    1    1    2    0    0  0.13250894781E+00 -0.22423729696E+00  0.81599605592E+00  0.85655753519E+00  0.51109989000E-03 0.  1.
     -623    1    1    2    0    0  0.12109955238E+00  0.36172194868E-01  0.29616004291E+00  0.17130030264E+03  0.17130000000E+03 0.  1.
      622    1    1    2    0    0 -0.25360850018E+00  0.18806510209E+00  0.28878438685E+01  0.31431398256E+01  0.12000000000E+01 0.  1.
</event>
<event>
 5   0  0.5136900E+01  0.9118800E+02  0.7818608E-02  0.1180000E+00
       11   -1    0    0    0    0  0.00000000000E+00  0.00000000000E+00  0.39999999673E+01  0.40000000000E+01  0.51109989000E-03 0.  1.
     -623   -1    0    0    0    0  0.00000000000E+00  0.00000000000E+00  0.12525980253E-10  0.17130000000E+03  0.17130000000E+03 0. -1.
       11    1    1    2    0    0  0.22919311450E+00 -0.95438417395E-01  0.33622085325E+00  0.41795059353E+00  0.51109989000E-03 0.  1.
     -623    1    1    2    0    0 -0.29910285817E+00 -0.19964141816E-01  0.29195295713E+00  0.17130051108E+03  0.17130000000E+03 0. -1.
      622    1    1    2    0    0  0.69909743670E-01  0.11540255921E+00  0.33718261570E+01  0.35815383225E+01  0.12000000000E+01 0.  1.
</event>
<event>
 5   0  0.5136900E+01  0.9118800E+02  0.7818608E-02  0.1180000E+00
       11   -1    0    0    0    0  0.00000000000E+00  0.00000000000E+00  0.39999999673E+01  0.40000000000E+01  0.51109989000E-03 0. -1.
     -623   -1    0    0    0    0  0.00000000000E+00  0.00000000000E+00  0.12525980253E-10  0.17130000000E+03  0.17130000000E+03 0.  1.
       11    1    1    2    0    0 -0.20868307883E+00  0.14415493739E+00  0.39596730202E+00  0.47023360031E+00  0.51109989000E-03 0. -1.
     -623    1    1    2    0    0 -0.11532574934E+00 -0.24611454240E+00  0.30244721318E+00  0.17130048262E+03  0.17130000000E+03 0.  1.
      622    1    1    2    0    0  0.32400882817E+00  0.10195960500E+00  0.33015854522E+01  0.35292837772E+01  0.12000000000E+01 0. -1.
</event>
<event>
 5   0  0.5136900E+01  0.9118800E+02  0.7818608E-02  0.1180000E+00
       11   -1    0    0    0    0  0.00000000000E+00  0.00000000000E+00  0.39999999673E+01  0.40000000000E+01  0.51109989000E-03 0. -1.
     -623   -1    0    0    0    0  0.00000000000E+00  0.00000000000E+00  0.12525980253E-10  0.17130000000E+03  0.17130000000E+03 0.  1.
       11    1    1    2    0    0 -0.93024920008E-01  0.10540844566E-01  0.67347279836E-01  0.11532849809E+00  0.51109989000E-03 0. -1.
     -623    1    1    2    0    0  0.13565567018E+00 -0.81497032867E-01  0.23915087628E+00  0.17130024004E+03  0.17130000000E+03 0.  1.
      622    1    1    2    0    0 -0.42630750167E-01  0.70956188301E-01  0.36935018112E+01  0.38844314631E+01  0.12000000000E+01 0. -1.
</event>
<event>
 5   0  0.5136900E+01  0.9118800E+02  0.7818608E-02  0.1180000E+00
       11   -1    0    0    0    0  0.00000000000E+00  0.00000000000E+00  0.39999999673E+01  0.40000000000E+01  0.51109989000E-03 0. -1.
     -623   -1    0    0    0    0  0.00000000000E+00  0.00000000000E+00  0.12525980253E-10  0.17130000000E+03  0.17130000000E+03 0. -1.
       11    1    1    2    0    0 -0.14340455119E-01  0.38766859404E-01 -0.14669067832E-01  0.43862977714E-01  0.51109989000E-03 0. -1.
     -623    1    1    2    0    0  0.37038553642E-01 -0.12178366142E+00  0.24613618567E+00  0.17130022413E+03  0.17130000000E+03 0. -1.
      622    1    1    2    0    0 -0.22698098523E-01  0.83016802011E-01  0.37685328495E+01  0.39559128948E+01  0.12000000000E+01 0. -1.
</event>
<event>
 5   0  0.5136900E+01  0.9118800E+02  0.7818608E-02  0.1180000E+00
       11   -1    0    0    0    0  0.00000000000E+00  0.00000000000E+00  0.39999999673E+01  0.40000000000E+01  0.51109989000E-03 0. -1.
     -623   -1    0    0    0    0  0.00000000000E+00  0.00000000000E+00  0.12525980253E-10  0.17130000000E+03  0.17130000000E+03 0. -1.
       11    1    1    2    0    0  0.13468087701E+00  0.67717409816E-01  0.11635324503E+00  0.19042826753E+00  0.51109989000E-03 0. -1.
     -623    1    1    2    0    0 -0.18359750914E+00 -0.20624614835E+00  0.27145631736E+00  0.17130043764E+03  0.17130000000E+03 0. -1.
      622    1    1    2    0    0  0.48916632124E-01  0.13852873853E+00  0.36121904050E+01  0.38091340971E+01  0.12000000000E+01 0. -1.
</event>
<event>
 5   0  0.5136900E+01  0.9118800E+02  0.7818608E-02  0.1180000E+00
       11   -1    0    0    0    0  0.00000000000E+00  0.00000000000E+00  0.39999999673E+01  0.40000000000E+01  0.51109989000E-03 0. -1.
     -623   -1    0    0    0    0  0.00000000000E+00  0.00000000000E+00  0.12525980253E-10  0.17130000000E+03  0.17130000000E+03 0. -1.
       11    1    1    2    0    0 -0.28917874280E+00 -0.29720118446E+00  0.56797112725E+00  0.70323847445E+00  0.51109989000E-03 0. -1.
     -623    1    1    2    0    0  0.14982140873E+00  0.54435651942E+00  0.37600588291E+00  0.17130134311E+03  0.17130000000E+03 0. -1.
      622    1    1    2    0    0  0.13935733407E+00 -0.24715533496E+00  0.30560229572E+01  0.32954184167E+01  0.12000000000E+01 0. -1.
</event>
<event>
 5   0  0.5136900E+01  0.9118800E+02  0.7818608E-02  0.1180000E+00
       11   -1    0    0    0    0  0.00000000000E+00  0.00000000000E+00  0.39999999673E+01  0.40000000000E+01  0.51109989000E-03 0. -1.
     -623   -1    0    0    0    0  0.00000000000E+00  0.00000000000E+00  0.12525980253E-10  0.17130000000E+03  0.17130000000E+03 0.  1.
       11    1    1    2    0    0  0.83597608210E-01  0.48605052185E-01  0.82957868367E-01  0.12740989107E+00  0.51109989000E-03 0. -1.
     -623    1    1    2    0    0 -0.18782510869E-01 -0.16810385461E+00  0.23783734480E+00  0.17130024862E+03  0.17130000000E+03 0.  1.
      622    1    1    2    0    0 -0.64815097341E-01  0.11949880242E+00  0.36792047542E+01  0.38723414860E+01  0.12000000000E+01 0. -1.
</event>
<event>
 5   0  0.5136900E+01  0.9118800E+02  0.7818608E-02  0.1180000E+00
       11   -1    0    0    0    0  0.00000000000E+00  0.00000000000E+00  0.39999999673E+01  0.40000000000E+01  0.51109989000E-03 0. -1.
     -623   -1    0    0    0    0  0.00000000000E+00  0.00000000000E+00  0.12525980253E-10  0.17130000000E+03  0.17130000000E+03 0. -1.
       11    1    1    2    0    0  0.25910857161E-01  0.30042596909E-01  0.66549731954E-01  0.77479404965E-01  0.51109989000E-03 0. -1.
     -623    1    1    2    0    0 -0.18764995293E+00  0.17227208673E-01  0.20303244895E+00  0.17130022397E+03  0.17130000000E+03 0. -1.
      622    1    1    2    0    0  0.16173909577E+00 -0.47269805582E-01  0.37304177865E+01  0.39222966271E+01  0.12000000000E+01 0. -1.
</event>
<event>
 5   0  0.5136900E+01  0.9118800E+02  0.7818608E-02  0.1180000E+00
       11   -1    0    0    0    0  0.00000000000E+00  0.00000000000E+00  0.39999999673E+01  0.40000000000E+01  0.51109989000E-03 0. -1.
     -623   -1    0    0    0    0  0.00000000000E+00  0.00000000000E+00  0.12525980253E-10  0.17130000000E+03  0.17130000000E+03 0. -1.
       11    1    1    2    0    0 -0.17145527692E-01 -0.67365909289E-01  0.52726230213E+00  0.53182509467E+00  0.51109989000E-03 0. -1.
     -623    1    1    2    0    0 -0.13531332797E+00  0.17749338321E+00  0.22453258369E+00  0.17130029255E+03  0.17130000000E+03 0. -1.
      622    1    1    2    0    0  0.15245885566E+00 -0.11012747393E+00  0.32482050815E+01  0.34678823531E+01  0.12000000000E+01 0. -1.
</event>
<event>
 5   0  0.5136900E+01  0.9118800E+02  0.7818608E-02  0.1180000E+00
       11   -1    0    0    0    0  0.00000000000E+00  0.00000000000E+00  0.39999999673E+01  0.40000000000E+01  0.51109989000E-03 0. -1.
     -623   -1    0    0    0    0  0.00000000000E+00  0.00000000000E+00  0.12525980253E-10  0.17130000000E+03  0.17130000000E+03 0.  1.
       11    1    1    2    0    0 -0.20385168374E+00 -0.84017980733E-01  0.10178877465E+01  0.10414942418E+01  0.51109989000E-03 0. -1.
     -623    1    1    2    0    0  0.25704417637E+00  0.21905056221E+00  0.28241852604E+00  0.17130056572E+03  0.17130000000E+03 0.  1.
      622    1    1    2    0    0 -0.53192492625E-01 -0.13503258148E+00  0.26996936949E+01  0.29579400409E+01  0.12000000000E+01 0. -1.
</event>
<event>
 5   0  0.5136900E+01  0.9118800E+02  0.7818608E-02  0.1180000E+00
       11   -1    0    0    0    0  0.00000000000E+00  0.00000000000E+00  0.39999999673E+01  0.40000000000E+01  0.51109989000E-03 0. -1.
     -623   -1    0    0    0    0  0.00000000000E+00  0.00000000000E+00  0.12525980253E-10  0.17130000000E+03  0.17130000000E+03 0. -1.
       11    1    1    2    0    0  0.14246643579E-01  0.93705376862E-01  0.10808534443E+00  0.14375801686E+00  0.51109989000E-03 0. -1.
     -623    1    1    2    0    0 -0.97609277835E-01  0.84013723134E-02  0.22969899176E+00  0.17130018202E+03  0.17130000000E+03 0. -1.
      622    1    1    2    0    0  0.83362634256E-01 -0.10210674918E+00  0.36622156312E+01  0.38560599640E+01  0.12000000000E+01 0. -1.
</event>
<event>
 5   0  0.5136900E+01  0.9118800E+02  0.7818608E-02  0.1180000E+00
       11   -1    0    0    0    0  0.00000000000E+00  0.00000000000E+00  0.39999999673E+01  0.40000000000E+01  0.51109989000E-03 0.  1.
     -623   -1    0    0    0    0  0.00000000000E+00  0.00000000000E+00  0.12525980253E-10  0.17130000000E+03  0.17130000000E+03 0.  1.
       11    1    1    2    0    0  0.17304472789E+00 -0.13549588862E+00  0.15363799190E+00  0.26815761682E+00  0.51109989000E-03 0.  1.
     -623    1    1    2    0    0 -0.12504382253E+00  0.46671537515E-01  0.31451958374E+00  0.17130034074E+03  0.17130000000E+03 0.  1.
      622    1    1    2    0    0 -0.48000905354E-01  0.88824351103E-01  0.35318423917E+01  0.37315016458E+01  0.12000000000E+01 0.  1.
</event>
<event>
 5   0  0.5136900E+01  0.9118800E+02  0.7818608E-02  0.1180000E+00
       11   -1    0    0    0    0  0.00000000000E+00  0.00000000000E+00  0.39999999673E+01  0.40000000000E+01  0.51109989000E-03 0.  1.
     -623   -1    0    0    0    0  0.00000000000E+00  0.00000000000E+00  0.12525980253E-10  0.17130000000E+03  0.17130000000E+03 0.  1.
       11    1    1    2    0    0  0.79668822899E-01  0.25680188494E+00  0.10004297346E+00  0.28688532066E+00  0.51109989000E-03 0.  1.
     -623    1    1    2    0    0  0.84345931414E-01  0.19600009010E-01  0.40134756950E+00  0.17130049205E+03  0.17130000000E+03 0.  1.
      622    1    1    2    0    0 -0.16401475431E+00 -0.27640189395E+00  0.34986094244E+01  0.37126226244E+01  0.12000000000E+01 0.  1.
</event>
<event>
 5   0  0.5136900E+01  0.9118800E+02  0.7818608E-02  0.1180000E+00
       11   -1    0    0    0    0  0.00000000000E+00  0.00000000000E+00  0.39999999673E+01  0.40000000000E+01  0.51109989000E-03 0. -1.
     -623   -1    0    0    0    0  0.00000000000E+00  0.00000000000E+00  0.12525980253E-10  0.17130000000E+03  0.17130000000E+03 0.  1.
       11    1    1    2    0    0  0.62590401766E-01  0.33688662262E+00 -0.72889764128E-01  0.35031890305E+00  0.51109989000E-03 0. -1.
     -623    1    1    2    0    0  0.34323424911E-01  0.18343186074E+00  0.66851213828E+00  0.17130140611E+03  0.17130000000E+03 0.  1.
      622    1    1    2    0    0 -0.96913826677E-01 -0.52031848337E+00  0.34043775932E+01  0.36482749912E+01  0.12000000000E+01 0. -1.
</event>
<event>
 5   0  0.5136900E+01  0.9118800E+02  0.7818608E-02  0.1180000E+00
       11   -1    0    0    0    0  0.00000000000E+00  0.00000000000E+00  0.39999999673E+01  0.40000000000E+01  0.51109989000E-03 0.  1.
     -623   -1    0    0    0    0  0.00000000000E+00  0.00000000000E+00  0.12525980253E-10  0.17130000000E+03  0.17130000000E+03 0.  1.
       11    1    1    2    0    0  0.43397582818E-01 -0.38622175449E+00  0.43592110949E+00  0.58401889418E+00  0.51109989000E-03 0.  1.
     -623    1    1    2    0    0 -0.29730836456E+00 -0.36991213832E-01  0.40491947528E+00  0.17130074057E+03  0.17130000000E+03 0.  1.
      622    1    1    2    0    0  0.25391078174E+00  0.42321296832E+00  0.31591593826E+01  0.34152405342E+01  0.12000000000E+01 0.  1.
</event>
<event>
 5   0  0.5136900E+01  0.9118800E+02  0.7818608E-02  0.1180000E+00
       11   -1    0    0    0    0  0.00000000000E+00  0.00000000000E+00  0.39999999673E+01  0.40000000000E+01  0.51109989000E-03 0.  1.
     -623   -1    0    0    0    0  0.00000000000E+00  0.00000000000E+00  0.12525980253E-10  0.17130000000E+03  0.17130000000E+03 0.  1.
       11    1    1    2    0    0 -0.49917279641E-02  0.11905308876E+00  0.44452975998E-01  0.12718051576E+00  0.51109989000E-03 0.  1.
     -623    1    1    2    0    0  0.14725024191E+00 -0.25004118709E+00  0.27890814361E+00  0.17130047283E+03  0.17130000000E+03 0.  1.
      622    1    1    2    0    0 -0.14225851394E+00  0.13098809833E+00  0.36766388477E+01  0.38723466507E+01  0.12000000000E+01 0.  1.
</event>
<event>
 5   0  0.5136900E+01  0.9118800E+02  0.7818608E-02  0.1180000E+00
       11   -1    0    0    0    0  0.00000000000E+00  0.00000000000E+00  0.39999999673E+01  0.40000000000E+01  0.51109989000E-03 0.  1.
     -623   -1    0    0    0    0  0.00000000000E+00  0.00000000000E+00  0.12525980253E-10  0.17130000000E+03  0.17130000000E+03 0.  1.
       11    1    1    2    0    0 -0.22060377671E+00 -0.65409233916E-01  0.41130505120E+00  0.47129237268E+00  0.51109989000E-03 0.  1.
     -623    1    1    2    0    0  0.82727547564E-01  0.11209127331E+00  0.27378245166E+00  0.17130027544E+03  0.17130000000E+03 0.  1.
      622    1    1    2    0    0  0.13787622915E+00 -0.46682039398E-01  0.33149124645E+01  0.35284321893E+01  0.12000000000E+01 0.  1.
</event>
<event>
 5   0  0.5136900E+01  0.9118800E+02  0.7818608E-02  0.1180000E+00
       11   -1    0    0    0    0  0.00000000000E+00  0.00000000000E+00  0.39999999673E+01  0.40000000000E+01  0.51109989000E-03 0. -1.
     -623   -1    0    0    0    0  0.00000000000E+00  0.00000000000E+00  0.12525980253E-10  0.17130000000E+03  0.17130000000E+03 0.  1.
       11    1    1    2    0    0  0.15580799412E+00 -0.15866656457E+00  0.12206743312E+00  0.25367682037E+00  0.51109989000E-03 0. -1.
     -623    1    1    2    0    0 -0.10592638975E+00  0.31825520809E-01  0.33199364172E+00  0.17130035742E+03  0.17130000000E+03 0.  1.
      622    1    1    2    0    0 -0.49881604374E-01  0.12684104376E+00  0.35459388925E+01  0.37459657572E+01  0.12000000000E+01 0. -1.
</event>
<event>
 5   0  0.5136900E+01  0.9118800E+02  0.7818608E-02  0.1180000E+00
       11   -1    0    0    0    0  0.00000000000E+00  0.00000000000E+00  0.39999999673E+01  0.40000000000E+01  0.51109989000E-03 0. -1.
     -623   -1    0    0    0    0  0.00000000000E+00  0.00000000000E+00  0.12525980253E-10  0.17130000000E+03  0.17130000000E+03 0. -1.
       11    1    1    2    0    0 -0.55488424178E-01 -0.86600040566E-01  0.32666374546E+00  0.34247335088E+00  0.51109989000E-03 0. -1.
     -623    1    1    2    0    0  0.86252069620E-02 -0.31929211211E+00  0.24301297746E+00  0.17130047016E+03  0.17130000000E+03 0. -1.
      622    1    1    2    0    0  0.46863217216E-01  0.40589215268E+00  0.34303232444E+01  0.36570564888E+01  0.12000000000E+01 0.  0.
</event>
<event>
 5   0  0.5136900E+01  0.9118800E+02  0.7818608E-02  0.1180000E+00
       11   -1    0    0    0    0  0.00000000000E+00  0.00000000000E+00  0.39999999673E+01  0.40000000000E+01  0.51109989000E-03 0.  1.
     -623   -1    0    0    0    0  0.00000000000E+00  0.00000000000E+00  0.12525980253E-10  0.17130000000E+03  0.17130000000E+03 0.  1.
       11    1    1    2    0    0 -0.72197466227E-01  0.55141683765E-02  0.45022913845E-01  0.85265492282E-01  0.51109989000E-03 0.  1.
     -623    1    1    2    0    0  0.83100027112E-01 -0.78992590350E-01  0.22964179618E+00  0.17130019230E+03  0.17130000000E+03 0.  1.
      622    1    1    2    0    0 -0.10902560885E-01  0.73478421973E-01  0.37253352573E+01  0.39145422113E+01  0.12000000000E+01 0.  1.
</event>
<event>
 5   0  0.5136900E+01  0.9118800E+02  0.7818608E-02  0.1180000E+00
       11   -1    0    0    0    0  0.00000000000E+00  0.00000000000E+00  0.39999999673E+01  0.40000000000E+01  0.51109989000E-03 0.  1.
     -623   -1    0    0    0    0  0.00000000000E+00  0.00000000000E+00  0.12525980253E-10  0.17130000000E+03  0.17130000000E+03 0. -1.
       11    1    1    2    0    0  0.10050847789E+00 -0.15437588170E+00  0.62116672554E+00  0.64790603417E+00  0.51109989000E-03 0.  1.
     -623    1    1    2    0    0  0.48947888088E-01  0.21478007358E+00  0.25339853764E+00  0.17130032906E+03  0.17130000000E+03 0. -1.
      622    1    1    2    0    0 -0.14945636598E+00 -0.60404191888E-01  0.31254347042E+01  0.33517649025E+01  0.12000000000E+01 0.  1.
</event>
<event>
 5   0  0.5136900E+01  0.9118800E+02  0.7818608E-02  0.1180000E+00
       11   -1    0    0    0    0  0.00000000000E+00  0.00000000000E+00  0.39999999673E+01  0.40000000000E+01  0.51109989000E-03 0. -1.
     -623   -1    0    0    0    0  0.00000000000E+00  0.00000000000E+00  0.12525980253E-10  0.17130000000E+03  0.17130000000E+03 0.  1.
       11    1    1    2    0    0 -0.83907710949E-01 -0.19986847344E-01  0.80185962208E-01  0.11777108211E+00  0.51109989000E-03 0. -1.
     -623    1    1    2    0    0 -0.85812250213E-01  0.32137843752E+00  0.24446398119E+00  0.17130049740E+03  0.17130000000E+03 0.  1.
      622    1    1    2    0    0  0.16971996116E+00 -0.30139159017E+00  0.36753500240E+01  0.38817315150E+01  0.12000000000E+01 0. -1.
</event>
<event>
 5   0  0.5136900E+01  0.9118800E+02  0.7818608E-02  0.1180000E+00
       11   -1    0    0    0    0  0.00000000000E+00  0.00000000000E+00  0.39999999673E+01  0.40000000000E+01  0.51109989000E-03 0.  1.
     -623   -1    0    0    0    0  0.00000000000E+00  0.00000000000E+00  0.12525980253E-10  0.17130000000E+03  0.17130000000E+03 0. -1.
       11    1    1    2    0    0 -0.92424758964E-04  0.44383324143E-01  0.69541255498E-02  0.44927820886E-01  0.51109989000E-03 0.  1.
     -623    1    1    2    0    0 -0.11858106331E+00 -0.70815478176E-01  0.22659020742E+00  0.17130020554E+03  0.17130000000E+03 0. -1.
      622    1    1    2    0    0  0.11867348807E+00  0.26432154033E-01  0.37664556344E+01  0.39548666351E+01  0.12000000000E+01 0.  1.
</event>
<event>
 5   0  0.5136900E+01  0.9118800E+02  0.7818608E-02  0.1180000E+00
       11   -1    0    0    0    0  0.00000000000E+00  0.00000000000E+00  0.39999999673E+01  0.40000000000E+01  0.51109989000E-03 0. -1.
     -623   -1    0    0    0    0  0.00000000000E+00  0.00000000000E+00  0.12525980253E-10  0.17130000000E+03  0.17130000000E+03 0.  1.
       11    1    1    2    0    0 -0.94188552407E-01 -0.23483281076E-01  0.17780747595E-01  0.98688216625E-01  0.51109989000E-03 0. -1.
     -623    1    1    2    0    0  0.11954293757E+00  0.20798669828E+00  0.27512941688E+00  0.17130038892E+03  0.17130000000E+03 0.  1.
      622    1    1    2    0    0 -0.25354385163E-01 -0.18450341721E+00  0.37070898029E+01  0.39009228604E+01  0.12000000000E+01 0. -1.
</event>
<event>
 5   0  0.5136900E+01  0.9118800E+02  0.7818608E-02  0.1180000E+00
       11   -1    0    0    0    0  0.00000000000E+00  0.00000000000E+00  0.39999999673E+01  0.40000000000E+01  0.51109989000E-03 0.  1.
     -623   -1    0    0    0    0  0.00000000000E+00  0.00000000000E+00  0.12525980253E-10  0.17130000000E+03  0.17130000000E+03 0. -1.
       11    1    1    2    0    0 -0.14995744390E+00 -0.82469416108E-01  0.20431420824E+00  0.26652016150E+00  0.51109989000E-03 0.  1.
     -623    1    1    2    0    0  0.22793022461E-01  0.14447182269E+00  0.26342330227E+00  0.17130026498E+03  0.17130000000E+03 0. -1.
      622    1    1    2    0    0  0.12716442144E+00 -0.62002406581E-01  0.35322624568E+01  0.37332148549E+01  0.12000000000E+01 0.  1.
</event>
<event>
 5   0  0.5136900E+01  0.9118800E+02  0.7818608E-02  0.1180000E+00
       11   -1    0    0    0    0  0.00000000000E+00  0.00000000000E+00  0.39999999673E+01  0.40000000000E+01  0.51109989000E-03 0.  1.
     -623   -1    0    0    0    0  0.00000000000E+00  0.00000000000E+00  0.12525980253E-10  0.17130000000E+03  0.17130000000E+03 0.  1.
       11    1    1    2    0    0  0.56375916807E-01 -0.35537403109E-01  0.24191148546E+00  0.25092345253E+00  0.51109989000E-03 0.  1.
     -623    1    1    2    0    0 -0.21677097219E+00  0.33097464976E+00  0.22282993792E+00  0.17130060183E+03  0.17130000000E+03 0.  1.
      622    1    1    2    0    0  0.16039505538E+00 -0.29543724665E+00  0.35352585440E+01  0.37484747182E+01  0.12000000000E+01 0.  1.
</event>
<event>
 5   0  0.5136900E+01  0.9118800E+02  0.7818608E-02  0.1180000E+00
       11   -1    0    0    0    0  0.00000000000E+00  0.00000000000E+00  0.39999999673E+01  0.40000000000E+01  0.51109989000E-03 0.  1.
     -623   -1    0    0    0    0  0.00000000000E+00  0.00000000000E+00  0.12525980253E-10  0.17130000000E+03  0.17130000000E+03 0. -1.
       11    1    1    2    0    0  0.36752426201E-01 -0.12452535837E+00  0.26557311098E+00  0.29561232080E+00  0.51109989000E-03 0.  1.
     -623    1    1    2    0    0  0.26267647703E+00  0.13462310594E+00  0.24307082889E+00  0.17130042675E+03  0.17130000000E+03 0. -1.
      622    1    1    2    0    0 -0.29942890323E+00 -0.10097747571E-01  0.34913560275E+01  0.37039609263E+01  0.12000000000E+01 0.  1.
</event>
<event>
 5   0  0.5136900E+01  0.9118800E+02  0.7818608E-02  0.1180000E+00
       11   -1    0    0    0    0  0.00000000000E+00  0.00000000000E+00  0.39999999673E+01  0.40000000000E+01  0.51109989000E-03 0. -1.
     -623   -1    0    0    0    0  0.00000000000E+00  0.00000000000E+00  0.12525980253E-10  0.17130000000E+03  0.17130000000E+03 0.  1.
       11    1    1    2    0    0 -0.46537068589E-01 -0.17091346247E-01 -0.30974169664E-02  0.49675628676E-01  0.51109989000E-03 0. -1.
     -623    1    1    2    0    0 -0.13826156332E+00  0.41814281672E-01  0.24431523064E+00  0.17130023513E+03  0.17130000000E+03 0.  1.
      622    1    1    2    0    0  0.18479863191E+00 -0.24722935425E-01  0.37587821537E+01  0.39500892441E+01  0.12000000000E+01 0. -1.
</event>
<event>
 5   0  0.5136900E+01  0.9118800E+02  0.7818608E-02  0.1180000E+00
       11   -1    0    0    0    0  0.00000000000E+00  0.00000000000E+00  0.39999999673E+01  0.40000000000E+01  0.51109989000E-03 0. -1.
     -623   -1    0    0    0    0  0.00000000000E+00  0.00000000000E+00  0.12525980253E-10  0.17130000000E+03  0.17130000000E+03 0. -1.
       11    1    1    2    0    0 -0.26750529602E+00 -0.14657674980E+00  0.60551841565E+00  0.67800932140E+00  0.51109989000E-03 0. -1.
     -623    1    1    2    0    0 -0.21567361609E+00  0.58519615691E+00  0.36799742408E+00  0.17130153062E+03  0.17130000000E+03 0. -1.
      622    1    1    2    0    0  0.48317891211E+00 -0.43861940711E+00  0.30264841276E+01  0.33204600615E+01  0.12000000000E+01 0. -1.
</event>
<event>
 5   0  0.5136900E+01  0.9118800E+02  0.7818608E-02  0.1180000E+00
       11   -1    0    0    0    0  0.00000000000E+00  0.00000000000E+00  0.39999999673E+01  0.40000000000E+01  0.51109989000E-03 0. -1.
     -623   -1    0    0    0    0  0.00000000000E+00  0.00000000000E+00  0.12525980253E-10  0.17130000000E+03  0.17130000000E+03 0. -1.
       11    1    1    2    0    0 -0.12193035770E+00 -0.10394070808E+00  0.14788795167E+00  0.21804079984E+00  0.51109989000E-03 0. -1.
     -623    1    1    2    0    0  0.11664592599E-01 -0.92625109317E-01  0.27292470157E+00  0.17130024286E+03  0.17130000000E+03 0. -1.
      622    1    1    2    0    0  0.11026576510E+00  0.19656581740E+00  0.35791873141E+01  0.37817163417E+01  0.12000000000E+01 0. -1.
</event>
<event>
 5   0  0.5136900E+01  0.9118800E+02  0.7818608E-02  0.1180000E+00
       11   -1    0    0    0    0  0.00000000000E+00  0.00000000000E+00  0.39999999673E+01  0.40000000000E+01  0.51109989000E-03 0.  1.
     -623   -1    0    0    0    0  0.00000000000E+00  0.00000000000E+00  0.12525980253E-10  0.17130000000E+03  0.17130000000E+03 0. -1.
       11    1    1    2    0    0 -0.46972141259E-03 -0.46851724054E+00  0.17765521457E+00  0.50106911879E+00  0.51109989000E-03 0.  1.
     -623    1    1    2    0    0 -0.55675154077E-01  0.37072521662E+00  0.53890130251E+00  0.17130125788E+03  0.17130000000E+03 0. -1.
      622    1    1    2    0    0  0.56144875490E-01  0.97792023923E-01  0.32834434503E+01  0.34976730005E+01  0.12000000000E+01 0.  1.
</event>
<event>
 5   0  0.5136900E+01  0.9118800E+02  0.7818608E-02  0.1180000E+00
       11   -1    0    0    0    0  0.00000000000E+00  0.00000000000E+00  0.39999999673E+01  0.40000000000E+01  0.51109989000E-03 0.  1.
     -623   -1    0    0    0    0  0.00000000000E+00  0.00000000000E+00  0.12525980253E-10  0.17130000000E+03  0.17130000000E+03 0.  1.
       11    1    1    2    0    0 -0.26276553772E+00  0.23029756336E+00  0.12433395415E+00  0.37086640301E+00  0.51109989000E-03 0.  1.
     -623    1    1    2    0    0 -0.10478733294E+00 -0.16890335111E+00  0.47181618022E+00  0.17130076509E+03  0.17130000000E+03 0.  1.
      622    1    1    2    0    0  0.36755287066E+00 -0.61394212254E-01  0.34038498330E+01  0.36283685104E+01  0.12000000000E+01 0.  1.
</event>
<event>
 5   0  0.5136900E+01  0.9118800E+02  0.7818608E-02  0.1180000E+00
       11   -1    0    0    0    0  0.00000000000E+00  0.00000000000E+00  0.39999999673E+01  0.40000000000E+01  0.51109989000E-03 0.  1.
     -623   -1    0    0    0    0  0.00000000000E+00  0.00000000000E+00  0.12525980253E-10  0.17130000000E+03  0.17130000000E+03 0.  1.
       11    1    1    2    0    0  0.72100957484E-02 -0.13582152538E+00 -0.13792297745E-01  0.13671123193E+00  0.51109989000E-03 0.  1.
     -623    1    1    2    0    0 -0.44514978219E-01  0.23788934408E+00  0.34375071700E+00  0.17130051587E+03  0.17130000000E+03 0.  1.
      622    1    1    2    0    0  0.37304882471E-01 -0.10206781870E+00  0.36700415481E+01  0.38627728976E+01  0.12000000000E+01 0.  1.
</event>
<event>
 5   0  0.5136900E+01  0.9118800E+02  0.7818608E-02  0.1180000E+00
       11   -1    0    0    0    0  0.00000000000E+00  0.00000000000E+00  0.39999999673E+01  0.40000000000E+01  0.51109989000E-03 0.  1.
     -623   -1    0    0    0    0  0.00000000000E+00  0.00000000000E+00  0.12525980253E-10  0.17130000000E+03  0.17130000000E+03 0.  1.
       11    1    1    2    0    0 -0.15856760799E+00 -0.68929544491E-01  0.41510283100E+00  0.44967275872E+00  0.51109989000E-03 0.  1.
     -623    1    1    2    0    0  0.25354824517E+00 -0.21963189894E-01  0.24649344931E+00  0.17130036640E+03  0.17130000000E+03 0.  1.
      622    1    1    2    0    0 -0.94980637185E-01  0.90892734385E-01  0.33384036871E+01  0.35499608432E+01  0.12000000000E+01 0.  1.
</event>
<event>
 5   0  0.5136900E+01  0.9118800E+02  0.7818608E-02  0.1180000E+00
       11   -1    0    0    0    0  0.00000000000E+00  0.00000000000E+00  0.39999999673E+01  0.40000000000E+01  0.51109989000E-03 0. -1.
     -623   -1    0    0    0    0  0.00000000000E+00  0.00000000000E+00  0.12525980253E-10  0.17130000000E+03  0.17130000000E+03 0.  1.
       11    1    1    2    0    0 -0.22676319041E+00 -0.13458629086E+00  0.50663835534E+00  0.57115470631E+00  0.51109989000E-03 0. -1.
     -623    1    1    2    0    0  0.58188560765E+00  0.30369121135E+00  0.30717866727E+00  0.17130153291E+03  0.17130000000E+03 0.  1.
      622    1    1    2    0    0 -0.35512241724E+00 -0.16910492049E+00  0.31861829448E+01  0.34273123819E+01  0.12000000000E+01 0. -1.
</event>
<event>
 5   0  0.5136900E+01  0.9118800E+02  0.7818608E-02  0.1180000E+00
       11   -1    0    0    0    0  0.00000000000E+00  0.00000000000E+00  0.39999999673E+01  0.40000000000E+01  0.51109989000E-03 0.  1.
     -623   -1    0    0    0    0  0.00000000000E+00  0.00000000000E+00  0.12525980253E-10  0.17130000000E+03  0.17130000000E+03 0. -1.
       11    1    1    2    0    0  0.41990753618E-01  0.63768767881E-01  0.73113677835E+00  0.73511286822E+00  0.51109989000E-03 0.  1.
     -623    1    1    2    0    0 -0.76335651865E-01 -0.87145217391E-01  0.23299898306E+00  0.17130019764E+03  0.17130000000E+03 0. -1.
      622    1    1    2    0    0  0.34344898248E-01  0.23376449510E-01  0.30358642060E+01  0.32646894963E+01  0.12000000000E+01 0.  1.
</event>
<event>
 5   0  0.5136900E+01  0.9118800E+02  0.7818608E-02  0.1180000E+00
       11   -1    0    0    0    0  0.00000000000E+00  0.00000000000E+00  0.39999999673E+01  0.40000000000E+01  0.51109989000E-03 0. -1.
     -623   -1    0    0    0    0  0.00000000000E+00  0.00000000000E+00  0.12525980253E-10  0.17130000000E+03  0.17130000000E+03 0. -1.
       11    1    1    2    0    0  0.13738624338E+00 -0.21022964207E+00 -0.32468392300E-01  0.25323100125E+00  0.51109989000E-03 0. -1.
     -623    1    1    2    0    0 -0.28211051551E+00  0.65616276130E-01  0.48996431052E+00  0.17130094558E+03  0.17130000000E+03 0. -1.
      622    1    1    2    0    0  0.14472427214E+00  0.14461336594E+00  0.35425040491E+01  0.37458234180E+01  0.12000000000E+01 0. -1.
</event>
<event>
 5   0  0.5136900E+01  0.9118800E+02  0.7818608E-02  0.1180000E+00
       11   -1    0    0    0    0  0.00000000000E+00  0.00000000000E+00  0.39999999673E+01  0.40000000000E+01  0.51109989000E-03 0. -1.
     -623   -1    0    0    0    0  0.00000000000E+00  0.00000000000E+00  0.12525980253E-10  0.17130000000E+03  0.17130000000E+03 0. -1.
       11    1    1    2    0    0  0.15580124100E+00  0.28619841503E+00  0.10575803677E+01  0.11066435989E+01  0.51109989000E-03 0. -1.
     -623    1    1    2    0    0 -0.23371914034E+00  0.22462923995E+00  0.36162283452E+00  0.17130068842E+03  0.17130000000E+03 0. -1.
      622    1    1    2    0    0  0.77917899338E-01 -0.51082765498E+00  0.25807967651E+01  0.28926679787E+01  0.12000000000E+01 0.  0.
</event>
<event>
 5   0  0.5136900E+01  0.9118800E+02  0.7818608E-02  0.1180000E+00
       11   -1    0    0    0    0  0.00000000000E+00  0.00000000000E+00  0.39999999673E+01  0.40000000000E+01  0.51109989000E-03 0.  1.
     -623   -1    0    0    0    0  0.00000000000E+00  0.00000000000E+00  0.12525980253E-10  0.17130000000E+03  0.17130000000E+03 0. -1.
       11    1    1    2    0    0 -0.16961080633E+00  0.46744432543E-01  0.35507730644E+00  0.39627392341E+00  0.51109989000E-03 0.  1.
     -623    1    1    2    0    0  0.33238135743E+00 -0.27074100971E-01  0.25135639742E+00  0.17130050902E+03  0.17130000000E+03 0. -1.
      622    1    1    2    0    0 -0.16277055109E+00 -0.19670331572E-01  0.33935662635E+01  0.36032170569E+01  0.12000000000E+01 0.  1.
</event>
<event>
 5   0  0.5136900E+01  0.9118800E+02  0.7818608E-02  0.1180000E+00
       11   -1    0    0    0    0  0.00000000000E+00  0.00000000000E+00  0.39999999673E+01  0.40000000000E+01  0.51109989000E-03 0. -1.
     -623   -1    0    0    0    0  0.00000000000E+00  0.00000000000E+00  0.12525980253E-10  0.17130000000E+03  0.17130000000E+03 0.  1.
       11    1    1    2    0    0  0.12131443836E+00 -0.18674193377E-01  0.13722402392E+00  0.18411032675E+00  0.51109989000E-03 0. -1.
     -623    1    1    2    0    0 -0.10409360311E+00 -0.17184521308E-01  0.24091305223E+00  0.17130020190E+03  0.17130000000E+03 0.  1.
      622    1    1    2    0    0 -0.17220835246E-01  0.35858714685E-01  0.36218628912E+01  0.38156877764E+01  0.12000000000E+01 0. -1.
</event>
<event>
 5   0  0.5136900E+01  0.9118800E+02  0.7818608E-02  0.1180000E+00
       11   -1    0    0    0    0  0.00000000000E+00  0.00000000000E+00  0.39999999673E+01  0.40000000000E+01  0.51109989000E-03 0.  1.
     -623   -1    0    0    0    0  0.00000000000E+00  0.00000000000E+00  0.12525980253E-10  0.17130000000E+03  0.17130000000E+03 0.  1.
       11    1    1    2    0    0  0.13676198690E-01  0.94722762598E-01  0.13586467648E+00  0.16618938504E+00  0.51109989000E-03 0.  1.
     -623    1    1    2    0    0 -0.12643723808E+00 -0.55761968203E+00  0.25548750268E+00  0.17130114477E+03  0.17130000000E+03 0.  1.
      622    1    1    2    0    0  0.11276103939E+00  0.46289691943E+00  0.36086477882E+01  0.38326658437E+01  0.12000000000E+01 0.  1.
</event>
<event>
 5   0  0.5136900E+01  0.9118800E+02  0.7818608E-02  0.1180000E+00
       11   -1    0    0    0    0  0.00000000000E+00  0.00000000000E+00  0.39999999673E+01  0.40000000000E+01  0.51109989000E-03 0.  1.
     -623   -1    0    0    0    0  0.00000000000E+00  0.00000000000E+00  0.12525980253E-10  0.17130000000E+03  0.17130000000E+03 0. -1.
       11    1    1    2    0    0  0.14230661182E+00 -0.20883842674E-01  0.13005805220E-01  0.14441855436E+00  0.51109989000E-03 0.  1.
     -623    1    1    2    0    0 -0.34570616245E-01 -0.24337430784E+00  0.33457173469E+00  0.17130050311E+03  0.17130000000E+03 0. -1.
      622    1    1    2    0    0 -0.10773599557E+00  0.26425815051E+00  0.36524224275E+01  0.38550783395E+01  0.12000000000E+01 0.  1.
</event>
<event>
 5   0  0.5136900E+01  0.9118800E+02  0.7818608E-02  0.1180000E+00
       11   -1    0    0    0    0  0.00000000000E+00  0.00000000000E+00  0.39999999673E+01  0.40000000000E+01  0.51109989000E-03 0. -1.
     -623   -1    0    0    0    0  0.00000000000E+00  0.00000000000E+00  0.12525980253E-10  0.17130000000E+03  0.17130000000E+03 0.  1.
       11    1    1    2    0    0 -0.65658092796E-01  0.18984839866E-01 -0.10333642112E-01  0.69126367438E-01  0.51109989000E-03 0. -1.
     -623    1    1    2    0    0  0.17530730106E+00 -0.10064873449E+00  0.26995050739E+00  0.17130033198E+03  0.17130000000E+03 0.  1.
      622    1    1    2    0    0 -0.10964920826E+00  0.81663894625E-01  0.37403831021E+01  0.39305416536E+01  0.12000000000E+01 0. -1.
</event>
<event>
 5   0  0.5136900E+01  0.9118800E+02  0.7818608E-02  0.1180000E+00
       11   -1    0    0    0    0  0.00000000000E+00  0.00000000000E+00  0.39999999673E+01  0.40000000000E+01  0.51109989000E-03 0.  1.
     -623   -1    0    0    0    0  0.00000000000E+00  0.00000000000E+00  0.12525980253E-10  0.17130000000E+03  0.17130000000E+03 0. -1.
       11    1    1    2    0    0 -0.47870592037E-02 -0.17682818006E-01  0.71445758180E-01  0.73758766064E-01  0.51109989000E-03 0.  1.
     -623    1    1    2    0    0 -0.11377809655E+00  0.11138023651E+00  0.19343778896E+00  0.17130018321E+03  0.17130000000E+03 0. -1.
      622    1    1    2    0    0  0.11856515576E+00 -0.93697418507E-01  0.37351164202E+01  0.39260580198E+01  0.12000000000E+01 0.  1.
</event>
<event>
 5   0  0.5136900E+01  0.9118800E+02  0.7818608E-02  0.1180000E+00
       11   -1    0    0    0    0  0.00000000000E+00  0.00000000000E+00  0.39999999673E+01  0.40000000000E+01  0.51109989000E-03 0. -1.
     -623   -1    0    0    0    0  0.00000000000E+00  0.00000000000E+00  0.12525980253E-10  0.17130000000E+03  0.17130000000E+03 0.  1.
       11    1    1    2    0    0 -0.68082066024E-01 -0.20821754588E-01  0.32467009215E-01  0.78250118762E-01  0.51109989000E-03 0. -1.
     -623    1    1    2    0    0  0.76631725198E-01 -0.51957044594E-01  0.23480019316E+00  0.17130018594E+03  0.17130000000E+03 0.  1.
      622    1    1    2    0    0 -0.85496591737E-02  0.72778799182E-01  0.37327327650E+01  0.39215639412E+01  0.12000000000E+01 0. -1.
</event>
<event>
 5   0  0.5136900E+01  0.9118800E+02  0.7818608E-02  0.1180000E+00
       11   -1    0    0    0    0  0.00000000000E+00  0.00000000000E+00  0.39999999673E+01  0.40000000000E+01  0.51109989000E-03 0.  1.
     -623   -1    0    0    0    0  0.00000000000E+00  0.00000000000E+00  0.12525980253E-10  0.17130000000E+03  0.17130000000E+03 0.  1.
       11    1    1    2    0    0 -0.35689549035E+00 -0.46276706966E-01  0.65106524926E+00  0.74391003801E+00  0.51109989000E-03 0.  1.
     -623    1    1    2    0    0  0.17575417416E+00  0.89127593841E-01  0.32822491233E+00  0.17130042780E+03  0.17130000000E+03 0.  1.
      622    1    1    2    0    0  0.18114131619E+00 -0.42850886875E-01  0.30207098058E+01  0.32556621609E+01  0.12000000000E+01 0.  1.
</event>
<event>
 5   0  0.5136900E+01  0.9118800E+02  0.7818608E-02  0.1180000E+00
       11   -1    0    0    0    0  0.00000000000E+00  0.00000000000E+00  0.39999999673E+01  0.40000000000E+01  0.51109989000E-03 0.  1.
     -623   -1    0    0    0    0  0.00000000000E+00  0.00000000000E+00  0.12525980253E-10  0.17130000000E+03  0.17130000000E+03 0.  1.
       11    1    1    2    0    0  0.75744295754E-01  0.21681677701E+00  0.18363873702E+00  0.29405808965E+00  0.51109989000E-03 0.  1.
     -623    1    1    2    0    0 -0.26539996152E+00 -0.19430776292E+00  0.31592841415E+00  0.17130060713E+03  0.17130000000E+03 0.  1.
      622    1    1    2    0    0  0.18965566577E+00 -0.22509014087E-01  0.35004328162E+01  0.37053347795E+01  0.12000000000E+01 0.  1.
</event>
<event>
 5   0  0.5136900E+01  0.9118800E+02  0.7818608E-02  0.1180000E+00
       11   -1    0    0    0    0  0.00000000000E+00  0.00000000000E+00  0.39999999673E+01  0.40000000000E+01  0.51109989000E-03 0. -1.
     -623   -1    0    0    0    0  0.00000000000E+00  0.00000000000E+00  0.12525980253E-10  0.17130000000E+03  0.17130000000E+03 0. -1.
       11    1    1    2    0    0 -0.11449707995E+00  0.17250424071E+00 -0.45850262239E-01  0.21206084540E+00  0.51109989000E-03 0. -1.
     -623    1    1    2    0    0  0.33328329321E+00  0.58184452861E-01  0.46813837764E+00  0.17130097378E+03  0.17130000000E+03 0. -1.
      622    1    1    2    0    0 -0.21878621326E+00 -0.23068869357E+00  0.35777118520E+01  0.37869653783E+01  0.12000000000E+01 0. -1.
</event>
<event>
 5   0  0.5136900E+01  0.9118800E+02  0.7818608E-02  0.1180000E+00
       11   -1    0    0    0    0  0.00000000000E+00  0.00000000000E+00  0.39999999673E+01  0.40000000000E+01  0.51109989000E-03 0.  1.
     -623   -1    0    0    0    0  0.00000000000E+00  0.00000000000E+00  0.12525980253E-10  0.17130000000E+03  0.17130000000E+03 0. -1.
       11    1    1    2    0    0 -0.65395731567E-01  0.10923918645E-01  0.64604747506E-01  0.92574123432E-01  0.51109989000E-03 0.  1.
     -623    1    1    2    0    0 -0.80720066416E-01  0.18222360140E+00  0.22496926831E+00  0.17130026367E+03  0.17130000000E+03 0. -1.
      622    1    1    2    0    0  0.14611579798E+00 -0.19314752005E+00  0.37104259515E+01  0.39071622097E+01  0.12000000000E+01 0.  1.
</event>
<event>
 5   0  0.5136900E+01  0.9118800E+02  0.7818608E-02  0.1180000E+00
       11   -1    0    0    0    0  0.00000000000E+00  0.00000000000E+00  0.39999999673E+01  0.40000000000E+01  0.51109989000E-03 0. -1.
     -623   -1    0    0    0    0  0.00000000000E+00  0.00000000000E+00  0.12525980253E-10  0.17130000000E+03  0.17130000000E+03 0. -1.
       11    1    1    2    0    0  0.77909173437E-01  0.10610808952E+00 -0.41073163632E-01  0.13789862930E+00  0.51109989000E-03 0. -1.
     -623    1    1    2    0    0  0.36362457891E-01  0.56904526984E-01  0.37598020679E+00  0.17130042592E+03  0.17130000000E+03 0. -1.
      622    1    1    2    0    0 -0.11427163133E+00 -0.16301261651E+00  0.36650929242E+01  0.38616754475E+01  0.12000000000E+01 0. -1.
</event>
<event>
 5   0  0.5136900E+01  0.9118800E+02  0.7818608E-02  0.1180000E+00
       11   -1    0    0    0    0  0.00000000000E+00  0.00000000000E+00  0.39999999673E+01  0.40000000000E+01  0.51109989000E-03 0.  1.
     -623   -1    0    0    0    0  0.00000000000E+00  0.00000000000E+00  0.12525980253E-10  0.17130000000E+03  0.17130000000E+03 0. -1.
       11    1    1    2    0    0  0.90857480006E-01  0.70121852968E-01  0.99993497679E-01  0.15222061863E+00  0.51109989000E-03 0.  1.
     -623    1    1    2    0    0 -0.59663190370E-01 -0.97237534149E-01  0.24459107197E+00  0.17130021261E+03  0.17130000000E+03 0. -1.
      622    1    1    2    0    0 -0.31194289636E-01  0.27115681182E-01  0.36554153977E+01  0.38475667731E+01  0.12000000000E+01 0.  1.
</event>
<event>
 5   0  0.5136900E+01  0.9118800E+02  0.7818608E-02  0.1180000E+00
       11   -1    0    0    0    0  0.00000000000E+00  0.00000000000E+00  0.39999999673E+01  0.40000000000E+01  0.51109989000E-03 0. -1.
     -623   -1    0    0    0    0  0.00000000000E+00  0.00000000000E+00  0.12525980253E-10  0.17130000000E+03  0.17130000000E+03 0.  1.
       11    1    1    2    0    0  0.34175272902E+00  0.28300160621E+00  0.52769028626E+00  0.68945060472E+00  0.51109989000E-03 0. -1.
     -623    1    1    2    0    0  0.11960472751E-02 -0.19651358980E+00  0.40788772050E+00  0.17130059834E+03  0.17130000000E+03 0.  1.
      622    1    1    2    0    0 -0.34294877629E+00 -0.86488016415E-01  0.30644219606E+01  0.33099510559E+01  0.12000000000E+01 0.  0.
</event>
<event>
 5   0  0.5136900E+01  0.9118800E+02  0.7818608E-02  0.1180000E+00
       11   -1    0    0    0    0  0.00000000000E+00  0.00000000000E+00  0.39999999673E+01  0.40000000000E+01  0.51109989000E-03 0.  1.
     -623   -1    0    0    0    0  0.00000000000E+00  0.00000000000E+00  0.12525980253E-10  0.17130000000E+03  0.17130000000E+03 0. -1.
       11    1    1    2    0    0 -0.94529378646E-01 -0.12802045444E+00  0.14370915688E+00  0.21442393331E+00  0.51109989000E-03 0.  1.
     -623    1    1    2    0    0  0.72394211465E-01  0.51979051474E-01  0.26706216538E+00  0.17130023136E+03  0.17130000000E+03 0. -1.
      622    1    1    2    0    0  0.22135167181E-01  0.76041402967E-01  0.35892286451E+01  0.37853447039E+01  0.12000000000E+01 0.  1.
</event>
<event>
 5   0  0.5136900E+01  0.9118800E+02  0.7818608E-02  0.1180000E+00
       11   -1    0    0    0    0  0.00000000000E+00  0.00000000000E+00  0.39999999673E+01  0.40000000000E+01  0.51109989000E-03 0. -1.
     -623   -1    0    0    0    0  0.00000000000E+00  0.00000000000E+00  0.12525980253E-10  0.17130000000E+03  0.17130000000E+03 0.  1.
       11    1    1    2    0    0 -0.24538251975E-02  0.30915703113E-01  0.89538506135E-01  0.94758679069E-01  0.51109989000E-03 0. -1.
     -623    1    1    2    0    0  0.77612250423E-01 -0.13018366145E+00  0.19643352355E+00  0.17130017968E+03  0.17130000000E+03 0.  1.
      622    1    1    2    0    0 -0.75158425226E-01  0.99267958340E-01  0.37140279377E+01  0.39050616433E+01  0.12000000000E+01 0. -1.
</event>
<event>
 5   0  0.5136900E+01  0.9118800E+02  0.7818608E-02  0.1180000E+00
       11   -1    0    0    0    0  0.00000000000E+00  0.00000000000E+00  0.39999999673E+01  0.40000000000E+01  0.51109989000E-03 0.  1.
     -623   -1    0    0    0    0  0.00000000000E+00  0.00000000000E+00  0.12525980253E-10  0.17130000000E+03  0.17130000000E+03 0. -1.
       11    1    1    2    0    0 -0.63021380264E-01  0.19514120914E-01  0.11320882454E+00  0.13103050965E+00  0.51109989000E-03 0.  1.
     -623    1    1    2    0    0  0.66254112925E-01 -0.19981842275E+00  0.21332191684E+00  0.17130026218E+03  0.17130000000E+03 0. -1.
      622    1    1    2    0    0 -0.32327326610E-02  0.18030430184E+00  0.36734692260E+01  0.38687073094E+01  0.12000000000E+01 0.  1.
</event>
<event>
 5   0  0.5136900E+01  0.9118800E+02  0.7818608E-02  0.1180000E+00
       11   -1    0    0    0    0  0.00000000000E+00  0.00000000000E+00  0.39999999673E+01  0.40000000000E+01  0.51109989000E-03 0. -1.
     -623   -1    0    0    0    0  0.00000000000E+00  0.00000000000E+00  0.12525980253E-10  0.17130000000E+03  0.17130000000E+03 0. -1.
       11    1    1    2    0    0  0.10943485792E+00 -0.14016385041E+00  0.20804202126E-01  0.17903901569E+00  0.51109989000E-03 0. -1.
     -623    1    1    2    0    0 -0.44276212175E-01  0.17469166662E+00  0.35279195519E+00  0.17130045808E+03  0.17130000000E+03 0. -1.
      622    1    1    2    0    0 -0.65158645749E-01 -0.34527816214E-01  0.36264038100E+01  0.38205029005E+01  0.12000000000E+01 0. -1.
</event>
<event>
 5   0  0.5136900E+01  0.9118800E+02  0.7818608E-02  0.1180000E+00
       11   -1    0    0    0    0  0.00000000000E+00  0.00000000000E+00  0.39999999673E+01  0.40000000000E+01  0.51109989000E-03 0.  1.
     -623   -1    0    0    0    0  0.00000000000E+00  0.00000000000E+00  0.12525980253E-10  0.17130000000E+03  0.17130000000E+03 0. -1.
       11    1    1    2    0    0 -0.35671622264E-01 -0.58930595334E-03  0.31589815113E-01  0.47654900676E-01  0.51109989000E-03 0.  1.
     -623    1    1    2    0    0  0.16418454383E+00 -0.72780382309E-01  0.20577650173E+00  0.17130021774E+03  0.17130000000E+03 0. -1.
      622    1    1    2    0    0 -0.12851292157E+00  0.73369688262E-01  0.37626336505E+01  0.39521273601E+01  0.12000000000E+01 0.  1.
</event>
<event>
 5   0  0.5136900E+01  0.9118800E+02  0.7818608E-02  0.1180000E+00
       11   -1    0    0    0    0  0.00000000000E+00  0.00000000000E+00  0.39999999673E+01  0.40000000000E+01  0.51109989000E-03 0.  1.
     -623   -1    0    0    0    0  0.00000000000E+00  0.00000000000E+00  0.12525980253E-10  0.17130000000E+03  0.17130000000E+03 0.  1.
       11    1    1    2    0    0 -0.20294975500E+00 -0.61540255603E-02  0.21765409954E+00  0.29765759415E+00  0.51109989000E-03 0.  1.
     -623    1    1    2    0    0  0.25087048821E+00  0.56984726602E-01  0.28101439124E+00  0.17130042368E+03  0.17130000000E+03 0.  1.
      622    1    1    2    0    0 -0.47920733204E-01 -0.50830701042E-01  0.35013314766E+01  0.37019187276E+01  0.12000000000E+01 0.  1.
</event>
<event>
 5   0  0.5136900E+01  0.9118800E+02  0.7818608E-02  0.1180000E+00
       11   -1    0    0    0    0  0.00000000000E+00  0.00000000000E+00  0.39999999673E+01  0.40000000000E+01  0.51109989000E-03 0. -1.
     -623   -1    0    0    0    0  0.00000000000E+00  0.00000000000E+00  0.12525980253E-10  0.17130000000E+03  0.17130000000E+03 0.  1.
       11    1    1    2    0    0 -0.76755002342E-01 -0.63866006219E-01  0.11929276890E+00  0.15556742290E+00  0.51109989000E-03 0. -1.
     -623    1    1    2    0    0 -0.11792697696E+00  0.20562794076E+00  0.23665087178E+00  0.17130032748E+03  0.17130000000E+03 0.  1.
      622    1    1    2    0    0  0.19468197930E+00 -0.14176193454E+00  0.36440563267E+01  0.38441051015E+01  0.12000000000E+01 0. -1.
</event>
<event>
 5   0  0.5136900E+01  0.9118800E+02  0.7818608E-02  0.1180000E+00
       11   -1    0    0    0    0  0.00000000000E+00  0.00000000000E+00  0.39999999673E+01  0.40000000000E+01  0.51109989000E-03 0. -1.
     -623   -1    0    0    0    0  0.00000000000E+00  0.00000000000E+00  0.12525980253E-10  0.17130000000E+03  0.17130000000E+03 0. -1.
       11    1    1    2    0    0  0.14137461948E-02 -0.11796518699E+00  0.73630209298E+00  0.74569351437E+00  0.51109989000E-03 0. -1.
     -623    1    1    2    0    0  0.10660999528E-02  0.68478316806E-01  0.23931719752E+00  0.17130018086E+03  0.17130000000E+03 0. -1.
      622    1    1    2    0    0 -0.24798461476E-02  0.49486870179E-01  0.30243806769E+01  0.32541256243E+01  0.12000000000E+01 0. -1.
</event>
<event>
 5   0  0.5136900E+01  0.9118800E+02  0.7818608E-02  0.1180000E+00
       11   -1    0    0    0    0  0.00000000000E+00  0.00000000000E+00  0.39999999673E+01  0.40000000000E+01  0.51109989000E-03 0. -1.
     -623   -1    0    0    0    0  0.00000000000E+00  0.00000000000E+00  0.12525980253E-10  0.17130000000E+03  0.17130000000E+03 0.  1.
       11    1    1    2    0    0 -0.97964391540E-01  0.23299141534E+00 -0.23797151290E-01  0.25386726308E+00  0.51109989000E-03 0. -1.
     -623    1    1    2    0    0 -0.25551373873E+00  0.68688765475E-01  0.50663783619E+00  0.17130095355E+03  0.17130000000E+03 0.  1.
      622    1    1    2    0    0  0.35347813027E+00 -0.30168018082E+00  0.35171592825E+01  0.37451791864E+01  0.12000000000E+01 0. -1.
</event>
<event>
 5   0  0.5136900E+01  0.9118800E+02  0.7818608E-02  0.1180000E+00
       11   -1    0    0    0    0  0.00000000000E+00  0.00000000000E+00  0.39999999673E+01  0.40000000000E+01  0.51109989000E-03 0.  1.
     -623   -1    0    0    0    0  0.00000000000E+00  0.00000000000E+00  0.12525980253E-10  0.17130000000E+03  0.17130000000E+03 0. -1.
       11    1    1    2    0    0 -0.21257960293E-01 -0.30198162786E-01  0.13883322755E-01  0.39456783768E-01  0.51109989000E-03 0.  1.
     -623    1    1    2    0    0  0.13973641615E-01  0.12971089251E+00  0.21325277265E+00  0.17130018242E+03  0.17130000000E+03 0. -1.
      622    1    1    2    0    0  0.72843186780E-02 -0.99512729719E-01  0.37728638720E+01  0.39603607968E+01  0.12000000000E+01 0.  1.
</event>
<event>
 5   0  0.5136900E+01  0.9118800E+02  0.7818608E-02  0.1180000E+00
       11   -1    0    0    0    0  0.00000000000E+00  0.00000000000E+00  0.39999999673E+01  0.40000000000E+01  0.51109989000E-03 0. -1.
     -623   -1    0    0    0    0  0.00000000000E+00  0.00000000000E+00  0.12525980253E-10  0.17130000000E+03  0.17130000000E+03 0.  1.
       11    1    1    2    0    0 -0.52315526966E-01  0.51531151853E-02  0.83694547289E-01  0.98835759856E-01  0.51109989000E-03 0. -1.
     -623    1    1    2    0    0  0.30432941993E+00  0.10153760658E+00  0.21484713256E+00  0.17130043516E+03  0.17130000000E+03 0.  1.
      622    1    1    2    0    0 -0.25201389297E+00 -0.10669072176E+00  0.37014582875E+01  0.39007290814E+01  0.12000000000E+01 0. -1.
</event>
<event>
 5   0  0.5136900E+01  0.9118800E+02  0.7818608E-02  0.1180000E+00
       11   -1    0    0    0    0  0.00000000000E+00  0.00000000000E+00  0.39999999673E+01  0.40000000000E+01  0.51109989000E-03 0.  1.
     -623   -1    0    0    0    0  0.00000000000E+00  0.00000000000E+00  0.12525980253E-10  0.17130000000E+03  0.17130000000E+03 0. -1.
       11    1    1    2    0    0  0.66856804754E-02 -0.24913660868E-01 -0.19466777502E-01  0.32320356891E-01  0.51109989000E-03 0.  1.
     -623    1    1    2    0    0  0.33218544017E-01 -0.44592479680E-01  0.23863777815E+00  0.17130017525E+03  0.17130000000E+03 0. -1.
      622    1    1    2    0    0 -0.39904224493E-01  0.69506140548E-01  0.37808289667E+01  0.39675043952E+01  0.12000000000E+01 0.  1.
</event>
<event>
 5   0  0.5136900E+01  0.9118800E+02  0.7818608E-02  0.1180000E+00
       11   -1    0    0    0    0  0.00000000000E+00  0.00000000000E+00  0.39999999673E+01  0.40000000000E+01  0.51109989000E-03 0. -1.
     -623   -1    0    0    0    0  0.00000000000E+00  0.00000000000E+00  0.12525980253E-10  0.17130000000E+03  0.17130000000E+03 0. -1.
       11    1    1    2    0    0 -0.11495991083E+00 -0.81070892716E-01  0.50871516267E+00  0.52780645003E+00  0.51109989000E-03 0. -1.
     -623    1    1    2    0    0 -0.25680424810E+00  0.85852568547E+00  0.35206488342E+00  0.17130270565E+03  0.17130000000E+03 0. -1.
      622    1    1    2    0    0  0.37176415892E+00 -0.77745479276E+00  0.31392199213E+01  0.34694878957E+01  0.12000000000E+01 0.  0.
</event>
<event>
 5   0  0.5136900E+01  0.9118800E+02  0.7818608E-02  0.1180000E+00
       11   -1    0    0    0    0  0.00000000000E+00  0.00000000000E+00  0.39999999673E+01  0.40000000000E+01  0.51109989000E-03 0. -1.
     -623   -1    0    0    0    0  0.00000000000E+00  0.00000000000E+00  0.12525980253E-10  0.17130000000E+03  0.17130000000E+03 0.  1.
       11    1    1    2    0    0 -0.38722858532E-01  0.87223607315E-01  0.58574738676E+00  0.59347087524E+00  0.51109989000E-03 0. -1.
     -623    1    1    2    0    0  0.37699867338E+00  0.36493460200E+00  0.27760519244E+00  0.17130102851E+03  0.17130000000E+03 0.  1.
      622    1    1    2    0    0 -0.33827581485E+00 -0.45215820931E+00  0.31366473882E+01  0.34055006109E+01  0.12000000000E+01 0. -1.
</event>
<event>
 5   0  0.5136900E+01  0.9118800E+02  0.7818608E-02  0.1180000E+00
       11   -1    0    0    0    0  0.00000000000E+00  0.00000000000E+00  0.39999999673E+01  0.40000000000E+01  0.51109989000E-03 0.  1.
     -623   -1    0    0    0    0  0.00000000000E+00  0.00000000000E+00  0.12525980253E-10  0.17130000000E+03  0.17130000000E+03 0. -1.
       11    1    1    2    0    0 -0.44607270279E-01 -0.12671192355E+00  0.17065961409E+00  0.21718813328E+00  0.51109989000E-03 0.  1.
     -623    1    1    2    0    0 -0.14291125484E+00  0.25997051747E+00  0.24975604937E+00  0.17130043896E+03  0.17130000000E+03 0. -1.
      622    1    1    2    0    0  0.18751852512E+00 -0.13325859392E+00  0.35795843039E+01  0.37823729111E+01  0.12000000000E+01 0.  1.
</event>
<event>
 5   0  0.5136900E+01  0.9118800E+02  0.7818608E-02  0.1180000E+00
       11   -1    0    0    0    0  0.00000000000E+00  0.00000000000E+00  0.39999999673E+01  0.40000000000E+01  0.51109989000E-03 0. -1.
     -623   -1    0    0    0    0  0.00000000000E+00  0.00000000000E+00  0.12525980253E-10  0.17130000000E+03  0.17130000000E+03 0.  1.
       11    1    1    2    0    0 -0.19889894685E-01 -0.13794429255E-01 -0.43822962312E-01  0.50066030778E-01  0.51109989000E-03 0. -1.
     -623    1    1    2    0    0 -0.12068974522E-01  0.44047659090E-01  0.28108830952E+00  0.17130023671E+03  0.17130000000E+03 0.  1.
      622    1    1    2    0    0  0.31958869208E-01 -0.30253229836E-01  0.37627346201E+01  0.39496972604E+01  0.12000000000E+01 0. -1.
</event>
<event>
 5   0  0.5136900E+01  0.9118800E+02  0.7818608E-02  0.1180000E+00
       11   -1    0    0    0    0  0.00000000000E+00  0.00000000000E+00  0.39999999673E+01  0.40000000000E+01  0.51109989000E-03 0. -1.
     -623   -1    0    0    0    0  0.00000000000E+00  0.00000000000E+00  0.12525980253E-10  0.17130000000E+03  0.17130000000E+03 0. -1.
       11    1    1    2    0    0 -0.16034624470E+00  0.58979305844E-01  0.94566973596E-01  0.19527583165E+00  0.51109989000E-03 0. -1.
     -623    1    1    2    0    0  0.18377212990E+00 -0.79958268679E-01  0.29543208384E+00  0.17130037200E+03  0.17130000000E+03 0. -1.
      622    1    1    2    0    0 -0.23425885198E-01  0.20978962836E-01  0.36100009099E+01  0.38043521733E+01  0.12000000000E+01 0. -1.
</event>
<event>
 5   0  0.5136900E+01  0.9118800E+02  0.7818608E-02  0.1180000E+00
       11   -1    0    0    0    0  0.00000000000E+00  0.00000000000E+00  0.39999999673E+01  0.40000000000E+01  0.51109989000E-03 0. -1.
     -623   -1    0    0    0    0  0.00000000000E+00  0.00000000000E+00  0.12525980253E-10  0.17130000000E+03  0.17130000000E+03 0.  1.
       11    1    1    2    0    0 -0.23220687327E-01  0.18362847687E+00  0.83391619316E-01  0.20300995353E+00  0.51109989000E-03 0. -1.
     -623    1    1    2    0    0  0.17081895833E+00  0.28090621227E-02  0.32249690291E+00  0.17130038877E+03  0.17130000000E+03 0.  1.
      622    1    1    2    0    0 -0.14759827101E+00 -0.18643753899E+00  0.35941114451E+01  0.37966012808E+01  0.12000000000E+01 0. -1.
</event>
<event>
 5   0  0.5136900E+01  0.9118800E+02  0.7818608E-02  0.1180000E+00
       11   -1    0    0    0    0  0.00000000000E+00  0.00000000000E+00  0.39999999673E+01  0.40000000000E+01  0.51109989000E-03 0. -1.
     -623   -1    0    0    0    0  0.00000000000E+00  0.00000000000E+00  0.12525980253E-10  0.17130000000E+03  0.17130000000E+03 0. -1.
       11    1    1    2    0    0  0.13817906655E+00 -0.69709687304E-01  0.58944142369E-01  0.16561270507E+00  0.51109989000E-03 0. -1.
     -623    1    1    2    0    0  0.13138741322E+00  0.28310890105E+00  0.31615540277E+00  0.17130057609E+03  0.17130000000E+03 0. -1.
      622    1    1    2    0    0 -0.26956647977E+00 -0.21339921375E+00  0.36249004222E+01  0.38338112085E+01  0.12000000000E+01 0. -1.
</event>
<event>
 5   0  0.5136900E+01  0.9118800E+02  0.7818608E-02  0.1180000E+00
       11   -1    0    0    0    0  0.00000000000E+00  0.00000000000E+00  0.39999999673E+01  0.40000000000E+01  0.51109989000E-03 0.  1.
     -623   -1    0    0    0    0  0.00000000000E+00  0.00000000000E+00  0.12525980253E-10  0.17130000000E+03  0.17130000000E+03 0. -1.
       11    1    1    2    0    0 -0.47842161615E-01  0.58617654576E-01  0.15313204874E-01  0.77198816848E-01  0.51109989000E-03 0.  1.
     -623    1    1    2    0    0  0.90307744004E-01 -0.16970289919E-01  0.25062737262E+00  0.17130020799E+03  0.17130000000E+03 0. -1.
      622    1    1    2    0    0 -0.42465582388E-01 -0.41647364657E-01  0.37340593899E+01  0.39225931927E+01  0.12000000000E+01 0.  1.
</event>
<event>
 5   0  0.5136900E+01  0.9118800E+02  0.7818608E-02  0.1180000E+00
       11   -1    0    0    0    0  0.00000000000E+00  0.00000000000E+00  0.39999999673E+01  0.40000000000E+01  0.51109989000E-03 0.  1.
     -623   -1    0    0    0    0  0.00000000000E+00  0.00000000000E+00  0.12525980253E-10  0.17130000000E+03  0.17130000000E+03 0. -1.
       11    1    1    2    0    0 -0.16432334613E+00 -0.19004817078E+00  0.39445658390E+00  0.46767160178E+00  0.51109989000E-03 0.  1.
     -623    1    1    2    0    0  0.21678396243E+00  0.12143207461E+00  0.28486011227E+00  0.17130041706E+03  0.17130000000E+03 0. -1.
      622    1    1    2    0    0 -0.52460616302E-01  0.68616096169E-01  0.33206832712E+01  0.35319113342E+01  0.12000000000E+01 0.  1.
</event>
<event>
 5   0  0.5136900E+01  0.9118800E+02  0.7818608E-02  0.1180000E+00
       11   -1    0    0    0    0  0.00000000000E+00  0.00000000000E+00  0.39999999673E+01  0.40000000000E+01  0.51109989000E-03 0.  1.
     -623   -1    0    0    0    0  0.00000000000E+00  0.00000000000E+00  0.12525980253E-10  0.17130000000E+03  0.17130000000E+03 0. -1.
       11    1    1    2    0    0 -0.76359877899E-01 -0.52695993141E-01  0.55371707022E-01  0.10804622070E+00  0.51109989000E-03 0.  1.
     -623    1    1    2    0    0  0.21143418055E-01 -0.70432710394E-01  0.24495143353E+00  0.17130019092E+03  0.17130000000E+03 0. -1.
      622    1    1    2    0    0  0.55216459844E-01  0.12312870354E+00  0.36996768268E+01  0.38917628599E+01  0.12000000000E+01 0.  1.
</event>
<event>
 5   0  0.5136900E+01  0.9118800E+02  0.7818608E-02  0.1180000E+00
       11   -1    0    0    0    0  0.00000000000E+00  0.00000000000E+00  0.39999999673E+01  0.40000000000E+01  0.51109989000E-03 0. -1.
     -623   -1    0    0    0    0  0.00000000000E+00  0.00000000000E+00  0.12525980253E-10  0.17130000000E+03  0.17130000000E+03 0. -1.
       11    1    1    2    0    0  0.15935172302E+00 -0.86629832144E-01  0.33869636730E+00  0.38420461982E+00  0.51109989000E-03 0. -1.
     -623    1    1    2    0    0  0.64837900923E-01  0.35606421147E+00  0.26913217426E+00  0.17130059375E+03  0.17130000000E+03 0. -1.
      622    1    1    2    0    0 -0.22418962394E+00 -0.26943437932E+00  0.33921714258E+01  0.36152016340E+01  0.12000000000E+01 0. -1.
</event>
<event>
 5   0  0.5136900E+01  0.9118800E+02  0.7818608E-02  0.1180000E+00
       11   -1    0    0    0    0  0.00000000000E+00  0.00000000000E+00  0.39999999673E+01  0.40000000000E+01  0.51109989000E-03 0. -1.
     -623   -1    0    0    0    0  0.00000000000E+00  0.00000000000E+00  0.12525980253E-10  0.17130000000E+03  0.17130000000E+03 0.  1.
       11    1    1    2    0    0 -0.22417167620E-01 -0.56667129377E-01  0.23737037667E+00  0.24506866364E+00  0.51109989000E-03 0. -1.
     -623    1    1    2    0    0 -0.38096881345E+00  0.27353239251E+00  0.23506293520E+00  0.17130080330E+03  0.17130000000E+03 0.  1.
      622    1    1    2    0    0  0.40338598107E+00 -0.21686526313E+00  0.35275666555E+01  0.37541280347E+01  0.12000000000E+01 0. -1.
</event>
<event>
 5   0  0.5136900E+01  0.9118800E+02  0.7818608E-02  0.1180000E+00
       11   -1    0    0    0    0  0.00000000000E+00  0.00000000000E+00  0.39999999673E+01  0.40000000000E+01  0.51109989000E-03 0.  1.
     -623   -1    0    0    0    0  0.00000000000E+00  0.00000000000E+00  0.12525980253E-10  0.17130000000E+03  0.17130000000E+03 0. -1.
       11    1    1    2    0    0  0.13540829730E+00 -0.24090014326E+00  0.85401267146E+00  0.89761138041E+00  0.51109989000E-03 0.  1.
     -623    1    1    2    0    0 -0.89773826236E-01  0.40958855148E+00  0.29124441046E+00  0.17130076078E+03  0.17130000000E+03 0. -1.
      622    1    1    2    0    0 -0.45634471067E-01 -0.16868840822E+00  0.28547428854E+01  0.31016278349E+01  0.12000000000E+01 0. -1.
</event>
<event>
 5   0  0.5136900E+01  0.9118800E+02  0.7818608E-02  0.1180000E+00
       11   -1    0    0    0    0  0.00000000000E+00  0.00000000000E+00  0.39999999673E+01  0.40000000000E+01  0.51109989000E-03 0.  1.
     -623   -1    0    0    0    0  0.00000000000E+00  0.00000000000E+00  0.12525980253E-10  0.17130000000E+03  0.17130000000E+03 0.  1.
       11    1    1    2    0    0 -0.50617533212E-01  0.22927840521E+00  0.32904149456E+00  0.40422677809E+00  0.51109989000E-03 0.  1.
     -623    1    1    2    0    0  0.87343931876E-01 -0.90149389539E-01  0.28468508375E+00  0.17130028255E+03  0.17130000000E+03 0.  1.
      622    1    1    2    0    0 -0.36726398664E-01 -0.13912901567E+00  0.33862733891E+01  0.35954906726E+01  0.12000000000E+01 0.  1.
</event>
<event>
 5   0  0.5136900E+01  0.9118800E+02  0.7818608E-02  0.1180000E+00
       11   -1    0    0    0    0  0.00000000000E+00  0.00000000000E+00  0.39999999673E+01  0.40000000000E+01  0.51109989000E-03 0.  1.
     -623   -1    0    0    0    0  0.00000000000E+00  0.00000000000E+00  0.12525980253E-10  0.17130000000E+03  0.17130000000E+03 0.  1.
       11    1    1    2    0    0  0.29380551497E+00 -0.15750433860E+00  0.29256622263E+00  0.44353641694E+00  0.51109989000E-03 0.  1.
     -623    1    1    2    0    0 -0.48858225772E-01 -0.15529767008E+00  0.38373373518E+00  0.17130050717E+03  0.17130000000E+03 0.  1.
      622    1    1    2    0    0 -0.24494728920E+00  0.31280200868E+00  0.33237000096E+01  0.35559564149E+01  0.12000000000E+01 0.  1.
</event>
<event>
 5   0  0.5136900E+01  0.9118800E+02  0.7818608E-02  0.1180000E+00
       11   -1    0    0    0    0  0.00000000000E+00  0.00000000000E+00  0.39999999673E+01  0.40000000000E+01  0.51109989000E-03 0. -1.
     -623   -1    0    0    0    0  0.00000000000E+00  0.00000000000E+00  0.12525980253E-10  0.17130000000E+03  0.17130000000E+03 0. -1.
       11    1    1    2    0    0  0.43341707106E-01  0.86038185507E-01  0.15676756604E+00  0.18400381497E+00  0.51109989000E-03 0. -1.
     -623    1    1    2    0    0 -0.13772085349E-01 -0.35343059505E-01  0.22145687300E+00  0.17130014735E+03  0.17130000000E+03 0. -1.
      622    1    1    2    0    0 -0.29569621756E-01 -0.50695126002E-01  0.36217755283E+01  0.38158488356E+01  0.12000000000E+01 0. -1.
</event>
<event>
 5   0  0.5136900E+01  0.9118800E+02  0.7818608E-02  0.1180000E+00
       11   -1    0    0    0    0  0.00000000000E+00  0.00000000000E+00  0.39999999673E+01  0.40000000000E+01  0.51109989000E-03 0. -1.
     -623   -1    0    0    0    0  0.00000000000E+00  0.00000000000E+00  0.12525980253E-10  0.17130000000E+03  0.17130000000E+03 0. -1.
       11    1    1    2    0    0 -0.20500925035E-01  0.10821903957E-01 -0.63984370954E-01  0.68056318457E-01  0.51109989000E-03 0. -1.
     -623    1    1    2    0    0 -0.15363173675E-01  0.41033774018E-01  0.32048272103E+00  0.17130030540E+03  0.17130000000E+03 0. -1.
      622    1    1    2    0    0  0.35864098709E-01 -0.51855677975E-01  0.37435016173E+01  0.39316382849E+01  0.12000000000E+01 0. -1.
</event>
<event>
 5   0  0.5136900E+01  0.9118800E+02  0.7818608E-02  0.1180000E+00
       11   -1    0    0    0    0  0.00000000000E+00  0.00000000000E+00  0.39999999673E+01  0.40000000000E+01  0.51109989000E-03 0.  1.
     -623   -1    0    0    0    0  0.00000000000E+00  0.00000000000E+00  0.12525980253E-10  0.17130000000E+03  0.17130000000E+03 0.  1.
       11    1    1    2    0    0 -0.21414044731E+00  0.51575629253E+00  0.52321019410E+00  0.76525149650E+00  0.51109989000E-03 0.  1.
     -623    1    1    2    0    0 -0.16315759172E+00  0.15735136028E+00  0.57490073676E+00  0.17130111468E+03  0.17130000000E+03 0.  1.
      622    1    1    2    0    0  0.37729803903E+00 -0.67310765281E+00  0.29018890365E+01  0.32336338232E+01  0.12000000000E+01 0.  1.
</event>
<event>
 5   0  0.5136900E+01  0.9118800E+02  0.7818608E-02  0.1180000E+00
       11   -1    0    0    0    0  0.00000000000E+00  0.00000000000E+00  0.39999999673E+01  0.40000000000E+01  0.51109989000E-03 0.  1.
     -623   -1    0    0    0    0  0.00000000000E+00  0.00000000000E+00  0.12525980253E-10  0.17130000000E+03  0.17130000000E+03 0. -1.
       11    1    1    2    0    0  0.25585860723E+00  0.57375820536E-01  0.70855615034E+00  0.75551816065E+00  0.51109989000E-03 0.  1.
     -623    1    1    2    0    0 -0.16074349524E+00 -0.21258442843E+00  0.28301172976E+00  0.17130044112E+03  0.17130000000E+03 0. -1.
      622    1    1    2    0    0 -0.95115111984E-01  0.15520860789E+00  0.30084320873E+01  0.32440407242E+01  0.12000000000E+01 0.  1.
</event>
<event>
 5   0  0.5136900E+01  0.9118800E+02  0.7818608E-02  0.1180000E+00
       11   -1    0    0    0    0  0.00000000000E+00  0.00000000000E+00  0.39999999673E+01  0.40000000000E+01  0.51109989000E-03 0. -1.
     -623   -1    0    0    0    0  0.00000000000E+00  0.00000000000E+00  0.12525980253E-10  0.17130000000E+03  0.17130000000E+03 0.  1.
       11    1    1    2    0    0 -0.17947056119E+00 -0.13776366229E+00  0.87056233827E+00  0.89948182584E+00  0.51109989000E-03 0. -1.
     -623    1    1    2    0    0  0.34674810800E+00  0.20072825936E+00  0.27689949172E+00  0.17130069235E+03  0.17130000000E+03 0.  1.
      622    1    1    2    0    0 -0.16727754681E+00 -0.62964597072E-01  0.28525381374E+01  0.30998258247E+01  0.12000000000E+01 0. -1.
</event>
<event>
 5   0  0.5136900E+01  0.9118800E+02  0.7818608E-02  0.1180000E+00
       11   -1    0    0    0    0  0.00000000000E+00  0.00000000000E+00  0.39999999673E+01  0.40000000000E+01  0.51109989000E-03 0.  1.
     -623   -1    0    0    0    0  0.00000000000E+00  0.00000000000E+00  0.12525980253E-10  0.17130000000E+03  0.17130000000E+03 0. -1.
       11    1    1    2    0    0  0.11553332065E-01  0.14037666361E+00  0.38611322605E+00  0.41100215538E+00  0.51109989000E-03 0.  1.
     -623    1    1    2    0    0  0.22287347972E+00 -0.41277537837E+00  0.25147484546E+00  0.17130082690E+03  0.17130000000E+03 0. -1.
      622    1    1    2    0    0 -0.23442681179E+00  0.27239871475E+00  0.33624118958E+01  0.35881709473E+01  0.12000000000E+01 0.  0.
</event>
<event>
 5   0  0.5136900E+01  0.9118800E+02  0.7818608E-02  0.1180000E+00
       11   -1    0    0    0    0  0.00000000000E+00  0.00000000000E+00  0.39999999673E+01  0.40000000000E+01  0.51109989000E-03 0. -1.
     -623   -1    0    0    0    0  0.00000000000E+00  0.00000000000E+00  0.12525980253E-10  0.17130000000E+03  0.17130000000E+03 0. -1.
       11    1    1    2    0    0 -0.54449283616E-01 -0.14453516407E+00  0.29501785735E-03  0.15445221396E+00  0.51109989000E-03 0. -1.
     -623    1    1    2    0    0 -0.67079226599E-01 -0.71441472248E-01  0.35501320851E+00  0.17130039591E+03  0.17130000000E+03 0. -1.
      622    1    1    2    0    0  0.12152851022E+00  0.21597663632E+00  0.36446917410E+01  0.38451518791E+01  0.12000000000E+01 0. -1.
</event>
<event>
 5   0  0.5136900E+01  0.9118800E+02  0.7818608E-02  0.1180000E+00
       11   -1    0    0    0    0  0.00000000000E+00  0.00000000000E+00  0.39999999673E+01  0.40000000000E+01  0.51109989000E-03 0.  1.
     -623   -1    0    0    0    0  0.00000000000E+00  0.00000000000E+00  0.12525980253E-10  0.17130000000E+03  0.17130000000E+03 0.  1.
       11    1    1    2    0    0  0.14133901214E+00  0.19855648872E+00  0.30850612839E+00  0.39316369116E+00  0.51109989000E-03 0.  1.
     -623    1    1    2    0    0 -0.40386220263E+00 -0.19549109527E+00  0.30118528274E+00  0.17130085240E+03  0.17130000000E+03 0.  1.
      622    1    1    2    0    0  0.26252319049E+00 -0.30653934464E-02  0.33903085562E+01  0.36059839058E+01  0.12000000000E+01 0.  1.
</event>
<event>
 5   0  0.5136900E+01  0.9118800E+02  0.7818608E-02  0.1180000E+00
       11   -1    0    0    0    0  0.00000000000E+00  0.00000000000E+00  0.39999999673E+01  0.40000000000E+01  0.51109989000E-03 0.  1.
     -623   -1    0    0    0    0  0.00000000000E+00  0.00000000000E+00  0.12525980253E-10  0.17130000000E+03  0.17130000000E+03 0.  1.
       11    1    1    2    0    0 -0.55903990847E-01 -0.17923074483E-01  0.20396043221E+00  0.21224187127E+00  0.51109989000E-03 0.  1.
     -623    1    1    2    0    0  0.12918101321E-02 -0.22065927096E+00  0.21202824063E+00  0.17130027335E+03  0.17130000000E+03 0.  1.
      622    1    1    2    0    0  0.54612180715E-01  0.23858234544E+00  0.35840112945E+01  0.37874847835E+01  0.12000000000E+01 0.  1.
</event>
<event>
 5   0  0.5136900E+01  0.9118800E+02  0.7818608E-02  0.1180000E+00
       11   -1    0    0    0    0  0.00000000000E+00  0.00000000000E+00  0.39999999673E+01  0.40000000000E+01  0.51109989000E-03 0. -1.
     -623   -1    0    0    0    0  0.00000000000E+00  0.00000000000E+00  0.12525980253E-10  0.17130000000E+03  0.17130000000E+03 0. -1.
       11    1    1    2    0    0 -0.49732334755E-01 -0.11605645817E+00  0.25615090630E-01  0.12883633297E+00  0.51109989000E-03 0. -1.
     -623    1    1    2    0    0 -0.21705790826E+00  0.12426882318E+00  0.30407690307E+00  0.17130045248E+03  0.17130000000E+03 0. -1.
      622    1    1    2    0    0  0.26679024301E+00 -0.82123650101E-02  0.36703079737E+01  0.38707111877E+01  0.12000000000E+01 0. -1.
</event>
<event>
 5   0  0.5136900E+01  0.9118800E+02  0.7818608E-02  0.1180000E+00
       11   -1    0    0    0    0  0.00000000000E+00  0.00000000000E+00  0.39999999673E+01  0.40000000000E+01  0.51109989000E-03 0. -1.
     -623   -1    0    0    0    0  0.00000000000E+00  0.00000000000E+00  0.12525980253E-10  0.17130000000E+03  0.17130000000E+03 0.  1.
       11    1    1    2    0    0 -0.15876470523E+00  0.47003845408E-01 -0.20943834496E-01  0.16689667024E+00  0.51109989000E-03 0. -1.
     -623    1    1    2    0    0  0.87928207577E-01 -0.27889335494E+00  0.38933455525E+00  0.17130069204E+03  0.17130000000E+03 0.  1.
      622    1    1    2    0    0  0.70836497657E-01  0.23188950953E+00  0.36316092466E+01  0.38324112872E+01  0.12000000000E+01 0. -1.
</event>
<event>
 5   0  0.5136900E+01  0.9118800E+02  0.7818608E-02  0.1180000E+00
       11   -1    0    0    0    0  0.00000000000E+00  0.00000000000E+00  0.39999999673E+01  0.40000000000E+01  0.51109989000E-03 0.  1.
     -623   -1    0    0    0    0  0.00000000000E+00  0.00000000000E+00  0.12525980253E-10  0.17130000000E+03  0.17130000000E+03 0. -1.
       11    1    1    2    0    0  0.26265841215E-01 -0.15040013326E+00 -0.44975069470E-01  0.15916379172E+00  0.51109989000E-03 0.  1.
     -623    1    1    2    0    0  0.15022293904E+00  0.30662720488E+00  0.40489559093E+00  0.17130081882E+03  0.17130000000E+03 0. -1.
      622    1    1    2    0    0 -0.17648878026E+00 -0.15622707162E+00  0.36400794459E+01  0.38400173906E+01  0.12000000000E+01 0.  1.
</event>
<event>
 5   0  0.5136900E+01  0.9118800E+02  0.7818608E-02  0.1180000E+00
       11   -1    0    0    0    0  0.00000000000E+00  0.00000000000E+00  0.39999999673E+01  0.40000000000E+01  0.51109989000E-03 0. -1.
     -623   -1    0    0    0    0  0.00000000000E+00  0.00000000000E+00  0.12525980253E-10  0.17130000000E+03  0.17130000000E+03 0.  1.
       11    1    1    2    0    0  0.67368524348E-01  0.53557346096E-01 -0.31273888279E-01  0.91570872579E-01  0.51109989000E-03 0. -1.
     -623    1    1    2    0    0 -0.35177548682E+00  0.15059980513E+00  0.32891757582E+00  0.17130074318E+03  0.17130000000E+03 0.  1.
      622    1    1    2    0    0  0.28440696247E+00 -0.20415715123E+00  0.37023562798E+01  0.39076859502E+01  0.12000000000E+01 0. -1.
</event>
<event>
 5   0  0.5136900E+01  0.9118800E+02  0.7818608E-02  0.1180000E+00
       11   -1    0    0    0    0  0.00000000000E+00  0.00000000000E+00  0.39999999673E+01  0.40000000000E+01  0.51109989000E-03 0.  1.
     -623   -1    0    0    0    0  0.00000000000E+00  0.00000000000E+00  0.12525980253E-10  0.17130000000E+03  0.17130000000E+03 0.  1.
       11    1    1    2    0    0 -0.25686085769E-01 -0.93288266186E-01  0.53000872858E+00  0.53876895716E+00  0.51109989000E-03 0.  1.
     -623    1    1    2    0    0 -0.21425998130E+00 -0.19714099724E+00  0.24582260696E+00  0.17130042382E+03  0.17130000000E+03 0.  1.
      622    1    1    2    0    0  0.23994606707E+00  0.29042926342E+00  0.32241686318E+01  0.34608072236E+01  0.12000000000E+01 0.  0.
</event>
<event>
 5   0  0.5136900E+01  0.9118800E+02  0.7818608E-02  0.1180000E+00
       11   -1    0    0    0    0  0.00000000000E+00  0.00000000000E+00  0.39999999673E+01  0.40000000000E+01  0.51109989000E-03 0.  1.
     -623   -1    0    0    0    0  0.00000000000E+00  0.00000000000E+00  0.12525980253E-10  0.17130000000E+03  0.17130000000E+03 0. -1.
       11    1    1    2    0    0 -0.19236824257E+00  0.75932943962E-01  0.72770792569E+00  0.75652524020E+00  0.51109989000E-03 0.  1.
     -623    1    1    2    0    0 -0.15609774015E+00  0.16371838983E+00  0.28922069669E+00  0.17130039352E+03  0.17130000000E+03 0. -1.
      622    1    1    2    0    0  0.34846598272E+00 -0.23965133379E+00  0.29830713450E+01  0.32430812435E+01  0.12000000000E+01 0.  0.
</event>
<event>
 5   0  0.5136900E+01  0.9118800E+02  0.7818608E-02  0.1180000E+00
       11   -1    0    0    0    0  0.00000000000E+00  0.00000000000E+00  0.39999999673E+01  0.40000000000E+01  0.51109989000E-03 0.  1.
     -623   -1    0    0    0    0  0.00000000000E+00  0.00000000000E+00  0.12525980253E-10  0.17130000000E+03  0.17130000000E+03 0. -1.
       11    1    1    2    0    0  0.10961929073E+00 -0.68634558758E-02  0.11574827150E-01  0.11044335097E+00  0.51109989000E-03 0.  1.
     -623    1    1    2    0    0 -0.10826482443E+00  0.85489840621E-01  0.28975935820E+00  0.17130030061E+03  0.17130000000E+03 0. -1.
      622    1    1    2    0    0 -0.13544663076E-02 -0.78626384745E-01  0.36986657820E+01  0.38892560355E+01  0.12000000000E+01 0.  1.
</event>
<event>
 5   0  0.5136900E+01  0.9118800E+02  0.7818608E-02  0.1180000E+00
       11   -1    0    0    0    0  0.00000000000E+00  0.00000000000E+00  0.39999999673E+01  0.40000000000E+01  0.51109989000E-03 0. -1.
     -623   -1    0    0    0    0  0.00000000000E+00  0.00000000000E+00  0.12525980253E-10  0.17130000000E+03  0.17130000000E+03 0. -1.
       11    1    1    2    0    0 -0.19344297060E+00  0.92512391419E-01  0.47987136683E+00  0.52560014780E+00  0.51109989000E-03 0. -1.
     -623    1    1    2    0    0  0.12257011018E+00 -0.26390303992E+00  0.26529957677E+00  0.17130045257E+03  0.17130000000E+03 0. -1.
      622    1    1    2    0    0  0.70872860420E-01  0.17139064850E+00  0.32548290238E+01  0.34739472780E+01  0.12000000000E+01 0. -1.
</event>
<event>
 5   0  0.5136900E+01  0.9118800E+02  0.7818608E-02  0.1180000E+00
       11   -1    0    0    0    0  0.00000000000E+00  0.00000000000E+00  0.39999999673E+01  0.40000000000E+01  0.51109989000E-03 0.  1.
     -623   -1    0    0    0    0  0.00000000000E+00  0.00000000000E+00  0.12525980253E-10  0.17130000000E+03  0.17130000000E+03 0. -1.
       11    1    1    2    0    0 -0.41947381137E-01  0.34532194153E-01  0.63031233821E+00  0.63264995072E+00  0.51109989000E-03 0.  1.
     -623    1    1    2    0    0  0.77963130165E-01  0.45079348717E-01  0.22480951726E+00  0.17130017119E+03  0.17130000000E+03 0. -1.
      622    1    1    2    0    0 -0.36015749028E-01 -0.79611542869E-01  0.31448781119E+01  0.33671788593E+01  0.12000000000E+01 0. -1.
</event>
<event>
 5   0  0.5136900E+01  0.9118800E+02  0.7818608E-02  0.1180000E+00
       11   -1    0    0    0    0  0.00000000000E+00  0.00000000000E+00  0.39999999673E+01  0.40000000000E+01  0.51109989000E-03 0. -1.
     -623   -1    0    0    0    0  0.00000000000E+00  0.00000000000E+00  0.12525980253E-10  0.17130000000E+03  0.17130000000E+03 0. -1.
       11    1    1    2    0    0 -0.96319502346E-01  0.27860135359E+00  0.70297651879E+00  0.76228105574E+00  0.51109989000E-03 0. -1.
     -623    1    1    2    0    0  0.16553339492E+00  0.77704447787E-02  0.30474164496E+00  0.17130035122E+03  0.17130000000E+03 0. -1.
      622    1    1    2    0    0 -0.69213892575E-01 -0.28637179837E+00  0.29922818036E+01  0.32373677212E+01  0.12000000000E+01 0. -1.
</event>
<event>
 5   0  0.5136900E+01  0.9118800E+02  0.7818608E-02  0.1180000E+00
       11   -1    0    0    0    0  0.00000000000E+00  0.00000000000E+00  0.39999999673E+01  0.40000000000E+01  0.51109989000E-03 0.  1.
     -623   -1    0    0    0    0  0.00000000000E+00  0.00000000000E+00  0.12525980253E-10  0.17130000000E+03  0.17130000000E+03 0. -1.
       11    1    1    2    0    0  0.13534786325E-01  0.27597134173E+00  0.29978589088E+00  0.40769500057E+00  0.51109989000E-03 0.  1.
     -623    1    1    2    0    0  0.96440184903E-01 -0.58692254257E-01  0.32339751446E+00  0.17130034247E+03  0.17130000000E+03 0. -1.
      622    1    1    2    0    0 -0.10997497123E+00 -0.21727908747E+00  0.33768165620E+01  0.35919625262E+01  0.12000000000E+01 0.  1.
</event>
<event>
 5   0  0.5136900E+01  0.9118800E+02  0.7818608E-02  0.1180000E+00
       11   -1    0    0    0    0  0.00000000000E+00  0.00000000000E+00  0.39999999673E+01  0.40000000000E+01  0.51109989000E-03 0. -1.
     -623   -1    0    0    0    0  0.00000000000E+00  0.00000000000E+00  0.12525980253E-10  0.17130000000E+03  0.17130000000E+03 0.  1.
       11    1    1    2    0    0 -0.38066028019E-01  0.14750602477E+00  0.26994932458E+00  0.30996765783E+00  0.51109989000E-03 0. -1.
     -623    1    1    2    0    0  0.22243054999E+00  0.16192295557E+00  0.25967325732E+00  0.17130041776E+03  0.17130000000E+03 0.  1.
      622    1    1    2    0    0 -0.18436452197E+00 -0.30942898034E+00  0.34703773855E+01  0.36896145826E+01  0.12000000000E+01 0. -1.
</event>
<event>
 5   0  0.5136900E+01  0.9118800E+02  0.7818608E-02  0.1180000E+00
       11   -1    0    0    0    0  0.00000000000E+00  0.00000000000E+00  0.39999999673E+01  0.40000000000E+01  0.51109989000E-03 0.  1.
     -623   -1    0    0    0    0  0.00000000000E+00  0.00000000000E+00  0.12525980253E-10  0.17130000000E+03  0.17130000000E+03 0. -1.
       11    1    1    2    0    0 -0.12202226679E+00  0.33355806134E+00  0.10536654491E+01  0.11119179618E+01  0.51109989000E-03 0.  1.
     -623    1    1    2    0    0  0.36805848925E+00 -0.82515297429E-01  0.34382220197E+00  0.17130076033E+03  0.17130000000E+03 0. -1.
      622    1    1    2    0    0 -0.24603622246E+00 -0.25104276391E+00  0.26025123163E+01  0.28873217085E+01  0.12000000000E+01 0.  1.
</event>
<event>
 5   0  0.5136900E+01  0.9118800E+02  0.7818608E-02  0.1180000E+00
       11   -1    0    0    0    0  0.00000000000E+00  0.00000000000E+00  0.39999999673E+01  0.40000000000E+01  0.51109989000E-03 0.  1.
     -623   -1    0    0    0    0  0.00000000000E+00  0.00000000000E+00  0.12525980253E-10  0.17130000000E+03  0.17130000000E+03 0. -1.
       11    1    1    2    0    0 -0.20539011375E-01 -0.39619036424E+00  0.99312444765E+00  0.10694321322E+01  0.51109989000E-03 0.  1.
     -623    1    1    2    0    0 -0.52828740962E-01  0.45113040168E+00  0.33585165742E+00  0.17130093142E+03  0.17130000000E+03 0. -1.
      622    1    1    2    0    0  0.73367752337E-01 -0.54940037446E-01  0.26710238623E+01  0.29296364463E+01  0.12000000000E+01 0.  1.
</event>
<event>
 5   0  0.5136900E+01  0.9118800E+02  0.7818608E-02  0.1180000E+00
       11   -1    0    0    0    0  0.00000000000E+00  0.00000000000E+00  0.39999999673E+01  0.40000000000E+01  0.51109989000E-03 0. -1.
     -623   -1    0    0    0    0  0.00000000000E+00  0.00000000000E+00  0.12525980253E-10  0.17130000000E+03  0.17130000000E+03 0.  1.
       11    1    1    2    0    0 -0.14262103642E+00 -0.25109458107E+00  0.23871386776E+00  0.37466494439E+00  0.51109989000E-03 0. -1.
     -623    1    1    2    0    0 -0.10266642703E+00  0.24454147351E+00  0.34972214738E+00  0.17130056231E+03  0.17130000000E+03 0.  1.
      622    1    1    2    0    0  0.24528746346E+00  0.65531075517E-02  0.34115639522E+01  0.36247727492E+01  0.12000000000E+01 0. -1.
</event>
<event>
 5   0  0.5136900E+01  0.9118800E+02  0.7818608E-02  0.1180000E+00
       11   -1    0    0    0    0  0.00000000000E+00  0.00000000000E+00  0.39999999673E+01  0.40000000000E+01  0.51109989000E-03 0.  1.
     -623   -1    0    0    0    0  0.00000000000E+00  0.00000000000E+00  0.12525980253E-10  0.17130000000E+03  0.17130000000E+03 0.  1.
       11    1    1    2    0    0  0.76579326467E-01  0.41309447292E-02 -0.32733133921E-01  0.83385713560E-01  0.51109989000E-03 0.  1.
     -623    1    1    2    0    0 -0.24183050475E+00  0.18044495896E+00  0.31330227551E+00  0.17130055225E+03  0.17130000000E+03 0.  1.
      622    1    1    2    0    0  0.16525117829E+00 -0.18457590369E+00  0.37194308258E+01  0.39160620378E+01  0.12000000000E+01 0.  1.
</event>
<event>
 5   0  0.5136900E+01  0.9118800E+02  0.7818608E-02  0.1180000E+00
       11   -1    0    0    0    0  0.00000000000E+00  0.00000000000E+00  0.39999999673E+01  0.40000000000E+01  0.51109989000E-03 0.  1.
     -623   -1    0    0    0    0  0.00000000000E+00  0.00000000000E+00  0.12525980253E-10  0.17130000000E+03  0.17130000000E+03 0.  1.
       11    1    1    2    0    0 -0.28425405363E+00 -0.36117929932E+00  0.82553839234E+00  0.94486229246E+00  0.51109989000E-03 0.  1.
     -623    1    1    2    0    0  0.65114824037E-01  0.83710923230E-01  0.38771178874E+00  0.17130047159E+03  0.17130000000E+03 0.  1.
      622    1    1    2    0    0  0.21913922960E+00  0.27746837609E+00  0.27867497863E+01  0.30546661148E+01  0.12000000000E+01 0.  0.
</event>
<event>
 5   0  0.5136900E+01  0.9118800E+02  0.7818608E-02  0.1180000E+00
       11   -1    0    0    0    0  0.00000000000E+00  0.00000000000E+00  0.39999999673E+01  0.40000000000E+01  0.51109989000E-03 0.  1.
     -623   -1    0    0    0    0  0.00000000000E+00  0.00000000000E+00  0.12525980253E-10  0.17130000000E+03  0.17130000000E+03 0.  1.
       11    1    1    2    0    0  0.47135751021E-01 -0.11400329429E-01  0.16933606113E-01  0.51368811301E-01  0.51109989000E-03 0.  1.
     -623    1    1    2    0    0 -0.17429046596E+00 -0.58788686637E-01  0.22425612864E+00  0.17130024555E+03  0.17130000000E+03 0.  1.
      622    1    1    2    0    0  0.12715471494E+00  0.70189016066E-01  0.37588102326E+01  0.39483856428E+01  0.12000000000E+01 0.  1.
</event>
<event>
 5   0  0.5136900E+01  0.9118800E+02  0.7818608E-02  0.1180000E+00
       11   -1    0    0    0    0  0.00000000000E+00  0.00000000000E+00  0.39999999673E+01  0.40000000000E+01  0.51109989000E-03 0.  1.
     -623   -1    0    0    0    0  0.00000000000E+00  0.00000000000E+00  0.12525980253E-10  0.17130000000E+03  0.17130000000E+03 0.  1.
       11    1    1    2    0    0  0.52734229501E-01 -0.13119051374E-02  0.91647661739E-01  0.10574580456E+00  0.51109989000E-03 0.  1.
     -623    1    1    2    0    0 -0.60616450861E-01 -0.61612493031E-01  0.20429027216E+00  0.17130014362E+03  0.17130000000E+03 0.  1.
      622    1    1    2    0    0  0.78822213602E-02  0.62924398168E-01  0.37040620335E+01  0.38941105733E+01  0.12000000000E+01 0.  1.
</event>
<event>
 5   0  0.5136900E+01  0.9118800E+02  0.7818608E-02  0.1180000E+00
       11   -1    0    0    0    0  0.00000000000E+00  0.00000000000E+00  0.39999999673E+01  0.40000000000E+01  0.51109989000E-03 0. -1.
     -623   -1    0    0    0    0  0.00000000000E+00  0.00000000000E+00  0.12525980253E-10  0.17130000000E+03  0.17130000000E+03 0.  1.
       11    1    1    2    0    0 -0.17825087430E+00  0.18184871851E+00  0.77534304026E+00  0.81608787635E+00  0.51109989000E-03 0. -1.
     -623    1    1    2    0    0  0.23013408858E+00  0.25530852395E+00  0.30926246499E+00  0.17130062401E+03  0.17130000000E+03 0.  1.
      622    1    1    2    0    0 -0.51883214278E-01 -0.43715724247E+00  0.29153944621E+01  0.31832881102E+01  0.12000000000E+01 0.  0.
</event>
<event>
 5   0  0.5136900E+01  0.9118800E+02  0.7818608E-02  0.1180000E+00
       11   -1    0    0    0    0  0.00000000000E+00  0.00000000000E+00  0.39999999673E+01  0.40000000000E+01  0.51109989000E-03 0.  1.
     -623   -1    0    0    0    0  0.00000000000E+00  0.00000000000E+00  0.12525980253E-10  0.17130000000E+03  0.17130000000E+03 0.  1.
       11    1    1    2    0    0  0.21323758365E+00  0.58651013277E-01  0.10178750741E+00  0.24345670318E+00  0.51109989000E-03 0.  1.
     -623    1    1    2    0    0  0.39679251317E-01 -0.84266176522E-01  0.34798022550E+00  0.17130037877E+03  0.17130000000E+03 0.  1.
      622    1    1    2    0    0 -0.25291683496E+00  0.25615163245E-01  0.35502322345E+01  0.37561645305E+01  0.12000000000E+01 0.  0.
</event>
<event>
 5   0  0.5136900E+01  0.9118800E+02  0.7818608E-02  0.1180000E+00
       11   -1    0    0    0    0  0.00000000000E+00  0.00000000000E+00  0.39999999673E+01  0.40000000000E+01  0.51109989000E-03 0. -1.
     -623   -1    0    0    0    0  0.00000000000E+00  0.00000000000E+00  0.12525980253E-10  0.17130000000E+03  0.17130000000E+03 0. -1.
       11    1    1    2    0    0 -0.11111548672E+00  0.49677267177E-02  0.12098201731E+00  0.16434183713E+00  0.51109989000E-03 0. -1.
     -623    1    1    2    0    0  0.11534199798E-01  0.11160632050E+00  0.23934722108E+00  0.17130020396E+03  0.17130000000E+03 0. -1.
      622    1    1    2    0    0  0.99581286918E-01 -0.11657404722E+00  0.36396707290E+01  0.38354542047E+01  0.12000000000E+01 0. -1.
</event>
<event>
 5   0  0.5136900E+01  0.9118800E+02  0.7818608E-02  0.1180000E+00
       11   -1    0    0    0    0  0.00000000000E+00  0.00000000000E+00  0.39999999673E+01  0.40000000000E+01  0.51109989000E-03 0.  1.
     -623   -1    0    0    0    0  0.00000000000E+00  0.00000000000E+00  0.12525980253E-10  0.17130000000E+03  0.17130000000E+03 0. -1.
       11    1    1    2    0    0  0.16571148232E+00  0.56336765703E-01  0.41637388306E+00  0.45166536093E+00  0.51109989000E-03 0.  1.
     -623    1    1    2    0    0  0.22668237740E+00 -0.11505504100E+00  0.26844482556E+00  0.17130039896E+03  0.17130000000E+03 0. -1.
      622    1    1    2    0    0 -0.39239385972E+00  0.58718275293E-01  0.33151812587E+01  0.35479356752E+01  0.12000000000E+01 0.  0.
</event>
<event>
 5   0  0.5136900E+01  0.9118800E+02  0.7818608E-02  0.1180000E+00
       11   -1    0    0    0    0  0.00000000000E+00  0.00000000000E+00  0.39999999673E+01  0.40000000000E+01  0.51109989000E-03 0. -1.
     -623   -1    0    0    0    0  0.00000000000E+00  0.00000000000E+00  0.12525980253E-10  0.17130000000E+03  0.17130000000E+03 0. -1.
       11    1    1    2    0    0 -0.13487307283E+00 -0.17094190233E-01  0.17445835961E+00  0.22117625907E+00  0.51109989000E-03 0. -1.
     -623    1    1    2    0    0  0.15630380114E-01  0.14941387864E-01  0.24448638034E+00  0.17130017584E+03  0.17130000000E+03 0. -1.
      622    1    1    2    0    0  0.11924269272E+00  0.21528023690E-02  0.35810552274E+01  0.37786479058E+01  0.12000000000E+01 0. -1.
</event>
<event>
 5   0  0.5136900E+01  0.9118800E+02  0.7818608E-02  0.1180000E+00
       11   -1    0    0    0    0  0.00000000000E+00  0.00000000000E+00  0.39999999673E+01  0.40000000000E+01  0.51109989000E-03 0. -1.
     -623   -1    0    0    0    0  0.00000000000E+00  0.00000000000E+00  0.12525980253E-10  0.17130000000E+03  0.17130000000E+03 0. -1.
       11    1    1    2    0    0  0.60115194159E-01 -0.26178427108E-01  0.39453927754E-01  0.76524638205E-01  0.51109989000E-03 0. -1.
     -623    1    1    2    0    0 -0.25414224574E-01 -0.10448514043E+00  0.22772817998E+00  0.17130018512E+03  0.17130000000E+03 0. -1.
      622    1    1    2    0    0 -0.34700969585E-01  0.13066356754E+00  0.37328178596E+01  0.39232902389E+01  0.12000000000E+01 0. -1.
</event>
<event>
 5   0  0.5136900E+01  0.9118800E+02  0.7818608E-02  0.1180000E+00
       11   -1    0    0    0    0  0.00000000000E+00  0.00000000000E+00  0.39999999673E+01  0.40000000000E+01  0.51109989000E-03 0. -1.
     -623   -1    0    0    0    0  0.00000000000E+00  0.00000000000E+00  0.12525980253E-10  0.17130000000E+03  0.17130000000E+03 0.  1.
       11    1    1    2    0    0 -0.27107244361E-01  0.30239010801E-01  0.54724706639E-01  0.68148772629E-01  0.51109989000E-03 0. -1.
     -623    1    1    2    0    0  0.73021330773E-01 -0.40740857781E-01  0.20146121210E+00  0.17130013887E+03  0.17130000000E+03 0.  1.
      622    1    1    2    0    0 -0.45914086412E-01  0.10501846981E-01  0.37438140486E+01  0.39317123525E+01  0.12000000000E+01 0. -1.
</event>
<event>
 5   0  0.5136900E+01  0.9118800E+02  0.7818608E-02  0.1180000E+00
       11   -1    0    0    0    0  0.00000000000E+00  0.00000000000E+00  0.39999999673E+01  0.40000000000E+01  0.51109989000E-03 0. -1.
     -623   -1    0    0    0    0  0.00000000000E+00  0.00000000000E+00  0.12525980253E-10  0.17130000000E+03  0.17130000000E+03 0. -1.
       11    1    1    2    0    0 -0.23874408728E-01  0.36623202992E+00  0.11276649323E+01  0.11858854699E+01  0.51109989000E-03 0. -1.
     -623    1    1    2    0    0 -0.53635094249E+00 -0.16403563387E+00  0.39913434057E+00  0.17130138321E+03  0.17130000000E+03 0. -1.
      622    1    1    2    0    0  0.56022535122E+00 -0.20219639605E+00  0.24732006945E+01  0.28127313242E+01  0.12000000000E+01 0. -1.
</event>
<event>
 5   0  0.5136900E+01  0.9118800E+02  0.7818608E-02  0.1180000E+00
       11   -1    0    0    0    0  0.00000000000E+00  0.00000000000E+00  0.39999999673E+01  0.40000000000E+01  0.51109989000E-03 0.  1.
     -623   -1    0    0    0    0  0.00000000000E+00  0.00000000000E+00  0.12525980253E-10  0.17130000000E+03  0.17130000000E+03 0.  1.
       11    1    1    2    0    0 -0.12675723355E+00 -0.10716069247E+00  0.49745642618E+00  0.52441774135E+00  0.51109989000E-03 0.  1.
     -623    1    1    2    0    0  0.15680992466E+00  0.38608095560E+00  0.25352129322E+00  0.17130069446E+03  0.17130000000E+03 0.  1.
      622    1    1    2    0    0 -0.30052691109E-01 -0.27892026312E+00  0.32490222480E+01  0.34748878033E+01  0.12000000000E+01 0.  1.
</event>
<event>
 5   0  0.5136900E+01  0.9118800E+02  0.7818608E-02  0.1180000E+00
       11   -1    0    0    0    0  0.00000000000E+00  0.00000000000E+00  0.39999999673E+01  0.40000000000E+01  0.51109989000E-03 0. -1.
     -623   -1    0    0    0    0  0.00000000000E+00  0.00000000000E+00  0.12525980253E-10  0.17130000000E+03  0.17130000000E+03 0. -1.
       11    1    1    2    0    0 -0.19470922240E+00 -0.18009295335E-01  0.10599573504E+00  0.22242161108E+00  0.51109989000E-03 0. -1.
     -623    1    1    2    0    0  0.16540456524E+00  0.95827579300E-01  0.31347195471E+00  0.17130039348E+03  0.17130000000E+03 0. -1.
      622    1    1    2    0    0  0.29304657163E-01 -0.77818283965E-01  0.35805322776E+01  0.37771849093E+01  0.12000000000E+01 0. -1.
</event>
<event>
 5   0  0.5136900E+01  0.9118800E+02  0.7818608E-02  0.1180000E+00
       11   -1    0    0    0    0  0.00000000000E+00  0.00000000000E+00  0.39999999673E+01  0.40000000000E+01  0.51109989000E-03 0. -1.
     -623   -1    0    0    0    0  0.00000000000E+00  0.00000000000E+00  0.12525980253E-10  0.17130000000E+03  0.17130000000E+03 0. -1.
       11    1    1    2    0    0 -0.84965767146E-03 -0.56112907253E-01  0.48619498498E-01  0.74252926783E-01  0.51109989000E-03 0. -1.
     -623    1    1    2    0    0  0.15128784898E-01 -0.10774326028E-01  0.21430247836E+00  0.17130013506E+03  0.17130000000E+03 0. -1.
      622    1    1    2    0    0 -0.14279127227E-01  0.66887233281E-01  0.37370779905E+01  0.39256120163E+01  0.12000000000E+01 0. -1.
</event>
<event>
 5   0  0.5136900E+01  0.9118800E+02  0.7818608E-02  0.1180000E+00
       11   -1    0    0    0    0  0.00000000000E+00  0.00000000000E+00  0.39999999673E+01  0.40000000000E+01  0.51109989000E-03 0. -1.
     -623   -1    0    0    0    0  0.00000000000E+00  0.00000000000E+00  0.12525980253E-10  0.17130000000E+03  0.17130000000E+03 0. -1.
       11    1    1    2    0    0 -0.99124469245E-01 -0.31954804243E+00  0.41855246004E+00  0.53583862763E+00  0.51109989000E-03 0. -1.
     -623    1    1    2    0    0  0.17868141901E+00  0.83803329388E-01  0.34179332980E+00  0.17130045468E+03  0.17130000000E+03 0. -1.
      622    1    1    2    0    0 -0.79556949761E-01  0.23574471305E+00  0.32396541775E+01  0.34637066948E+01  0.12000000000E+01 0. -1.
</event>
<event>
 5   0  0.5136900E+01  0.9118800E+02  0.7818608E-02  0.1180000E+00
       11   -1    0    0    0    0  0.00000000000E+00  0.00000000000E+00  0.39999999673E+01  0.40000000000E+01  0.51109989000E-03 0.  1.
     -623   -1    0    0    0    0  0.00000000000E+00  0.00000000000E+00  0.12525980253E-10  0.17130000000E+03  0.17130000000E+03 0. -1.
       11    1    1    2    0    0  0.29110165480E+00 -0.60189908745E-01  0.13173518164E+00  0.32514215022E+00  0.51109989000E-03 0.  1.
     -623    1    1    2    0    0 -0.16757878469E+00  0.13009559598E+00  0.39838502465E+00  0.17130059462E+03  0.17130000000E+03 0. -1.
      622    1    1    2    0    0 -0.12352287011E+00 -0.69905687235E-01  0.34698797611E+01  0.36742632269E+01  0.12000000000E+01 0.  0.
</event>
<event>
 5   0  0.5136900E+01  0.9118800E+02  0.7818608E-02  0.1180000E+00
       11   -1    0    0    0    0  0.00000000000E+00  0.00000000000E+00  0.39999999673E+01  0.40000000000E+01  0.51109989000E-03 0.  1.
     -623   -1    0    0    0    0  0.00000000000E+00  0.00000000000E+00  0.12525980253E-10  0.17130000000E+03  0.17130000000E+03 0.  1.
       11    1    1    2    0    0 -0.16804972596E+00  0.12244663313E+00  0.45631677929E+00  0.50145702971E+00  0.51109989000E-03 0.  1.
     -623    1    1    2    0    0  0.16137722161E+00 -0.81767192900E-01  0.25794486252E+00  0.17130028974E+03  0.17130000000E+03 0.  1.
      622    1    1    2    0    0  0.66725043558E-02 -0.40679440227E-01  0.32857383255E+01  0.34982532331E+01  0.12000000000E+01 0.  1.
</event>
<event>
 5   0  0.5136900E+01  0.9118800E+02  0.7818608E-02  0.1180000E+00
       11   -1    0    0    0    0  0.00000000000E+00  0.00000000000E+00  0.39999999673E+01  0.40000000000E+01  0.51109989000E-03 0. -1.
     -623   -1    0    0    0    0  0.00000000000E+00  0.00000000000E+00  0.12525980253E-10  0.17130000000E+03  0.17130000000E+03 0.  1.
       11    1    1    2    0    0 -0.54196356441E-01  0.17889966841E+00  0.15084140386E+00  0.24019934794E+00  0.51109989000E-03 0. -1.
     -623    1    1    2    0    0  0.80385532547E-01 -0.18433996436E+00  0.28647746287E+00  0.17130035760E+03  0.17130000000E+03 0.  1.
      622    1    1    2    0    0 -0.26189176105E-01  0.54402959551E-02  0.35626811006E+01  0.37594430564E+01  0.12000000000E+01 0. -1.
</event>
<event>
 5   0  0.5136900E+01  0.9118800E+02  0.7818608E-02  0.1180000E+00
       11   -1    0    0    0    0  0.00000000000E+00  0.00000000000E+00  0.39999999673E+01  0.40000000000E+01  0.51109989000E-03 0. -1.
     -623   -1    0    0    0    0  0.00000000000E+00  0.00000000000E+00  0.12525980253E-10  0.17130000000E+03  0.17130000000E+03 0.  1.
       11    1    1    2    0    0 -0.14130059061E+00  0.25587931450E-01  0.13941693369E+00  0.20014480198E+00  0.51109989000E-03 0. -1.
     -623    1    1    2    0    0  0.98166265772E-01 -0.17043537449E-01  0.25568419653E+00  0.17130021979E+03  0.17130000000E+03 0.  1.
      622    1    1    2    0    0  0.43134324833E-01 -0.85443940012E-02  0.36048988371E+01  0.37996354039E+01  0.12000000000E+01 0.  0.
</event>
<event>
 5   0  0.5136900E+01  0.9118800E+02  0.7818608E-02  0.1180000E+00
       11   -1    0    0    0    0  0.00000000000E+00  0.00000000000E+00  0.39999999673E+01  0.40000000000E+01  0.51109989000E-03 0.  1.
     -623   -1    0    0    0    0  0.00000000000E+00  0.00000000000E+00  0.12525980253E-10  0.17130000000E+03  0.17130000000E+03 0.  1.
       11    1    1    2    0    0 -0.15610174478E+00  0.22310972606E+00  0.36135890355E+00  0.45246681976E+00  0.51109989000E-03 0.  1.
     -623    1    1    2    0    0  0.65920791316E-01 -0.19003797746E+00  0.30202023945E+00  0.17130038434E+03  0.17130000000E+03 0.  1.
      622    1    1    2    0    0  0.90180953466E-01 -0.33071748607E-01  0.33366208244E+01  0.35471488368E+01  0.12000000000E+01 0.  1.
</event>
<event>
 5   0  0.5136900E+01  0.9118800E+02  0.7818608E-02  0.1180000E+00
       11   -1    0    0    0    0  0.00000000000E+00  0.00000000000E+00  0.39999999673E+01  0.40000000000E+01  0.51109989000E-03 0. -1.
     -623   -1    0    0    0    0  0.00000000000E+00  0.00000000000E+00  0.12525980253E-10  0.17130000000E+03  0.17130000000E+03 0.  1.
       11    1    1    2    0    0  0.12559702772E-01 -0.94468302058E-01  0.99473973331E-01  0.13775826226E+00  0.51109989000E-03 0. -1.
     -623    1    1    2    0    0  0.64134223228E-02 -0.29611822791E-01  0.23174911550E+00  0.17130015944E+03  0.17130000000E+03 0.  1.
      622    1    1    2    0    0 -0.18973125094E-01  0.12408012485E+00  0.36687768785E+01  0.38620822934E+01  0.12000000000E+01 0. -1.
</event>
<event>
 5   0  0.5136900E+01  0.9118800E+02  0.7818608E-02  0.1180000E+00
       11   -1    0    0    0    0  0.00000000000E+00  0.00000000000E+00  0.39999999673E+01  0.40000000000E+01  0.51109989000E-03 0.  1.
     -623   -1    0    0    0    0  0.00000000000E+00  0.00000000000E+00  0.12525980253E-10  0.17130000000E+03  0.17130000000E+03 0. -1.
       11    1    1    2    0    0  0.30403232416E-01  0.50381450563E-01  0.29560863804E-01  0.65854027926E-01  0.51109989000E-03 0.  1.
     -623    1    1    2    0    0  0.34835227829E+00 -0.31380142084E+00  0.25316335811E+00  0.17130082870E+03  0.17130000000E+03 0. -1.
      622    1    1    2    0    0 -0.37875551070E+00  0.26341997028E+00  0.37172757454E+01  0.39333172749E+01  0.12000000000E+01 0.  1.
</event>
<event>
 5   0  0.5136900E+01  0.9118800E+02  0.7818608E-02  0.1180000E+00
       11   -1    0    0    0    0  0.00000000000E+00  0.00000000000E+00  0.39999999673E+01  0.40000000000E+01  0.51109989000E-03 0. -1.
     -623   -1    0    0    0    0  0.00000000000E+00  0.00000000000E+00  0.12525980253E-10  0.17130000000E+03  0.17130000000E+03 0.  1.
       11    1    1    2    0    0  0.13504940486E+00  0.16826676701E-01  0.35494323137E-01  0.14064702983E+00  0.51109989000E-03 0. -1.
     -623    1    1    2    0    0 -0.49019730204E-02 -0.14348918896E+00  0.30129474682E+00  0.17130032514E+03  0.17130000000E+03 0.  1.
      622    1    1    2    0    0 -0.13014743184E+00  0.12666251226E+00  0.36632108974E+01  0.38590278342E+01  0.12000000000E+01 0. -1.
</event>
<event>
 5   0  0.5136900E+01  0.9118800E+02  0.7818608E-02  0.1180000E+00
       11   -1    0    0    0    0  0.00000000000E+00  0.00000000000E+00  0.39999999673E+01  0.40000000000E+01  0.51109989000E-03 0. -1.
     -623   -1    0    0    0    0  0.00000000000E+00  0.00000000000E+00  0.12525980253E-10  0.17130000000E+03  0.17130000000E+03 0. -1.
       11    1    1    2    0    0  0.25410708437E-01 -0.20680068278E-01  0.10039995672E-01  0.34269987778E-01  0.51109989000E-03 0. -1.
     -623    1    1    2    0    0 -0.91182570378E-01  0.84815169452E-02  0.21089712844E+00  0.17130015430E+03  0.17130000000E+03 0. -1.
      622    1    1    2    0    0  0.65771861940E-01  0.12198551333E-01  0.37790628432E+01  0.39655757105E+01  0.12000000000E+01 0. -1.
</event>
<event>
 5   0  0.5136900E+01  0.9118800E+02  0.7818608E-02  0.1180000E+00
       11   -1    0    0    0    0  0.00000000000E+00  0.00000000000E+00  0.39999999673E+01  0.40000000000E+01  0.51109989000E-03 0. -1.
     -623   -1    0    0    0    0  0.00000000000E+00  0.00000000000E+00  0.12525980253E-10  0.17130000000E+03  0.17130000000E+03 0. -1.
       11    1    1    2    0    0 -0.16863795506E-02 -0.11579833845E-01  0.27267532258E+00  0.27292678357E+00  0.51109989000E-03 0. -1.
     -623    1    1    2    0    0  0.42880487579E+00  0.33386307647E+00  0.24062225407E+00  0.17130103105E+03  0.17130000000E+03 0. -1.
      622    1    1    2    0    0 -0.42711849624E+00 -0.32228324262E+00  0.34867023907E+01  0.37260421709E+01  0.12000000000E+01 0.  0.
</event>
<event>
 5   0  0.5136900E+01  0.9118800E+02  0.7818608E-02  0.1180000E+00
       11   -1    0    0    0    0  0.00000000000E+00  0.00000000000E+00  0.39999999673E+01  0.40000000000E+01  0.51109989000E-03 0. -1.
     -623   -1    0    0    0    0  0.00000000000E+00  0.00000000000E+00  0.12525980253E-10  0.17130000000E+03  0.17130000000E+03 0.  1.
       11    1    1    2    0    0 -0.29332285837E-01 -0.20365011860E-01 -0.35599882905E-01  0.50425485485E-01  0.51109989000E-03 0. -1.
     -623    1    1    2    0    0  0.33429715231E-02 -0.14282799820E+00  0.27666434896E+00  0.17130028300E+03  0.17130000000E+03 0.  1.
      622    1    1    2    0    0  0.25989314313E-01  0.16319301006E+00  0.37589355013E+01  0.39492915195E+01  0.12000000000E+01 0. -1.
</event>
<event>
 5   0  0.5136900E+01  0.9118800E+02  0.7818608E-02  0.1180000E+00
       11   -1    0    0    0    0  0.00000000000E+00  0.00000000000E+00  0.39999999673E+01  0.40000000000E+01  0.51109989000E-03 0. -1.
     -623   -1    0    0    0    0  0.00000000000E+00  0.00000000000E+00  0.12525980253E-10  0.17130000000E+03  0.17130000000E+03 0. -1.
       11    1    1    2    0    0 -0.33974593102E+00 -0.41092930436E+00  0.96899986685E+00  0.11060068689E+01  0.51109989000E-03 0. -1.
     -623    1    1    2    0    0 -0.10850410409E+00 -0.16949809459E+00  0.50267659504E+00  0.17130085577E+03  0.17130000000E+03 0. -1.
      622    1    1    2    0    0  0.44825003511E+00  0.58042739894E+00  0.25283235055E+01  0.28931373641E+01  0.12000000000E+01 0. -1.
</event>
<event>
 5   0  0.5136900E+01  0.9118800E+02  0.7818608E-02  0.1180000E+00
       11   -1    0    0    0    0  0.00000000000E+00  0.00000000000E+00  0.39999999673E+01  0.40000000000E+01  0.51109989000E-03 0. -1.
     -623   -1    0    0    0    0  0.00000000000E+00  0.00000000000E+00  0.12525980253E-10  0.17130000000E+03  0.17130000000E+03 0. -1.
       11    1    1    2    0    0 -0.51565174824E-02 -0.19831374237E+00  0.25025351426E-01  0.19995364343E+00  0.51109989000E-03 0. -1.
     -623    1    1    2    0    0 -0.39442377218E+00  0.69155781951E-01  0.39489214486E+00  0.17130092321E+03  0.17130000000E+03 0. -1.
      622    1    1    2    0    0  0.39958028966E+00  0.12915796042E+00  0.35800824711E+01  0.37991231470E+01  0.12000000000E+01 0. -1.
</event>
<event>
 5   0  0.5136900E+01  0.9118800E+02  0.7818608E-02  0.1180000E+00
       11   -1    0    0    0    0  0.00000000000E+00  0.00000000000E+00  0.39999999673E+01  0.40000000000E+01  0.51109989000E-03 0. -1.
     -623   -1    0    0    0    0  0.00000000000E+00  0.00000000000E+00  0.12525980253E-10  0.17130000000E+03  0.17130000000E+03 0. -1.
       11    1    1    2    0    0 -0.71648027871E-01  0.22999004302E+00  0.79568398035E+00  0.83134957605E+00  0.51109989000E-03 0. -1.
     -623    1    1    2    0    0 -0.10360835631E+00 -0.20980293400E+00  0.27740856464E+00  0.17130038443E+03  0.17130000000E+03 0. -1.
      622    1    1    2    0    0  0.17525638418E+00 -0.20187109018E-01  0.29269074224E+01  0.31682659893E+01  0.12000000000E+01 0. -1.
</event>
<event>
 5   0  0.5136900E+01  0.9118800E+02  0.7818608E-02  0.1180000E+00
       11   -1    0    0    0    0  0.00000000000E+00  0.00000000000E+00  0.39999999673E+01  0.40000000000E+01  0.51109989000E-03 0. -1.
     -623   -1    0    0    0    0  0.00000000000E+00  0.00000000000E+00  0.12525980253E-10  0.17130000000E+03  0.17130000000E+03 0. -1.
       11    1    1    2    0    0  0.30072200839E+00  0.11769832988E+00  0.29666069341E+00  0.43851391246E+00  0.51109989000E-03 0. -1.
     -623    1    1    2    0    0 -0.29618004336E+00 -0.22432725350E+00  0.35261723513E+00  0.17130076586E+03  0.17130000000E+03 0. -1.
      622    1    1    2    0    0 -0.45419650327E-02  0.10662892362E+00  0.33507220388E+01  0.35607202275E+01  0.12000000000E+01 0. -1.
</event>
<event>
 5   0  0.5136900E+01  0.9118800E+02  0.7818608E-02  0.1180000E+00
       11   -1    0    0    0    0  0.00000000000E+00  0.00000000000E+00  0.39999999673E+01  0.40000000000E+01  0.51109989000E-03 0.  1.
     -623   -1    0    0    0    0  0.00000000000E+00  0.00000000000E+00  0.12525980253E-10  0.17130000000E+03  0.17130000000E+03 0.  1.
       11    1    1    2    0    0 -0.57417466683E-01  0.18685949346E+00  0.14028325332E+00  0.24060940996E+00  0.51109989000E-03 0.  1.
     -623    1    1    2    0    0  0.28283479854E+00 -0.22046865976E-01  0.30849342487E+00  0.17130051270E+03  0.17130000000E+03 0.  1.
      622    1    1    2    0    0 -0.22541733185E+00 -0.16481262748E+00  0.35512232892E+01  0.37588778944E+01  0.12000000000E+01 0.  1.
</event>
<event>
 5   0  0.5136900E+01  0.9118800E+02  0.7818608E-02  0.1180000E+00
       11   -1    0    0    0    0  0.00000000000E+00  0.00000000000E+00  0.39999999673E+01  0.40000000000E+01  0.51109989000E-03 0.  1.
     -623   -1    0    0    0    0  0.00000000000E+00  0.00000000000E+00  0.12525980253E-10  0.17130000000E+03  0.17130000000E+03 0. -1.
       11    1    1    2    0    0 -0.27094251344E+00 -0.66103343551E-01  0.94027110211E-01  0.29431421355E+00  0.51109989000E-03 0.  1.
     -623    1    1    2    0    0 -0.92049060412E-01  0.16586623417E+00  0.42089304132E+00  0.17130062211E+03  0.17130000000E+03 0. -1.
      622    1    1    2    0    0  0.36299157385E+00 -0.99762890624E-01  0.34850798158E+01  0.37050636755E+01  0.12000000000E+01 0.  1.
</event>
<event>
 5   0  0.5136900E+01  0.9118800E+02  0.7818608E-02  0.1180000E+00
       11   -1    0    0    0    0  0.00000000000E+00  0.00000000000E+00  0.39999999673E+01  0.40000000000E+01  0.51109989000E-03 0.  1.
     -623   -1    0    0    0    0  0.00000000000E+00  0.00000000000E+00  0.12525980253E-10  0.17130000000E+03  0.17130000000E+03 0.  1.
       11    1    1    2    0    0 -0.35276390649E-01  0.47712435424E-02  0.35576735424E+00  0.35754420715E+00  0.51109989000E-03 0.  1.
     -623    1    1    2    0    0  0.26416772088E+00  0.23901702488E+00  0.22196520078E+00  0.17130051425E+03  0.17130000000E+03 0.  1.
      622    1    1    2    0    0 -0.22889133023E+00 -0.24378826843E+00  0.34222674123E+01  0.36419415430E+01  0.12000000000E+01 0.  1.
</event>
<event>
 5   0  0.5136900E+01  0.9118800E+02  0.7818608E-02  0.1180000E+00
       11   -1    0    0    0    0  0.00000000000E+00  0.00000000000E+00  0.39999999673E+01  0.40000000000E+01  0.51109989000E-03 0.  1.
     -623   -1    0    0    0    0  0.00000000000E+00  0.00000000000E+00  0.12525980253E-10  0.17130000000E+03  0.17130000000E+03 0. -1.
       11    1    1    2    0    0  0.10780351266E+00  0.30257836824E+00  0.22773555189E+00  0.39374993217E+00  0.51109989000E-03 0.  1.
     -623    1    1    2    0    0  0.67221645949E-01  0.98589309779E-01  0.40035153591E+00  0.17130050940E+03  0.17130000000E+03 0. -1.
      622    1    1    2    0    0 -0.17502515861E+00 -0.40116767802E+00  0.33719128796E+01  0.36057406700E+01  0.12000000000E+01 0.  1.
</event>
<event>
 5   0  0.5136900E+01  0.9118800E+02  0.7818608E-02  0.1180000E+00
       11   -1    0    0    0    0  0.00000000000E+00  0.00000000000E+00  0.39999999673E+01  0.40000000000E+01  0.51109989000E-03 0. -1.
     -623   -1    0    0    0    0  0.00000000000E+00  0.00000000000E+00  0.12525980253E-10  0.17130000000E+03  0.17130000000E+03 0.  1.
       11    1    1    2    0    0 -0.15522069975E-01  0.78380198244E-01 -0.12032702964E-01  0.80804933601E-01  0.51109989000E-03 0. -1.
     -623    1    1    2    0    0  0.75678879110E-01 -0.20251066499E+00  0.28401066179E+00  0.17130037186E+03  0.17130000000E+03 0.  1.
      622    1    1    2    0    0 -0.60156809134E-01  0.12413046675E+00  0.37280220085E+01  0.39188232048E+01  0.12000000000E+01 0. -1.
</event>
<event>
 5   0  0.5136900E+01  0.9118800E+02  0.7818608E-02  0.1180000E+00
       11   -1    0    0    0    0  0.00000000000E+00  0.00000000000E+00  0.39999999673E+01  0.40000000000E+01  0.51109989000E-03 0. -1.
     -623   -1    0    0    0    0  0.00000000000E+00  0.00000000000E+00  0.12525980253E-10  0.17130000000E+03  0.17130000000E+03 0. -1.
       11    1    1    2    0    0 -0.18382176385E+00  0.41859272718E-01  0.13405996270E+00  0.23133303785E+00  0.51109989000E-03 0. -1.
     -623    1    1    2    0    0  0.28775390025E+00 -0.19214810635E+00  0.29874713904E+00  0.17130060996E+03  0.17130000000E+03 0. -1.
      622    1    1    2    0    0 -0.10393213640E+00  0.15028883363E+00  0.35671928656E+01  0.37680570010E+01  0.12000000000E+01 0. -1.
</event>
<event>
 5   0  0.5136900E+01  0.9118800E+02  0.7818608E-02  0.1180000E+00
       11   -1    0    0    0    0  0.00000000000E+00  0.00000000000E+00  0.39999999673E+01  0.40000000000E+01  0.51109989000E-03 0.  1.
     -623   -1    0    0    0    0  0.00000000000E+00  0.00000000000E+00  0.12525980253E-10  0.17130000000E+03  0.17130000000E+03 0.  1.
       11    1    1    2    0    0  0.53581934579E-01  0.14249221062E-02 -0.20045021458E-01  0.57228648629E-01  0.51109989000E-03 0.  1.
     -623    1    1    2    0    0 -0.59802824506E-01 -0.16416811253E+00  0.26817024771E+00  0.17130029902E+03  0.17130000000E+03 0.  1.
      622    1    1    2    0    0  0.62208899265E-02  0.16274319042E+00  0.37518747411E+01  0.39424723358E+01  0.12000000000E+01 0.  1.
</event>
<event>
 5   0  0.5136900E+01  0.9118800E+02  0.7818608E-02  0.1180000E+00
       11   -1    0    0    0    0  0.00000000000E+00  0.00000000000E+00  0.39999999673E+01  0.40000000000E+01  0.51109989000E-03 0.  1.
     -623   -1    0    0    0    0  0.00000000000E+00  0.00000000000E+00  0.12525980253E-10  0.17130000000E+03  0.17130000000E+03 0.  1.
       11    1    1    2    0    0  0.10870398300E+00  0.37397438712E+00  0.28355631138E+00  0.48174458076E+00  0.51109989000E-03 0.  1.
     -623    1    1    2    0    0 -0.56974381643E-01  0.15623384151E+00  0.45308024336E+00  0.17130067991E+03  0.17130000000E+03 0.  1.
      622    1    1    2    0    0 -0.51729601353E-01 -0.53020822864E+00  0.32633634126E+01  0.35175755117E+01  0.12000000000E+01 0.  1.
</event>
<event>
 5   0  0.5136900E+01  0.9118800E+02  0.7818608E-02  0.1180000E+00
       11   -1    0    0    0    0  0.00000000000E+00  0.00000000000E+00  0.39999999673E+01  0.40000000000E+01  0.51109989000E-03 0. -1.
     -623   -1    0    0    0    0  0.00000000000E+00  0.00000000000E+00  0.12525980253E-10  0.17130000000E+03  0.17130000000E+03 0. -1.
       11    1    1    2    0    0  0.45010392324E-01  0.58255377406E-01  0.68330763962E-02  0.73936300759E-01  0.51109989000E-03 0. -1.
     -623    1    1    2    0    0  0.71542743785E-01  0.63510358434E-02  0.25758411468E+00  0.17130020872E+03  0.17130000000E+03 0. -1.
      622    1    1    2    0    0 -0.11655313611E+00 -0.64606413249E-01  0.37355827763E+01  0.39258549770E+01  0.12000000000E+01 0. -1.
</event>
<event>
 5   0  0.5136900E+01  0.9118800E+02  0.7818608E-02  0.1180000E+00
       11   -1    0    0    0    0  0.00000000000E+00  0.00000000000E+00  0.39999999673E+01  0.40000000000E+01  0.51109989000E-03 0.  1.
     -623   -1    0    0    0    0  0.00000000000E+00  0.00000000000E+00  0.12525980253E-10  0.17130000000E+03  0.17130000000E+03 0. -1.
       11    1    1    2    0    0 -0.42336926284E+00  0.39983749140E-01  0.87783846134E+00  0.97541829917E+00  0.51109989000E-03 0.  1.
     -623    1    1    2    0    0  0.40283275140E+00 -0.18715418367E+00  0.35081566537E+00  0.17130093512E+03  0.17130000000E+03 0. -1.
      622    1    1    2    0    0  0.20536511440E-01  0.14717043453E+00  0.27713458406E+01  0.30236465821E+01  0.12000000000E+01 0.  1.
</event>
<event>
 5   0  0.5136900E+01  0.9118800E+02  0.7818608E-02  0.1180000E+00
       11   -1    0    0    0    0  0.00000000000E+00  0.00000000000E+00  0.39999999673E+01  0.40000000000E+01  0.51109989000E-03 0.  1.
     -623   -1    0    0    0    0  0.00000000000E+00  0.00000000000E+00  0.12525980253E-10  0.17130000000E+03  0.17130000000E+03 0. -1.
       11    1    1    2    0    0 -0.11855174196E+00 -0.35714053294E-01  0.53370441537E+00  0.54787833807E+00  0.51109989000E-03 0.  1.
     -623    1    1    2    0    0  0.51452621702E-02  0.15446198066E+00  0.23386637708E+00  0.17130022936E+03  0.17130000000E+03 0. -1.
      622    1    1    2    0    0  0.11340647979E+00 -0.11874792736E+00  0.32324291749E+01  0.34518923029E+01  0.12000000000E+01 0.  1.
</event>
<event>
 5   0  0.5136900E+01  0.9118800E+02  0.7818608E-02  0.1180000E+00
       11   -1    0    0    0    0  0.00000000000E+00  0.00000000000E+00  0.39999999673E+01  0.40000000000E+01  0.51109989000E-03 0.  1.
     -623   -1    0    0    0    0  0.00000000000E+00  0.00000000000E+00  0.12525980253E-10  0.17130000000E+03  0.17130000000E+03 0. -1.
       11    1    1    2    0    0 -0.22715055687E-01 -0.74052771841E-02  0.20757311170E-02  0.23987116704E-01  0.51109989000E-03 0.  1.
     -623    1    1    2    0    0 -0.71418551544E-01  0.19905305550E+00  0.21361567148E+00  0.17130026373E+03  0.17130000000E+03 0. -1.
      622    1    1    2    0    0  0.94133607230E-01 -0.19164777832E+00  0.37843085648E+01  0.39757491521E+01  0.12000000000E+01 0.  1.
</event>
<event>
 5   0  0.5136900E+01  0.9118800E+02  0.7818608E-02  0.1180000E+00
       11   -1    0    0    0    0  0.00000000000E+00  0.00000000000E+00  0.39999999673E+01  0.40000000000E+01  0.51109989000E-03 0. -1.
     -623   -1    0    0    0    0  0.00000000000E+00  0.00000000000E+00  0.12525980253E-10  0.17130000000E+03  0.17130000000E+03 0. -1.
       11    1    1    2    0    0  0.18352471574E+00  0.60363510327E-01  0.35270169349E+00  0.40214900283E+00  0.51109989000E-03 0. -1.
     -623    1    1    2    0    0 -0.96652022831E-01  0.13516642988E+00  0.26251975025E+00  0.17130028175E+03  0.17130000000E+03 0. -1.
      622    1    1    2    0    0 -0.86872692913E-01 -0.19552994021E+00  0.33847785236E+01  0.35975692455E+01  0.12000000000E+01 0. -1.
</event>
<event>
 5   0  0.5136900E+01  0.9118800E+02  0.7818608E-02  0.1180000E+00
       11   -1    0    0    0    0  0.00000000000E+00  0.00000000000E+00  0.39999999673E+01  0.40000000000E+01  0.51109989000E-03 0.  1.
     -623   -1    0    0    0    0  0.00000000000E+00  0.00000000000E+00  0.12525980253E-10  0.17130000000E+03  0.17130000000E+03 0. -1.
       11    1    1    2    0    0 -0.15825015819E+00 -0.28134159132E-01  0.22426028776E+00  0.27591227114E+00  0.51109989000E-03 0.  1.
     -623    1    1    2    0    0  0.21961488267E+00  0.61025575380E-02  0.25123163353E+00  0.17130032512E+03  0.17130000000E+03 0. -1.
      622    1    1    2    0    0 -0.61364724481E-01  0.22031601594E-01  0.35245080461E+01  0.37237626116E+01  0.12000000000E+01 0.  1.
</event>
<event>
 5   0  0.5136900E+01  0.9118800E+02  0.7818608E-02  0.1180000E+00
       11   -1    0    0    0    0  0.00000000000E+00  0.00000000000E+00  0.39999999673E+01  0.40000000000E+01  0.51109989000E-03 0.  1.
     -623   -1    0    0    0    0  0.00000000000E+00  0.00000000000E+00  0.12525980253E-10  0.17130000000E+03  0.17130000000E+03 0.  1.
       11    1    1    2    0    0 -0.59417456875E-01  0.43418975630E-02  0.19231889737E+00  0.20133580348E+00  0.51109989000E-03 0.  1.
     -623    1    1    2    0    0  0.57087036690E-01  0.76543366306E-01  0.20460303425E+00  0.17130014880E+03  0.17130000000E+03 0.  1.
      622    1    1    2    0    0  0.23304201852E-02 -0.80885263869E-01  0.36030780357E+01  0.37985153927E+01  0.12000000000E+01 0.  1.
</event>
<event>
 5   0  0.5136900E+01  0.9118800E+02  0.7818608E-02  0.1180000E+00
       11   -1    0    0    0    0  0.00000000000E+00  0.00000000000E+00  0.39999999673E+01  0.40000000000E+01  0.51109989000E-03 0.  1.
     -623   -1    0    0    0    0  0.00000000000E+00  0.00000000000E+00  0.12525980253E-10  0.17130000000E+03  0.17130000000E+03 0.  1.
       11    1    1    2    0    0  0.46153830961E-01 -0.47312491392E-01  0.21269869749E-01  0.69435700733E-01  0.51109989000E-03 0.  1.
     -623    1    1    2    0    0 -0.27322089124E+00 -0.98306918835E-01  0.24600345382E+00  0.17130042274E+03  0.17130000000E+03 0.  1.
      622    1    1    2    0    0  0.22706706028E+00  0.14561941023E+00  0.37327266438E+01  0.39301415572E+01  0.12000000000E+01 0.  1.
</event>
<event>
 5   0  0.5136900E+01  0.9118800E+02  0.7818608E-02  0.1180000E+00
       11   -1    0    0    0    0  0.00000000000E+00  0.00000000000E+00  0.39999999673E+01  0.40000000000E+01  0.51109989000E-03 0.  1.
     -623   -1    0    0    0    0  0.00000000000E+00  0.00000000000E+00  0.12525980253E-10  0.17130000000E+03  0.17130000000E+03 0. -1.
       11    1    1    2    0    0  0.76360696561E-01 -0.20258845614E+00 -0.15307918279E-01  0.21704292692E+00  0.51109989000E-03 0.  1.
     -623    1    1    2    0    0 -0.20494112443E+00 -0.15543103113E+00  0.44877662787E+00  0.17130078097E+03  0.17130000000E+03 0. -1.
      622    1    1    2    0    0  0.12858042787E+00  0.35801948728E+00  0.35665312578E+01  0.37821761054E+01  0.12000000000E+01 0.  1.
</event>
<event>
 5   0  0.5136900E+01  0.9118800E+02  0.7818608E-02  0.1180000E+00
       11   -1    0    0    0    0  0.00000000000E+00  0.00000000000E+00  0.39999999673E+01  0.40000000000E+01  0.51109989000E-03 0. -1.
     -623   -1    0    0    0    0  0.00000000000E+00  0.00000000000E+00  0.12525980253E-10  0.17130000000E+03  0.17130000000E+03 0.  1.
       11    1    1    2    0    0 -0.34040173099E+00  0.31998356061E-01  0.70063652152E+00  0.77960825403E+00  0.51109989000E-03 0. -1.
     -623    1    1    2    0    0 -0.56054890206E-01 -0.54076021351E-01  0.33777622123E+00  0.17130035073E+03  0.17130000000E+03 0.  1.
      622    1    1    2    0    0  0.39645662119E+00  0.22077665290E-01  0.29615872246E+01  0.32200410191E+01  0.12000000000E+01 0. -1.
</event>
<event>
 5   0  0.5136900E+01  0.9118800E+02  0.7818608E-02  0.1180000E+00
       11   -1    0    0    0    0  0.00000000000E+00  0.00000000000E+00  0.39999999673E+01  0.40000000000E+01  0.51109989000E-03 0.  1.
     -623   -1    0    0    0    0  0.00000000000E+00  0.00000000000E+00  0.12525980253E-10  0.17130000000E+03  0.17130000000E+03 0. -1.
       11    1    1    2    0    0 -0.81707565105E-01  0.18538963581E+00  0.23651914344E+00  0.31142737467E+00  0.51109989000E-03 0.  1.
     -623    1    1    2    0    0  0.10437264451E+00 -0.33554229555E+00  0.27949347522E+00  0.17130058844E+03  0.17130000000E+03 0. -1.
      622    1    1    2    0    0 -0.22665079407E-01  0.15015265975E+00  0.34839873487E+01  0.36879841883E+01  0.12000000000E+01 0.  1.
</event>
<event>
 5   0  0.5136900E+01  0.9118800E+02  0.7818608E-02  0.1180000E+00
       11   -1    0    0    0    0  0.00000000000E+00  0.00000000000E+00  0.39999999673E+01  0.40000000000E+01  0.51109989000E-03 0.  1.
     -623   -1    0    0    0    0  0.00000000000E+00  0.00000000000E+00  0.12525980253E-10  0.17130000000E+03  0.17130000000E+03 0.  1.
       11    1    1    2    0    0  0.89644773709E-01 -0.23688375402E+00  0.45982207059E+00  0.52496351892E+00  0.51109989000E-03 0.  1.
     -623    1    1    2    0    0 -0.27649540347E+00 -0.13481491040E-01  0.29441606518E+00  0.17130047668E+03  0.17130000000E+03 0.  1.
      622    1    1    2    0    0  0.18685062976E+00  0.25036524506E+00  0.32457618316E+01  0.34745597968E+01  0.12000000000E+01 0.  1.
</event>
<event>
 5   0  0.5136900E+01  0.9118800E+02  0.7818608E-02  0.1180000E+00
       11   -1    0    0    0    0  0.00000000000E+00  0.00000000000E+00  0.39999999673E+01  0.40000000000E+01  0.51109989000E-03 0. -1.
     -623   -1    0    0    0    0  0.00000000000E+00  0.00000000000E+00  0.12525980253E-10  0.17130000000E+03  0.17130000000E+03 0. -1.
       11    1    1    2    0    0  0.87095531610E-01 -0.14395576779E+00  0.14371413590E+00  0.22127563984E+00  0.51109989000E-03 0. -1.
     -623    1    1    2    0    0 -0.27872227248E+00  0.69867901350E-01  0.27955507761E+00  0.17130046911E+03  0.17130000000E+03 0. -1.
      622    1    1    2    0    0  0.19162674087E+00  0.74087866438E-01  0.35767307538E+01  0.37782552462E+01  0.12000000000E+01 0. -1.
</event>
<event>
 5   0  0.5136900E+01  0.9118800E+02  0.7818608E-02  0.1180000E+00
       11   -1    0    0    0    0  0.00000000000E+00  0.00000000000E+00  0.39999999673E+01  0.40000000000E+01  0.51109989000E-03 0. -1.
     -623   -1    0    0    0    0  0.00000000000E+00  0.00000000000E+00  0.12525980253E-10  0.17130000000E+03  0.17130000000E+03 0.  1.
       11    1    1    2    0    0 -0.80529490825E-01 -0.16626304110E+00  0.34069227284E-01  0.18785465445E+00  0.51109989000E-03 0. -1.
     -623    1    1    2    0    0 -0.11721877816E+00  0.33322148730E+00  0.35762779796E+00  0.17130073752E+03  0.17130000000E+03 0.  1.
      622    1    1    2    0    0  0.19774826898E+00 -0.16695844620E+00  0.36083029421E+01  0.38114078269E+01  0.12000000000E+01 0. -1.
</event>
<event>
 5   0  0.5136900E+01  0.9118800E+02  0.7818608E-02  0.1180000E+00
       11   -1    0    0    0    0  0.00000000000E+00  0.00000000000E+00  0.39999999673E+01  0.40000000000E+01  0.51109989000E-03 0. -1.
     -623   -1    0    0    0    0  0.00000000000E+00  0.00000000000E+00  0.12525980253E-10  0.17130000000E+03  0.17130000000E+03 0.  1.
       11    1    1    2    0    0 -0.16296002479E+00  0.19000261139E+00  0.31473288349E+00  0.40213680656E+00  0.51109989000E-03 0. -1.
     -623    1    1    2    0    0  0.33264069073E+00 -0.19325973407E+00  0.29840434670E+00  0.17130069190E+03  0.17130000000E+03 0.  1.
      622    1    1    2    0    0 -0.16968066594E+00  0.32571226756E-02  0.33868627372E+01  0.35971712967E+01  0.12000000000E+01 0. -1.
</event>
<event>
 5   0  0.5136900E+01  0.9118800E+02  0.7818608E-02  0.1180000E+00
       11   -1    0    0    0    0  0.00000000000E+00  0.00000000000E+00  0.39999999673E+01  0.40000000000E+01  0.51109989000E-03 0. -1.
     -623   -1    0    0    0    0  0.00000000000E+00  0.00000000000E+00  0.12525980253E-10  0.17130000000E+03  0.17130000000E+03 0.  1.
       11    1    1    2    0    0  0.43048986948E+00  0.33777914987E-01  0.53490053200E+00  0.68744550011E+00  0.51109989000E-03 0. -1.
     -623    1    1    2    0    0 -0.19581100019E+00 -0.60116362576E-02  0.38718921691E+00  0.17130054960E+03  0.17130000000E+03 0.  1.
      622    1    1    2    0    0 -0.23467886929E+00 -0.27766278729E-01  0.30779102185E+01  0.33120048990E+01  0.12000000000E+01 0. -1.
</event>
<event>
 5   0  0.5136900E+01  0.9118800E+02  0.7818608E-02  0.1180000E+00
       11   -1    0    0    0    0  0.00000000000E+00  0.00000000000E+00  0.39999999673E+01  0.40000000000E+01  0.51109989000E-03 0.  1.
     -623   -1    0    0    0    0  0.00000000000E+00  0.00000000000E+00  0.12525980253E-10  0.17130000000E+03  0.17130000000E+03 0. -1.
       11    1    1    2    0    0  0.26269241104E-02  0.37367855626E-01  0.13299935503E-01  0.39754331486E-01  0.51109989000E-03 0.  1.
     -623    1    1    2    0    0 -0.83459770494E-01 -0.21077890447E-01  0.21370130830E+00  0.17130015493E+03  0.17130000000E+03 0. -1.
      622    1    1    2    0    0  0.80832846384E-01 -0.16289965179E-01  0.37729987236E+01  0.39600907414E+01  0.12000000000E+01 0.  1.
</event>
<event>
 5   0  0.5136900E+01  0.9118800E+02  0.7818608E-02  0.1180000E+00
       11   -1    0    0    0    0  0.00000000000E+00  0.00000000000E+00  0.39999999673E+01  0.40000000000E+01  0.51109989000E-03 0. -1.
     -623   -1    0    0    0    0  0.00000000000E+00  0.00000000000E+00  0.12525980253E-10  0.17130000000E+03  0.17130000000E+03 0.  1.
       11    1    1    2    0    0  0.17474308810E+00  0.37563248779E+00  0.25214041366E+00  0.48498449680E+00  0.51109989000E-03 0. -1.
     -623    1    1    2    0    0 -0.14264658893E+00 -0.14675219176E-01  0.46469627439E+00  0.17130069033E+03  0.17130000000E+03 0.  1.
      622    1    1    2    0    0 -0.32096499164E-01 -0.36095726861E+00  0.32831632793E+01  0.35143251776E+01  0.12000000000E+01 0. -1.
</event>
<event>
 5   0  0.5136900E+01  0.9118800E+02  0.7818608E-02  0.1180000E+00
       11   -1    0    0    0    0  0.00000000000E+00  0.00000000000E+00  0.39999999673E+01  0.40000000000E+01  0.51109989000E-03 0.  1.
     -623   -1    0    0    0    0  0.00000000000E+00  0.00000000000E+00  0.12525980253E-10  0.17130000000E+03  0.17130000000E+03 0.  1.
       11    1    1    2    0    0  0.52129039662E-01  0.73489713174E-01  0.91826145305E-01  0.12864865683E+00  0.51109989000E-03 0.  1.
     -623    1    1    2    0    0 -0.12283897646E+00 -0.11274209737E+00  0.22863431584E+00  0.17130023372E+03  0.17130000000E+03 0.  1.
      622    1    1    2    0    0  0.70709936801E-01  0.39252384199E-01  0.36795395062E+01  0.38711176193E+01  0.12000000000E+01 0.  1.
</event>
<event>
 5   0  0.5136900E+01  0.9118800E+02  0.7818608E-02  0.1180000E+00
       11   -1    0    0    0    0  0.00000000000E+00  0.00000000000E+00  0.39999999673E+01  0.40000000000E+01  0.51109989000E-03 0. -1.
     -623   -1    0    0    0    0  0.00000000000E+00  0.00000000000E+00  0.12525980253E-10  0.17130000000E+03  0.17130000000E+03 0. -1.
       11    1    1    2    0    0  0.23115768884E-01  0.89680386125E-03  0.46864798002E-02  0.23608628598E-01  0.51109989000E-03 0. -1.
     -623    1    1    2    0    0 -0.58919631217E-01  0.11141951428E+00  0.20632489420E+00  0.17130017062E+03  0.17130000000E+03 0. -1.
      622    1    1    2    0    0  0.35803862333E-01 -0.11231631814E+00  0.37889885934E+01  0.39762207475E+01  0.12000000000E+01 0. -1.
</event>
<event>
 5   0  0.5136900E+01  0.9118800E+02  0.7818608E-02  0.1180000E+00
       11   -1    0    0    0    0  0.00000000000E+00  0.00000000000E+00  0.39999999673E+01  0.40000000000E+01  0.51109989000E-03 0.  1.
     -623   -1    0    0    0    0  0.00000000000E+00  0.00000000000E+00  0.12525980253E-10  0.17130000000E+03  0.17130000000E+03 0.  1.
       11    1    1    2    0    0  0.13885868792E+00 -0.12484202792E-01  0.27633322900E-01  0.14213181307E+00  0.51109989000E-03 0.  1.
     -623    1    1    2    0    0  0.29348664903E+00  0.58538472144E+00  0.37860443441E+00  0.17130167002E+03  0.17130000000E+03 0.  1.
      622    1    1    2    0    0 -0.43234533695E+00 -0.57290051865E+00  0.35937622100E+01  0.38561981688E+01  0.12000000000E+01 0.  1.
</event>
<event>
 5   0  0.5136900E+01  0.9118800E+02  0.7818608E-02  0.1180000E+00
       11   -1    0    0    0    0  0.00000000000E+00  0.00000000000E+00  0.39999999673E+01  0.40000000000E+01  0.51109989000E-03 0.  1.
     -623   -1    0    0    0    0  0.00000000000E+00  0.00000000000E+00  0.12525980253E-10  0.17130000000E+03  0.17130000000E+03 0.  1.
       11    1    1    2    0    0  0.11376352533E+00 -0.13123267977E+00  0.23887996998E+00  0.29534396424E+00  0.51109989000E-03 0.  1.
     -623    1    1    2    0    0 -0.26403713835E+00 -0.11350352139E+00  0.26846290580E+00  0.17130045146E+03  0.17130000000E+03 0.  1.
      622    1    1    2    0    0  0.15027361301E+00  0.24473620116E+00  0.34926570916E+01  0.37042045740E+01  0.12000000000E+01 0.  1.
</event>
<event>
 5   0  0.5136900E+01  0.9118800E+02  0.7818608E-02  0.1180000E+00
       11   -1    0    0    0    0  0.00000000000E+00  0.00000000000E+00  0.39999999673E+01  0.40000000000E+01  0.51109989000E-03 0.  1.
     -623   -1    0    0    0    0  0.00000000000E+00  0.00000000000E+00  0.12525980253E-10  0.17130000000E+03  0.17130000000E+03 0.  1.
       11    1    1    2    0    0  0.16338861914E-01 -0.89133760196E-01  0.31057750075E+00  0.32352809895E+00  0.51109989000E-03 0.  1.
     -623    1    1    2    0    0  0.74849118161E-01  0.44777619365E+00  0.23487486661E+00  0.17130076261E+03  0.17130000000E+03 0.  1.
      622    1    1    2    0    0 -0.91187980075E-01 -0.35864243345E+00  0.34545476000E+01  0.36757092871E+01  0.12000000000E+01 0.  1.
</event>
<event>
 5   0  0.5136900E+01  0.9118800E+02  0.7818608E-02  0.1180000E+00
       11   -1    0    0    0    0  0.00000000000E+00  0.00000000000E+00  0.39999999673E+01  0.40000000000E+01  0.51109989000E-03 0. -1.
     -623   -1    0    0    0    0  0.00000000000E+00  0.00000000000E+00  0.12525980253E-10  0.17130000000E+03  0.17130000000E+03 0.  1.
       11    1    1    2    0    0 -0.96260980299E-01 -0.71924311322E-01  0.15095370835E-01  0.12110910094E+00  0.51109989000E-03 0. -1.
     -623    1    1    2    0    0  0.19043579216E+00  0.14965128243E+00  0.29877726078E+00  0.17130043178E+03  0.17130000000E+03 0.  1.
      622    1    1    2    0    0 -0.94174811860E-01 -0.77726971106E-01  0.36861273357E+01  0.38784591157E+01  0.12000000000E+01 0. -1.
</event>
<event>
 5   0  0.5136900E+01  0.9118800E+02  0.7818608E-02  0.1180000E+00
       11   -1    0    0    0    0  0.00000000000E+00  0.00000000000E+00  0.39999999673E+01  0.40000000000E+01  0.51109989000E-03 0. -1.
     -623   -1    0    0    0    0  0.00000000000E+00  0.00000000000E+00  0.12525980253E-10  0.17130000000E+03  0.17130000000E+03 0. -1.
       11    1    1    2    0    0 -0.61414112036E-01  0.69046627347E-01  0.77337736677E-01  0.12050110640E+00  0.51109989000E-03 0. -1.
     -623    1    1    2    0    0 -0.68197610645E-01 -0.58550219988E-01  0.23590769919E+00  0.17130018602E+03  0.17130000000E+03 0. -1.
      622    1    1    2    0    0  0.12961172268E+00 -0.10496407359E-01  0.36867545315E+01  0.38793128707E+01  0.12000000000E+01 0. -1.
</event>
<event>
 5   0  0.5136900E+01  0.9118800E+02  0.7818608E-02  0.1180000E+00
       11   -1    0    0    0    0  0.00000000000E+00  0.00000000000E+00  0.39999999673E+01  0.40000000000E+01  0.51109989000E-03 0. -1.
     -623   -1    0    0    0    0  0.00000000000E+00  0.00000000000E+00  0.12525980253E-10  0.17130000000E+03  0.17130000000E+03 0. -1.
       11    1    1    2    0    0 -0.59811962686E-01  0.77755573416E-01  0.34069642211E-01  0.10384797456E+00  0.51109989000E-03 0. -1.
     -623    1    1    2    0    0  0.25303587804E-01 -0.33575404441E-01  0.25981613816E+00  0.17130020219E+03  0.17130000000E+03 0. -1.
      622    1    1    2    0    0  0.34508374882E-01 -0.44180168976E-01  0.37061141870E+01  0.38959498306E+01  0.12000000000E+01 0. -1.
</event>
<event>
 5   0  0.5136900E+01  0.9118800E+02  0.7818608E-02  0.1180000E+00
       11   -1    0    0    0    0  0.00000000000E+00  0.00000000000E+00  0.39999999673E+01  0.40000000000E+01  0.51109989000E-03 0. -1.
     -623   -1    0    0    0    0  0.00000000000E+00  0.00000000000E+00  0.12525980253E-10  0.17130000000E+03  0.17130000000E+03 0.  1.
       11    1    1    2    0    0 -0.32926868272E-01 -0.15534692233E+00  0.50487636721E-01  0.16663165250E+00  0.51109989000E-03 0. -1.
     -623    1    1    2    0    0 -0.35921706522E-01  0.77056927610E-01  0.31062203201E+00  0.17130030273E+03  0.17130000000E+03 0.  1.
      622    1    1    2    0    0  0.68848574794E-01  0.78289994718E-01  0.36388902986E+01  0.38330656210E+01  0.12000000000E+01 0. -1.
</event>
<event>
 5   0  0.5136900E+01  0.9118800E+02  0.7818608E-02  0.1180000E+00
       11   -1    0    0    0    0  0.00000000000E+00  0.00000000000E+00  0.39999999673E+01  0.40000000000E+01  0.51109989000E-03 0. -1.
     -623   -1    0    0    0    0  0.00000000000E+00  0.00000000000E+00  0.12525980253E-10  0.17130000000E+03  0.17130000000E+03 0.  1.
       11    1    1    2    0    0  0.10021571192E+00  0.15539160338E+00  0.36002855583E+00  0.40473517459E+00  0.51109989000E-03 0. -1.
     -623    1    1    2    0    0 -0.80117089153E-01 -0.24012880797E+00  0.25239661545E+00  0.17130037298E+03  0.17130000000E+03 0.  1.
      622    1    1    2    0    0 -0.20098622765E-01  0.84737204588E-01  0.33875747961E+01  0.35948918409E+01  0.12000000000E+01 0. -1.
</event>
<event>
 5   0  0.5136900E+01  0.9118800E+02  0.7818608E-02  0.1180000E+00
       11   -1    0    0    0    0  0.00000000000E+00  0.00000000000E+00  0.39999999673E+01  0.40000000000E+01  0.51109989000E-03 0. -1.
     -623   -1    0    0    0    0  0.00000000000E+00  0.00000000000E+00  0.12525980253E-10  0.17130000000E+03  0.17130000000E+03 0.  1.
       11    1    1    2    0    0  0.27636733889E-02 -0.37164222026E-01  0.50836849743E-02  0.37615453801E-01  0.51109989000E-03 0. -1.
     -623    1    1    2    0    0 -0.81344497921E-01 -0.11418492297E-01  0.21990881305E+00  0.17130016085E+03  0.17130000000E+03 0.  1.
      622    1    1    2    0    0  0.78580824532E-01  0.48582714323E-01  0.37750074693E+01  0.39622236963E+01  0.12000000000E+01 0. -1.
</event>
<event>
 5   0  0.5136900E+01  0.9118800E+02  0.7818608E-02  0.1180000E+00
       11   -1    0    0    0    0  0.00000000000E+00  0.00000000000E+00  0.39999999673E+01  0.40000000000E+01  0.51109989000E-03 0. -1.
     -623   -1    0    0    0    0  0.00000000000E+00  0.00000000000E+00  0.12525980253E-10  0.17130000000E+03  0.17130000000E+03 0. -1.
       11    1    1    2    0    0  0.30126421781E+00 -0.20979898749E+00  0.42037977767E+00  0.55811751700E+00  0.51109989000E-03 0. -1.
     -623    1    1    2    0    0 -0.22967837820E+00  0.19504554130E+00  0.35520492275E+00  0.17130063329E+03  0.17130000000E+03 0. -1.
      622    1    1    2    0    0 -0.71585839611E-01  0.14753446190E-01  0.32244152669E+01  0.34412491933E+01  0.12000000000E+01 0. -1.
</event>
<event>
 5   0  0.5136900E+01  0.9118800E+02  0.7818608E-02  0.1180000E+00
       11   -1    0    0    0    0  0.00000000000E+00  0.00000000000E+00  0.39999999673E+01  0.40000000000E+01  0.51109989000E-03 0. -1.
     -623   -1    0    0    0    0  0.00000000000E+00  0.00000000000E+00  0.12525980253E-10  0.17130000000E+03  0.17130000000E+03 0.  1.
       11    1    1    2    0    0 -0.22963368946E-01  0.68930815235E-01  0.74131011802E-01  0.10380000836E+00  0.51109989000E-03 0. -1.
     -623    1    1    2    0    0  0.78939175869E-02 -0.48707500891E-01  0.21930868985E+00  0.17130014749E+03  0.17130000000E+03 0.  1.
      622    1    1    2    0    0  0.15069451359E-01 -0.20223314343E-01  0.37065602657E+01  0.38960524989E+01  0.12000000000E+01 0. -1.
</event>
<event>
 5   0  0.5136900E+01  0.9118800E+02  0.7818608E-02  0.1180000E+00
       11   -1    0    0    0    0  0.00000000000E+00  0.00000000000E+00  0.39999999673E+01  0.40000000000E+01  0.51109989000E-03 0.  1.
     -623   -1    0    0    0    0  0.00000000000E+00  0.00000000000E+00  0.12525980253E-10  0.17130000000E+03  0.17130000000E+03 0.  1.
       11    1    1    2    0    0 -0.10423888561E+00 -0.51346936230E-01  0.20596592613E+00  0.23648356620E+00  0.51109989000E-03 0.  1.
     -623    1    1    2    0    0  0.29991519547E-01 -0.65210040273E-02  0.22836044617E+00  0.17130015496E+03  0.17130000000E+03 0.  1.
      622    1    1    2    0    0  0.74247366062E-01  0.57867940258E-01  0.35656735951E+01  0.37633614703E+01  0.12000000000E+01 0.  1.
</event>
<event>
 5   0  0.5136900E+01  0.9118800E+02  0.7818608E-02  0.1180000E+00
       11   -1    0    0    0    0  0.00000000000E+00  0.00000000000E+00  0.39999999673E+01  0.40000000000E+01  0.51109989000E-03 0. -1.
     -623   -1    0    0    0    0  0.00000000000E+00  0.00000000000E+00  0.12525980253E-10  0.17130000000E+03  0.17130000000E+03 0. -1.
       11    1    1    2    0    0  0.59556413728E-01  0.94007138672E-01  0.11406749494E+00  0.15936110931E+00  0.51109989000E-03 0. -1.
     -623    1    1    2    0    0 -0.52885266335E-01 -0.15755667018E+00  0.23839486191E+00  0.17130024651E+03  0.17130000000E+03 0. -1.
      622    1    1    2    0    0 -0.66711473933E-02  0.63549531512E-01  0.36475376105E+01  0.38403923845E+01  0.12000000000E+01 0. -1.
</event>
<event>
 5   0  0.5136900E+01  0.9118800E+02  0.7818608E-02  0.1180000E+00
       11   -1    0    0    0    0  0.00000000000E+00  0.00000000000E+00  0.39999999673E+01  0.40000000000E+01  0.51109989000E-03 0. -1.
     -623   -1    0    0    0    0  0.00000000000E+00  0.00000000000E+00  0.12525980253E-10  0.17130000000E+03  0.17130000000E+03 0.  1.
       11    1    1    2    0    0 -0.27102351733E-01 -0.15592291088E-01  0.29309583708E-01  0.42859887203E-01  0.51109989000E-03 0. -1.
     -623    1    1    2    0    0  0.23458757884E-01  0.10088186083E+00  0.20101014336E+00  0.17130014925E+03  0.17130000000E+03 0.  1.
      622    1    1    2    0    0  0.36435938491E-02 -0.85289569742E-01  0.37696802403E+01  0.39569908643E+01  0.12000000000E+01 0. -1.
</event>
<event>
 5   0  0.5136900E+01  0.9118800E+02  0.7818608E-02  0.1180000E+00
       11   -1    0    0    0    0  0.00000000000E+00  0.00000000000E+00  0.39999999673E+01  0.40000000000E+01  0.51109989000E-03 0. -1.
     -623   -1    0    0    0    0  0.00000000000E+00  0.00000000000E+00  0.12525980253E-10  0.17130000000E+03  0.17130000000E+03 0.  1.
       11    1    1    2    0    0  0.67401705838E-01 -0.22174343655E+00  0.17065799550E+00  0.28781513903E+00  0.51109989000E-03 0. -1.
     -623    1    1    2    0    0 -0.32165391741E-01  0.28483344782E+00  0.31777167578E+00  0.17130053457E+03  0.17130000000E+03 0.  1.
      622    1    1    2    0    0 -0.35236314098E-01 -0.63090011268E-01  0.35115702961E+01  0.37116502922E+01  0.12000000000E+01 0. -1.
</event>
<event>
 5   0  0.5136900E+01  0.9118800E+02  0.7818608E-02  0.1180000E+00
       11   -1    0    0    0    0  0.00000000000E+00  0.00000000000E+00  0.39999999673E+01  0.40000000000E+01  0.51109989000E-03 0.  1.
     -623   -1    0    0    0    0  0.00000000000E+00  0.00000000000E+00  0.12525980253E-10  0.17130000000E+03  0.17130000000E+03 0.  1.
       11    1    1    2    0    0  0.49531863795E-01  0.10436898458E+00  0.99640482670E-01  0.15256073375E+00  0.51109989000E-03 0.  1.
     -623    1    1    2    0    0 -0.11482095876E+00 -0.24434159364E+00  0.24852298930E+00  0.17130039302E+03  0.17130000000E+03 0.  1.
      622    1    1    2    0    0  0.65289094962E-01  0.13997260906E+00  0.36518364954E+01  0.38470462418E+01  0.12000000000E+01 0.  1.
</event>
<event>
 5   0  0.5136900E+01  0.9118800E+02  0.7818608E-02  0.1180000E+00
       11   -1    0    0    0    0  0.00000000000E+00  0.00000000000E+00  0.39999999673E+01  0.40000000000E+01  0.51109989000E-03 0. -1.
     -623   -1    0    0    0    0  0.00000000000E+00  0.00000000000E+00  0.12525980253E-10  0.17130000000E+03  0.17130000000E+03 0. -1.
       11    1    1    2    0    0  0.95942687214E-01  0.14380250327E+00  0.91556824703E+00  0.93174547778E+00  0.51109989000E-03 0. -1.
     -623    1    1    2    0    0 -0.12903463736E+00 -0.40085116727E-01  0.26294841220E+00  0.17130025510E+03  0.17130000000E+03 0. -1.
      622    1    1    2    0    0  0.33091950143E-01 -0.10371738654E+00  0.28214833081E+01  0.30679994184E+01  0.12000000000E+01 0. -1.
</event>
<event>
 5   0  0.5136900E+01  0.9118800E+02  0.7818608E-02  0.1180000E+00
       11   -1    0    0    0    0  0.00000000000E+00  0.00000000000E+00  0.39999999673E+01  0.40000000000E+01  0.51109989000E-03 0.  1.
     -623   -1    0    0    0    0  0.00000000000E+00  0.00000000000E+00  0.12525980253E-10  0.17130000000E+03  0.17130000000E+03 0.  1.
       11    1    1    2    0    0 -0.27084779162E+00 -0.84526045245E-01  0.29442871746E+00  0.40889082827E+00  0.51109989000E-03 0.  1.
     -623    1    1    2    0    0  0.42987695252E+00  0.18953769785E+00  0.32727645164E+00  0.17130095688E+03  0.17130000000E+03 0.  1.
      622    1    1    2    0    0 -0.15902916090E+00 -0.10501165260E+00  0.33782947983E+01  0.35901522900E+01  0.12000000000E+01 0.  1.
</event>
<event>
 5   0  0.5136900E+01  0.9118800E+02  0.7818608E-02  0.1180000E+00
       11   -1    0    0    0    0  0.00000000000E+00  0.00000000000E+00  0.39999999673E+01  0.40000000000E+01  0.51109989000E-03 0.  1.
     -623   -1    0    0    0    0  0.00000000000E+00  0.00000000000E+00  0.12525980253E-10  0.17130000000E+03  0.17130000000E+03 0.  1.
       11    1    1    2    0    0  0.23319557056E-01 -0.63723308108E-01  0.18545698178E-01  0.70346754592E-01  0.51109989000E-03 0.  1.
     -623    1    1    2    0    0  0.18821615903E+00  0.50442353502E-01  0.24581593469E+00  0.17130028720E+03  0.17130000000E+03 0.  1.
      622    1    1    2    0    0 -0.21153571609E+00  0.13280954606E-01  0.37356383345E+01  0.39293660442E+01  0.12000000000E+01 0.  1.
</event>
<event>
 5   0  0.5136900E+01  0.9118800E+02  0.7818608E-02  0.1180000E+00
       11   -1    0    0    0    0  0.00000000000E+00  0.00000000000E+00  0.39999999673E+01  0.40000000000E+01  0.51109989000E-03 0.  1.
     -623   -1    0    0    0    0  0.00000000000E+00  0.00000000000E+00  0.12525980253E-10  0.17130000000E+03  0.17130000000E+03 0. -1.
       11    1    1    2    0    0  0.33530250768E-01 -0.10475980161E-01  0.37133989781E+00  0.37299812977E+00  0.51109989000E-03 0.  1.
     -623    1    1    2    0    0 -0.21074572399E+00  0.23533712340E+00  0.21837384224E+00  0.17130043049E+03  0.17130000000E+03 0. -1.
      622    1    1    2    0    0  0.17721547322E+00 -0.22486114324E+00  0.34102862273E+01  0.36265713849E+01  0.12000000000E+01 0.  0.
</event>
<event>
 5   0  0.5136900E+01  0.9118800E+02  0.7818608E-02  0.1180000E+00
       11   -1    0    0    0    0  0.00000000000E+00  0.00000000000E+00  0.39999999673E+01  0.40000000000E+01  0.51109989000E-03 0.  1.
     -623   -1    0    0    0    0  0.00000000000E+00  0.00000000000E+00  0.12525980253E-10  0.17130000000E+03  0.17130000000E+03 0. -1.
       11    1    1    2    0    0  0.51725336111E-01 -0.50917211028E-01  0.60101158067E-01  0.94236315711E-01  0.51109989000E-03 0.  1.
     -623    1    1    2    0    0  0.15832125003E+00  0.19299838479E+00  0.23206457170E+00  0.17130033908E+03  0.17130000000E+03 0. -1.
      622    1    1    2    0    0 -0.21004658614E+00 -0.14208117376E+00  0.37078342376E+01  0.39054246071E+01  0.12000000000E+01 0.  1.
</event>
<event>
 5   0  0.5136900E+01  0.9118800E+02  0.7818608E-02  0.1180000E+00
       11   -1    0    0    0    0  0.00000000000E+00  0.00000000000E+00  0.39999999673E+01  0.40000000000E+01  0.51109989000E-03 0.  1.
     -623   -1    0    0    0    0  0.00000000000E+00  0.00000000000E+00  0.12525980253E-10  0.17130000000E+03  0.17130000000E+03 0. -1.
       11    1    1    2    0    0  0.18322867715E-01  0.26013195445E-01  0.85715175102E+00  0.85774226858E+00  0.51109989000E-03 0.  1.
     -623    1    1    2    0    0 -0.18084617078E+00 -0.14826542792E+00  0.24624522933E+00  0.17130033662E+03  0.17130000000E+03 0. -1.
      622    1    1    2    0    0  0.16252330306E+00  0.12225223247E+00  0.28966029870E+01  0.31419211156E+01  0.12000000000E+01 0.  1.
</event>
<event>
 5   0  0.5136900E+01  0.9118800E+02  0.7818608E-02  0.1180000E+00
       11   -1    0    0    0    0  0.00000000000E+00  0.00000000000E+00  0.39999999673E+01  0.40000000000E+01  0.51109989000E-03 0. -1.
     -623   -1    0    0    0    0  0.00000000000E+00  0.00000000000E+00  0.12525980253E-10  0.17130000000E+03  0.17130000000E+03 0. -1.
       11    1    1    2    0    0  0.80945393401E-01  0.50785593319E-01  0.10474549170E+01  0.10518048286E+01  0.51109989000E-03 0. -1.
     -623    1    1    2    0    0  0.17405909760E+00 -0.15735709347E+00  0.27425678704E+00  0.17130038025E+03  0.17130000000E+03 0. -1.
      622    1    1    2    0    0 -0.25500449100E+00  0.10657150015E+00  0.26782882633E+01  0.29478149190E+01  0.12000000000E+01 0. -1.
</event>
<event>
 5   0  0.5136900E+01  0.9118800E+02  0.7818608E-02  0.1180000E+00
       11   -1    0    0    0    0  0.00000000000E+00  0.00000000000E+00  0.39999999673E+01  0.40000000000E+01  0.51109989000E-03 0. -1.
     -623   -1    0    0    0    0  0.00000000000E+00  0.00000000000E+00  0.12525980253E-10  0.17130000000E+03  0.17130000000E+03 0. -1.
       11    1    1    2    0    0 -0.24807972387E-01 -0.11597402112E-01  0.42579189403E+00  0.42667192722E+00  0.51109989000E-03 0. -1.
     -623    1    1    2    0    0  0.16598757153E+00 -0.12196952413E+00  0.21428860477E+00  0.17130025788E+03  0.17130000000E+03 0. -1.
      622    1    1    2    0    0 -0.14117959915E+00  0.13356692624E+00  0.33599194686E+01  0.35730701978E+01  0.12000000000E+01 0. -1.
</event>
<event>
 5   0  0.5136900E+01  0.9118800E+02  0.7818608E-02  0.1180000E+00
       11   -1    0    0    0    0  0.00000000000E+00  0.00000000000E+00  0.39999999673E+01  0.40000000000E+01  0.51109989000E-03 0. -1.
     -623   -1    0    0    0    0  0.00000000000E+00  0.00000000000E+00  0.12525980253E-10  0.17130000000E+03  0.17130000000E+03 0. -1.
       11    1    1    2    0    0 -0.62562630297E-01  0.40552869258E-01 -0.69262618669E-01  0.10176536485E+00  0.51109989000E-03 0. -1.
     -623    1    1    2    0    0  0.14091128731E-01  0.45785046928E-01  0.36205414162E+00  0.17130038931E+03  0.17130000000E+03 0. -1.
      622    1    1    2    0    0  0.48471501566E-01 -0.86337916186E-01  0.37072084444E+01  0.38978453244E+01  0.12000000000E+01 0. -1.
</event>
<event>
 5   0  0.5136900E+01  0.9118800E+02  0.7818608E-02  0.1180000E+00
       11   -1    0    0    0    0  0.00000000000E+00  0.00000000000E+00  0.39999999673E+01  0.40000000000E+01  0.51109989000E-03 0.  1.
     -623   -1    0    0    0    0  0.00000000000E+00  0.00000000000E+00  0.12525980253E-10  0.17130000000E+03  0.17130000000E+03 0.  1.
       11    1    1    2    0    0  0.15487258277E+00 -0.40489136135E-01  0.54961957176E+00  0.57245682975E+00  0.51109989000E-03 0.  1.
     -623    1    1    2    0    0 -0.83487522739E-02  0.17799306585E+00  0.24634760951E+00  0.17130026981E+03  0.17130000000E+03 0.  1.
      622    1    1    2    0    0 -0.14652383050E+00 -0.13750392972E+00  0.32040327861E+01  0.34272733562E+01  0.12000000000E+01 0.  1.
</event>
<event>
 5   0  0.5136900E+01  0.9118800E+02  0.7818608E-02  0.1180000E+00
       11   -1    0    0    0    0  0.00000000000E+00  0.00000000000E+00  0.39999999673E+01  0.40000000000E+01  0.51109989000E-03 0.  1.
     -623   -1    0    0    0    0  0.00000000000E+00  0.00000000000E+00  0.12525980253E-10  0.17130000000E+03  0.17130000000E+03 0. -1.
       11    1    1    2    0    0  0.23915876862E-01  0.34862402805E-01  0.41529171034E-01  0.59264572599E-01  0.51109989000E-03 0.  1.
     -623    1    1    2    0    0 -0.91355845844E-01  0.11636047962E+00  0.20874102305E+00  0.17130019106E+03  0.17130000000E+03 0. -1.
      622    1    1    2    0    0  0.67439968982E-01 -0.15122288242E+00  0.37497297733E+01  0.39405443637E+01  0.12000000000E+01 0.  1.
</event>
<event>
 5   0  0.5136900E+01  0.9118800E+02  0.7818608E-02  0.1180000E+00
       11   -1    0    0    0    0  0.00000000000E+00  0.00000000000E+00  0.39999999673E+01  0.40000000000E+01  0.51109989000E-03 0. -1.
     -623   -1    0    0    0    0  0.00000000000E+00  0.00000000000E+00  0.12525980253E-10  0.17130000000E+03  0.17130000000E+03 0.  1.
       11    1    1    2    0    0 -0.68510276842E-01 -0.43659907415E-01  0.67684267915E-01  0.10574150979E+00  0.51109989000E-03 0. -1.
     -623    1    1    2    0    0  0.50244987064E-01  0.35331923529E+00  0.24113570262E+00  0.17130054146E+03  0.17130000000E+03 0.  1.
      622    1    1    2    0    0  0.18265289778E-01 -0.30965932788E+00  0.36911799968E+01  0.38937170274E+01  0.12000000000E+01 0. -1.
</event>
<event>
 5   0  0.5136900E+01  0.9118800E+02  0.7818608E-02  0.1180000E+00
       11   -1    0    0    0    0  0.00000000000E+00  0.00000000000E+00  0.39999999673E+01  0.40000000000E+01  0.51109989000E-03 0. -1.
     -623   -1    0    0    0    0  0.00000000000E+00  0.00000000000E+00  0.12525980253E-10  0.17130000000E+03  0.17130000000E+03 0.  1.
       11    1    1    2    0    0 -0.23650603709E+00 -0.27198893251E+00  0.94758829429E+00  0.10138229242E+01  0.51109989000E-03 0. -1.
     -623    1    1    2    0    0  0.61767771501E-01  0.14268280941E+00  0.32702832756E+00  0.17130038272E+03  0.17130000000E+03 0.  1.
      622    1    1    2    0    0  0.17473826559E+00  0.12930612309E+00  0.27253833455E+01  0.29857943524E+01  0.12000000000E+01 0. -1.
</event>
<event>
 5   0  0.5136900E+01  0.9118800E+02  0.7818608E-02  0.1180000E+00
       11   -1    0    0    0    0  0.00000000000E+00  0.00000000000E+00  0.39999999673E+01  0.40000000000E+01  0.51109989000E-03 0.  1.
     -623   -1    0    0    0    0  0.00000000000E+00  0.00000000000E+00  0.12525980253E-10  0.17130000000E+03  0.17130000000E+03 0.  1.
       11    1    1    2    0    0 -0.13536989541E-01 -0.10661809387E+00  0.14161177426E+00  0.17777745599E+00  0.51109989000E-03 0.  1.
     -623    1    1    2    0    0  0.96414337428E-01 -0.80635153832E-01  0.23542482117E+00  0.17130020789E+03  0.17130000000E+03 0.  1.
      622    1    1    2    0    0 -0.82877347887E-01  0.18725324771E+00  0.36229633719E+01  0.38220146556E+01  0.12000000000E+01 0.  1.
</event>
<event>
 5   0  0.5136900E+01  0.9118800E+02  0.7818608E-02  0.1180000E+00
       11   -1    0    0    0    0  0.00000000000E+00  0.00000000000E+00  0.39999999673E+01  0.40000000000E+01  0.51109989000E-03 0.  1.
     -623   -1    0    0    0    0  0.00000000000E+00  0.00000000000E+00  0.12525980253E-10  0.17130000000E+03  0.17130000000E+03 0.  1.
       11    1    1    2    0    0  0.52122575511E-02  0.88395139915E-01  0.12049484192E+00  0.14953306170E+00  0.51109989000E-03 0.  1.
     -623    1    1    2    0    0  0.28261767858E+00 -0.30957425380E+00  0.23957516402E+00  0.17130068040E+03  0.17130000000E+03 0.  1.
      622    1    1    2    0    0 -0.28782993613E+00  0.22117911388E+00  0.36399299614E+01  0.38497865391E+01  0.12000000000E+01 0.  1.
</event>
<event>
 5   0  0.5136900E+01  0.9118800E+02  0.7818608E-02  0.1180000E+00
       11   -1    0    0    0    0  0.00000000000E+00  0.00000000000E+00  0.39999999673E+01  0.40000000000E+01  0.51109989000E-03 0.  1.
     -623   -1    0    0    0    0  0.00000000000E+00  0.00000000000E+00  0.12525980253E-10  0.17130000000E+03  0.17130000000E+03 0.  1.
       11    1    1    2    0    0  0.26951174825E+00 -0.16240539113E+00  0.50216112260E+00  0.59260285840E+00  0.51109989000E-03 0.  1.
     -623    1    1    2    0    0 -0.34550733985E+00 -0.10627076390E+00  0.32171927212E+00  0.17130068351E+03  0.17130000000E+03 0.  1.
      622    1    1    2    0    0  0.75995591593E-01  0.26867615503E+00  0.31761195726E+01  0.34067136284E+01  0.12000000000E+01 0.  1.
</event>
<event>
 5   0  0.5136900E+01  0.9118800E+02  0.7818608E-02  0.1180000E+00
       11   -1    0    0    0    0  0.00000000000E+00  0.00000000000E+00  0.39999999673E+01  0.40000000000E+01  0.51109989000E-03 0. -1.
     -623   -1    0    0    0    0  0.00000000000E+00  0.00000000000E+00  0.12525980253E-10  0.17130000000E+03  0.17130000000E+03 0.  1.
       11    1    1    2    0    0  0.45515286448E-01  0.21198769646E+00  0.72696134240E+00  0.75860627424E+00  0.51109989000E-03 0. -1.
     -623    1    1    2    0    0  0.16405618948E-01 -0.36211321680E+00  0.26697362503E+00  0.17130059156E+03  0.17130000000E+03 0.  1.
      622    1    1    2    0    0 -0.61920905396E-01  0.15012552033E+00  0.30060649999E+01  0.32408021621E+01  0.12000000000E+01 0. -1.
</event>
<event>
 5   0  0.5136900E+01  0.9118800E+02  0.7818608E-02  0.1180000E+00
       11   -1    0    0    0    0  0.00000000000E+00  0.00000000000E+00  0.39999999673E+01  0.40000000000E+01  0.51109989000E-03 0. -1.
     -623   -1    0    0    0    0  0.00000000000E+00  0.00000000000E+00  0.12525980253E-10  0.17130000000E+03  0.17130000000E+03 0. -1.
       11    1    1    2    0    0  0.23005114722E-01 -0.53021426206E-01 -0.72118095019E-01  0.92421792827E-01  0.51109989000E-03 0. -1.
     -623    1    1    2    0    0  0.15172288690E+00 -0.14112718195E+00  0.36308078167E+00  0.17130051011E+03  0.17130000000E+03 0. -1.
      622    1    1    2    0    0 -0.17472800162E+00  0.19414860816E+00  0.37090372807E+01  0.39070680959E+01  0.12000000000E+01 0. -1.
</event>
<event>
 5   0  0.5136900E+01  0.9118800E+02  0.7818608E-02  0.1180000E+00
       11   -1    0    0    0    0  0.00000000000E+00  0.00000000000E+00  0.39999999673E+01  0.40000000000E+01  0.51109989000E-03 0.  1.
     -623   -1    0    0    0    0  0.00000000000E+00  0.00000000000E+00  0.12525980253E-10  0.17130000000E+03  0.17130000000E+03 0. -1.
       11    1    1    2    0    0  0.94677836053E-01 -0.27988229892E+00  0.55570383078E+00  0.62936873346E+00  0.51109989000E-03 0.  1.
     -623    1    1    2    0    0 -0.32216508753E+00  0.29771685259E+00  0.30367734228E+00  0.17130083084E+03  0.17130000000E+03 0. -1.
      622    1    1    2    0    0  0.22748725147E+00 -0.17834553669E-01  0.31406187943E+01  0.33698004291E+01  0.12000000000E+01 0.  1.
</event>
<event>
 5   0  0.5136900E+01  0.9118800E+02  0.7818608E-02  0.1180000E+00
       11   -1    0    0    0    0  0.00000000000E+00  0.00000000000E+00  0.39999999673E+01  0.40000000000E+01  0.51109989000E-03 0. -1.
     -623   -1    0    0    0    0  0.00000000000E+00  0.00000000000E+00  0.12525980253E-10  0.17130000000E+03  0.17130000000E+03 0.  1.
       11    1    1    2    0    0  0.10544988635E+00 -0.45566997454E+00  0.71294959739E+00  0.85267355645E+00  0.51109989000E-03 0. -1.
     -623    1    1    2    0    0 -0.21600622217E+00  0.38118934921E+00  0.38159131516E+00  0.17130098533E+03  0.17130000000E+03 0.  1.
      622    1    1    2    0    0  0.11055633582E+00  0.74480625328E-01  0.29054590548E+01  0.31463411109E+01  0.12000000000E+01 0. -1.
</event>
<event>
 5   0  0.5136900E+01  0.9118800E+02  0.7818608E-02  0.1180000E+00
       11   -1    0    0    0    0  0.00000000000E+00  0.00000000000E+00  0.39999999673E+01  0.40000000000E+01  0.51109989000E-03 0.  1.
     -623   -1    0    0    0    0  0.00000000000E+00  0.00000000000E+00  0.12525980253E-10  0.17130000000E+03  0.17130000000E+03 0. -1.
       11    1    1    2    0    0  0.30341545718E+00 -0.24461218593E+00 -0.76353351783E-02  0.38981357176E+00  0.51109989000E-03 0.  1.
     -623    1    1    2    0    0 -0.45248623451E+00  0.40977345861E+00  0.61231573504E+00  0.17130218209E+03  0.17130000000E+03 0. -1.
      622    1    1    2    0    0  0.14907077732E+00 -0.16516127269E+00  0.33953195675E+01  0.36080043387E+01  0.12000000000E+01 0.  1.
</event>
<event>
 5   0  0.5136900E+01  0.9118800E+02  0.7818608E-02  0.1180000E+00
       11   -1    0    0    0    0  0.00000000000E+00  0.00000000000E+00  0.39999999673E+01  0.40000000000E+01  0.51109989000E-03 0. -1.
     -623   -1    0    0    0    0  0.00000000000E+00  0.00000000000E+00  0.12525980253E-10  0.17130000000E+03  0.17130000000E+03 0.  1.
       11    1    1    2    0    0 -0.17403472081E+00  0.20182200678E+00  0.68492083318E+00  0.73494014411E+00  0.51109989000E-03 0. -1.
     -623    1    1    2    0    0 -0.27452209040E+00 -0.14417617467E+00  0.31301488225E+00  0.17130056663E+03  0.17130000000E+03 0.  1.
      622    1    1    2    0    0  0.44855681121E+00 -0.57645832118E-01  0.30020642519E+01  0.32644932268E+01  0.12000000000E+01 0. -1.
</event>
<event>
 5   0  0.5136900E+01  0.9118800E+02  0.7818608E-02  0.1180000E+00
       11   -1    0    0    0    0  0.00000000000E+00  0.00000000000E+00  0.39999999673E+01  0.40000000000E+01  0.51109989000E-03 0. -1.
     -623   -1    0    0    0    0  0.00000000000E+00  0.00000000000E+00  0.12525980253E-10  0.17130000000E+03  0.17130000000E+03 0. -1.
       11    1    1    2    0    0  0.36917261556E+00 -0.27997437468E+00  0.45146933175E+00  0.64691490112E+00  0.51109989000E-03 0. -1.
     -623    1    1    2    0    0 -0.56301485192E+00  0.14519518310E+00  0.42807596175E+00  0.17130152164E+03  0.17130000000E+03 0. -1.
      622    1    1    2    0    0  0.19384223636E+00  0.13477919158E+00  0.31204546739E+01  0.33515634583E+01  0.12000000000E+01 0. -1.
</event>
<event>
 5   0  0.5136900E+01  0.9118800E+02  0.7818608E-02  0.1180000E+00
       11   -1    0    0    0    0  0.00000000000E+00  0.00000000000E+00  0.39999999673E+01  0.40000000000E+01  0.51109989000E-03 0.  1.
     -623   -1    0    0    0    0  0.00000000000E+00  0.00000000000E+00  0.12525980253E-10  0.17130000000E+03  0.17130000000E+03 0. -1.
       11    1    1    2    0    0 -0.12188239928E-01 -0.75433426366E-01 -0.30590008000E-01  0.82308959515E-01  0.51109989000E-03 0.  1.
     -623    1    1    2    0    0  0.10377859597E+00  0.74849233655E-01  0.30266232230E+00  0.17130031517E+03  0.17130000000E+03 0. -1.
      622    1    1    2    0    0 -0.91590356038E-01  0.58419271140E-03  0.37279276531E+01  0.39173758718E+01  0.12000000000E+01 0.  1.
</event>
<event>
 5   0  0.5136900E+01  0.9118800E+02  0.7818608E-02  0.1180000E+00
       11   -1    0    0    0    0  0.00000000000E+00  0.00000000000E+00  0.39999999673E+01  0.40000000000E+01  0.51109989000E-03 0. -1.
     -623   -1    0    0    0    0  0.00000000000E+00  0.00000000000E+00  0.12525980253E-10  0.17130000000E+03  0.17130000000E+03 0. -1.
       11    1    1    2    0    0  0.96084695359E-02 -0.16181375816E+00  0.20521168163E+00  0.26151120533E+00  0.51109989000E-03 0. -1.
     -623    1    1    2    0    0  0.94013777956E-01  0.38160695779E+00  0.26316403943E+00  0.17130065300E+03  0.17130000000E+03 0. -1.
      622    1    1    2    0    0 -0.10362224749E+00 -0.21979319964E+00  0.35316242463E+01  0.37378357960E+01  0.12000000000E+01 0.  1.
</event>
<event>
 5   0  0.5136900E+01  0.9118800E+02  0.7818608E-02  0.1180000E+00
       11   -1    0    0    0    0  0.00000000000E+00  0.00000000000E+00  0.39999999673E+01  0.40000000000E+01  0.51109989000E-03 0. -1.
     -623   -1    0    0    0    0  0.00000000000E+00  0.00000000000E+00  0.12525980253E-10  0.17130000000E+03  0.17130000000E+03 0. -1.
       11    1    1    2    0    0 -0.12177979175E+00  0.63698953982E-02 -0.43017680489E-01  0.12931231691E+00  0.51109989000E-03 0. -1.
     -623    1    1    2    0    0  0.20327369147E+00 -0.95939064210E-01  0.36560039709E+00  0.17130053762E+03  0.17130000000E+03 0. -1.
      622    1    1    2    0    0 -0.81493899714E-01  0.89569168812E-01  0.36774172508E+01  0.38701500653E+01  0.12000000000E+01 0. -1.
</event>
<event>
 5   0  0.5136900E+01  0.9118800E+02  0.7818608E-02  0.1180000E+00
       11   -1    0    0    0    0  0.00000000000E+00  0.00000000000E+00  0.39999999673E+01  0.40000000000E+01  0.51109989000E-03 0.  1.
     -623   -1    0    0    0    0  0.00000000000E+00  0.00000000000E+00  0.12525980253E-10  0.17130000000E+03  0.17130000000E+03 0. -1.
       11    1    1    2    0    0  0.21537763923E+00 -0.44557970093E-01  0.44606148415E+00  0.49733695725E+00  0.51109989000E-03 0.  1.
     -623    1    1    2    0    0  0.88990307534E-01  0.12909104945E+00  0.27876350217E+00  0.17130029858E+03  0.17130000000E+03 0. -1.
      622    1    1    2    0    0 -0.30436794676E+00 -0.84533079362E-01  0.32751749810E+01  0.35023644649E+01  0.12000000000E+01 0.  1.
</event>
<event>
 5   0  0.5136900E+01  0.9118800E+02  0.7818608E-02  0.1180000E+00
       11   -1    0    0    0    0  0.00000000000E+00  0.00000000000E+00  0.39999999673E+01  0.40000000000E+01  0.51109989000E-03 0.  1.
     -623   -1    0    0    0    0  0.00000000000E+00  0.00000000000E+00  0.12525980253E-10  0.17130000000E+03  0.17130000000E+03 0.  1.
       11    1    1    2    0    0 -0.14294976498E-01  0.12952540289E+00  0.83441597240E+00  0.84453031477E+00  0.51109989000E-03 0.  1.
     -623    1    1    2    0    0 -0.12706868259E+00 -0.10582087001E+00  0.25100355278E+00  0.17130026371E+03  0.17130000000E+03 0.  1.
      622    1    1    2    0    0  0.14136365909E+00 -0.23704532887E-01  0.29145804422E+01  0.31552059747E+01  0.12000000000E+01 0.  1.
</event>
<event>
 5   0  0.5136900E+01  0.9118800E+02  0.7818608E-02  0.1180000E+00
       11   -1    0    0    0    0  0.00000000000E+00  0.00000000000E+00  0.39999999673E+01  0.40000000000E+01  0.51109989000E-03 0. -1.
     -623   -1    0    0    0    0  0.00000000000E+00  0.00000000000E+00  0.12525980253E-10  0.17130000000E+03  0.17130000000E+03 0.  1.
       11    1    1    2    0    0 -0.81607917384E-01 -0.42007350371E-01 -0.25813615530E-02  0.91822624203E-01  0.51109989000E-03 0. -1.
     -623    1    1    2    0    0  0.32632643550E+00  0.11372526648E+00  0.29257558816E+00  0.17130059843E+03  0.17130000000E+03 0.  1.
      622    1    1    2    0    0 -0.24471851812E+00 -0.71717916111E-01  0.37100057408E+01  0.39075789447E+01  0.12000000000E+01 0. -1.
</event>
<event>
 5   0  0.5136900E+01  0.9118800E+02  0.7818608E-02  0.1180000E+00
       11   -1    0    0    0    0  0.00000000000E+00  0.00000000000E+00  0.39999999673E+01  0.40000000000E+01  0.51109989000E-03 0. -1.
     -623   -1    0    0    0    0  0.00000000000E+00  0.00000000000E+00  0.12525980253E-10  0.17130000000E+03  0.17130000000E+03 0. -1.
       11    1    1    2    0    0 -0.77540931856E-01 -0.39893430970E+00  0.38358430261E+00  0.55883661119E+00  0.51109989000E-03 0. -1.
     -623    1    1    2    0    0  0.12658737707E+00  0.15443552637E+00  0.40154700261E+00  0.17130058702E+03  0.17130000000E+03 0. -1.
      622    1    1    2    0    0 -0.49046445212E-01  0.24449878334E+00  0.32148686621E+01  0.34405763650E+01  0.12000000000E+01 0. -1.
</event>
<event>
 5   0  0.5136900E+01  0.9118800E+02  0.7818608E-02  0.1180000E+00
       11   -1    0    0    0    0  0.00000000000E+00  0.00000000000E+00  0.39999999673E+01  0.40000000000E+01  0.51109989000E-03 0.  1.
     -623   -1    0    0    0    0  0.00000000000E+00  0.00000000000E+00  0.12525980253E-10  0.17130000000E+03  0.17130000000E+03 0. -1.
       11    1    1    2    0    0 -0.87474761911E-01  0.16401419993E+00  0.39653575031E+00  0.43794218140E+00  0.51109989000E-03 0.  1.
     -623    1    1    2    0    0  0.20697676193E+00  0.52703198470E-01  0.25911612940E+00  0.17130032912E+03  0.17130000000E+03 0. -1.
      622    1    1    2    0    0 -0.11950200002E+00 -0.21671739840E+00  0.33443480876E+01  0.35617286941E+01  0.12000000000E+01 0.  1.
</event>
<event>
 5   0  0.5136900E+01  0.9118800E+02  0.7818608E-02  0.1180000E+00
       11   -1    0    0    0    0  0.00000000000E+00  0.00000000000E+00  0.39999999673E+01  0.40000000000E+01  0.51109989000E-03 0. -1.
     -623   -1    0    0    0    0  0.00000000000E+00  0.00000000000E+00  0.12525980253E-10  0.17130000000E+03  0.17130000000E+03 0.  1.
       11    1    1    2    0    0  0.76842157245E-02 -0.26147334236E-02 -0.10089065627E+00  0.10121793195E+00  0.51109989000E-03 0. -1.
     -623    1    1    2    0    0  0.14524765226E+00 -0.30523118611E+00  0.40820163677E+00  0.17130081988E+03  0.17130000000E+03 0.  1.
      622    1    1    2    0    0 -0.15293186799E+00  0.30784591953E+00  0.36926889869E+01  0.38979621881E+01  0.12000000000E+01 0. -1.
</event>
<event>
 5   0  0.5136900E+01  0.9118800E+02  0.7818608E-02  0.1180000E+00
       11   -1    0    0    0    0  0.00000000000E+00  0.00000000000E+00  0.39999999673E+01  0.40000000000E+01  0.51109989000E-03 0. -1.
     -623   -1    0    0    0    0  0.00000000000E+00  0.00000000000E+00  0.12525980253E-10  0.17130000000E+03  0.17130000000E+03 0. -1.
       11    1    1    2    0    0 -0.50534967089E-01 -0.19748942129E-01  0.43137290003E-01  0.69317318356E-01  0.51109989000E-03 0. -1.
     -623    1    1    2    0    0  0.25993036394E+00 -0.72836188842E-01  0.22121640668E+00  0.17130035553E+03  0.17130000000E+03 0. -1.
      622    1    1    2    0    0 -0.20939539685E+00  0.92585130971E-01  0.37356462707E+01  0.39303271490E+01  0.12000000000E+01 0. -1.
</event>
<event>
 5   0  0.5136900E+01  0.9118800E+02  0.7818608E-02  0.1180000E+00
       11   -1    0    0    0    0  0.00000000000E+00  0.00000000000E+00  0.39999999673E+01  0.40000000000E+01  0.51109989000E-03 0.  1.
     -623   -1    0    0    0    0  0.00000000000E+00  0.00000000000E+00  0.12525980253E-10  0.17130000000E+03  0.17130000000E+03 0.  1.
       11    1    1    2    0    0 -0.61637886095E-02  0.74773856764E-02 -0.93533478475E-02  0.13477756699E-01  0.51109989000E-03 0.  1.
     -623    1    1    2    0    0  0.10114207186E+00 -0.74509095153E-02  0.20907936939E+00  0.17130015762E+03  0.17130000000E+03 0.  1.
      622    1    1    2    0    0 -0.94978283251E-01 -0.26476161077E-04  0.38002739458E+01  0.39863646269E+01  0.12000000000E+01 0.  1.
</event>
<event>
 5   0  0.5136900E+01  0.9118800E+02  0.7818608E-02  0.1180000E+00
       11   -1    0    0    0    0  0.00000000000E+00  0.00000000000E+00  0.39999999673E+01  0.40000000000E+01  0.51109989000E-03 0. -1.
     -623   -1    0    0    0    0  0.00000000000E+00  0.00000000000E+00  0.12525980253E-10  0.17130000000E+03  0.17130000000E+03 0.  1.
       11    1    1    2    0    0 -0.33387264825E-01 -0.95481688195E-01  0.58789408157E-01  0.11699537584E+00  0.51109989000E-03 0. -1.
     -623    1    1    2    0    0  0.60542032637E-01  0.21810320571E-01  0.24931982589E+00  0.17130019352E+03  0.17130000000E+03 0.  1.
      622    1    1    2    0    0 -0.27154767812E-01  0.73671367624E-01  0.36918907333E+01  0.38828111000E+01  0.12000000000E+01 0. -1.
</event>
<event>
 5   0  0.5136900E+01  0.9118800E+02  0.7818608E-02  0.1180000E+00
       11   -1    0    0    0    0  0.00000000000E+00  0.00000000000E+00  0.39999999673E+01  0.40000000000E+01  0.51109989000E-03 0. -1.
     -623   -1    0    0    0    0  0.00000000000E+00  0.00000000000E+00  0.12525980253E-10  0.17130000000E+03  0.17130000000E+03 0. -1.
       11    1    1    2    0    0  0.11597624019E+00 -0.66809909166E-02  0.14252588993E+00  0.18387227755E+00  0.51109989000E-03 0. -1.
     -623    1    1    2    0    0 -0.23128021074E+00 -0.47843468690E-01  0.23752054867E+00  0.17130032748E+03  0.17130000000E+03 0. -1.
      622    1    1    2    0    0  0.11530397055E+00  0.54524459607E-01  0.36199535288E+01  0.38158002401E+01  0.12000000000E+01 0. -1.
</event>
<event>
 5   0  0.5136900E+01  0.9118800E+02  0.7818608E-02  0.1180000E+00
       11   -1    0    0    0    0  0.00000000000E+00  0.00000000000E+00  0.39999999673E+01  0.40000000000E+01  0.51109989000E-03 0.  1.
     -623   -1    0    0    0    0  0.00000000000E+00  0.00000000000E+00  0.12525980253E-10  0.17130000000E+03  0.17130000000E+03 0. -1.
       11    1    1    2    0    0 -0.16830969430E+00 -0.20241273755E+00  0.12386283801E+00  0.29093183631E+00  0.51109989000E-03 0.  1.
     -623    1    1    2    0    0 -0.28432877611E+00  0.25636448111E+00  0.39722853440E+00  0.17130088837E+03  0.17130000000E+03 0. -1.
      622    1    1    2    0    0  0.45263847042E+00 -0.53951743557E-01  0.34789085949E+01  0.37081797944E+01  0.12000000000E+01 0.  1.
</event>
<event>
 5   0  0.5136900E+01  0.9118800E+02  0.7818608E-02  0.1180000E+00
       11   -1    0    0    0    0  0.00000000000E+00  0.00000000000E+00  0.39999999673E+01  0.40000000000E+01  0.51109989000E-03 0. -1.
     -623   -1    0    0    0    0  0.00000000000E+00  0.00000000000E+00  0.12525980253E-10  0.17130000000E+03  0.17130000000E+03 0.  1.
       11    1    1    2    0    0  0.11972845993E+00  0.19666454856E-01  0.38468454290E+00  0.40336600295E+00  0.51109989000E-03 0. -1.
     -623    1    1    2    0    0  0.11054449347E+00 -0.51469108242E-01  0.23296603558E+00  0.17130020182E+03  0.17130000000E+03 0.  1.
      622    1    1    2    0    0 -0.23027295340E+00  0.31802653386E-01  0.33823493889E+01  0.35964321807E+01  0.12000000000E+01 0.  0.
</event>
<event>
 5   0  0.5136900E+01  0.9118800E+02  0.7818608E-02  0.1180000E+00
       11   -1    0    0    0    0  0.00000000000E+00  0.00000000000E+00  0.39999999673E+01  0.40000000000E+01  0.51109989000E-03 0.  1.
     -623   -1    0    0    0    0  0.00000000000E+00  0.00000000000E+00  0.12525980253E-10  0.17130000000E+03  0.17130000000E+03 0.  1.
       11    1    1    2    0    0 -0.64059356445E-01 -0.83727495234E-01  0.12977814709E+00  0.16720204332E+00  0.51109989000E-03 0.  1.
     -623    1    1    2    0    0  0.19647461051E+00  0.25983952508E+00  0.23729505586E+00  0.17130047410E+03  0.17130000000E+03 0.  1.
      622    1    1    2    0    0 -0.13241525407E+00 -0.17611202984E+00  0.36329267644E+01  0.38323238540E+01  0.12000000000E+01 0.  1.
</event>
<event>
 5   0  0.5136900E+01  0.9118800E+02  0.7818608E-02  0.1180000E+00
       11   -1    0    0    0    0  0.00000000000E+00  0.00000000000E+00  0.39999999673E+01  0.40000000000E+01  0.51109989000E-03 0. -1.
     -623   -1    0    0    0    0  0.00000000000E+00  0.00000000000E+00  0.12525980253E-10  0.17130000000E+03  0.17130000000E+03 0. -1.
       11    1    1    2    0    0 -0.12352382117E-01  0.22511634509E-01  0.70323947671E-02  0.26628383945E-01  0.51109989000E-03 0. -1.
     -623    1    1    2    0    0 -0.32261611156E-01  0.42159883300E-01  0.20608776543E+00  0.17130013220E+03  0.17130000000E+03 0. -1.
      622    1    1    2    0    0  0.44613993274E-01 -0.64671517809E-01  0.37868798072E+01  0.39732394199E+01  0.12000000000E+01 0. -1.
</event>
<event>
 5   0  0.5136900E+01  0.9118800E+02  0.7818608E-02  0.1180000E+00
       11   -1    0    0    0    0  0.00000000000E+00  0.00000000000E+00  0.39999999673E+01  0.40000000000E+01  0.51109989000E-03 0.  1.
     -623   -1    0    0    0    0  0.00000000000E+00  0.00000000000E+00  0.12525980253E-10  0.17130000000E+03  0.17130000000E+03 0. -1.
       11    1    1    2    0    0  0.48978982024E-01  0.43300878416E-01  0.84916044635E-01  0.10716763788E+00  0.51109989000E-03 0.  1.
     -623    1    1    2    0    0  0.21894486285E-01 -0.19009439750E+00  0.21566729584E+00  0.17130024264E+03  0.17130000000E+03 0. -1.
      622    1    1    2    0    0 -0.70873468310E-01  0.14679351909E+00  0.36994166269E+01  0.38925897247E+01  0.12000000000E+01 0.  1.
</event>
<event>
 5   0  0.5136900E+01  0.9118800E+02  0.7818608E-02  0.1180000E+00
       11   -1    0    0    0    0  0.00000000000E+00  0.00000000000E+00  0.39999999673E+01  0.40000000000E+01  0.51109989000E-03 0. -1.
     -623   -1    0    0    0    0  0.00000000000E+00  0.00000000000E+00  0.12525980253E-10  0.17130000000E+03  0.17130000000E+03 0.  1.
       11    1    1    2    0    0  0.72978487373E-01 -0.88607285277E-02  0.21894434401E-01  0.76707233102E-01  0.51109989000E-03 0. -1.
     -623    1    1    2    0    0 -0.16391629256E-01  0.14627867463E+00  0.24604743145E+00  0.17130023995E+03  0.17130000000E+03 0.  1.
      622    1    1    2    0    0 -0.56586858117E-01 -0.13741794610E+00  0.37320581015E+01  0.39230528211E+01  0.12000000000E+01 0. -1.
</event>
<event>
 5   0  0.5136900E+01  0.9118800E+02  0.7818608E-02  0.1180000E+00
       11   -1    0    0    0    0  0.00000000000E+00  0.00000000000E+00  0.39999999673E+01  0.40000000000E+01  0.51109989000E-03 0.  1.
     -623   -1    0    0    0    0  0.00000000000E+00  0.00000000000E+00  0.12525980253E-10  0.17130000000E+03  0.17130000000E+03 0. -1.
       11    1    1    2    0    0  0.30802772076E+00  0.18462942019E+00  0.58941851158E+00  0.69020543505E+00  0.51109989000E-03 0.  1.
     -623    1    1    2    0    0 -0.54242147493E+00  0.62481781529E-01  0.34616280688E+00  0.17130121994E+03  0.17130000000E+03 0. -1.
      622    1    1    2    0    0  0.23439375418E+00 -0.24711120172E+00  0.30644186489E+01  0.33085746227E+01  0.12000000000E+01 0.  1.
</event>
<event>
 5   0  0.5136900E+01  0.9118800E+02  0.7818608E-02  0.1180000E+00
       11   -1    0    0    0    0  0.00000000000E+00  0.00000000000E+00  0.39999999673E+01  0.40000000000E+01  0.51109989000E-03 0. -1.
     -623   -1    0    0    0    0  0.00000000000E+00  0.00000000000E+00  0.12525980253E-10  0.17130000000E+03  0.17130000000E+03 0. -1.
       11    1    1    2    0    0  0.56094356951E-01 -0.39352511082E-01  0.42818547825E-02  0.68657064558E-01  0.51109989000E-03 0. -1.
     -623    1    1    2    0    0 -0.81754545764E-01  0.73052578081E-01  0.25246758900E+00  0.17130022113E+03  0.17130000000E+03 0. -1.
      622    1    1    2    0    0  0.25660188813E-01 -0.33700066998E-01  0.37432505236E+01  0.39311218020E+01  0.12000000000E+01 0. -1.
</event>
<event>
 5   0  0.5136900E+01  0.9118800E+02  0.7818608E-02  0.1180000E+00
       11   -1    0    0    0    0  0.00000000000E+00  0.00000000000E+00  0.39999999673E+01  0.40000000000E+01  0.51109989000E-03 0. -1.
     -623   -1    0    0    0    0  0.00000000000E+00  0.00000000000E+00  0.12525980253E-10  0.17130000000E+03  0.17130000000E+03 0. -1.
       11    1    1    2    0    0 -0.75519879611E-01  0.56634953840E-01  0.11897137382E+00  0.15187237809E+00  0.51109989000E-03 0. -1.
     -623    1    1    2    0    0 -0.41791895425E-01 -0.64926107988E-01  0.22685763598E+00  0.17130016762E+03  0.17130000000E+03 0. -1.
      622    1    1    2    0    0  0.11731177504E+00  0.82911541484E-02  0.36541709576E+01  0.38479600028E+01  0.12000000000E+01 0. -1.
</event>
<event>
 5   0  0.5136900E+01  0.9118800E+02  0.7818608E-02  0.1180000E+00
       11   -1    0    0    0    0  0.00000000000E+00  0.00000000000E+00  0.39999999673E+01  0.40000000000E+01  0.51109989000E-03 0.  1.
     -623   -1    0    0    0    0  0.00000000000E+00  0.00000000000E+00  0.12525980253E-10  0.17130000000E+03  0.17130000000E+03 0. -1.
       11    1    1    2    0    0  0.56857416762E-02 -0.30571844190E-01 -0.25484088439E-01  0.40207776639E-01  0.51109989000E-03 0.  1.
     -623    1    1    2    0    0 -0.19408816444E+00  0.16062113390E+00  0.25924913120E+00  0.17130038143E+03  0.17130000000E+03 0. -1.
      622    1    1    2    0    0  0.18840242276E+00 -0.13004928971E+00  0.37662349246E+01  0.39594107892E+01  0.12000000000E+01 0.  1.
</event>
<event>
 5   0  0.5136900E+01  0.9118800E+02  0.7818608E-02  0.1180000E+00
       11   -1    0    0    0    0  0.00000000000E+00  0.00000000000E+00  0.39999999673E+01  0.40000000000E+01  0.51109989000E-03 0. -1.
     -623   -1    0    0    0    0  0.00000000000E+00  0.00000000000E+00  0.12525980253E-10  0.17130000000E+03  0.17130000000E+03 0. -1.
       11    1    1    2    0    0 -0.97675383070E-01  0.16350683471E+00  0.30676592374E+00  0.36108248178E+00  0.51109989000E-03 0. -1.
     -623    1    1    2    0    0  0.14415110188E+00 -0.95278746702E-01  0.25916289302E+00  0.17130028320E+03  0.17130000000E+03 0. -1.
      622    1    1    2    0    0 -0.46475718805E-01 -0.68228088004E-01  0.34340711506E+01  0.36386343224E+01  0.12000000000E+01 0. -1.
</event>
<event>
 5   0  0.5136900E+01  0.9118800E+02  0.7818608E-02  0.1180000E+00
       11   -1    0    0    0    0  0.00000000000E+00  0.00000000000E+00  0.39999999673E+01  0.40000000000E+01  0.51109989000E-03 0.  1.
     -623   -1    0    0    0    0  0.00000000000E+00  0.00000000000E+00  0.12525980253E-10  0.17130000000E+03  0.17130000000E+03 0.  1.
       11    1    1    2    0    0  0.14162095890E-01  0.39681118907E+00  0.14604193462E+00  0.42306996185E+00  0.51109989000E-03 0.  1.
     -623    1    1    2    0    0  0.30852467508E+00 -0.54061363993E+00  0.50489655477E+00  0.17130187498E+03  0.17130000000E+03 0.  1.
      622    1    1    2    0    0 -0.32268677097E+00  0.14380245086E+00  0.33490614780E+01  0.35750550598E+01  0.12000000000E+01 0.  1.
</event>
<event>
 5   0  0.5136900E+01  0.9118800E+02  0.7818608E-02  0.1180000E+00
       11   -1    0    0    0    0  0.00000000000E+00  0.00000000000E+00  0.39999999673E+01  0.40000000000E+01  0.51109989000E-03 0. -1.
     -623   -1    0    0    0    0  0.00000000000E+00  0.00000000000E+00  0.12525980253E-10  0.17130000000E+03  0.17130000000E+03 0.  1.
       11    1    1    2    0    0 -0.20333680077E+00  0.35815238971E+00  0.76275373859E+00  0.86684053652E+00  0.51109989000E-03 0. -1.
     -623    1    1    2    0    0 -0.33815296407E-02 -0.19398476779E+00  0.35557936540E+00  0.17130047892E+03  0.17130000000E+03 0.  1.
      622    1    1    2    0    0  0.20671833041E+00 -0.16416762192E+00  0.28816668634E+01  0.31326805435E+01  0.12000000000E+01 0. -1.
</event>
<event>
 5   0  0.5136900E+01  0.9118800E+02  0.7818608E-02  0.1180000E+00
       11   -1    0    0    0    0  0.00000000000E+00  0.00000000000E+00  0.39999999673E+01  0.40000000000E+01  0.51109989000E-03 0. -1.
     -623   -1    0    0    0    0  0.00000000000E+00  0.00000000000E+00  0.12525980253E-10  0.17130000000E+03  0.17130000000E+03 0. -1.
       11    1    1    2    0    0 -0.67591453262E-02  0.87839715569E-02 -0.81298743800E-01  0.82052368450E-01  0.51109989000E-03 0. -1.
     -623    1    1    2    0    0  0.30800387690E+00 -0.24871066726E+00  0.37249254767E+00  0.17130086244E+03  0.17130000000E+03 0. -1.
      622    1    1    2    0    0 -0.30124473158E+00  0.23992669570E+00  0.37088061635E+01  0.39170851875E+01  0.12000000000E+01 0. -1.
</event>
<event>
 5   0  0.5136900E+01  0.9118800E+02  0.7818608E-02  0.1180000E+00
       11   -1    0    0    0    0  0.00000000000E+00  0.00000000000E+00  0.39999999673E+01  0.40000000000E+01  0.51109989000E-03 0. -1.
     -623   -1    0    0    0    0  0.00000000000E+00  0.00000000000E+00  0.12525980253E-10  0.17130000000E+03  0.17130000000E+03 0.  1.
       11    1    1    2    0    0 -0.21394881093E+00  0.30673279302E+00  0.31953125736E+00  0.49189387642E+00  0.51109989000E-03 0. -1.
     -623    1    1    2    0    0 -0.83759808321E-01 -0.44824352389E+00  0.40165921653E+00  0.17130107784E+03  0.17130000000E+03 0.  1.
      622    1    1    2    0    0  0.29770861925E+00  0.14151073087E+00  0.32788094935E+01  0.35070282867E+01  0.12000000000E+01 0.  0.
</event>
<event>
 5   0  0.5136900E+01  0.9118800E+02  0.7818608E-02  0.1180000E+00
       11   -1    0    0    0    0  0.00000000000E+00  0.00000000000E+00  0.39999999673E+01  0.40000000000E+01  0.51109989000E-03 0.  1.
     -623   -1    0    0    0    0  0.00000000000E+00  0.00000000000E+00  0.12525980253E-10  0.17130000000E+03  0.17130000000E+03 0.  1.
       11    1    1    2    0    0 -0.10207779571E+00  0.37745850258E-01  0.15509766116E+00  0.18947340528E+00  0.51109989000E-03 0.  1.
     -623    1    1    2    0    0  0.86784626213E-01 -0.11007185233E+00  0.22923610927E+00  0.17130021073E+03  0.17130000000E+03 0.  1.
      622    1    1    2    0    0  0.15293169496E-01  0.72326002074E-01  0.36156661969E+01  0.38103158634E+01  0.12000000000E+01 0.  1.
</event>
<event>
 5   0  0.5136900E+01  0.9118800E+02  0.7818608E-02  0.1180000E+00
       11   -1    0    0    0    0  0.00000000000E+00  0.00000000000E+00  0.39999999673E+01  0.40000000000E+01  0.51109989000E-03 0. -1.
     -623   -1    0    0    0    0  0.00000000000E+00  0.00000000000E+00  0.12525980253E-10  0.17130000000E+03  0.17130000000E+03 0.  1.
       11    1    1    2    0    0  0.42355739360E+00  0.11039020953E+00  0.47629336967E+00  0.64687131583E+00  0.51109989000E-03 0. -1.
     -623    1    1    2    0    0 -0.26397627195E+00 -0.32557151333E+00  0.40520519487E+00  0.17130099203E+03  0.17130000000E+03 0.  1.
      622    1    1    2    0    0 -0.15958112165E+00  0.21518130380E+00  0.31185014028E+01  0.33521366510E+01  0.12000000000E+01 0. -1.
</event>
<event>
 5   0  0.5136900E+01  0.9118800E+02  0.7818608E-02  0.1180000E+00
       11   -1    0    0    0    0  0.00000000000E+00  0.00000000000E+00  0.39999999673E+01  0.40000000000E+01  0.51109989000E-03 0.  1.
     -623   -1    0    0    0    0  0.00000000000E+00  0.00000000000E+00  0.12525980253E-10  0.17130000000E+03  0.17130000000E+03 0.  1.
       11    1    1    2    0    0  0.18241961591E+00  0.63349253970E-02  0.12358292341E-01  0.18294817889E+00  0.51109989000E-03 0.  1.
     -623    1    1    2    0    0 -0.13340077614E+00 -0.25670748210E+00  0.37380476089E+00  0.17130065214E+03  0.17130000000E+03 0.  1.
      622    1    1    2    0    0 -0.49018839763E-01  0.25037255670E+00  0.36138369141E+01  0.38163996785E+01  0.12000000000E+01 0.  1.
</event>
<event>
 5   0  0.5136900E+01  0.9118800E+02  0.7818608E-02  0.1180000E+00
       11   -1    0    0    0    0  0.00000000000E+00  0.00000000000E+00  0.39999999673E+01  0.40000000000E+01  0.51109989000E-03 0. -1.
     -623   -1    0    0    0    0  0.00000000000E+00  0.00000000000E+00  0.12525980253E-10  0.17130000000E+03  0.17130000000E+03 0.  1.
       11    1    1    2    0    0 -0.39454577417E+00 -0.81625034048E-01  0.19623030195E+00  0.44814685843E+00  0.51109989000E-03 0. -1.
     -623    1    1    2    0    0  0.42542100206E+00  0.19831766462E+00  0.46430055508E+00  0.17130127229E+03  0.17130000000E+03 0.  1.
      622    1    1    2    0    0 -0.30875227898E-01 -0.11669263057E+00  0.33394691103E+01  0.35505808523E+01  0.12000000000E+01 0. -1.
</event>
<event>
 5   0  0.5136900E+01  0.9118800E+02  0.7818608E-02  0.1180000E+00
       11   -1    0    0    0    0  0.00000000000E+00  0.00000000000E+00  0.39999999673E+01  0.40000000000E+01  0.51109989000E-03 0.  1.
     -623   -1    0    0    0    0  0.00000000000E+00  0.00000000000E+00  0.12525980253E-10  0.17130000000E+03  0.17130000000E+03 0.  1.
       11    1    1    2    0    0  0.74188770493E-01  0.24229481797E+00  0.61986669361E+00  0.66966090789E+00  0.51109989000E-03 0.  1.
     -623    1    1    2    0    0 -0.42415857117E+00 -0.20635093883E+00  0.29446038419E+00  0.17130090250E+03  0.17130000000E+03 0.  1.
      622    1    1    2    0    0  0.34996980068E+00 -0.35943879144E-01  0.30856728896E+01  0.33294365898E+01  0.12000000000E+01 0.  1.
</event>
<event>
 5   0  0.5136900E+01  0.9118800E+02  0.7818608E-02  0.1180000E+00
       11   -1    0    0    0    0  0.00000000000E+00  0.00000000000E+00  0.39999999673E+01  0.40000000000E+01  0.51109989000E-03 0.  1.
     -623   -1    0    0    0    0  0.00000000000E+00  0.00000000000E+00  0.12525980253E-10  0.17130000000E+03  0.17130000000E+03 0.  1.
       11    1    1    2    0    0 -0.10079161952E+00 -0.78678479459E-01  0.41220227635E+00  0.43157876632E+00  0.51109989000E-03 0.  1.
     -623    1    1    2    0    0  0.20448829308E+00  0.67935164042E-01  0.22912221331E+00  0.17130028876E+03  0.17130000000E+03 0.  1.
      622    1    1    2    0    0 -0.10369667357E+00  0.10743315416E-01  0.33586754777E+01  0.35681324784E+01  0.12000000000E+01 0.  1.
</event>
<event>
 5   0  0.5136900E+01  0.9118800E+02  0.7818608E-02  0.1180000E+00
       11   -1    0    0    0    0  0.00000000000E+00  0.00000000000E+00  0.39999999673E+01  0.40000000000E+01  0.51109989000E-03 0. -1.
     -623   -1    0    0    0    0  0.00000000000E+00  0.00000000000E+00  0.12525980253E-10  0.17130000000E+03  0.17130000000E+03 0. -1.
       11    1    1    2    0    0  0.66041266008E-01  0.66608317479E-02  0.49869426377E-01  0.83024312137E-01  0.51109989000E-03 0. -1.
     -623    1    1    2    0    0 -0.75581890859E-01 -0.92716990964E-01  0.22269970410E+00  0.17130018653E+03  0.17130000000E+03 0. -1.
      622    1    1    2    0    0  0.95406248505E-02  0.86056159216E-01  0.37274308369E+01  0.39167891608E+01  0.12000000000E+01 0. -1.
</event>
<event>
 5   0  0.5136900E+01  0.9118800E+02  0.7818608E-02  0.1180000E+00
       11   -1    0    0    0    0  0.00000000000E+00  0.00000000000E+00  0.39999999673E+01  0.40000000000E+01  0.51109989000E-03 0. -1.
     -623   -1    0    0    0    0  0.00000000000E+00  0.00000000000E+00  0.12525980253E-10  0.17130000000E+03  0.17130000000E+03 0. -1.
       11    1    1    2    0    0 -0.39805784929E-01 -0.17912328627E+00  0.19915303652E+00  0.27079853282E+00  0.51109989000E-03 0. -1.
     -623    1    1    2    0    0 -0.18898161417E+00  0.41219399447E-01  0.28046974063E+00  0.17130033881E+03  0.17130000000E+03 0. -1.
      622    1    1    2    0    0  0.22878739910E+00  0.13790388682E+00  0.35203771902E+01  0.37288626573E+01  0.12000000000E+01 0. -1.
</event>
<event>
 5   0  0.5136900E+01  0.9118800E+02  0.7818608E-02  0.1180000E+00
       11   -1    0    0    0    0  0.00000000000E+00  0.00000000000E+00  0.39999999673E+01  0.40000000000E+01  0.51109989000E-03 0.  1.
     -623   -1    0    0    0    0  0.00000000000E+00  0.00000000000E+00  0.12525980253E-10  0.17130000000E+03  0.17130000000E+03 0. -1.
       11    1    1    2    0    0 -0.16242255249E+00 -0.37117921030E-01  0.56861318901E-01  0.17604629059E+00  0.51109989000E-03 0.  1.
     -623    1    1    2    0    0  0.14491254867E+00  0.31740300363E+00  0.32392657338E+00  0.17130066162E+03  0.17130000000E+03 0. -1.
      622    1    1    2    0    0  0.17510003821E-01 -0.28028508260E+00  0.36192120751E+01  0.38232920856E+01  0.12000000000E+01 0.  1.
</event>
<event>
 5   0  0.5136900E+01  0.9118800E+02  0.7818608E-02  0.1180000E+00
       11   -1    0    0    0    0  0.00000000000E+00  0.00000000000E+00  0.39999999673E+01  0.40000000000E+01  0.51109989000E-03 0.  1.
     -623   -1    0    0    0    0  0.00000000000E+00  0.00000000000E+00  0.12525980253E-10  0.17130000000E+03  0.17130000000E+03 0.  1.
       11    1    1    2    0    0 -0.40496214552E-01  0.36506053273E-01  0.60955529140E-01  0.81783085492E-01  0.51109989000E-03 0.  1.
     -623    1    1    2    0    0  0.11914085007E+00 -0.12027962445E+00  0.21110319536E+00  0.17130021374E+03  0.17130000000E+03 0.  1.
      622    1    1    2    0    0 -0.78644635521E-01  0.83773571177E-01  0.37279412429E+01  0.39180031777E+01  0.12000000000E+01 0.  1.
</event>
<event>
 5   0  0.5136900E+01  0.9118800E+02  0.7818608E-02  0.1180000E+00
       11   -1    0    0    0    0  0.00000000000E+00  0.00000000000E+00  0.39999999673E+01  0.40000000000E+01  0.51109989000E-03 0. -1.
     -623   -1    0    0    0    0  0.00000000000E+00  0.00000000000E+00  0.12525980253E-10  0.17130000000E+03  0.17130000000E+03 0. -1.
       11    1    1    2    0    0 -0.97840856313E-01 -0.18856980902E-01  0.20341784317E+00  0.22651158697E+00  0.51109989000E-03 0. -1.
     -623    1    1    2    0    0  0.21946060846E+00  0.29600213319E+00  0.23239447787E+00  0.17130055396E+03  0.17130000000E+03 0. -1.
      622    1    1    2    0    0 -0.12161975215E+00 -0.27714515229E+00  0.35641876463E+01  0.37729344518E+01  0.12000000000E+01 0. -1.
</event>
<event>
 5   0  0.5136900E+01  0.9118800E+02  0.7818608E-02  0.1180000E+00
       11   -1    0    0    0    0  0.00000000000E+00  0.00000000000E+00  0.39999999673E+01  0.40000000000E+01  0.51109989000E-03 0.  1.
     -623   -1    0    0    0    0  0.00000000000E+00  0.00000000000E+00  0.12525980253E-10  0.17130000000E+03  0.17130000000E+03 0. -1.
       11    1    1    2    0    0 -0.31328065394E-01 -0.46866481278E-01 -0.25122585052E-01  0.61719690954E-01  0.51109989000E-03 0.  1.
     -623    1    1    2    0    0  0.72767135471E-02  0.28721107898E-01  0.27447034649E+00  0.17130022245E+03  0.17130000000E+03 0. -1.
      622    1    1    2    0    0  0.24051351847E-01  0.18145373380E-01  0.37506522059E+01  0.39380578579E+01  0.12000000000E+01 0.  1.
</event>
<event>
 5   0  0.5136900E+01  0.9118800E+02  0.7818608E-02  0.1180000E+00
       11   -1    0    0    0    0  0.00000000000E+00  0.00000000000E+00  0.39999999673E+01  0.40000000000E+01  0.51109989000E-03 0. -1.
     -623   -1    0    0    0    0  0.00000000000E+00  0.00000000000E+00  0.12525980253E-10  0.17130000000E+03  0.17130000000E+03 0.  1.
       11    1    1    2    0    0 -0.85952084111E-01 -0.11759550038E+00  0.99816766115E-01  0.17657890727E+00  0.51109989000E-03 0. -1.
     -623    1    1    2    0    0  0.24060732075E-01 -0.71653396357E-01  0.27567226958E+00  0.17130023849E+03  0.17130000000E+03 0.  1.
      622    1    1    2    0    0  0.61891352036E-01  0.18924889674E+00  0.36245109317E+01  0.38231825981E+01  0.12000000000E+01 0. -1.
</event>
<event>
 5   0  0.5136900E+01  0.9118800E+02  0.7818608E-02  0.1180000E+00
       11   -1    0    0    0    0  0.00000000000E+00  0.00000000000E+00  0.39999999673E+01  0.40000000000E+01  0.51109989000E-03 0. -1.
     -623   -1    0    0    0    0  0.00000000000E+00  0.00000000000E+00  0.12525980253E-10  0.17130000000E+03  0.17130000000E+03 0.  1.
       11    1    1    2    0    0  0.23772500939E+00 -0.12354944083E+00  0.44857653426E+00  0.52249288295E+00  0.51109989000E-03 0. -1.
     -623    1    1    2    0    0 -0.12059231985E+00 -0.93391115675E-01  0.29719429931E+00  0.17130032571E+03  0.17130000000E+03 0.  1.
      622    1    1    2    0    0 -0.11713268954E+00  0.21694055651E+00  0.32542291338E+01  0.34771814056E+01  0.12000000000E+01 0. -1.
</event>
<event>
 5   0  0.5136900E+01  0.9118800E+02  0.7818608E-02  0.1180000E+00
       11   -1    0    0    0    0  0.00000000000E+00  0.00000000000E+00  0.39999999673E+01  0.40000000000E+01  0.51109989000E-03 0.  1.
     -623   -1    0    0    0    0  0.00000000000E+00  0.00000000000E+00  0.12525980253E-10  0.17130000000E+03  0.17130000000E+03 0. -1.
       11    1    1    2    0    0  0.94717004620E-01  0.46438324015E-01  0.72191270879E+00  0.72957936459E+00  0.51109989000E-03 0.  1.
     -623    1    1    2    0    0 -0.17772734128E-01  0.32860021875E+00  0.26051973157E+00  0.17130051420E+03  0.17130000000E+03 0. -1.
      622    1    1    2    0    0 -0.76944270492E-01 -0.37503854277E+00  0.30175675270E+01  0.32699064374E+01  0.12000000000E+01 0.  1.
</event>
<event>
 5   0  0.5136900E+01  0.9118800E+02  0.7818608E-02  0.1180000E+00
       11   -1    0    0    0    0  0.00000000000E+00  0.00000000000E+00  0.39999999673E+01  0.40000000000E+01  0.51109989000E-03 0.  1.
     -623   -1    0    0    0    0  0.00000000000E+00  0.00000000000E+00  0.12525980253E-10  0.17130000000E+03  0.17130000000E+03 0.  1.
       11    1    1    2    0    0 -0.26329116205E+00 -0.99463841555E-02  0.79452747971E-01  0.27519841380E+00  0.51109989000E-03 0.  1.
     -623    1    1    2    0    0 -0.83844186098E-01 -0.21811854518E+00  0.41960235271E+00  0.17130067330E+03  0.17130000000E+03 0.  1.
      622    1    1    2    0    0  0.34713534815E+00  0.22806492934E+00  0.35009448667E+01  0.37241282901E+01  0.12000000000E+01 0.  1.
</event>
<event>
 5   0  0.5136900E+01  0.9118800E+02  0.7818608E-02  0.1180000E+00
       11   -1    0    0    0    0  0.00000000000E+00  0.00000000000E+00  0.39999999673E+01  0.40000000000E+01  0.51109989000E-03 0.  1.
     -623   -1    0    0    0    0  0.00000000000E+00  0.00000000000E+00  0.12525980253E-10  0.17130000000E+03  0.17130000000E+03 0. -1.
       11    1    1    2    0    0  0.13107883985E+00 -0.36302227323E+00  0.48602937306E+00  0.62063809568E+00  0.51109989000E-03 0.  1.
     -623    1    1    2    0    0 -0.10466503720E+00  0.40151848573E+00  0.35612171841E+00  0.17130087272E+03  0.17130000000E+03 0. -1.
      622    1    1    2    0    0 -0.26413802659E-01 -0.38496212500E-01  0.31578488759E+01  0.33784891846E+01  0.12000000000E+01 0.  1.
</event>
<event>
 5   0  0.5136900E+01  0.9118800E+02  0.7818608E-02  0.1180000E+00
       11   -1    0    0    0    0  0.00000000000E+00  0.00000000000E+00  0.39999999673E+01  0.40000000000E+01  0.51109989000E-03 0. -1.
     -623   -1    0    0    0    0  0.00000000000E+00  0.00000000000E+00  0.12525980253E-10  0.17130000000E+03  0.17130000000E+03 0. -1.
       11    1    1    2    0    0  0.66318427193E-02  0.66412944448E-01  0.54793584715E-01  0.86355420658E-01  0.51109989000E-03 0. -1.
     -623    1    1    2    0    0 -0.46266736857E-01 -0.51772533259E-01  0.22047714091E+00  0.17130015596E+03  0.17130000000E+03 0. -1.
      622    1    1    2    0    0  0.39634894138E-01 -0.14640411189E-01  0.37247292417E+01  0.39134886215E+01  0.12000000000E+01 0. -1.
</event>
<event>
 5   0  0.5136900E+01  0.9118800E+02  0.7818608E-02  0.1180000E+00
       11   -1    0    0    0    0  0.00000000000E+00  0.00000000000E+00  0.39999999673E+01  0.40000000000E+01  0.51109989000E-03 0. -1.
     -623   -1    0    0    0    0  0.00000000000E+00  0.00000000000E+00  0.12525980253E-10  0.17130000000E+03  0.17130000000E+03 0. -1.
       11    1    1    2    0    0 -0.21951359644E+00 -0.74960693286E-01  0.17804287187E+00  0.29241212356E+00  0.51109989000E-03 0. -1.
     -623    1    1    2    0    0  0.13407415742E+00  0.12124423746E+00  0.31569103698E+00  0.17130038627E+03  0.17130000000E+03 0. -1.
      622    1    1    2    0    0  0.85439439020E-01 -0.46283544172E-01  0.35062660585E+01  0.37072016046E+01  0.12000000000E+01 0. -1.
</event>
<event>
 5   0  0.5136900E+01  0.9118800E+02  0.7818608E-02  0.1180000E+00
       11   -1    0    0    0    0  0.00000000000E+00  0.00000000000E+00  0.39999999673E+01  0.40000000000E+01  0.51109989000E-03 0. -1.
     -623   -1    0    0    0    0  0.00000000000E+00  0.00000000000E+00  0.12525980253E-10  0.17130000000E+03  0.17130000000E+03 0.  1.
       11    1    1    2    0    0  0.27888763266E+00 -0.10955612236E+00  0.11048163262E+01  0.11447271428E+01  0.51109989000E-03 0. -1.
     -623    1    1    2    0    0 -0.56194386641E-01  0.23149469731E-02  0.31646920692E+00  0.17130030156E+03  0.17130000000E+03 0.  1.
      622    1    1    2    0    0 -0.22269324602E+00  0.10724117539E+00  0.25787144343E+01  0.28549712932E+01  0.12000000000E+01 0.  0.
</event>
<event>
 5   0  0.5136900E+01  0.9118800E+02  0.7818608E-02  0.1180000E+00
       11   -1    0    0    0    0  0.00000000000E+00  0.00000000000E+00  0.39999999673E+01  0.40000000000E+01  0.51109989000E-03 0. -1.
     -623   -1    0    0    0    0  0.00000000000E+00  0.00000000000E+00  0.12525980253E-10  0.17130000000E+03  0.17130000000E+03 0. -1.
       11    1    1    2    0    0  0.69074842705E-02  0.35407877108E-01  0.23095538203E-01  0.42838022926E-01  0.51109989000E-03 0. -1.
     -623    1    1    2    0    0 -0.16981624996E+00 -0.40615811005E-01  0.20983087119E+00  0.17130021750E+03  0.17130000000E+03 0. -1.
      622    1    1    2    0    0  0.16290876569E+00  0.52079338973E-02  0.37670735580E+01  0.39569444752E+01  0.12000000000E+01 0. -1.
</event>
<event>
 5   0  0.5136900E+01  0.9118800E+02  0.7818608E-02  0.1180000E+00
       11   -1    0    0    0    0  0.00000000000E+00  0.00000000000E+00  0.39999999673E+01  0.40000000000E+01  0.51109989000E-03 0. -1.
     -623   -1    0    0    0    0  0.00000000000E+00  0.00000000000E+00  0.12525980253E-10  0.17130000000E+03  0.17130000000E+03 0.  1.
       11    1    1    2    0    0  0.24690231710E-01 -0.15746148021E-01  0.37526612960E-02  0.29527824324E-01  0.51109989000E-03 0. -1.
     -623    1    1    2    0    0  0.93260848392E-02 -0.17432090774E-01  0.21189245029E+00  0.17130013219E+03  0.17130000000E+03 0.  1.
      622    1    1    2    0    0 -0.34016316549E-01  0.33178238796E-01  0.37843548558E+01  0.39703399829E+01  0.12000000000E+01 0. -1.
</event>
<event>
 5   0  0.5136900E+01  0.9118800E+02  0.7818608E-02  0.1180000E+00
       11   -1    0    0    0    0  0.00000000000E+00  0.00000000000E+00  0.39999999673E+01  0.40000000000E+01  0.51109989000E-03 0.  1.
     -623   -1    0    0    0    0  0.00000000000E+00  0.00000000000E+00  0.12525980253E-10  0.17130000000E+03  0.17130000000E+03 0. -1.
       11    1    1    2    0    0  0.22547851090E+00  0.89498121025E-01  0.91369014719E+00  0.94534671885E+00  0.51109989000E-03 0.  1.
     -623    1    1    2    0    0 -0.21261220131E+00  0.15141294496E+00  0.28809463298E+00  0.17130044112E+03  0.17130000000E+03 0. -1.
      622    1    1    2    0    0 -0.12866309598E-01 -0.24091106599E+00  0.27982151872E+01  0.30542121599E+01  0.12000000000E+01 0.  1.
</event>
<event>
 5   0  0.5136900E+01  0.9118800E+02  0.7818608E-02  0.1180000E+00
       11   -1    0    0    0    0  0.00000000000E+00  0.00000000000E+00  0.39999999673E+01  0.40000000000E+01  0.51109989000E-03 0. -1.
     -623   -1    0    0    0    0  0.00000000000E+00  0.00000000000E+00  0.12525980253E-10  0.17130000000E+03  0.17130000000E+03 0. -1.
       11    1    1    2    0    0 -0.20236458437E+00 -0.21711552854E+00  0.32761987714E+00  0.44206970362E+00  0.51109989000E-03 0. -1.
     -623    1    1    2    0    0  0.20320260229E+00 -0.10350269711E+00  0.33882239244E+00  0.17130048688E+03  0.17130000000E+03 0. -1.
      622    1    1    2    0    0 -0.83801792456E-03  0.32061822565E+00  0.33335576978E+01  0.35574434181E+01  0.12000000000E+01 0. -1.
</event>
<event>
 5   0  0.5136900E+01  0.9118800E+02  0.7818608E-02  0.1180000E+00
       11   -1    0    0    0    0  0.00000000000E+00  0.00000000000E+00  0.39999999673E+01  0.40000000000E+01  0.51109989000E-03 0.  1.
     -623   -1    0    0    0    0  0.00000000000E+00  0.00000000000E+00  0.12525980253E-10  0.17130000000E+03  0.17130000000E+03 0.  1.
       11    1    1    2    0    0  0.11512797724E+00 -0.19282776796E+00  0.15610811977E+00  0.27350869369E+00  0.51109989000E-03 0.  1.
     -623    1    1    2    0    0  0.33092949305E+00 -0.83685365003E-01  0.35590950668E+00  0.17130070983E+03  0.17130000000E+03 0.  1.
      622    1    1    2    0    0 -0.44605747030E+00  0.27651313297E+00  0.34879823409E+01  0.37257814737E+01  0.12000000000E+01 0.  1.
</event>
<event>
 5   0  0.5136900E+01  0.9118800E+02  0.7818608E-02  0.1180000E+00
       11   -1    0    0    0    0  0.00000000000E+00  0.00000000000E+00  0.39999999673E+01  0.40000000000E+01  0.51109989000E-03 0. -1.
     -623   -1    0    0    0    0  0.00000000000E+00  0.00000000000E+00  0.12525980253E-10  0.17130000000E+03  0.17130000000E+03 0. -1.
       11    1    1    2    0    0  0.18751697781E+00 -0.31878079368E-01  0.40605360113E+00  0.44839560337E+00  0.51109989000E-03 0. -1.
     -623    1    1    2    0    0 -0.14645220044E+00 -0.15044673278E+00  0.25677927254E+00  0.17130032113E+03  0.17130000000E+03 0. -1.
      622    1    1    2    0    0 -0.41064777370E-01  0.18232481215E+00  0.33371670937E+01  0.35512832701E+01  0.12000000000E+01 0. -1.
</event>
<event>
 5   0  0.5136900E+01  0.9118800E+02  0.7818608E-02  0.1180000E+00
       11   -1    0    0    0    0  0.00000000000E+00  0.00000000000E+00  0.39999999673E+01  0.40000000000E+01  0.51109989000E-03 0.  1.
     -623   -1    0    0    0    0  0.00000000000E+00  0.00000000000E+00  0.12525980253E-10  0.17130000000E+03  0.17130000000E+03 0. -1.
       11    1    1    2    0    0  0.13298610107E-01 -0.33428774415E-01 -0.26225240730E-02  0.36075959381E-01  0.51109989000E-03 0.  1.
     -623    1    1    2    0    0  0.17421654457E+00 -0.57636499008E-01  0.23072270294E+00  0.17130025367E+03  0.17130000000E+03 0. -1.
      622    1    1    2    0    0 -0.18751515467E+00  0.91065273423E-01  0.37718997885E+01  0.39636703737E+01  0.12000000000E+01 0.  1.
</event>
<event>
 5   0  0.5136900E+01  0.9118800E+02  0.7818608E-02  0.1180000E+00
       11   -1    0    0    0    0  0.00000000000E+00  0.00000000000E+00  0.39999999673E+01  0.40000000000E+01  0.51109989000E-03 0. -1.
     -623   -1    0    0    0    0  0.00000000000E+00  0.00000000000E+00  0.12525980253E-10  0.17130000000E+03  0.17130000000E+03 0.  1.
       11    1    1    2    0    0  0.45018614460E-01  0.31899340645E-01  0.26793712723E-01  0.61338469524E-01  0.51109989000E-03 0. -1.
     -623    1    1    2    0    0 -0.16840353199E+00  0.13014670467E+00  0.22763032198E+00  0.17130028346E+03  0.17130000000E+03 0.  1.
      622    1    1    2    0    0  0.12338491753E+00 -0.16204604532E+00  0.37455759327E+01  0.39383780705E+01  0.12000000000E+01 0. -1.
</event>
<event>
 5   0  0.5136900E+01  0.9118800E+02  0.7818608E-02  0.1180000E+00
       11   -1    0    0    0    0  0.00000000000E+00  0.00000000000E+00  0.39999999673E+01  0.40000000000E+01  0.51109989000E-03 0. -1.
     -623   -1    0    0    0    0  0.00000000000E+00  0.00000000000E+00  0.12525980253E-10  0.17130000000E+03  0.17130000000E+03 0. -1.
       11    1    1    2    0    0  0.55797070202E-01  0.14997655690E-01  0.13698582628E+00  0.14867286418E+00  0.51109989000E-03 0. -1.
     -623    1    1    2    0    0 -0.68702006756E-01  0.59172684198E-01  0.20433550235E+00  0.17130014587E+03  0.17130000000E+03 0. -1.
      622    1    1    2    0    0  0.12904936554E-01 -0.74170339889E-01  0.36586786387E+01  0.38511812679E+01  0.12000000000E+01 0. -1.
</event>
<event>
 5   0  0.5136900E+01  0.9118800E+02  0.7818608E-02  0.1180000E+00
       11   -1    0    0    0    0  0.00000000000E+00  0.00000000000E+00  0.39999999673E+01  0.40000000000E+01  0.51109989000E-03 0. -1.
     -623   -1    0    0    0    0  0.00000000000E+00  0.00000000000E+00  0.12525980253E-10  0.17130000000E+03  0.17130000000E+03 0. -1.
       11    1    1    2    0    0 -0.16939620432E-01  0.12682239401E+00  0.18681014111E+00  0.22642694276E+00  0.51109989000E-03 0. -1.
     -623    1    1    2    0    0  0.25978564696E-02 -0.66027286854E-01  0.23623212613E+00  0.17130017563E+03  0.17130000000E+03 0. -1.
      622    1    1    2    0    0  0.14341763962E-01 -0.60795107159E-01  0.35769577001E+01  0.37733974240E+01  0.12000000000E+01 0. -1.
</event>
<event>
 5   0  0.5136900E+01  0.9118800E+02  0.7818608E-02  0.1180000E+00
       11   -1    0    0    0    0  0.00000000000E+00  0.00000000000E+00  0.39999999673E+01  0.40000000000E+01  0.51109989000E-03 0.  1.
     -623   -1    0    0    0    0  0.00000000000E+00  0.00000000000E+00  0.12525980253E-10  0.17130000000E+03  0.17130000000E+03 0.  1.
       11    1    1    2    0    0 -0.14334037356E+00  0.60503585318E-01  0.20175937771E+00  0.25478275893E+00  0.51109989000E-03 0.  1.
     -623    1    1    2    0    0  0.88115859756E-01  0.58168372652E-03  0.25164831560E+00  0.17130020751E+03  0.17130000000E+03 0.  1.
      622    1    1    2    0    0  0.55224513808E-01 -0.61085269045E-01  0.35465922741E+01  0.37450097350E+01  0.12000000000E+01 0.  1.
</event>
<event>
 5   0  0.5136900E+01  0.9118800E+02  0.7818608E-02  0.1180000E+00
       11   -1    0    0    0    0  0.00000000000E+00  0.00000000000E+00  0.39999999673E+01  0.40000000000E+01  0.51109989000E-03 0.  1.
     -623   -1    0    0    0    0  0.00000000000E+00  0.00000000000E+00  0.12525980253E-10  0.17130000000E+03  0.17130000000E+03 0.  1.
       11    1    1    2    0    0 -0.16922489224E+00 -0.26793037612E-01  0.19686935904E+00  0.26098416958E+00  0.51109989000E-03 0.  1.
     -623    1    1    2    0    0  0.22291007379E+00  0.48049035817E-01  0.26275440367E+00  0.17130035329E+03  0.17130000000E+03 0.  1.
      622    1    1    2    0    0 -0.53685181547E-01 -0.21255998204E-01  0.35403762046E+01  0.37386625398E+01  0.12000000000E+01 0.  1.
</event>
<event>
 5   0  0.5136900E+01  0.9118800E+02  0.7818608E-02  0.1180000E+00
       11   -1    0    0    0    0  0.00000000000E+00  0.00000000000E+00  0.39999999673E+01  0.40000000000E+01  0.51109989000E-03 0.  1.
     -623   -1    0    0    0    0  0.00000000000E+00  0.00000000000E+00  0.12525980253E-10  0.17130000000E+03  0.17130000000E+03 0.  1.
       11    1    1    2    0    0 -0.21985512434E+00 -0.17350024797E+00  0.61036403900E+00  0.67155277758E+00  0.51109989000E-03 0.  1.
     -623    1    1    2    0    0 -0.52140784771E-01  0.15861601150E+00  0.29737174216E+00  0.17130033948E+03  0.17130000000E+03 0.  1.
      622    1    1    2    0    0  0.27199590911E+00  0.14884236465E-01  0.30922641862E+01  0.33281077375E+01  0.12000000000E+01 0.  1.
</event>
<event>
 5   0  0.5136900E+01  0.9118800E+02  0.7818608E-02  0.1180000E+00
       11   -1    0    0    0    0  0.00000000000E+00  0.00000000000E+00  0.39999999673E+01  0.40000000000E+01  0.51109989000E-03 0.  1.
     -623   -1    0    0    0    0  0.00000000000E+00  0.00000000000E+00  0.12525980253E-10  0.17130000000E+03  0.17130000000E+03 0. -1.
       11    1    1    2    0    0 -0.10348321787E+00  0.32307254633E-01  0.86740105447E-01  0.13884034788E+00  0.51109989000E-03 0.  1.
     -623    1    1    2    0    0  0.13957043178E+00 -0.10146190857E+00  0.24441104196E+00  0.17130026127E+03  0.17130000000E+03 0. -1.
      622    1    1    2    0    0 -0.36087213910E-01  0.69154653941E-01  0.36688488199E+01  0.38608983821E+01  0.12000000000E+01 0.  1.
</event>
<event>
 5   0  0.5136900E+01  0.9118800E+02  0.7818608E-02  0.1180000E+00
       11   -1    0    0    0    0  0.00000000000E+00  0.00000000000E+00  0.39999999673E+01  0.40000000000E+01  0.51109989000E-03 0. -1.
     -623   -1    0    0    0    0  0.00000000000E+00  0.00000000000E+00  0.12525980253E-10  0.17130000000E+03  0.17130000000E+03 0.  1.
       11    1    1    2    0    0  0.86769013769E-01 -0.71153190264E-01 -0.60551748308E-01  0.12750848474E+00  0.51109989000E-03 0. -1.
     -623    1    1    2    0    0  0.49699886650E-01  0.26754017037E+00  0.38714224161E+00  0.17130065361E+03  0.17130000000E+03 0.  1.
      622    1    1    2    0    0 -0.13646890042E+00 -0.19638698010E+00  0.36734094741E+01  0.38718379061E+01  0.12000000000E+01 0. -1.
</event>
<event>
 5   0  0.5136900E+01  0.9118800E+02  0.7818608E-02  0.1180000E+00
       11   -1    0    0    0    0  0.00000000000E+00  0.00000000000E+00  0.39999999673E+01  0.40000000000E+01  0.51109989000E-03 0.  1.
     -623   -1    0    0    0    0  0.00000000000E+00  0.00000000000E+00  0.12525980253E-10  0.17130000000E+03  0.17130000000E+03 0.  1.
       11    1    1    2    0    0 -0.48456446948E-01  0.17726007560E+00  0.53456239646E+00  0.56526664379E+00  0.51109989000E-03 0.  1.
     -623    1    1    2    0    0  0.13878656924E+00 -0.15487405823E+00  0.24882069757E+00  0.17130030694E+03  0.17130000000E+03 0.  1.
      622    1    1    2    0    0 -0.90330122288E-01 -0.22386017365E-01  0.32166168733E+01  0.34344264113E+01  0.12000000000E+01 0.  1.
</event>
<event>
 5   0  0.5136900E+01  0.9118800E+02  0.7818608E-02  0.1180000E+00
       11   -1    0    0    0    0  0.00000000000E+00  0.00000000000E+00  0.39999999673E+01  0.40000000000E+01  0.51109989000E-03 0. -1.
     -623   -1    0    0    0    0  0.00000000000E+00  0.00000000000E+00  0.12525980253E-10  0.17130000000E+03  0.17130000000E+03 0.  1.
       11    1    1    2    0    0 -0.36287763765E+00 -0.44885634939E+00  0.83917378455E+00  0.10185112195E+01  0.51109989000E-03 0. -1.
     -623    1    1    2    0    0 -0.34273401407E-01  0.24566882910E+00  0.46910538277E+00  0.17130082191E+03  0.17130000000E+03 0.  1.
      622    1    1    2    0    0  0.39715103906E+00  0.20318752029E+00  0.26917208000E+01  0.29806668686E+01  0.12000000000E+01 0.  0.
</event>
<event>
 5   0  0.5136900E+01  0.9118800E+02  0.7818608E-02  0.1180000E+00
       11   -1    0    0    0    0  0.00000000000E+00  0.00000000000E+00  0.39999999673E+01  0.40000000000E+01  0.51109989000E-03 0. -1.
     -623   -1    0    0    0    0  0.00000000000E+00  0.00000000000E+00  0.12525980253E-10  0.17130000000E+03  0.17130000000E+03 0.  1.
       11    1    1    2    0    0 -0.63578303202E-02 -0.17540367690E-01  0.20362060204E-01  0.27621752731E-01  0.51109989000E-03 0. -1.
     -623    1    1    2    0    0 -0.21103291794E-01  0.56211802518E-01  0.19326899210E+00  0.17130011955E+03  0.17130000000E+03 0.  1.
      622    1    1    2    0    0  0.27461122114E-01 -0.38671434828E-01  0.37863689151E+01  0.39722586968E+01  0.12000000000E+01 0. -1.
</event>
<event>
 5   0  0.5136900E+01  0.9118800E+02  0.7818608E-02  0.1180000E+00
       11   -1    0    0    0    0  0.00000000000E+00  0.00000000000E+00  0.39999999673E+01  0.40000000000E+01  0.51109989000E-03 0. -1.
     -623   -1    0    0    0    0  0.00000000000E+00  0.00000000000E+00  0.12525980253E-10  0.17130000000E+03  0.17130000000E+03 0.  1.
       11    1    1    2    0    0  0.17559196119E+00 -0.17454884350E+00  0.31952550728E+00  0.40422351073E+00  0.51109989000E-03 0. -1.
     -623    1    1    2    0    0 -0.12243260594E+00  0.14219071292E+00  0.29178599635E+00  0.17130035128E+03  0.17130000000E+03 0.  1.
      622    1    1    2    0    0 -0.53159355249E-01  0.32358130582E-01  0.33886884637E+01  0.35954252141E+01  0.12000000000E+01 0. -1.
</event>
<event>
 5   0  0.5136900E+01  0.9118800E+02  0.7818608E-02  0.1180000E+00
       11   -1    0    0    0    0  0.00000000000E+00  0.00000000000E+00  0.39999999673E+01  0.40000000000E+01  0.51109989000E-03 0. -1.
     -623   -1    0    0    0    0  0.00000000000E+00  0.00000000000E+00  0.12525980253E-10  0.17130000000E+03  0.17130000000E+03 0.  1.
       11    1    1    2    0    0 -0.96921193170E-01 -0.15833504688E+00  0.19990087273E+00  0.27280821999E+00  0.51109989000E-03 0. -1.
     -623    1    1    2    0    0  0.57755464523E-01  0.33417214165E-01  0.27404048515E+00  0.17130023220E+03  0.17130000000E+03 0.  1.
      622    1    1    2    0    0  0.39165728647E-01  0.12491783271E+00  0.35260586095E+01  0.37269595835E+01  0.12000000000E+01 0. -1.
</event>
<event>
 5   0  0.5136900E+01  0.9118800E+02  0.7818608E-02  0.1180000E+00
       11   -1    0    0    0    0  0.00000000000E+00  0.00000000000E+00  0.39999999673E+01  0.40000000000E+01  0.51109989000E-03 0.  1.
     -623   -1    0    0    0    0  0.00000000000E+00  0.00000000000E+00  0.12525980253E-10  0.17130000000E+03  0.17130000000E+03 0.  1.
       11    1    1    2    0    0 -0.43144712446E-01  0.97872266095E-02  0.17621679299E-02  0.44278916810E-01  0.51109989000E-03 0.  1.
     -623    1    1    2    0    0  0.12078572421E+00  0.13191799421E+00  0.23265256325E+00  0.17130025137E+03  0.17130000000E+03 0.  1.
      622    1    1    2    0    0 -0.77641011760E-01 -0.14170522082E+00  0.37655852362E+01  0.39554697151E+01  0.12000000000E+01 0.  1.
</event>
<event>
 5   0  0.5136900E+01  0.9118800E+02  0.7818608E-02  0.1180000E+00
       11   -1    0    0    0    0  0.00000000000E+00  0.00000000000E+00  0.39999999673E+01  0.40000000000E+01  0.51109989000E-03 0.  1.
     -623   -1    0    0    0    0  0.00000000000E+00  0.00000000000E+00  0.12525980253E-10  0.17130000000E+03  0.17130000000E+03 0.  1.
       11    1    1    2    0    0  0.31839383623E+00 -0.29639665317E+00  0.44176440885E+00  0.61998521362E+00  0.51109989000E-03 0.  1.
     -623    1    1    2    0    0 -0.33239840371E+00  0.30928737986E+00  0.39960922263E+00  0.17130106782E+03  0.17130000000E+03 0.  1.
      622    1    1    2    0    0  0.14004567477E-01 -0.12890726698E-01  0.31586263359E+01  0.33789469703E+01  0.12000000000E+01 0.  1.
</event>
<event>
 5   0  0.5136900E+01  0.9118800E+02  0.7818608E-02  0.1180000E+00
       11   -1    0    0    0    0  0.00000000000E+00  0.00000000000E+00  0.39999999673E+01  0.40000000000E+01  0.51109989000E-03 0.  1.
     -623   -1    0    0    0    0  0.00000000000E+00  0.00000000000E+00  0.12525980253E-10  0.17130000000E+03  0.17130000000E+03 0. -1.
       11    1    1    2    0    0  0.65281828716E-01  0.23122282453E+00  0.86880756855E+00  0.90141697573E+00  0.51109989000E-03 0.  1.
     -623    1    1    2    0    0 -0.17999425489E+00 -0.64579694092E-01  0.28194889067E+00  0.17130033877E+03  0.17130000000E+03 0. -1.
      622    1    1    2    0    0  0.11471242618E+00 -0.16664313043E+00  0.28492435081E+01  0.30982442516E+01  0.12000000000E+01 0.  1.
</event>
<event>
 5   0  0.5136900E+01  0.9118800E+02  0.7818608E-02  0.1180000E+00
       11   -1    0    0    0    0  0.00000000000E+00  0.00000000000E+00  0.39999999673E+01  0.40000000000E+01  0.51109989000E-03 0. -1.
     -623   -1    0    0    0    0  0.00000000000E+00  0.00000000000E+00  0.12525980253E-10  0.17130000000E+03  0.17130000000E+03 0. -1.
       11    1    1    2    0    0  0.58487519345E-01  0.14564996466E+00  0.19322194453E+00  0.24893710690E+00  0.51109989000E-03 0. -1.
     -623    1    1    2    0    0 -0.16033831372E-01 -0.18795781943E+00  0.25365369128E+00  0.17130029167E+03  0.17130000000E+03 0. -1.
      622    1    1    2    0    0 -0.42453687973E-01  0.42307854768E-01  0.35531243316E+01  0.37507712254E+01  0.12000000000E+01 0. -1.
</event>
<event>
 5   0  0.5136900E+01  0.9118800E+02  0.7818608E-02  0.1180000E+00
       11   -1    0    0    0    0  0.00000000000E+00  0.00000000000E+00  0.39999999673E+01  0.40000000000E+01  0.51109989000E-03 0. -1.
     -623   -1    0    0    0    0  0.00000000000E+00  0.00000000000E+00  0.12525980253E-10  0.17130000000E+03  0.17130000000E+03 0.  1.
       11    1    1    2    0    0 -0.11383669557E+00 -0.81210663248E-01  0.22237691139E+00  0.26268939268E+00  0.51109989000E-03 0. -1.
     -623    1    1    2    0    0 -0.89961514049E-01  0.88823563574E-01  0.24431752731E+00  0.17130022088E+03  0.17130000000E+03 0.  1.
      622    1    1    2    0    0  0.20379820962E+00 -0.76129003259E-02  0.35333055287E+01  0.37370897267E+01  0.12000000000E+01 0. -1.
</event>
<event>
 5   0  0.5136900E+01  0.9118800E+02  0.7818608E-02  0.1180000E+00
       11   -1    0    0    0    0  0.00000000000E+00  0.00000000000E+00  0.39999999673E+01  0.40000000000E+01  0.51109989000E-03 0. -1.
     -623   -1    0    0    0    0  0.00000000000E+00  0.00000000000E+00  0.12525980253E-10  0.17130000000E+03  0.17130000000E+03 0.  1.
       11    1    1    2    0    0  0.88874708199E-01  0.48681262105E+00  0.73969277848E+00  0.88996118428E+00  0.51109989000E-03 0. -1.
     -623    1    1    2    0    0 -0.11986387599E+00 -0.19083346426E+00  0.40726592452E+00  0.17130063237E+03  0.17130000000E+03 0.  1.
      622    1    1    2    0    0  0.30989167790E-01 -0.29597915679E+00  0.28530412644E+01  0.31094064459E+01  0.12000000000E+01 0.  0.
</event>
<event>
 5   0  0.5136900E+01  0.9118800E+02  0.7818608E-02  0.1180000E+00
       11   -1    0    0    0    0  0.00000000000E+00  0.00000000000E+00  0.39999999673E+01  0.40000000000E+01  0.51109989000E-03 0. -1.
     -623   -1    0    0    0    0  0.00000000000E+00  0.00000000000E+00  0.12525980253E-10  0.17130000000E+03  0.17130000000E+03 0. -1.
       11    1    1    2    0    0  0.89883862290E-01  0.49208177771E-01 -0.33979263266E-01  0.10796020107E+00  0.51109989000E-03 0. -1.
     -623    1    1    2    0    0 -0.30833491436E+00  0.65533922170E-01  0.34044480216E+00  0.17130062833E+03  0.17130000000E+03 0. -1.
      622    1    1    2    0    0  0.21845105207E+00 -0.11474209994E+00  0.36935344285E+01  0.38914114645E+01  0.12000000000E+01 0. -1.
</event>
<event>
 5   0  0.5136900E+01  0.9118800E+02  0.7818608E-02  0.1180000E+00
       11   -1    0    0    0    0  0.00000000000E+00  0.00000000000E+00  0.39999999673E+01  0.40000000000E+01  0.51109989000E-03 0.  1.
     -623   -1    0    0    0    0  0.00000000000E+00  0.00000000000E+00  0.12525980253E-10  0.17130000000E+03  0.17130000000E+03 0.  1.
       11    1    1    2    0    0  0.15286565611E+00 -0.13545418469E+00  0.17994412503E+00  0.27220561039E+00  0.51109989000E-03 0.  1.
     -623    1    1    2    0    0 -0.26856971364E+00  0.10917288333E+00  0.29320551464E+00  0.17130049626E+03  0.17130000000E+03 0.  1.
      622    1    1    2    0    0  0.11570405752E+00  0.26281301357E-01  0.35268503277E+01  0.37272981326E+01  0.12000000000E+01 0.  1.
</event>
<event>
 5   0  0.5136900E+01  0.9118800E+02  0.7818608E-02  0.1180000E+00
       11   -1    0    0    0    0  0.00000000000E+00  0.00000000000E+00  0.39999999673E+01  0.40000000000E+01  0.51109989000E-03 0. -1.
     -623   -1    0    0    0    0  0.00000000000E+00  0.00000000000E+00  0.12525980253E-10  0.17130000000E+03  0.17130000000E+03 0. -1.
       11    1    1    2    0    0 -0.51019848972E-01 -0.60994452793E-01  0.22175844508E-01  0.82555300032E-01  0.51109989000E-03 0. -1.
     -623    1    1    2    0    0  0.19499593391E-01  0.14264527694E-01  0.24931759401E+00  0.17130018314E+03  0.17130000000E+03 0. -1.
      622    1    1    2    0    0  0.31520255581E-01  0.46729925100E-01  0.37285065288E+01  0.39172615624E+01  0.12000000000E+01 0. -1.
</event>
<event>
 5   0  0.5136900E+01  0.9118800E+02  0.7818608E-02  0.1180000E+00
       11   -1    0    0    0    0  0.00000000000E+00  0.00000000000E+00  0.39999999673E+01  0.40000000000E+01  0.51109989000E-03 0. -1.
     -623   -1    0    0    0    0  0.00000000000E+00  0.00000000000E+00  0.12525980253E-10  0.17130000000E+03  0.17130000000E+03 0. -1.
       11    1    1    2    0    0  0.57808375476E-01 -0.40749288510E+00  0.30287905909E+00  0.51100708932E+00  0.51109989000E-03 0. -1.
     -623    1    1    2    0    0  0.25742607310E+00  0.46298885396E+00  0.43813404744E+00  0.17130137941E+03  0.17130000000E+03 0. -1.
      622    1    1    2    0    0 -0.31523444858E+00 -0.55495968862E-01  0.32589868608E+01  0.34876134991E+01  0.12000000000E+01 0. -1.
</event>
<event>
 5   0  0.5136900E+01  0.9118800E+02  0.7818608E-02  0.1180000E+00
       11   -1    0    0    0    0  0.00000000000E+00  0.00000000000E+00  0.39999999673E+01  0.40000000000E+01  0.51109989000E-03 0. -1.
     -623   -1    0    0    0    0  0.00000000000E+00  0.00000000000E+00  0.12525980253E-10  0.17130000000E+03  0.17130000000E+03 0.  1.
       11    1    1    2    0    0 -0.17484124186E-01 -0.42444637338E-01 -0.63872703970E-02  0.46349760315E-01  0.51109989000E-03 0. -1.
     -623    1    1    2    0    0  0.24242372320E-01  0.23460013263E+00  0.24451041552E+00  0.17130033687E+03  0.17130000000E+03 0.  1.
      622    1    1    2    0    0 -0.67582481349E-02 -0.19215549529E+00  0.37618768222E+01  0.39533133741E+01  0.12000000000E+01 0. -1.
</event>
<event>
 5   0  0.5136900E+01  0.9118800E+02  0.7818608E-02  0.1180000E+00
       11   -1    0    0    0    0  0.00000000000E+00  0.00000000000E+00  0.39999999673E+01  0.40000000000E+01  0.51109989000E-03 0. -1.
     -623   -1    0    0    0    0  0.00000000000E+00  0.00000000000E+00  0.12525980253E-10  0.17130000000E+03  0.17130000000E+03 0.  1.
       11    1    1    2    0    0 -0.98443895224E-01 -0.12095420450E+00  0.70042577803E+00  0.71757762774E+00  0.51109989000E-03 0. -1.
     -623    1    1    2    0    0  0.30810413378E+00  0.65088999082E-02  0.25421977434E+00  0.17130046584E+03  0.17130000000E+03 0.  1.
      622    1    1    2    0    0 -0.20966023856E+00  0.11444530459E+00  0.30453544150E+01  0.32819565287E+01  0.12000000000E+01 0. -1.
</event>
<event>
 5   0  0.5136900E+01  0.9118800E+02  0.7818608E-02  0.1180000E+00
       11   -1    0    0    0    0  0.00000000000E+00  0.00000000000E+00  0.39999999673E+01  0.40000000000E+01  0.51109989000E-03 0. -1.
     -623   -1    0    0    0    0  0.00000000000E+00  0.00000000000E+00  0.12525980253E-10  0.17130000000E+03  0.17130000000E+03 0.  1.
       11    1    1    2    0    0 -0.45180587176E-01  0.70331749521E-01  0.47714010916E-01  0.96253459724E-01  0.51109989000E-03 0. -1.
     -623    1    1    2    0    0  0.11648323614E-01  0.71366923169E-01  0.24060227412E+00  0.17130018423E+03  0.17130000000E+03 0.  1.
      622    1    1    2    0    0  0.33532263562E-01 -0.14169867269E+00  0.37116836823E+01  0.39035623069E+01  0.12000000000E+01 0. -1.
</event>
<event>
 5   0  0.5136900E+01  0.9118800E+02  0.7818608E-02  0.1180000E+00
       11   -1    0    0    0    0  0.00000000000E+00  0.00000000000E+00  0.39999999673E+01  0.40000000000E+01  0.51109989000E-03 0. -1.
     -623   -1    0    0    0    0  0.00000000000E+00  0.00000000000E+00  0.12525980253E-10  0.17130000000E+03  0.17130000000E+03 0. -1.
       11    1    1    2    0    0  0.10365350314E+00 -0.87128174293E-01  0.24831824647E+00  0.28283843484E+00  0.51109989000E-03 0. -1.
     -623    1    1    2    0    0 -0.19923621962E+00  0.30577389762E-01  0.23559440148E+00  0.17130028060E+03  0.17130000000E+03 0. -1.
      622    1    1    2    0    0  0.95582716477E-01  0.56550784531E-01  0.35160873194E+01  0.37168809619E+01  0.12000000000E+01 0. -1.
</event>
<event>
 5   0  0.5136900E+01  0.9118800E+02  0.7818608E-02  0.1180000E+00
       11   -1    0    0    0    0  0.00000000000E+00  0.00000000000E+00  0.39999999673E+01  0.40000000000E+01  0.51109989000E-03 0. -1.
     -623   -1    0    0    0    0  0.00000000000E+00  0.00000000000E+00  0.12525980253E-10  0.17130000000E+03  0.17130000000E+03 0.  1.
       11    1    1    2    0    0  0.24235420364E-01  0.22613304519E-02 -0.21459350824E-01  0.32453569550E-01  0.51109989000E-03 0. -1.
     -623    1    1    2    0    0 -0.63578702826E-01 -0.31205380122E-01  0.24024442518E+00  0.17130018311E+03  0.17130000000E+03 0.  1.
      622    1    1    2    0    0  0.39343282462E-01  0.28944049670E-01  0.37812148930E+01  0.39673633208E+01  0.12000000000E+01 0. -1.
</event>
<event>
 5   0  0.5136900E+01  0.9118800E+02  0.7818608E-02  0.1180000E+00
       11   -1    0    0    0    0  0.00000000000E+00  0.00000000000E+00  0.39999999673E+01  0.40000000000E+01  0.51109989000E-03 0.  1.
     -623   -1    0    0    0    0  0.00000000000E+00  0.00000000000E+00  0.12525980253E-10  0.17130000000E+03  0.17130000000E+03 0.  1.
       11    1    1    2    0    0 -0.52420030242E-01  0.40168133597E-01  0.42060064354E-01  0.78298459524E-01  0.51109989000E-03 0.  1.
     -623    1    1    2    0    0  0.26321544058E+00  0.37042337808E-01  0.23148009771E+00  0.17130036263E+03  0.17130000000E+03 0.  1.
      622    1    1    2    0    0 -0.21079541034E+00 -0.77210471405E-01  0.37264598053E+01  0.39213389094E+01  0.12000000000E+01 0.  1.
</event>
<event>
 5   0  0.5136900E+01  0.9118800E+02  0.7818608E-02  0.1180000E+00
       11   -1    0    0    0    0  0.00000000000E+00  0.00000000000E+00  0.39999999673E+01  0.40000000000E+01  0.51109989000E-03 0.  1.
     -623   -1    0    0    0    0  0.00000000000E+00  0.00000000000E+00  0.12525980253E-10  0.17130000000E+03  0.17130000000E+03 0.  1.
       11    1    1    2    0    0  0.47861650992E-01 -0.21105471587E-02  0.56312335948E-01  0.73936002368E-01  0.51109989000E-03 0.  1.
     -623    1    1    2    0    0 -0.14822281840E+00  0.11789222297E-01  0.20706842775E+00  0.17130018969E+03  0.17130000000E+03 0.  1.
      622    1    1    2    0    0  0.10036116741E+00 -0.96786751383E-02  0.37366192037E+01  0.39258743120E+01  0.12000000000E+01 0.  1.
</event>
<event>
 5   0  0.5136900E+01  0.9118800E+02  0.7818608E-02  0.1180000E+00
       11   -1    0    0    0    0  0.00000000000E+00  0.00000000000E+00  0.39999999673E+01  0.40000000000E+01  0.51109989000E-03 0. -1.
     -623   -1    0    0    0    0  0.00000000000E+00  0.00000000000E+00  0.12525980253E-10  0.17130000000E+03  0.17130000000E+03 0.  1.
       11    1    1    2    0    0  0.81082708104E-01  0.17740003832E-01  0.99982930094E-02  0.83602274943E-01  0.51109989000E-03 0. -1.
     -623    1    1    2    0    0 -0.23197600187E+00  0.11873645263E+00  0.26796158400E+00  0.17130040781E+03  0.17130000000E+03 0.  1.
      622    1    1    2    0    0  0.15089329377E+00 -0.13647645646E+00  0.37220400903E+01  0.39159899187E+01  0.12000000000E+01 0. -1.
</event>
<event>
 5   0  0.5136900E+01  0.9118800E+02  0.7818608E-02  0.1180000E+00
       11   -1    0    0    0    0  0.00000000000E+00  0.00000000000E+00  0.39999999673E+01  0.40000000000E+01  0.51109989000E-03 0. -1.
     -623   -1    0    0    0    0  0.00000000000E+00  0.00000000000E+00  0.12525980253E-10  0.17130000000E+03  0.17130000000E+03 0. -1.
       11    1    1    2    0    0  0.64682106916E-01  0.21520413680E+00 -0.41481202262E-01  0.22851159011E+00  0.51109989000E-03 0. -1.
     -623    1    1    2    0    0  0.85564539055E-01 -0.33956630960E-01  0.47447156748E+00  0.17130068184E+03  0.17130000000E+03 0. -1.
      622    1    1    2    0    0 -0.15024664597E+00 -0.18124750584E+00  0.35670096021E+01  0.37708065735E+01  0.12000000000E+01 0.  0.
</event>
<event>
 5   0  0.5136900E+01  0.9118800E+02  0.7818608E-02  0.1180000E+00
       11   -1    0    0    0    0  0.00000000000E+00  0.00000000000E+00  0.39999999673E+01  0.40000000000E+01  0.51109989000E-03 0.  1.
     -623   -1    0    0    0    0  0.00000000000E+00  0.00000000000E+00  0.12525980253E-10  0.17130000000E+03  0.17130000000E+03 0. -1.
       11    1    1    2    0    0 -0.11997777236E+00  0.88737839404E-01  0.19011266998E+00  0.24168607431E+00  0.51109989000E-03 0.  1.
     -623    1    1    2    0    0  0.35866970313E-01 -0.74748654537E-01  0.24953108449E+00  0.17130020181E+03  0.17130000000E+03 0. -1.
      622    1    1    2    0    0  0.84110802042E-01 -0.13989184867E-01  0.35603562129E+01  0.37581121174E+01  0.12000000000E+01 0.  1.
</event>
<event>
 5   0  0.5136900E+01  0.9118800E+02  0.7818608E-02  0.1180000E+00
       11   -1    0    0    0    0  0.00000000000E+00  0.00000000000E+00  0.39999999673E+01  0.40000000000E+01  0.51109989000E-03 0. -1.
     -623   -1    0    0    0    0  0.00000000000E+00  0.00000000000E+00  0.12525980253E-10  0.17130000000E+03  0.17130000000E+03 0.  1.
       11    1    1    2    0    0  0.39796022496E-01 -0.68721417853E-01  0.74757916598E-01  0.10906586998E+00  0.51109989000E-03 0. -1.
     -623    1    1    2    0    0 -0.72439080559E-02  0.17801756767E+00  0.22598778218E+00  0.17130024172E+03  0.17130000000E+03 0.  1.
      622    1    1    2    0    0 -0.32552114440E-01 -0.10929614982E+00  0.36992542686E+01  0.38906924104E+01  0.12000000000E+01 0. -1.
</event>
<event>
 5   0  0.5136900E+01  0.9118800E+02  0.7818608E-02  0.1180000E+00
       11   -1    0    0    0    0  0.00000000000E+00  0.00000000000E+00  0.39999999673E+01  0.40000000000E+01  0.51109989000E-03 0. -1.
     -623   -1    0    0    0    0  0.00000000000E+00  0.00000000000E+00  0.12525980253E-10  0.17130000000E+03  0.17130000000E+03 0. -1.
       11    1    1    2    0    0 -0.12976255357E-01 -0.19884163308E+00  0.23567656058E+00  0.30862611794E+00  0.51109989000E-03 0. -1.
     -623    1    1    2    0    0  0.84331303975E-02  0.15131440939E+00  0.27407296697E+00  0.17130028629E+03  0.17130000000E+03 0. -1.
      622    1    1    2    0    0  0.45431249596E-02  0.47527223687E-01  0.34902504398E+01  0.36910875917E+01  0.12000000000E+01 0. -1.
</event>
<event>
 5   0  0.5136900E+01  0.9118800E+02  0.7818608E-02  0.1180000E+00
       11   -1    0    0    0    0  0.00000000000E+00  0.00000000000E+00  0.39999999673E+01  0.40000000000E+01  0.51109989000E-03 0. -1.
     -623   -1    0    0    0    0  0.00000000000E+00  0.00000000000E+00  0.12525980253E-10  0.17130000000E+03  0.17130000000E+03 0. -1.
       11    1    1    2    0    0 -0.17127627290E+00 -0.10534205445E+00  0.97210691222E-02  0.20131386068E+00  0.51109989000E-03 0. -1.
     -623    1    1    2    0    0  0.22492960468E+00  0.94916575582E-01  0.38717141881E+00  0.17130061151E+03  0.17130000000E+03 0. -1.
      622    1    1    2    0    0 -0.53653331774E-01  0.10425478870E-01  0.36031074794E+01  0.37980746279E+01  0.12000000000E+01 0. -1.
</event>
<event>
 5   0  0.5136900E+01  0.9118800E+02  0.7818608E-02  0.1180000E+00
       11   -1    0    0    0    0  0.00000000000E+00  0.00000000000E+00  0.39999999673E+01  0.40000000000E+01  0.51109989000E-03 0.  1.
     -623   -1    0    0    0    0  0.00000000000E+00  0.00000000000E+00  0.12525980253E-10  0.17130000000E+03  0.17130000000E+03 0.  1.
       11    1    1    2    0    0 -0.21825452592E+00  0.93275409684E-01  0.83641136982E+00  0.86943635818E+00  0.51109989000E-03 0.  1.
     -623    1    1    2    0    0  0.46076212433E+00  0.78072219997E-01  0.28839324575E+00  0.17130088023E+03  0.17130000000E+03 0.  1.
      622    1    1    2    0    0 -0.24250759841E+00 -0.17134762968E+00  0.28751953518E+01  0.31296834115E+01  0.12000000000E+01 0. -1.
</event>
<event>
 5   0  0.5136900E+01  0.9118800E+02  0.7818608E-02  0.1180000E+00
       11   -1    0    0    0    0  0.00000000000E+00  0.00000000000E+00  0.39999999673E+01  0.40000000000E+01  0.51109989000E-03 0. -1.
     -623   -1    0    0    0    0  0.00000000000E+00  0.00000000000E+00  0.12525980253E-10  0.17130000000E+03  0.17130000000E+03 0.  1.
       11    1    1    2    0    0  0.21911498251E-02  0.44301610996E-01  0.24928909336E-01  0.50883647847E-01  0.51109989000E-03 0. -1.
     -623    1    1    2    0    0  0.19285656781E+00  0.97927425574E-01  0.22073416162E+00  0.17130027877E+03  0.17130000000E+03 0.  1.
      622    1    1    2    0    0 -0.19504771763E+00 -0.14222903657E+00  0.37543368964E+01  0.39488375812E+01  0.12000000000E+01 0. -1.
</event>
<event>
 5   0  0.5136900E+01  0.9118800E+02  0.7818608E-02  0.1180000E+00
       11   -1    0    0    0    0  0.00000000000E+00  0.00000000000E+00  0.39999999673E+01  0.40000000000E+01  0.51109989000E-03 0.  1.
     -623   -1    0    0    0    0  0.00000000000E+00  0.00000000000E+00  0.12525980253E-10  0.17130000000E+03  0.17130000000E+03 0. -1.
       11    1    1    2    0    0  0.31302763070E+00  0.18930684675E+00  0.66305797774E+00  0.75727770526E+00  0.51109989000E-03 0.  1.
     -623    1    1    2    0    0 -0.10609638743E+00 -0.15136131149E+00  0.33223712049E+00  0.17130042191E+03  0.17130000000E+03 0. -1.
      622    1    1    2    0    0 -0.20693124327E+00 -0.37945535260E-01  0.30047048691E+01  0.32423003799E+01  0.12000000000E+01 0.  1.
</event>
<event>
 5   0  0.5136900E+01  0.9118800E+02  0.7818608E-02  0.1180000E+00
       11   -1    0    0    0    0  0.00000000000E+00  0.00000000000E+00  0.39999999673E+01  0.40000000000E+01  0.51109989000E-03 0.  1.
     -623   -1    0    0    0    0  0.00000000000E+00  0.00000000000E+00  0.12525980253E-10  0.17130000000E+03  0.17130000000E+03 0.  1.
       11    1    1    2    0    0  0.19059781849E-01  0.34011699798E-01  0.85420360755E+00  0.85509305657E+00  0.51109989000E-03 0.  1.
     -623    1    1    2    0    0 -0.85774597804E-01 -0.89311838560E-01  0.24035514931E+00  0.17130021338E+03  0.17130000000E+03 0.  1.
      622    1    1    2    0    0  0.66714815955E-01  0.55300138762E-01  0.29054412105E+01  0.31446935621E+01  0.12000000000E+01 0.  1.
</event>
<event>
 5   0  0.5136900E+01  0.9118800E+02  0.7818608E-02  0.1180000E+00
       11   -1    0    0    0    0  0.00000000000E+00  0.00000000000E+00  0.39999999673E+01  0.40000000000E+01  0.51109989000E-03 0.  1.
     -623   -1    0    0    0    0  0.00000000000E+00  0.00000000000E+00  0.12525980253E-10  0.17130000000E+03  0.17130000000E+03 0. -1.
       11    1    1    2    0    0  0.69339274858E-01  0.12055939696E+00  0.43689083864E-01  0.14577894397E+00  0.51109989000E-03 0.  1.
     -623    1    1    2    0    0 -0.83858555193E-01  0.16046406559E+00  0.30487195695E+00  0.17130036698E+03  0.17130000000E+03 0. -1.
      622    1    1    2    0    0  0.14519280335E-01 -0.28102346256E+00  0.36514389265E+01  0.38538540749E+01  0.12000000000E+01 0.  1.
</event>
<event>
 5   0  0.5136900E+01  0.9118800E+02  0.7818608E-02  0.1180000E+00
       11   -1    0    0    0    0  0.00000000000E+00  0.00000000000E+00  0.39999999673E+01  0.40000000000E+01  0.51109989000E-03 0. -1.
     -623   -1    0    0    0    0  0.00000000000E+00  0.00000000000E+00  0.12525980253E-10  0.17130000000E+03  0.17130000000E+03 0.  1.
       11    1    1    2    0    0  0.77904871444E-01 -0.69419736843E+00  0.95217171251E+00  0.11809362331E+01  0.51109989000E-03 0. -1.
     -623    1    1    2    0    0  0.20747825664E+00 -0.36008178009E-01  0.62184702506E+00  0.17130125813E+03  0.17130000000E+03 0.  1.
      622    1    1    2    0    0 -0.28538312809E+00  0.73020554644E+00  0.24259812298E+01  0.28178056351E+01  0.12000000000E+01 0. -1.
</event>
<event>
 5   0  0.5136900E+01  0.9118800E+02  0.7818608E-02  0.1180000E+00
       11   -1    0    0    0    0  0.00000000000E+00  0.00000000000E+00  0.39999999673E+01  0.40000000000E+01  0.51109989000E-03 0. -1.
     -623   -1    0    0    0    0  0.00000000000E+00  0.00000000000E+00  0.12525980253E-10  0.17130000000E+03  0.17130000000E+03 0. -1.
       11    1    1    2    0    0  0.12433763576E+00 -0.27873864989E+00  0.17301532309E+00  0.35084134000E+00  0.51109989000E-03 0. -1.
     -623    1    1    2    0    0  0.35599360399E+00  0.73228271110E+00  0.44740510925E+00  0.17130251936E+03  0.17130000000E+03 0. -1.
      622    1    1    2    0    0 -0.48033123975E+00 -0.45354406121E+00  0.33795795350E+01  0.36466392951E+01  0.12000000000E+01 0.  0.
</event>
<event>
 5   0  0.5136900E+01  0.9118800E+02  0.7818608E-02  0.1180000E+00
       11   -1    0    0    0    0  0.00000000000E+00  0.00000000000E+00  0.39999999673E+01  0.40000000000E+01  0.51109989000E-03 0.  1.
     -623   -1    0    0    0    0  0.00000000000E+00  0.00000000000E+00  0.12525980253E-10  0.17130000000E+03  0.17130000000E+03 0.  1.
       11    1    1    2    0    0  0.23681076658E+00 -0.79784493495E-01  0.85387976929E+00  0.88969423186E+00  0.51109989000E-03 0.  1.
     -623    1    1    2    0    0  0.13915809690E+00  0.29166775505E+00  0.30990526354E+00  0.17130058516E+03  0.17130000000E+03 0.  1.
      622    1    1    2    0    0 -0.37596886348E+00 -0.21188326155E+00  0.28362149345E+01  0.31097206077E+01  0.12000000000E+01 0.  1.
</event>
<event>
 5   0  0.5136900E+01  0.9118800E+02  0.7818608E-02  0.1180000E+00
       11   -1    0    0    0    0  0.00000000000E+00  0.00000000000E+00  0.39999999673E+01  0.40000000000E+01  0.51109989000E-03 0.  1.
     -623   -1    0    0    0    0  0.00000000000E+00  0.00000000000E+00  0.12525980253E-10  0.17130000000E+03  0.17130000000E+03 0. -1.
       11    1    1    2    0    0  0.17500813479E+00 -0.24886611063E-01  0.64193508865E-01  0.18806450611E+00  0.51109989000E-03 0.  1.
     -623    1    1    2    0    0 -0.22393985831E-01  0.67421893618E-03  0.32129866670E+00  0.17130030279E+03  0.17130000000E+03 0. -1.
      622    1    1    2    0    0 -0.15261414896E+00  0.24212392126E-01  0.36145077918E+01  0.38116327073E+01  0.12000000000E+01 0.  1.
</event>
<event>
 5   0  0.5136900E+01  0.9118800E+02  0.7818608E-02  0.1180000E+00
       11   -1    0    0    0    0  0.00000000000E+00  0.00000000000E+00  0.39999999673E+01  0.40000000000E+01  0.51109989000E-03 0. -1.
     -623   -1    0    0    0    0  0.00000000000E+00  0.00000000000E+00  0.12525980253E-10  0.17130000000E+03  0.17130000000E+03 0. -1.
       11    1    1    2    0    0 -0.28581776867E-01 -0.20165252632E+00  0.52841989234E+00  0.56631131296E+00  0.51109989000E-03 0. -1.
     -623    1    1    2    0    0  0.52653294535E-01  0.88544287970E-01  0.25672217308E+00  0.17130022335E+03  0.17130000000E+03 0. -1.
      622    1    1    2    0    0 -0.24071517667E-01  0.11310823835E+00  0.32148579019E+01  0.34334653400E+01  0.12000000000E+01 0. -1.
</event>
<event>
 5   0  0.5136900E+01  0.9118800E+02  0.7818608E-02  0.1180000E+00
       11   -1    0    0    0    0  0.00000000000E+00  0.00000000000E+00  0.39999999673E+01  0.40000000000E+01  0.51109989000E-03 0.  1.
     -623   -1    0    0    0    0  0.00000000000E+00  0.00000000000E+00  0.12525980253E-10  0.17130000000E+03  0.17130000000E+03 0.  1.
       11    1    1    2    0    0 -0.14336866542E+00 -0.34587858741E-02  0.20907659463E+00  0.25353465457E+00  0.51109989000E-03 0.  1.
     -623    1    1    2    0    0  0.58602187295E-01 -0.38515726643E+00  0.26488577873E+00  0.17130064782E+03  0.17130000000E+03 0.  1.
      622    1    1    2    0    0  0.84766478122E-01  0.38861605231E+00  0.35260375940E+01  0.37458175218E+01  0.12000000000E+01 0.  0.
</event>
<event>
 5   0  0.5136900E+01  0.9118800E+02  0.7818608E-02  0.1180000E+00
       11   -1    0    0    0    0  0.00000000000E+00  0.00000000000E+00  0.39999999673E+01  0.40000000000E+01  0.51109989000E-03 0. -1.
     -623   -1    0    0    0    0  0.00000000000E+00  0.00000000000E+00  0.12525980253E-10  0.17130000000E+03  0.17130000000E+03 0.  1.
       11    1    1    2    0    0 -0.23806748068E-01  0.16015198270E-01  0.10569744824E-02  0.28716306297E-01  0.51109989000E-03 0. -1.
     -623    1    1    2    0    0  0.21612196750E+00 -0.17891092678E+00  0.22209169587E+00  0.17130037374E+03  0.17130000000E+03 0.  1.
      622    1    1    2    0    0 -0.19231521944E+00  0.16289572851E+00  0.37768512970E+01  0.39709099564E+01  0.12000000000E+01 0. -1.
</event>
<event>
 5   0  0.5136900E+01  0.9118800E+02  0.7818608E-02  0.1180000E+00
       11   -1    0    0    0    0  0.00000000000E+00  0.00000000000E+00  0.39999999673E+01  0.40000000000E+01  0.51109989000E-03 0. -1.
     -623   -1    0    0    0    0  0.00000000000E+00  0.00000000000E+00  0.12525980253E-10  0.17130000000E+03  0.17130000000E+03 0. -1.
       11    1    1    2    0    0  0.31051134974E+00 -0.33890909020E+00  0.53435383513E+00  0.70484817661E+00  0.51109989000E-03 0. -1.
     -623    1    1    2    0    0 -0.67369454591E-02  0.36745424248E+00  0.41293350015E+00  0.17130089195E+03  0.17130000000E+03 0. -1.
      622    1    1    2    0    0 -0.30377440428E+00 -0.28545152284E-01  0.30527126321E+01  0.32942598757E+01  0.12000000000E+01 0. -1.
</event>
<event>
 5   0  0.5136900E+01  0.9118800E+02  0.7818608E-02  0.1180000E+00
       11   -1    0    0    0    0  0.00000000000E+00  0.00000000000E+00  0.39999999673E+01  0.40000000000E+01  0.51109989000E-03 0. -1.
     -623   -1    0    0    0    0  0.00000000000E+00  0.00000000000E+00  0.12525980253E-10  0.17130000000E+03  0.17130000000E+03 0. -1.
       11    1    1    2    0    0  0.26305217969E-01  0.55899884889E-01 -0.97094686753E-02  0.62540359993E-01  0.51109989000E-03 0. -1.
     -623    1    1    2    0    0 -0.27843179787E-01 -0.47585335153E-01  0.25979000125E+00  0.17130020587E+03  0.17130000000E+03 0. -1.
      622    1    1    2    0    0  0.15379618181E-02 -0.83145497359E-02  0.37499194348E+01  0.39372537719E+01  0.12000000000E+01 0. -1.
</event>
<event>
 5   0  0.5136900E+01  0.9118800E+02  0.7818608E-02  0.1180000E+00
       11   -1    0    0    0    0  0.00000000000E+00  0.00000000000E+00  0.39999999673E+01  0.40000000000E+01  0.51109989000E-03 0.  1.
     -623   -1    0    0    0    0  0.00000000000E+00  0.00000000000E+00  0.12525980253E-10  0.17130000000E+03  0.17130000000E+03 0. -1.
       11    1    1    2    0    0 -0.12935479579E+00 -0.18768833728E+00  0.66096965628E+00  0.69917145458E+00  0.51109989000E-03 0.  1.
     -623    1    1    2    0    0 -0.57390139871E-01  0.60535301373E+00  0.29973803818E+00  0.17130134147E+03  0.17130000000E+03 0. -1.
      622    1    1    2    0    0  0.18674493566E+00 -0.41766467645E+00  0.30392922729E+01  0.32994870773E+01  0.12000000000E+01 0.  1.
</event>
<event>
 5   0  0.5136900E+01  0.9118800E+02  0.7818608E-02  0.1180000E+00
       11   -1    0    0    0    0  0.00000000000E+00  0.00000000000E+00  0.39999999673E+01  0.40000000000E+01  0.51109989000E-03 0.  1.
     -623   -1    0    0    0    0  0.00000000000E+00  0.00000000000E+00  0.12525980253E-10  0.17130000000E+03  0.17130000000E+03 0.  1.
       11    1    1    2    0    0 -0.28949219621E+00 -0.78154550515E-03  0.10838533879E+01  0.11218488179E+01  0.51109989000E-03 0.  1.
     -623    1    1    2    0    0 -0.39612327717E-01 -0.10112996964E+00  0.32325152744E+00  0.17130033943E+03  0.17130000000E+03 0.  1.
      622    1    1    2    0    0  0.32910452392E+00  0.10191151515E+00  0.25928950520E+01  0.28778117546E+01  0.12000000000E+01 0.  1.
</event>
<event>
 5   0  0.5136900E+01  0.9118800E+02  0.7818608E-02  0.1180000E+00
       11   -1    0    0    0    0  0.00000000000E+00  0.00000000000E+00  0.39999999673E+01  0.40000000000E+01  0.51109989000E-03 0. -1.
     -623   -1    0    0    0    0  0.00000000000E+00  0.00000000000E+00  0.12525980253E-10  0.17130000000E+03  0.17130000000E+03 0.  1.
       11    1    1    2    0    0  0.94364400927E-01 -0.10898458115E+00  0.17564912427E+00  0.22723370166E+00  0.51109989000E-03 0. -1.
     -623    1    1    2    0    0 -0.24301707557E+00  0.19004952917E+00  0.25201244122E+00  0.17130046318E+03  0.17130000000E+03 0.  1.
      622    1    1    2    0    0  0.14865267464E+00 -0.81064948023E-01  0.35723384019E+01  0.37723031163E+01  0.12000000000E+01 0. -1.
</event>
<event>
 5   0  0.5136900E+01  0.9118800E+02  0.7818608E-02  0.1180000E+00
       11   -1    0    0    0    0  0.00000000000E+00  0.00000000000E+00  0.39999999673E+01  0.40000000000E+01  0.51109989000E-03 0.  1.
     -623   -1    0    0    0    0  0.00000000000E+00  0.00000000000E+00  0.12525980253E-10  0.17130000000E+03  0.17130000000E+03 0.  1.
       11    1    1    2    0    0 -0.18222053957E+00 -0.86637728122E-01  0.39267497324E+00  0.44147969014E+00  0.51109989000E-03 0.  1.
     -623    1    1    2    0    0  0.26177268686E+00  0.15775077232E+00  0.25943869033E+00  0.17130046911E+03  0.17130000000E+03 0.  1.
      622    1    1    2    0    0 -0.79552147286E-01 -0.71113044198E-01  0.33478863038E+01  0.35580511958E+01  0.12000000000E+01 0.  1.
</event>
<event>
 5   0  0.5136900E+01  0.9118800E+02  0.7818608E-02  0.1180000E+00
       11   -1    0    0    0    0  0.00000000000E+00  0.00000000000E+00  0.39999999673E+01  0.40000000000E+01  0.51109989000E-03 0.  1.
     -623   -1    0    0    0    0  0.00000000000E+00  0.00000000000E+00  0.12525980253E-10  0.17130000000E+03  0.17130000000E+03 0. -1.
       11    1    1    2    0    0 -0.10103392537E-01  0.16348472766E-01 -0.20579258875E-01  0.28162354686E-01  0.51109989000E-03 0.  1.
     -623    1    1    2    0    0  0.16505363050E-01  0.45002818588E-01  0.23503366050E+00  0.17130016795E+03  0.17130000000E+03 0. -1.
      622    1    1    2    0    0 -0.64019705137E-02 -0.61351291354E-01  0.37855455657E+01  0.39716696988E+01  0.12000000000E+01 0.  1.
</event>
<event>
 5   0  0.5136900E+01  0.9118800E+02  0.7818608E-02  0.1180000E+00
       11   -1    0    0    0    0  0.00000000000E+00  0.00000000000E+00  0.39999999673E+01  0.40000000000E+01  0.51109989000E-03 0.  1.
     -623   -1    0    0    0    0  0.00000000000E+00  0.00000000000E+00  0.12525980253E-10  0.17130000000E+03  0.17130000000E+03 0.  1.
       11    1    1    2    0    0  0.11371695939E+00 -0.73075661213E-01 -0.78480582034E-01  0.15630438923E+00  0.51109989000E-03 0.  1.
     -623    1    1    2    0    0  0.54385752518E-01  0.18653219030E+00  0.43323613381E+00  0.17130065804E+03  0.17130000000E+03 0.  1.
      622    1    1    2    0    0 -0.16810271191E+00 -0.11345652909E+00  0.36452444156E+01  0.38430375688E+01  0.12000000000E+01 0.  1.
</event>
<event>
 5   0  0.5136900E+01  0.9118800E+02  0.7818608E-02  0.1180000E+00
       11   -1    0    0    0    0  0.00000000000E+00  0.00000000000E+00  0.39999999673E+01  0.40000000000E+01  0.51109989000E-03 0. -1.
     -623   -1    0    0    0    0  0.00000000000E+00  0.00000000000E+00  0.12525980253E-10  0.17130000000E+03  0.17130000000E+03 0. -1.
       11    1    1    2    0    0 -0.18268238175E+00  0.49852872914E-01  0.44961960422E+00  0.48786905134E+00  0.51109989000E-03 0. -1.
     -623    1    1    2    0    0  0.26713718292E+00  0.10141509250E+00  0.25461851368E+00  0.17130042755E+03  0.17130000000E+03 0. -1.
      622    1    1    2    0    0 -0.84454801172E-01 -0.15126796542E+00  0.32957618495E+01  0.35117034014E+01  0.12000000000E+01 0. -1.
</event>
<event>
 5   0  0.5136900E+01  0.9118800E+02  0.7818608E-02  0.1180000E+00
       11   -1    0    0    0    0  0.00000000000E+00  0.00000000000E+00  0.39999999673E+01  0.40000000000E+01  0.51109989000E-03 0. -1.
     -623   -1    0    0    0    0  0.00000000000E+00  0.00000000000E+00  0.12525980253E-10  0.17130000000E+03  0.17130000000E+03 0. -1.
       11    1    1    2    0    0 -0.21732793760E+00 -0.31478470161E+00  0.59043238585E+00  0.70351368453E+00  0.51109989000E-03 0. -1.
     -623    1    1    2    0    0  0.24027629146E+00  0.13065972015E+00  0.34547597884E+00  0.17130056672E+03  0.17130000000E+03 0. -1.
      622    1    1    2    0    0 -0.22948353857E-01  0.18412498147E+00  0.30640916027E+01  0.32959195963E+01  0.12000000000E+01 0. -1.
</event>
<event>
 5   0  0.5136900E+01  0.9118800E+02  0.7818608E-02  0.1180000E+00
       11   -1    0    0    0    0  0.00000000000E+00  0.00000000000E+00  0.39999999673E+01  0.40000000000E+01  0.51109989000E-03 0. -1.
     -623   -1    0    0    0    0  0.00000000000E+00  0.00000000000E+00  0.12525980253E-10  0.17130000000E+03  0.17130000000E+03 0.  1.
       11    1    1    2    0    0  0.15854707523E+00 -0.30293718500E+00  0.68661967617E+00  0.76704299361E+00  0.51109989000E-03 0. -1.
     -623    1    1    2    0    0 -0.39586060477E-01  0.43059579111E+00  0.31736067444E+00  0.17130083975E+03  0.17130000000E+03 0.  1.
      622    1    1    2    0    0 -0.11896101475E+00 -0.12765860612E+00  0.29960196168E+01  0.32321172607E+01  0.12000000000E+01 0. -1.
</event>
<event>
 5   0  0.5136900E+01  0.9118800E+02  0.7818608E-02  0.1180000E+00
       11   -1    0    0    0    0  0.00000000000E+00  0.00000000000E+00  0.39999999673E+01  0.40000000000E+01  0.51109989000E-03 0. -1.
     -623   -1    0    0    0    0  0.00000000000E+00  0.00000000000E+00  0.12525980253E-10  0.17130000000E+03  0.17130000000E+03 0. -1.
       11    1    1    2    0    0 -0.93168846918E-01 -0.38033281295E+00  0.72808493537E+00  0.82670515722E+00  0.51109989000E-03 0. -1.
     -623    1    1    2    0    0  0.11422678818E-01  0.29810465737E+00  0.33719158176E+00  0.17130059164E+03  0.17130000000E+03 0. -1.
      622    1    1    2    0    0  0.81746168100E-01  0.82228155575E-01  0.29347234502E+01  0.31727032062E+01  0.12000000000E+01 0. -1.
</event>
<event>
 5   0  0.5136900E+01  0.9118800E+02  0.7818608E-02  0.1180000E+00
       11   -1    0    0    0    0  0.00000000000E+00  0.00000000000E+00  0.39999999673E+01  0.40000000000E+01  0.51109989000E-03 0. -1.
     -623   -1    0    0    0    0  0.00000000000E+00  0.00000000000E+00  0.12525980253E-10  0.17130000000E+03  0.17130000000E+03 0.  1.
       11    1    1    2    0    0  0.54108579320E-01 -0.75507776259E-02  0.17837179577E+00  0.18655163185E+00  0.51109989000E-03 0. -1.
     -623    1    1    2    0    0 -0.30991635739E+00  0.83797153854E-01  0.21221819273E+00  0.17130043230E+03  0.17130000000E+03 0.  1.
      622    1    1    2    0    0  0.25580777807E+00 -0.76246376228E-01  0.36094099789E+01  0.38130160667E+01  0.12000000000E+01 0. -1.
</event>
<event>
 5   0  0.5136900E+01  0.9118800E+02  0.7818608E-02  0.1180000E+00
       11   -1    0    0    0    0  0.00000000000E+00  0.00000000000E+00  0.39999999673E+01  0.40000000000E+01  0.51109989000E-03 0. -1.
     -623   -1    0    0    0    0  0.00000000000E+00  0.00000000000E+00  0.12525980253E-10  0.17130000000E+03  0.17130000000E+03 0. -1.
       11    1    1    2    0    0  0.53189976081E-01 -0.67821444244E-01  0.45480854220E+00  0.46290387030E+00  0.51109989000E-03 0. -1.
     -623    1    1    2    0    0  0.13288062784E+00  0.55616830843E+00  0.26040930981E+00  0.17130115234E+03  0.17130000000E+03 0. -1.
      622    1    1    2    0    0 -0.18607060393E+00 -0.48834686418E+00  0.32847821154E+01  0.35359437884E+01  0.12000000000E+01 0.  0.
</event>
<event>
 5   0  0.5136900E+01  0.9118800E+02  0.7818608E-02  0.1180000E+00
       11   -1    0    0    0    0  0.00000000000E+00  0.00000000000E+00  0.39999999673E+01  0.40000000000E+01  0.51109989000E-03 0. -1.
     -623   -1    0    0    0    0  0.00000000000E+00  0.00000000000E+00  0.12525980253E-10  0.17130000000E+03  0.17130000000E+03 0.  1.
       11    1    1    2    0    0  0.51725487009E-01  0.37809670770E-01 -0.48408285534E-02  0.64255677214E-01  0.51109989000E-03 0. -1.
     -623    1    1    2    0    0  0.18633370801E-01  0.18035969370E-01  0.25777899767E+00  0.17130019592E+03  0.17130000000E+03 0.  1.
      622    1    1    2    0    0 -0.70358857810E-01 -0.55845640140E-01  0.37470617982E+01  0.39355484020E+01  0.12000000000E+01 0. -1.
</event>
<event>
 5   0  0.5136900E+01  0.9118800E+02  0.7818608E-02  0.1180000E+00
       11   -1    0    0    0    0  0.00000000000E+00  0.00000000000E+00  0.39999999673E+01  0.40000000000E+01  0.51109989000E-03 0. -1.
     -623   -1    0    0    0    0  0.00000000000E+00  0.00000000000E+00  0.12525980253E-10  0.17130000000E+03  0.17130000000E+03 0. -1.
       11    1    1    2    0    0  0.10402869463E+00 -0.72917565594E-01  0.34618146169E-01  0.13167238870E+00  0.51109989000E-03 0. -1.
     -623    1    1    2    0    0 -0.57039954132E-01 -0.19914175225E+00  0.29867335699E+00  0.17130038563E+03  0.17130000000E+03 0. -1.
      622    1    1    2    0    0 -0.46988740502E-01  0.27205931784E+00  0.36667084642E+01  0.38679419819E+01  0.12000000000E+01 0. -1.
</event>
<event>
 5   0  0.5136900E+01  0.9118800E+02  0.7818608E-02  0.1180000E+00
       11   -1    0    0    0    0  0.00000000000E+00  0.00000000000E+00  0.39999999673E+01  0.40000000000E+01  0.51109989000E-03 0.  1.
     -623   -1    0    0    0    0  0.00000000000E+00  0.00000000000E+00  0.12525980253E-10  0.17130000000E+03  0.17130000000E+03 0. -1.
       11    1    1    2    0    0  0.22145977351E+00  0.15506144478E+00  0.58230186508E+00  0.64200016062E+00  0.51109989000E-03 0.  1.
     -623    1    1    2    0    0 -0.14863402691E+00  0.16256483551E-01  0.28729023863E+00  0.17130030616E+03  0.17130000000E+03 0. -1.
      622    1    1    2    0    0 -0.72825746600E-01 -0.17131792833E+00  0.31304078637E+01  0.33576936749E+01  0.12000000000E+01 0.  1.
</event>
<event>
 5   0  0.5136900E+01  0.9118800E+02  0.7818608E-02  0.1180000E+00
       11   -1    0    0    0    0  0.00000000000E+00  0.00000000000E+00  0.39999999673E+01  0.40000000000E+01  0.51109989000E-03 0.  1.
     -623   -1    0    0    0    0  0.00000000000E+00  0.00000000000E+00  0.12525980253E-10  0.17130000000E+03  0.17130000000E+03 0. -1.
       11    1    1    2    0    0 -0.23880942268E-01 -0.24465633011E-02  0.64330855447E+00  0.64375650874E+00  0.51109989000E-03 0.  1.
     -623    1    1    2    0    0  0.95494365454E-03  0.17117858307E-01  0.22258019559E+00  0.17130014546E+03  0.17130000000E+03 0. -1.
      622    1    1    2    0    0  0.22925998613E-01 -0.14671295006E-01  0.31341112173E+01  0.33560980276E+01  0.12000000000E+01 0.  1.
</event>
<event>
 5   0  0.5136900E+01  0.9118800E+02  0.7818608E-02  0.1180000E+00
       11   -1    0    0    0    0  0.00000000000E+00  0.00000000000E+00  0.39999999673E+01  0.40000000000E+01  0.51109989000E-03 0. -1.
     -623   -1    0    0    0    0  0.00000000000E+00  0.00000000000E+00  0.12525980253E-10  0.17130000000E+03  0.17130000000E+03 0. -1.
       11    1    1    2    0    0 -0.29865289368E-02 -0.13251400821E+00  0.71259870116E-01  0.15048957452E+00  0.51109989000E-03 0. -1.
     -623    1    1    2    0    0  0.11916976291E-01 -0.95155810858E-02  0.27404647439E+00  0.17130021989E+03  0.17130000000E+03 0. -1.
      622    1    1    2    0    0 -0.89304473542E-02  0.14202958929E+00  0.36546936229E+01  0.38492905365E+01  0.12000000000E+01 0. -1.
</event>
<event>
 5   0  0.5136900E+01  0.9118800E+02  0.7818608E-02  0.1180000E+00
       11   -1    0    0    0    0  0.00000000000E+00  0.00000000000E+00  0.39999999673E+01  0.40000000000E+01  0.51109989000E-03 0.  1.
     -623   -1    0    0    0    0  0.00000000000E+00  0.00000000000E+00  0.12525980253E-10  0.17130000000E+03  0.17130000000E+03 0.  1.
       11    1    1    2    0    0 -0.31887327680E-01  0.50405446821E-01  0.17700449883E+00  0.18678427280E+00  0.51109989000E-03 0.  1.
     -623    1    1    2    0    0  0.51030822028E-01  0.12134615456E+00  0.20783269926E+00  0.17130017666E+03  0.17130000000E+03 0.  1.
      622    1    1    2    0    0 -0.19143494349E-01 -0.17175160138E+00  0.36151627693E+01  0.38130390680E+01  0.12000000000E+01 0.  1.
</event>
<event>
 5   0  0.5136900E+01  0.9118800E+02  0.7818608E-02  0.1180000E+00
       11   -1    0    0    0    0  0.00000000000E+00  0.00000000000E+00  0.39999999673E+01  0.40000000000E+01  0.51109989000E-03 0. -1.
     -623   -1    0    0    0    0  0.00000000000E+00  0.00000000000E+00  0.12525980253E-10  0.17130000000E+03  0.17130000000E+03 0.  1.
       11    1    1    2    0    0 -0.61959662213E-01 -0.40038200153E-01 -0.12392593409E-01  0.74805713736E-01  0.51109989000E-03 0. -1.
     -623    1    1    2    0    0  0.12007987884E-01 -0.10834935022E+00  0.27868337299E+00  0.17130026138E+03  0.17130000000E+03 0.  1.
      622    1    1    2    0    0  0.49951674329E-01  0.14838755037E+00  0.37337091878E+01  0.39249329082E+01  0.12000000000E+01 0. -1.
</event>
<event>
 5   0  0.5136900E+01  0.9118800E+02  0.7818608E-02  0.1180000E+00
       11   -1    0    0    0    0  0.00000000000E+00  0.00000000000E+00  0.39999999673E+01  0.40000000000E+01  0.51109989000E-03 0.  1.
     -623   -1    0    0    0    0  0.00000000000E+00  0.00000000000E+00  0.12525980253E-10  0.17130000000E+03  0.17130000000E+03 0. -1.
       11    1    1    2    0    0 -0.14698010433E+00 -0.17909614530E+00  0.77564497004E-01  0.24432579223E+00  0.51109989000E-03 0.  1.
     -623    1    1    2    0    0  0.19419166491E-02  0.40605249198E+00  0.37478134519E+00  0.17130089125E+03  0.17130000000E+03 0. -1.
      622    1    1    2    0    0  0.14503818768E+00 -0.22695634668E+00  0.35476541252E+01  0.37547829566E+01  0.12000000000E+01 0.  1.
</event>
<event>
 5   0  0.5136900E+01  0.9118800E+02  0.7818608E-02  0.1180000E+00
       11   -1    0    0    0    0  0.00000000000E+00  0.00000000000E+00  0.39999999673E+01  0.40000000000E+01  0.51109989000E-03 0.  1.
     -623   -1    0    0    0    0  0.00000000000E+00  0.00000000000E+00  0.12525980253E-10  0.17130000000E+03  0.17130000000E+03 0. -1.
       11    1    1    2    0    0 -0.15104575670E+00  0.14040557082E+00 -0.28936284099E-01  0.20824532334E+00  0.51109989000E-03 0.  1.
     -623    1    1    2    0    0  0.10021840467E+00 -0.27413450563E-01  0.43482591552E+00  0.17130058339E+03  0.17130000000E+03 0. -1.
      622    1    1    2    0    0  0.50827352028E-01 -0.11299212025E+00  0.35941103359E+01  0.37911712894E+01  0.12000000000E+01 0.  1.
</event>
<event>
 5   0  0.5136900E+01  0.9118800E+02  0.7818608E-02  0.1180000E+00
       11   -1    0    0    0    0  0.00000000000E+00  0.00000000000E+00  0.39999999673E+01  0.40000000000E+01  0.51109989000E-03 0. -1.
     -623   -1    0    0    0    0  0.00000000000E+00  0.00000000000E+00  0.12525980253E-10  0.17130000000E+03  0.17130000000E+03 0. -1.
       11    1    1    2    0    0  0.16353337866E+00 -0.98715470044E-01  0.28683893516E+00  0.34462261375E+00  0.51109989000E-03 0. -1.
     -623    1    1    2    0    0 -0.10937436035E+00  0.73279791981E-02  0.26225173358E+00  0.17130023582E+03  0.17130000000E+03 0. -1.
      622    1    1    2    0    0 -0.54159018311E-01  0.91387490846E-01  0.34509092986E+01  0.36551415650E+01  0.12000000000E+01 0. -1.
</event>
<event>
 5   0  0.5136900E+01  0.9118800E+02  0.7818608E-02  0.1180000E+00
       11   -1    0    0    0    0  0.00000000000E+00  0.00000000000E+00  0.39999999673E+01  0.40000000000E+01  0.51109989000E-03 0. -1.
     -623   -1    0    0    0    0  0.00000000000E+00  0.00000000000E+00  0.12525980253E-10  0.17130000000E+03  0.17130000000E+03 0. -1.
       11    1    1    2    0    0 -0.15331977714E-01 -0.77529451380E-01 -0.24621986269E-01  0.82779156814E-01  0.51109989000E-03 0. -1.
     -623    1    1    2    0    0 -0.90786233190E-02 -0.15137748698E+00  0.30319791292E+00  0.17130033545E+03  0.17130000000E+03 0. -1.
      622    1    1    2    0    0  0.24410601033E-01  0.22890693836E+00  0.37214240407E+01  0.39168853895E+01  0.12000000000E+01 0. -1.
</event>
<event>
 5   0  0.5136900E+01  0.9118800E+02  0.7818608E-02  0.1180000E+00
       11   -1    0    0    0    0  0.00000000000E+00  0.00000000000E+00  0.39999999673E+01  0.40000000000E+01  0.51109989000E-03 0.  1.
     -623   -1    0    0    0    0  0.00000000000E+00  0.00000000000E+00  0.12525980253E-10  0.17130000000E+03  0.17130000000E+03 0.  1.
       11    1    1    2    0    0  0.15554337463E+00  0.43436372744E-01  0.88169854717E-01  0.18399631619E+00  0.51109989000E-03 0.  1.
     -623    1    1    2    0    0 -0.19320145546E+00 -0.15986197585E+00  0.29193897827E+00  0.17130043231E+03  0.17130000000E+03 0.  1.
      622    1    1    2    0    0  0.37658080825E-01  0.11642560310E+00  0.36198911344E+01  0.38155713696E+01  0.12000000000E+01 0.  1.
</event>
<event>
 5   0  0.5136900E+01  0.9118800E+02  0.7818608E-02  0.1180000E+00
       11   -1    0    0    0    0  0.00000000000E+00  0.00000000000E+00  0.39999999673E+01  0.40000000000E+01  0.51109989000E-03 0.  1.
     -623   -1    0    0    0    0  0.00000000000E+00  0.00000000000E+00  0.12525980253E-10  0.17130000000E+03  0.17130000000E+03 0.  1.
       11    1    1    2    0    0 -0.13126622160E+00 -0.18824807750E-01  0.31262084823E+00  0.33958393703E+00  0.51109989000E-03 0.  1.
     -623    1    1    2    0    0  0.98351767157E-01  0.31125026147E+00  0.24230748332E+00  0.17130048238E+03  0.17130000000E+03 0.  1.
      622    1    1    2    0    0  0.32914454444E-01 -0.29242545372E+00  0.34450716358E+01  0.36599336856E+01  0.12000000000E+01 0.  1.
</event>
<event>
 5   0  0.5136900E+01  0.9118800E+02  0.7818608E-02  0.1180000E+00
       11   -1    0    0    0    0  0.00000000000E+00  0.00000000000E+00  0.39999999673E+01  0.40000000000E+01  0.51109989000E-03 0. -1.
     -623   -1    0    0    0    0  0.00000000000E+00  0.00000000000E+00  0.12525980253E-10  0.17130000000E+03  0.17130000000E+03 0. -1.
       11    1    1    2    0    0  0.12433684501E+00  0.26668826697E-01  0.43542087467E+00  0.45361049003E+00  0.51109989000E-03 0. -1.
     -623    1    1    2    0    0  0.12656466262E+00 -0.33519441607E+00  0.25176014775E+00  0.17130055971E+03  0.17130000000E+03 0. -1.
      622    1    1    2    0    0 -0.25090150763E+00  0.30852558937E+00  0.33128189449E+01  0.35458297996E+01  0.12000000000E+01 0. -1.
</event>
<event>
 5   0  0.5136900E+01  0.9118800E+02  0.7818608E-02  0.1180000E+00
       11   -1    0    0    0    0  0.00000000000E+00  0.00000000000E+00  0.39999999673E+01  0.40000000000E+01  0.51109989000E-03 0. -1.
     -623   -1    0    0    0    0  0.00000000000E+00  0.00000000000E+00  0.12525980253E-10  0.17130000000E+03  0.17130000000E+03 0. -1.
       11    1    1    2    0    0 -0.86673329893E-02  0.43770124608E-02 -0.64372728649E-01  0.65102920948E-01  0.51109989000E-03 0. -1.
     -623    1    1    2    0    0  0.60583173492E-01 -0.59073056515E-01  0.31800903067E+00  0.17130031608E+03  0.17130000000E+03 0. -1.
      622    1    1    2    0    0 -0.51915840503E-01  0.54696044054E-01  0.37463636653E+01  0.39345809974E+01  0.12000000000E+01 0. -1.
</event>
<event>
 5   0  0.5136900E+01  0.9118800E+02  0.7818608E-02  0.1180000E+00
       11   -1    0    0    0    0  0.00000000000E+00  0.00000000000E+00  0.39999999673E+01  0.40000000000E+01  0.51109989000E-03 0. -1.
     -623   -1    0    0    0    0  0.00000000000E+00  0.00000000000E+00  0.12525980253E-10  0.17130000000E+03  0.17130000000E+03 0. -1.
       11    1    1    2    0    0 -0.19158008016E+00  0.19832909569E+00  0.12570983628E+00  0.30305211016E+00  0.51109989000E-03 0. -1.
     -623    1    1    2    0    0  0.12634900660E+00 -0.14952581775E+00  0.37902767912E+00  0.17130053118E+03  0.17130000000E+03 0. -1.
      622    1    1    2    0    0  0.65231073565E-01 -0.48803277935E-01  0.34952624520E+01  0.36964167055E+01  0.12000000000E+01 0. -1.
</event>
<event>
 5   0  0.5136900E+01  0.9118800E+02  0.7818608E-02  0.1180000E+00
       11   -1    0    0    0    0  0.00000000000E+00  0.00000000000E+00  0.39999999673E+01  0.40000000000E+01  0.51109989000E-03 0.  1.
     -623   -1    0    0    0    0  0.00000000000E+00  0.00000000000E+00  0.12525980253E-10  0.17130000000E+03  0.17130000000E+03 0. -1.
       11    1    1    2    0    0  0.10671821630E+00 -0.64060859498E-01  0.13976108365E-01  0.12525240212E+00  0.51109989000E-03 0.  1.
     -623    1    1    2    0    0  0.94204257603E-02  0.28324934452E+00  0.31068206107E+00  0.17130051618E+03  0.17130000000E+03 0. -1.
      622    1    1    2    0    0 -0.11613864206E+00 -0.21918848502E+00  0.36753417979E+01  0.38742314215E+01  0.12000000000E+01 0.  1.
</event>
<event>
 5   0  0.5136900E+01  0.9118800E+02  0.7818608E-02  0.1180000E+00
       11   -1    0    0    0    0  0.00000000000E+00  0.00000000000E+00  0.39999999673E+01  0.40000000000E+01  0.51109989000E-03 0. -1.
     -623   -1    0    0    0    0  0.00000000000E+00  0.00000000000E+00  0.12525980253E-10  0.17130000000E+03  0.17130000000E+03 0. -1.
       11    1    1    2    0    0 -0.13202901580E-01  0.10153562180E+00  0.18254781254E+00  0.20930304392E+00  0.51109989000E-03 0. -1.
     -623    1    1    2    0    0 -0.13941920558E+00 -0.16016617051E+00  0.22572177124E+00  0.17130028033E+03  0.17130000000E+03 0. -1.
      622    1    1    2    0    0  0.15262210716E+00  0.58630548711E-01  0.35917303836E+01  0.37904166258E+01  0.12000000000E+01 0. -1.
</event>
<event>
 5   0  0.5136900E+01  0.9118800E+02  0.7818608E-02  0.1180000E+00
       11   -1    0    0    0    0  0.00000000000E+00  0.00000000000E+00  0.39999999673E+01  0.40000000000E+01  0.51109989000E-03 0. -1.
     -623   -1    0    0    0    0  0.00000000000E+00  0.00000000000E+00  0.12525980253E-10  0.17130000000E+03  0.17130000000E+03 0.  1.
       11    1    1    2    0    0  0.42994677181E-02  0.17011506770E-01  0.27367291957E-03  0.17555993353E-01  0.51109989000E-03 0. -1.
     -623    1    1    2    0    0 -0.14662686303E-01 -0.10611279042E+00  0.20359887564E+00  0.17130015449E+03  0.17130000000E+03 0.  1.
      622    1    1    2    0    0  0.10363218585E-01  0.89101283650E-01  0.37961274188E+01  0.39822895192E+01  0.12000000000E+01 0. -1.
</event>
<event>
 5   0  0.5136900E+01  0.9118800E+02  0.7818608E-02  0.1180000E+00
       11   -1    0    0    0    0  0.00000000000E+00  0.00000000000E+00  0.39999999673E+01  0.40000000000E+01  0.51109989000E-03 0. -1.
     -623   -1    0    0    0    0  0.00000000000E+00  0.00000000000E+00  0.12525980253E-10  0.17130000000E+03  0.17130000000E+03 0.  1.
       11    1    1    2    0    0  0.82915608677E-01 -0.55788157102E-01 -0.83927050844E-01  0.13050412914E+00  0.51109989000E-03 0. -1.
     -623    1    1    2    0    0  0.73116486815E-01 -0.13162964766E+00  0.41389359150E+00  0.17130056620E+03  0.17130000000E+03 0.  1.
      622    1    1    2    0    0 -0.15603209549E+00  0.18741780477E+00  0.36700334267E+01  0.38689296713E+01  0.12000000000E+01 0. -1.
</event>
<event>
 5   0  0.5136900E+01  0.9118800E+02  0.7818608E-02  0.1180000E+00
       11   -1    0    0    0    0  0.00000000000E+00  0.00000000000E+00  0.39999999673E+01  0.40000000000E+01  0.51109989000E-03 0. -1.
     -623   -1    0    0    0    0  0.00000000000E+00  0.00000000000E+00  0.12525980253E-10  0.17130000000E+03  0.17130000000E+03 0. -1.
       11    1    1    2    0    0 -0.74905019926E-02 -0.30616899768E-01 -0.65355588983E-01  0.72561121862E-01  0.51109989000E-03 0. -1.
     -623    1    1    2    0    0  0.46987698490E+00  0.13892112924E+00  0.35714610287E+00  0.17130107308E+03  0.17130000000E+03 0. -1.
      622    1    1    2    0    0 -0.46238648291E+00 -0.10830422947E+00  0.37082094535E+01  0.39263658027E+01  0.12000000000E+01 0. -1.
</event>
<event>
 5   0  0.5136900E+01  0.9118800E+02  0.7818608E-02  0.1180000E+00
       11   -1    0    0    0    0  0.00000000000E+00  0.00000000000E+00  0.39999999673E+01  0.40000000000E+01  0.51109989000E-03 0. -1.
     -623   -1    0    0    0    0  0.00000000000E+00  0.00000000000E+00  0.12525980253E-10  0.17130000000E+03  0.17130000000E+03 0.  1.
       11    1    1    2    0    0  0.13051457341E+00  0.14083803546E-01  0.14080563157E+00  0.19250686871E+00  0.51109989000E-03 0. -1.
     -623    1    1    2    0    0  0.55064938083E-01 -0.57980887671E-01  0.25099604892E+00  0.17130020255E+03  0.17130000000E+03 0.  1.
      622    1    1    2    0    0 -0.18557951149E+00  0.43897084125E-01  0.36081982869E+01  0.38072905834E+01  0.12000000000E+01 0. -1.
</event>
<event>
 5   0  0.5136900E+01  0.9118800E+02  0.7818608E-02  0.1180000E+00
       11   -1    0    0    0    0  0.00000000000E+00  0.00000000000E+00  0.39999999673E+01  0.40000000000E+01  0.51109989000E-03 0. -1.
     -623   -1    0    0    0    0  0.00000000000E+00  0.00000000000E+00  0.12525980253E-10  0.17130000000E+03  0.17130000000E+03 0. -1.
       11    1    1    2    0    0  0.10882280782E+00  0.84247494628E-01 -0.31301891012E-02  0.13765937367E+00  0.51109989000E-03 0. -1.
     -623    1    1    2    0    0  0.58560418811E-01 -0.18966083617E+00  0.33773987630E+00  0.17130044795E+03  0.17130000000E+03 0. -1.
      622    1    1    2    0    0 -0.16738322663E+00  0.10541334154E+00  0.36653902802E+01  0.38618926737E+01  0.12000000000E+01 0. -1.
</event>
<event>
 5   0  0.5136900E+01  0.9118800E+02  0.7818608E-02  0.1180000E+00
       11   -1    0    0    0    0  0.00000000000E+00  0.00000000000E+00  0.39999999673E+01  0.40000000000E+01  0.51109989000E-03 0. -1.
     -623   -1    0    0    0    0  0.00000000000E+00  0.00000000000E+00  0.12525980253E-10  0.17130000000E+03  0.17130000000E+03 0. -1.
       11    1    1    2    0    0 -0.88016516713E-01 -0.11964083684E+00  0.61857381952E+00  0.63615616673E+00  0.51109989000E-03 0. -1.
     -623    1    1    2    0    0 -0.17476614332E+00  0.33427169812E+00  0.25793064330E+00  0.17130060948E+03  0.17130000000E+03 0. -1.
      622    1    1    2    0    0  0.26278266004E+00 -0.21463086129E+00  0.31234955045E+01  0.33632343510E+01  0.12000000000E+01 0. -1.
</event>
<event>
 5   0  0.5136900E+01  0.9118800E+02  0.7818608E-02  0.1180000E+00
       11   -1    0    0    0    0  0.00000000000E+00  0.00000000000E+00  0.39999999673E+01  0.40000000000E+01  0.51109989000E-03 0. -1.
     -623   -1    0    0    0    0  0.00000000000E+00  0.00000000000E+00  0.12525980253E-10  0.17130000000E+03  0.17130000000E+03 0. -1.
       11    1    1    2    0    0  0.22579759336E+00  0.14215660272E+00  0.22261565853E+00  0.34749251144E+00  0.51109989000E-03 0. -1.
     -623    1    1    2    0    0 -0.23436497347E+00 -0.49591434029E-01  0.32939469304E+00  0.17130048420E+03  0.17130000000E+03 0. -1.
      622    1    1    2    0    0  0.85673801120E-02 -0.92565168691E-01  0.34479896158E+01  0.36520232887E+01  0.12000000000E+01 0. -1.
</event>
<event>
 5   0  0.5136900E+01  0.9118800E+02  0.7818608E-02  0.1180000E+00
       11   -1    0    0    0    0  0.00000000000E+00  0.00000000000E+00  0.39999999673E+01  0.40000000000E+01  0.51109989000E-03 0. -1.
     -623   -1    0    0    0    0  0.00000000000E+00  0.00000000000E+00  0.12525980253E-10  0.17130000000E+03  0.17130000000E+03 0.  1.
       11    1    1    2    0    0  0.34119463458E-01 -0.16881547767E+00  0.34642543501E+00  0.38687678469E+00  0.51109989000E-03 0. -1.
     -623    1    1    2    0    0 -0.55264908411E-01  0.12684372850E+00  0.24611664599E+00  0.17130023268E+03  0.17130000000E+03 0.  1.
      622    1    1    2    0    0  0.21145444953E-01  0.41971749163E-01  0.34074578864E+01  0.36128905332E+01  0.12000000000E+01 0. -1.
</event>
<event>
 5   0  0.5136900E+01  0.9118800E+02  0.7818608E-02  0.1180000E+00
       11   -1    0    0    0    0  0.00000000000E+00  0.00000000000E+00  0.39999999673E+01  0.40000000000E+01  0.51109989000E-03 0. -1.
     -623   -1    0    0    0    0  0.00000000000E+00  0.00000000000E+00  0.12525980253E-10  0.17130000000E+03  0.17130000000E+03 0.  1.
       11    1    1    2    0    0 -0.75896931545E-01 -0.42466594022E-02  0.62461989402E-01  0.98387700835E-01  0.51109989000E-03 0. -1.
     -623    1    1    2    0    0  0.98082204861E-02 -0.19091227281E+00  0.23104695955E+00  0.17130026248E+03  0.17130000000E+03 0.  1.
      622    1    1    2    0    0  0.66088711059E-01  0.19515893221E+00  0.37064910184E+01  0.39013498172E+01  0.12000000000E+01 0. -1.
</event>
<event>
 5   0  0.5136900E+01  0.9118800E+02  0.7818608E-02  0.1180000E+00
       11   -1    0    0    0    0  0.00000000000E+00  0.00000000000E+00  0.39999999673E+01  0.40000000000E+01  0.51109989000E-03 0.  1.
     -623   -1    0    0    0    0  0.00000000000E+00  0.00000000000E+00  0.12525980253E-10  0.17130000000E+03  0.17130000000E+03 0.  1.
       11    1    1    2    0    0 -0.63385710021E-02  0.20699608816E-01  0.28678679400E+00  0.28760316014E+00  0.51109989000E-03 0.  1.
     -623    1    1    2    0    0 -0.17370058692E+00  0.16560696763E+00  0.20999147815E+00  0.17130029683E+03  0.17130000000E+03 0.  1.
      622    1    1    2    0    0  0.18003915792E+00 -0.18630657645E+00  0.35032216952E+01  0.37121000100E+01  0.12000000000E+01 0.  1.
</event>
<event>
 5   0  0.5136900E+01  0.9118800E+02  0.7818608E-02  0.1180000E+00
       11   -1    0    0    0    0  0.00000000000E+00  0.00000000000E+00  0.39999999673E+01  0.40000000000E+01  0.51109989000E-03 0.  1.
     -623   -1    0    0    0    0  0.00000000000E+00  0.00000000000E+00  0.12525980253E-10  0.17130000000E+03  0.17130000000E+03 0.  1.
       11    1    1    2    0    0  0.10793198203E+00 -0.15112599732E+00  0.29423119182E-01  0.18802755377E+00  0.51109989000E-03 0.  1.
     -623    1    1    2    0    0  0.31703414260E-01  0.11834589215E+00  0.35568928057E+00  0.17130041309E+03  0.17130000000E+03 0.  1.
      622    1    1    2    0    0 -0.13963539629E+00  0.32780105171E-01  0.36148875676E+01  0.38115593536E+01  0.12000000000E+01 0.  1.
</event>
<event>
 5   0  0.5136900E+01  0.9118800E+02  0.7818608E-02  0.1180000E+00
       11   -1    0    0    0    0  0.00000000000E+00  0.00000000000E+00  0.39999999673E+01  0.40000000000E+01  0.51109989000E-03 0.  1.
     -623   -1    0    0    0    0  0.00000000000E+00  0.00000000000E+00  0.12525980253E-10  0.17130000000E+03  0.17130000000E+03 0. -1.
       11    1    1    2    0    0  0.12839251169E+00  0.29597893264E-01  0.41566479493E-01  0.13816188252E+00  0.51109989000E-03 0.  1.
     -623    1    1    2    0    0 -0.82708543215E-01 -0.95840968163E-01  0.28895465140E+00  0.17130029049E+03  0.17130000000E+03 0. -1.
      622    1    1    2    0    0 -0.45683968473E-01  0.66243074899E-01  0.36694788365E+01  0.38615476303E+01  0.12000000000E+01 0.  1.
</event>
<event>
 5   0  0.5136900E+01  0.9118800E+02  0.7818608E-02  0.1180000E+00
       11   -1    0    0    0    0  0.00000000000E+00  0.00000000000E+00  0.39999999673E+01  0.40000000000E+01  0.51109989000E-03 0. -1.
     -623   -1    0    0    0    0  0.00000000000E+00  0.00000000000E+00  0.12525980253E-10  0.17130000000E+03  0.17130000000E+03 0. -1.
       11    1    1    2    0    0 -0.21003073355E+00 -0.24405669500E+00  0.90717487627E+00  0.96262302942E+00  0.51109989000E-03 0. -1.
     -623    1    1    2    0    0  0.53322225308E+00  0.55396472587E+00  0.34098516044E+00  0.17130206500E+03  0.17130000000E+03 0. -1.
      622    1    1    2    0    0 -0.32319151952E+00 -0.30990803087E+00  0.27518399307E+01  0.30353119691E+01  0.12000000000E+01 0. -1.
</event>
<event>
 5   0  0.5136900E+01  0.9118800E+02  0.7818608E-02  0.1180000E+00
       11   -1    0    0    0    0  0.00000000000E+00  0.00000000000E+00  0.39999999673E+01  0.40000000000E+01  0.51109989000E-03 0.  1.
     -623   -1    0    0    0    0  0.00000000000E+00  0.00000000000E+00  0.12525980253E-10  0.17130000000E+03  0.17130000000E+03 0.  1.
       11    1    1    2    0    0 -0.11625354986E+00 -0.36861355177E-01  0.19857221500E-01  0.12356463017E+00  0.51109989000E-03 0.  1.
     -623    1    1    2    0    0  0.12332011111E+00 -0.69947427481E-01  0.29600708622E+00  0.17130031442E+03  0.17130000000E+03 0.  1.
      622    1    1    2    0    0 -0.70665612485E-02  0.10680878266E+00  0.36841356596E+01  0.38761209490E+01  0.12000000000E+01 0.  1.
</event>
<event>
 5   0  0.5136900E+01  0.9118800E+02  0.7818608E-02  0.1180000E+00
       11   -1    0    0    0    0  0.00000000000E+00  0.00000000000E+00  0.39999999673E+01  0.40000000000E+01  0.51109989000E-03 0.  1.
     -623   -1    0    0    0    0  0.00000000000E+00  0.00000000000E+00  0.12525980253E-10  0.17130000000E+03  0.17130000000E+03 0. -1.
       11    1    1    2    0    0  0.10573098520E+00  0.91888937752E-01  0.12263630868E+00  0.18617879456E+00  0.51109989000E-03 0.  1.
     -623    1    1    2    0    0 -0.20823776917E+00 -0.55634731664E-01  0.25923157371E+00  0.17130033175E+03  0.17130000000E+03 0. -1.
      622    1    1    2    0    0  0.10250678397E+00 -0.36254206087E-01  0.36181320850E+01  0.38134894509E+01  0.12000000000E+01 0.  1.
</event>
<event>
 5   0  0.5136900E+01  0.9118800E+02  0.7818608E-02  0.1180000E+00
       11   -1    0    0    0    0  0.00000000000E+00  0.00000000000E+00  0.39999999673E+01  0.40000000000E+01  0.51109989000E-03 0. -1.
     -623   -1    0    0    0    0  0.00000000000E+00  0.00000000000E+00  0.12525980253E-10  0.17130000000E+03  0.17130000000E+03 0. -1.
       11    1    1    2    0    0  0.15337470112E+00 -0.27990718979E+00 -0.52676191812E-01  0.32349169424E+00  0.51109989000E-03 0. -1.
     -623    1    1    2    0    0 -0.36766589150E-01 -0.46031838902E-01  0.59591689810E+00  0.17130104666E+03  0.17130000000E+03 0. -1.
      622    1    1    2    0    0 -0.11660811197E+00  0.32593902869E+00  0.34567592611E+01  0.36754616433E+01  0.12000000000E+01 0. -1.
</event>
<event>
 5   0  0.5136900E+01  0.9118800E+02  0.7818608E-02  0.1180000E+00
       11   -1    0    0    0    0  0.00000000000E+00  0.00000000000E+00  0.39999999673E+01  0.40000000000E+01  0.51109989000E-03 0.  1.
     -623   -1    0    0    0    0  0.00000000000E+00  0.00000000000E+00  0.12525980253E-10  0.17130000000E+03  0.17130000000E+03 0.  1.
       11    1    1    2    0    0 -0.21970609566E-01  0.39795397752E-01  0.74471866379E-01  0.87250796397E-01  0.51109989000E-03 0.  1.
     -623    1    1    2    0    0 -0.35870808548E+00  0.17876046647E+00  0.22795214665E+00  0.17130062052E+03  0.17130000000E+03 0.  1.
      622    1    1    2    0    0  0.38067869504E+00 -0.21855586422E+00  0.36975759543E+01  0.39121286882E+01  0.12000000000E+01 0.  1.
</event>
<event>
 5   0  0.5136900E+01  0.9118800E+02  0.7818608E-02  0.1180000E+00
       11   -1    0    0    0    0  0.00000000000E+00  0.00000000000E+00  0.39999999673E+01  0.40000000000E+01  0.51109989000E-03 0.  1.
     -623   -1    0    0    0    0  0.00000000000E+00  0.00000000000E+00  0.12525980253E-10  0.17130000000E+03  0.17130000000E+03 0.  1.
       11    1    1    2    0    0 -0.69684925131E-01  0.36170985317E-01  0.44414686425E+00  0.45103328837E+00  0.51109989000E-03 0.  1.
     -623    1    1    2    0    0  0.44094766196E-01  0.14946796612E+00  0.22140722043E+00  0.17130021397E+03  0.17130000000E+03 0.  1.
      622    1    1    2    0    0  0.25590158935E-01 -0.18563895144E+00  0.33344458827E+01  0.35487527416E+01  0.12000000000E+01 0.  1.
</event>
<event>
 5   0  0.5136900E+01  0.9118800E+02  0.7818608E-02  0.1180000E+00
       11   -1    0    0    0    0  0.00000000000E+00  0.00000000000E+00  0.39999999673E+01  0.40000000000E+01  0.51109989000E-03 0.  1.
     -623   -1    0    0    0    0  0.00000000000E+00  0.00000000000E+00  0.12525980253E-10  0.17130000000E+03  0.17130000000E+03 0.  1.
       11    1    1    2    0    0  0.47979998763E-01 -0.36014146038E+00  0.40422417624E+00  0.54350841543E+00  0.51109989000E-03 0.  1.
     -623    1    1    2    0    0 -0.25163013239E+00  0.22451491018E+00  0.36429097031E+00  0.17130071930E+03  0.17130000000E+03 0.  1.
      622    1    1    2    0    0  0.20365013362E+00  0.13562655020E+00  0.32314848208E+01  0.34557722849E+01  0.12000000000E+01 0.  1.
</event>
<event>
 5   0  0.5136900E+01  0.9118800E+02  0.7818608E-02  0.1180000E+00
       11   -1    0    0    0    0  0.00000000000E+00  0.00000000000E+00  0.39999999673E+01  0.40000000000E+01  0.51109989000E-03 0. -1.
     -623   -1    0    0    0    0  0.00000000000E+00  0.00000000000E+00  0.12525980253E-10  0.17130000000E+03  0.17130000000E+03 0.  1.
       11    1    1    2    0    0  0.19207809498E-01 -0.10817829473E-01  0.18463263644E+00  0.18594471502E+00  0.51109989000E-03 0. -1.
     -623    1    1    2    0    0 -0.30828193496E+00 -0.37063260955E-01  0.20731274857E+00  0.17130040686E+03  0.17130000000E+03 0.  1.
      622    1    1    2    0    0  0.28907412546E+00  0.47881090428E-01  0.36080545823E+01  0.38136484261E+01  0.12000000000E+01 0.  0.
</event>
<event>
 5   0  0.5136900E+01  0.9118800E+02  0.7818608E-02  0.1180000E+00
       11   -1    0    0    0    0  0.00000000000E+00  0.00000000000E+00  0.39999999673E+01  0.40000000000E+01  0.51109989000E-03 0.  1.
     -623   -1    0    0    0    0  0.00000000000E+00  0.00000000000E+00  0.12525980253E-10  0.17130000000E+03  0.17130000000E+03 0. -1.
       11    1    1    2    0    0  0.19691854902E+00 -0.20453199753E+00  0.56303778800E+00  0.63057280698E+00  0.51109989000E-03 0.  1.
     -623    1    1    2    0    0 -0.20784388292E+00  0.12806679296E+00  0.28986056958E+00  0.17130041920E+03  0.17130000000E+03 0. -1.
      622    1    1    2    0    0  0.10925333906E-01  0.76465204570E-01  0.31471016098E+01  0.33690079894E+01  0.12000000000E+01 0.  1.
</event>
<event>
 5   0  0.5136900E+01  0.9118800E+02  0.7818608E-02  0.1180000E+00
       11   -1    0    0    0    0  0.00000000000E+00  0.00000000000E+00  0.39999999673E+01  0.40000000000E+01  0.51109989000E-03 0. -1.
     -623   -1    0    0    0    0  0.00000000000E+00  0.00000000000E+00  0.12525980253E-10  0.17130000000E+03  0.17130000000E+03 0. -1.
       11    1    1    2    0    0  0.37507716210E-01  0.21795871583E-01 -0.22634333526E-01  0.48933251176E-01  0.51109989000E-03 0. -1.
     -623    1    1    2    0    0 -0.10367270757E+00 -0.11445992715E+00  0.26020791517E+00  0.17130026724E+03  0.17130000000E+03 0. -1.
      622    1    1    2    0    0  0.66164991362E-01  0.92664055562E-01  0.37624263857E+01  0.39507995066E+01  0.12000000000E+01 0. -1.
</event>
<event>
 5   0  0.5136900E+01  0.9118800E+02  0.7818608E-02  0.1180000E+00
       11   -1    0    0    0    0  0.00000000000E+00  0.00000000000E+00  0.39999999673E+01  0.40000000000E+01  0.51109989000E-03 0.  1.
     -623   -1    0    0    0    0  0.00000000000E+00  0.00000000000E+00  0.12525980253E-10  0.17130000000E+03  0.17130000000E+03 0. -1.
       11    1    1    2    0    0 -0.14282679722E+00 -0.12031377457E+00  0.54434589402E+00  0.57548901980E+00  0.51109989000E-03 0.  1.
     -623    1    1    2    0    0  0.20395728855E+00  0.23954230048E+00  0.25158177939E+00  0.17130047365E+03  0.17130000000E+03 0. -1.
      622    1    1    2    0    0 -0.61130491332E-01 -0.11922852591E+00  0.32040722940E+01  0.34240373309E+01  0.12000000000E+01 0.  1.
</event>
<event>
 5   0  0.5136900E+01  0.9118800E+02  0.7818608E-02  0.1180000E+00
       11   -1    0    0    0    0  0.00000000000E+00  0.00000000000E+00  0.39999999673E+01  0.40000000000E+01  0.51109989000E-03 0.  1.
     -623   -1    0    0    0    0  0.00000000000E+00  0.00000000000E+00  0.12525980253E-10  0.17130000000E+03  0.17130000000E+03 0.  1.
       11    1    1    2    0    0 -0.84172055089E-01  0.17892636692E+00 -0.78251228645E-02  0.19789156983E+00  0.51109989000E-03 0.  1.
     -623    1    1    2    0    0 -0.59113407126E-01 -0.18413064777E+00  0.40351837095E+00  0.17130058443E+03  0.17130000000E+03 0.  1.
      622    1    1    2    0    0  0.14328546222E+00  0.52042808442E-02  0.36043067193E+01  0.38015240016E+01  0.12000000000E+01 0.  1.
</event>
<event>
 5   0  0.5136900E+01  0.9118800E+02  0.7818608E-02  0.1180000E+00
       11   -1    0    0    0    0  0.00000000000E+00  0.00000000000E+00  0.39999999673E+01  0.40000000000E+01  0.51109989000E-03 0. -1.
     -623   -1    0    0    0    0  0.00000000000E+00  0.00000000000E+00  0.12525980253E-10  0.17130000000E+03  0.17130000000E+03 0. -1.
       11    1    1    2    0    0  0.20785633987E+00 -0.11427030395E+00  0.21157118644E+00  0.31784365424E+00  0.51109989000E-03 0. -1.
     -623    1    1    2    0    0 -0.13370416364E+00 -0.10455910249E+00  0.31537054993E+00  0.17130037440E+03  0.17130000000E+03 0. -1.
      622    1    1    2    0    0 -0.74152176226E-01  0.21882940644E+00  0.34730582310E+01  0.36817819504E+01  0.12000000000E+01 0. -1.
</event>
<event>
 5   0  0.5136900E+01  0.9118800E+02  0.7818608E-02  0.1180000E+00
       11   -1    0    0    0    0  0.00000000000E+00  0.00000000000E+00  0.39999999673E+01  0.40000000000E+01  0.51109989000E-03 0.  1.
     -623   -1    0    0    0    0  0.00000000000E+00  0.00000000000E+00  0.12525980253E-10  0.17130000000E+03  0.17130000000E+03 0.  1.
       11    1    1    2    0    0  0.27206602079E+00  0.10131494273E+00  0.20522382857E+00  0.35553019327E+00  0.51109989000E-03 0.  1.
     -623    1    1    2    0    0 -0.53119766973E-01  0.28237011278E-01  0.36336928082E+00  0.17130039596E+03  0.17130000000E+03 0.  1.
      622    1    1    2    0    0 -0.21894625382E+00 -0.12955195401E+00  0.34314068580E+01  0.36440738461E+01  0.12000000000E+01 0.  1.
</event>
<event>
 5   0  0.5136900E+01  0.9118800E+02  0.7818608E-02  0.1180000E+00
       11   -1    0    0    0    0  0.00000000000E+00  0.00000000000E+00  0.39999999673E+01  0.40000000000E+01  0.51109989000E-03 0. -1.
     -623   -1    0    0    0    0  0.00000000000E+00  0.00000000000E+00  0.12525980253E-10  0.17130000000E+03  0.17130000000E+03 0.  1.
       11    1    1    2    0    0  0.74488141342E-01  0.26753595795E+00  0.53261766301E-02  0.27776357101E+00  0.51109989000E-03 0. -1.
     -623    1    1    2    0    0  0.38166289628E+00 -0.12729123000E+00  0.50493946342E+00  0.17130121667E+03  0.17130000000E+03 0.  1.
      622    1    1    2    0    0 -0.45615103762E+00 -0.14024472795E+00  0.34897343273E+01  0.37210197565E+01  0.12000000000E+01 0. -1.
</event>
<event>
 5   0  0.5136900E+01  0.9118800E+02  0.7818608E-02  0.1180000E+00
       11   -1    0    0    0    0  0.00000000000E+00  0.00000000000E+00  0.39999999673E+01  0.40000000000E+01  0.51109989000E-03 0. -1.
     -623   -1    0    0    0    0  0.00000000000E+00  0.00000000000E+00  0.12525980253E-10  0.17130000000E+03  0.17130000000E+03 0. -1.
       11    1    1    2    0    0  0.11560378399E+00  0.29912849672E+00  0.63741251005E+00  0.71353840934E+00  0.51109989000E-03 0. -1.
     -623    1    1    2    0    0 -0.18233990938E+00 -0.22973189529E+00  0.30511726883E+00  0.17130052283E+03  0.17130000000E+03 0. -1.
      622    1    1    2    0    0  0.66736125381E-01 -0.69396601427E-01  0.30574701885E+01  0.32859387627E+01  0.12000000000E+01 0. -1.
</event>
<event>
 5   0  0.5136900E+01  0.9118800E+02  0.7818608E-02  0.1180000E+00
       11   -1    0    0    0    0  0.00000000000E+00  0.00000000000E+00  0.39999999673E+01  0.40000000000E+01  0.51109989000E-03 0.  1.
     -623   -1    0    0    0    0  0.00000000000E+00  0.00000000000E+00  0.12525980253E-10  0.17130000000E+03  0.17130000000E+03 0.  1.
       11    1    1    2    0    0 -0.23512474297E-01 -0.22379811597E-03  0.29195915911E-01  0.37490655632E-01  0.51109989000E-03 0.  1.
     -623    1    1    2    0    0  0.14743238704E+00  0.59581883214E-01  0.19706352220E+00  0.17130018716E+03  0.17130000000E+03 0.  1.
      622    1    1    2    0    0 -0.12391991274E+00 -0.59358085098E-01  0.37737405293E+01  0.39623221864E+01  0.12000000000E+01 0.  1.
</event>
<event>
 5   0  0.5136900E+01  0.9118800E+02  0.7818608E-02  0.1180000E+00
       11   -1    0    0    0    0  0.00000000000E+00  0.00000000000E+00  0.39999999673E+01  0.40000000000E+01  0.51109989000E-03 0. -1.
     -623   -1    0    0    0    0  0.00000000000E+00  0.00000000000E+00  0.12525980253E-10  0.17130000000E+03  0.17130000000E+03 0. -1.
       11    1    1    2    0    0  0.10199366982E+00 -0.28606208497E-01  0.28147973949E-01  0.10960653953E+00  0.51109989000E-03 0. -1.
     -623    1    1    2    0    0  0.17407316968E-01 -0.11065463549E+00  0.27597639143E+00  0.17130025893E+03  0.17130000000E+03 0. -1.
      622    1    1    2    0    0 -0.11940098679E+00  0.13926084398E+00  0.36958756020E+01  0.38901345277E+01  0.12000000000E+01 0. -1.
</event>
<event>
 5   0  0.5136900E+01  0.9118800E+02  0.7818608E-02  0.1180000E+00
       11   -1    0    0    0    0  0.00000000000E+00  0.00000000000E+00  0.39999999673E+01  0.40000000000E+01  0.51109989000E-03 0.  1.
     -623   -1    0    0    0    0  0.00000000000E+00  0.00000000000E+00  0.12525980253E-10  0.17130000000E+03  0.17130000000E+03 0. -1.
       11    1    1    2    0    0  0.28107261334E-01  0.16765616217E+00  0.17749270282E+00  0.24576925688E+00  0.51109989000E-03 0.  1.
     -623    1    1    2    0    0  0.47047407073E-01 -0.11497457012E+00  0.26667710279E+00  0.17130025262E+03  0.17130000000E+03 0. -1.
      622    1    1    2    0    0 -0.75154668406E-01 -0.52681592045E-01  0.35558301617E+01  0.37539781184E+01  0.12000000000E+01 0.  1.
</event>
<event>
 5   0  0.5136900E+01  0.9118800E+02  0.7818608E-02  0.1180000E+00
       11   -1    0    0    0    0  0.00000000000E+00  0.00000000000E+00  0.39999999673E+01  0.40000000000E+01  0.51109989000E-03 0.  1.
     -623   -1    0    0    0    0  0.00000000000E+00  0.00000000000E+00  0.12525980253E-10  0.17130000000E+03  0.17130000000E+03 0. -1.
       11    1    1    2    0    0 -0.15625821968E+00 -0.85414468358E-01  0.80572023945E+00  0.82516521262E+00  0.51109989000E-03 0.  1.
     -623    1    1    2    0    0  0.35083725355E+00 -0.13388410694E+00  0.27030027148E+00  0.17130062485E+03  0.17130000000E+03 0. -1.
      622    1    1    2    0    0 -0.19457903386E+00  0.21929857530E+00  0.29239794564E+01  0.31742099375E+01  0.12000000000E+01 0.  1.
</event>
<event>
 5   0  0.5136900E+01  0.9118800E+02  0.7818608E-02  0.1180000E+00
       11   -1    0    0    0    0  0.00000000000E+00  0.00000000000E+00  0.39999999673E+01  0.40000000000E+01  0.51109989000E-03 0.  1.
     -623   -1    0    0    0    0  0.00000000000E+00  0.00000000000E+00  0.12525980253E-10  0.17130000000E+03  0.17130000000E+03 0.  1.
       11    1    1    2    0    0 -0.43628418484E-01 -0.35697713502E-01 -0.60159458759E-02  0.56694077968E-01  0.51109989000E-03 0.  1.
     -623    1    1    2    0    0 -0.22648766005E+00 -0.11275101856E+00  0.26280892088E+00  0.17130038843E+03  0.17130000000E+03 0.  1.
      622    1    1    2    0    0  0.27011607854E+00  0.14844873206E+00  0.37432069924E+01  0.39429174870E+01  0.12000000000E+01 0.  1.
</event>
<event>
 5   0  0.5136900E+01  0.9118800E+02  0.7818608E-02  0.1180000E+00
       11   -1    0    0    0    0  0.00000000000E+00  0.00000000000E+00  0.39999999673E+01  0.40000000000E+01  0.51109989000E-03 0.  1.
     -623   -1    0    0    0    0  0.00000000000E+00  0.00000000000E+00  0.12525980253E-10  0.17130000000E+03  0.17130000000E+03 0. -1.
       11    1    1    2    0    0 -0.11976711725E-01  0.14148918329E+00  0.55278431721E-01  0.15237649703E+00  0.51109989000E-03 0.  1.
     -623    1    1    2    0    0 -0.27199237386E-01 -0.24462826449E+00  0.29112468687E+00  0.17130042422E+03  0.17130000000E+03 0. -1.
      622    1    1    2    0    0  0.39175949111E-01  0.10313908121E+00  0.36535968488E+01  0.38471992876E+01  0.12000000000E+01 0.  1.
</event>
<event>
 5   0  0.5136900E+01  0.9118800E+02  0.7818608E-02  0.1180000E+00
       11   -1    0    0    0    0  0.00000000000E+00  0.00000000000E+00  0.39999999673E+01  0.40000000000E+01  0.51109989000E-03 0.  1.
     -623   -1    0    0    0    0  0.00000000000E+00  0.00000000000E+00  0.12525980253E-10  0.17130000000E+03  0.17130000000E+03 0.  1.
       11    1    1    2    0    0 -0.11135576355E-01 -0.10465864346E+00  0.14690239172E+00  0.18071526396E+00  0.51109989000E-03 0.  1.
     -623    1    1    2    0    0  0.93298762333E-01  0.18159145285E+00  0.22926461743E+00  0.17130027508E+03  0.17130000000E+03 0.  1.
      622    1    1    2    0    0 -0.82163185978E-01 -0.76932809389E-01  0.36238329582E+01  0.38190096563E+01  0.12000000000E+01 0.  1.
</event>
<event>
 5   0  0.5136900E+01  0.9118800E+02  0.7818608E-02  0.1180000E+00
       11   -1    0    0    0    0  0.00000000000E+00  0.00000000000E+00  0.39999999673E+01  0.40000000000E+01  0.51109989000E-03 0.  1.
     -623   -1    0    0    0    0  0.00000000000E+00  0.00000000000E+00  0.12525980253E-10  0.17130000000E+03  0.17130000000E+03 0. -1.
       11    1    1    2    0    0 -0.20657174784E+00 -0.15527093391E+00  0.18022346783E+00  0.31505826366E+00  0.51109989000E-03 0.  1.
     -623    1    1    2    0    0 -0.30979028205E-01  0.18313343863E+00  0.34439226083E+00  0.17130044689E+03  0.17130000000E+03 0. -1.
      622    1    1    2    0    0  0.23755077604E+00 -0.27862504724E-01  0.34753842387E+01  0.36844948496E+01  0.12000000000E+01 0.  1.
</event>
<event>
 5   0  0.5136900E+01  0.9118800E+02  0.7818608E-02  0.1180000E+00
       11   -1    0    0    0    0  0.00000000000E+00  0.00000000000E+00  0.39999999673E+01  0.40000000000E+01  0.51109989000E-03 0.  1.
     -623   -1    0    0    0    0  0.00000000000E+00  0.00000000000E+00  0.12525980253E-10  0.17130000000E+03  0.17130000000E+03 0. -1.
       11    1    1    2    0    0 -0.89871726557E-03  0.14027499661E-01 -0.24037966583E-02  0.14269474355E-01  0.51109989000E-03 0.  1.
     -623    1    1    2    0    0  0.15450817189E-01 -0.13019821905E+00  0.20359131130E+00  0.17130017116E+03  0.17130000000E+03 0. -1.
      622    1    1    2    0    0 -0.14552099924E-01  0.11617071939E+00  0.37988124527E+01  0.39855593648E+01  0.12000000000E+01 0.  1.
</event>
<event>
 5   0  0.5136900E+01  0.9118800E+02  0.7818608E-02  0.1180000E+00
       11   -1    0    0    0    0  0.00000000000E+00  0.00000000000E+00  0.39999999673E+01  0.40000000000E+01  0.51109989000E-03 0.  1.
     -623   -1    0    0    0    0  0.00000000000E+00  0.00000000000E+00  0.12525980253E-10  0.17130000000E+03  0.17130000000E+03 0. -1.
       11    1    1    2    0    0  0.16011836944E-01  0.18333787133E-01  0.39122737125E+00  0.39198421385E+00  0.51109989000E-03 0.  1.
     -623    1    1    2    0    0 -0.97308453453E-01 -0.11726497005E+00  0.20877637631E+00  0.17130019500E+03  0.17130000000E+03 0. -1.
      622    1    1    2    0    0  0.81296616508E-01  0.98931182921E-01  0.33999962198E+01  0.36078207846E+01  0.12000000000E+01 0.  1.
</event>
<event>
 5   0  0.5136900E+01  0.9118800E+02  0.7818608E-02  0.1180000E+00
       11   -1    0    0    0    0  0.00000000000E+00  0.00000000000E+00  0.39999999673E+01  0.40000000000E+01  0.51109989000E-03 0. -1.
     -623   -1    0    0    0    0  0.00000000000E+00  0.00000000000E+00  0.12525980253E-10  0.17130000000E+03  0.17130000000E+03 0.  1.
       11    1    1    2    0    0 -0.52272039794E-01  0.71209094786E-01  0.72575344105E-01  0.11432647602E+00  0.51109989000E-03 0. -1.
     -623    1    1    2    0    0  0.14451028433E+00  0.28352439308E+00  0.25041555887E+00  0.17130047863E+03  0.17130000000E+03 0.  1.
      622    1    1    2    0    0 -0.92238244535E-01 -0.35473348787E+00  0.36770090644E+01  0.38851948987E+01  0.12000000000E+01 0. -1.
</event>
<event>
 5   0  0.5136900E+01  0.9118800E+02  0.7818608E-02  0.1180000E+00
       11   -1    0    0    0    0  0.00000000000E+00  0.00000000000E+00  0.39999999673E+01  0.40000000000E+01  0.51109989000E-03 0. -1.
     -623   -1    0    0    0    0  0.00000000000E+00  0.00000000000E+00  0.12525980253E-10  0.17130000000E+03  0.17130000000E+03 0. -1.
       11    1    1    2    0    0  0.10477580182E+00 -0.55266013887E-01  0.10237753937E+01  0.10306059475E+01  0.51109989000E-03 0. -1.
     -623    1    1    2    0    0 -0.46819965181E+00 -0.68755120875E+00  0.39188783346E+00  0.17130246791E+03  0.17130000000E+03 0. -1.
      622    1    1    2    0    0  0.36342384999E+00  0.74281722264E+00  0.25843367402E+01  0.29669261379E+01  0.12000000000E+01 0. -1.
</event>
<event>
 5   0  0.5136900E+01  0.9118800E+02  0.7818608E-02  0.1180000E+00
       11   -1    0    0    0    0  0.00000000000E+00  0.00000000000E+00  0.39999999673E+01  0.40000000000E+01  0.51109989000E-03 0. -1.
     -623   -1    0    0    0    0  0.00000000000E+00  0.00000000000E+00  0.12525980253E-10  0.17130000000E+03  0.17130000000E+03 0.  1.
       11    1    1    2    0    0 -0.47712799417E-01  0.43898010217E-01  0.61614841844E-03  0.64839705360E-01  0.51109989000E-03 0. -1.
     -623    1    1    2    0    0  0.54446794646E-01  0.36634313606E-02  0.25216485112E+00  0.17130019429E+03  0.17130000000E+03 0.  1.
      622    1    1    2    0    0 -0.67339952285E-02 -0.47561441578E-01  0.37472189678E+01  0.39349660012E+01  0.12000000000E+01 0. -1.
</event>
<event>
 5   0  0.5136900E+01  0.9118800E+02  0.7818608E-02  0.1180000E+00
       11   -1    0    0    0    0  0.00000000000E+00  0.00000000000E+00  0.39999999673E+01  0.40000000000E+01  0.51109989000E-03 0. -1.
     -623   -1    0    0    0    0  0.00000000000E+00  0.00000000000E+00  0.12525980253E-10  0.17130000000E+03  0.17130000000E+03 0.  1.
       11    1    1    2    0    0 -0.21297119215E+00 -0.19279488427E+00  0.15091608951E-02  0.28727884515E+00  0.51109989000E-03 0. -1.
     -623    1    1    2    0    0  0.24488294192E+00  0.19439734218E+00  0.48622149726E+00  0.17130097539E+03  0.17130000000E+03 0.  1.
      622    1    1    2    0    0 -0.31911749776E-01 -0.16024579045E-02  0.35122693092E+01  0.37117457655E+01  0.12000000000E+01 0. -1.
</event>
<event>
 5   0  0.5136900E+01  0.9118800E+02  0.7818608E-02  0.1180000E+00
       11   -1    0    0    0    0  0.00000000000E+00  0.00000000000E+00  0.39999999673E+01  0.40000000000E+01  0.51109989000E-03 0. -1.
     -623   -1    0    0    0    0  0.00000000000E+00  0.00000000000E+00  0.12525980253E-10  0.17130000000E+03  0.17130000000E+03 0.  1.
       11    1    1    2    0    0  0.10713259954E+00 -0.12012658704E-01  0.37956488095E+00  0.39457756896E+00  0.51109989000E-03 0. -1.
     -623    1    1    2    0    0 -0.32261478055E+00  0.15937403121E+00  0.23117658395E+00  0.17130053393E+03  0.17130000000E+03 0.  1.
      622    1    1    2    0    0  0.21548218101E+00 -0.14736137251E+00  0.33892585025E+01  0.36048885060E+01  0.12000000000E+01 0. -1.
</event>
<event>
 5   0  0.5136900E+01  0.9118800E+02  0.7818608E-02  0.1180000E+00
       11   -1    0    0    0    0  0.00000000000E+00  0.00000000000E+00  0.39999999673E+01  0.40000000000E+01  0.51109989000E-03 0. -1.
     -623   -1    0    0    0    0  0.00000000000E+00  0.00000000000E+00  0.12525980253E-10  0.17130000000E+03  0.17130000000E+03 0. -1.
       11    1    1    2    0    0  0.28887897817E-01  0.80623961745E-01 -0.30880736572E-01  0.91041830826E-01  0.51109989000E-03 0. -1.
     -623    1    1    2    0    0  0.13803191551E-01 -0.10579087730E+00  0.31133414895E+00  0.17130031614E+03  0.17130000000E+03 0. -1.
      622    1    1    2    0    0 -0.42691089367E-01  0.25166915553E-01  0.37195465550E+01  0.39086420247E+01  0.12000000000E+01 0. -1.
</event>
<event>
 5   0  0.5136900E+01  0.9118800E+02  0.7818608E-02  0.1180000E+00
       11   -1    0    0    0    0  0.00000000000E+00  0.00000000000E+00  0.39999999673E+01  0.40000000000E+01  0.51109989000E-03 0. -1.
     -623   -1    0    0    0    0  0.00000000000E+00  0.00000000000E+00  0.12525980253E-10  0.17130000000E+03  0.17130000000E+03 0.  1.
       11    1    1    2    0    0  0.33047738796E-01 -0.10384364047E+00  0.39003150068E+00  0.40496973646E+00  0.51109989000E-03 0. -1.
     -623    1    1    2    0    0 -0.24977418512E+00  0.10468942001E+00  0.22845445358E+00  0.17130036643E+03  0.17130000000E+03 0.  1.
      622    1    1    2    0    0  0.21672644633E+00 -0.84577953853E-03  0.33815140131E+01  0.35946638353E+01  0.12000000000E+01 0. -1.
</event>
<event>
 5   0  0.5136900E+01  0.9118800E+02  0.7818608E-02  0.1180000E+00
       11   -1    0    0    0    0  0.00000000000E+00  0.00000000000E+00  0.39999999673E+01  0.40000000000E+01  0.51109989000E-03 0. -1.
     -623   -1    0    0    0    0  0.00000000000E+00  0.00000000000E+00  0.12525980253E-10  0.17130000000E+03  0.17130000000E+03 0. -1.
       11    1    1    2    0    0 -0.57865729704E-01  0.61307624281E-02  0.43072371241E-01  0.72398337754E-01  0.51109989000E-03 0. -1.
     -623    1    1    2    0    0  0.30237605547E+00 -0.19072598294E-01  0.22559665343E+00  0.17130041649E+03  0.17130000000E+03 0. -1.
      622    1    1    2    0    0 -0.24451032577E+00  0.12941835866E-01  0.37313309427E+01  0.39271851744E+01  0.12000000000E+01 0. -1.
</event>
<event>
 5   0  0.5136900E+01  0.9118800E+02  0.7818608E-02  0.1180000E+00
       11   -1    0    0    0    0  0.00000000000E+00  0.00000000000E+00  0.39999999673E+01  0.40000000000E+01  0.51109989000E-03 0. -1.
     -623   -1    0    0    0    0  0.00000000000E+00  0.00000000000E+00  0.12525980253E-10  0.17130000000E+03  0.17130000000E+03 0.  1.
       11    1    1    2    0    0 -0.12480541779E+00 -0.24001045301E+00  0.83335357075E+00  0.87616199699E+00  0.51109989000E-03 0. -1.
     -623    1    1    2    0    0  0.12018822437E-01  0.24232163578E+00  0.28513954174E+00  0.17130040913E+03  0.17130000000E+03 0.  1.
      622    1    1    2    0    0  0.11278659536E+00 -0.23111827629E-02  0.28815068549E+01  0.31234288710E+01  0.12000000000E+01 0. -1.
</event>
<event>
 5   0  0.5136900E+01  0.9118800E+02  0.7818608E-02  0.1180000E+00
       11   -1    0    0    0    0  0.00000000000E+00  0.00000000000E+00  0.39999999673E+01  0.40000000000E+01  0.51109989000E-03 0.  1.
     -623   -1    0    0    0    0  0.00000000000E+00  0.00000000000E+00  0.12525980253E-10  0.17130000000E+03  0.17130000000E+03 0.  1.
       11    1    1    2    0    0 -0.87091950222E-01  0.94807051918E-01  0.21398444581E+00  0.24972582797E+00  0.51109989000E-03 0.  1.
     -623    1    1    2    0    0  0.11487860219E+00  0.10365721554E+00  0.23881613746E+00  0.17130023635E+03  0.17130000000E+03 0.  1.
      622    1    1    2    0    0 -0.27786651967E-01 -0.19846426746E+00  0.35471993841E+01  0.37500378177E+01  0.12000000000E+01 0.  1.
</event>
<event>
 5   0  0.5136900E+01  0.9118800E+02  0.7818608E-02  0.1180000E+00
       11   -1    0    0    0    0  0.00000000000E+00  0.00000000000E+00  0.39999999673E+01  0.40000000000E+01  0.51109989000E-03 0. -1.
     -623   -1    0    0    0    0  0.00000000000E+00  0.00000000000E+00  0.12525980253E-10  0.17130000000E+03  0.17130000000E+03 0. -1.
       11    1    1    2    0    0 -0.27148624182E+00 -0.19409842876E+00  0.71611345840E-01  0.34133184091E+00  0.51109989000E-03 0. -1.
     -623    1    1    2    0    0  0.22383831365E-01  0.40203562209E+00  0.48862089276E+00  0.17130117012E+03  0.17130000000E+03 0. -1.
      622    1    1    2    0    0  0.24910241045E+00 -0.20793719334E+00  0.34397677288E+01  0.36574980403E+01  0.12000000000E+01 0. -1.
</event>
<event>
 5   0  0.5136900E+01  0.9118800E+02  0.7818608E-02  0.1180000E+00
       11   -1    0    0    0    0  0.00000000000E+00  0.00000000000E+00  0.39999999673E+01  0.40000000000E+01  0.51109989000E-03 0. -1.
     -623   -1    0    0    0    0  0.00000000000E+00  0.00000000000E+00  0.12525980253E-10  0.17130000000E+03  0.17130000000E+03 0. -1.
       11    1    1    2    0    0  0.53265638052E-01  0.42231820848E-01  0.94835204042E+00  0.95078525897E+00  0.51109989000E-03 0. -1.
     -623    1    1    2    0    0  0.19963240293E+00 -0.13053714358E+00  0.26171540750E+00  0.17130036599E+03  0.17130000000E+03 0. -1.
      622    1    1    2    0    0 -0.25289804098E+00  0.88305322733E-01  0.27899325194E+01  0.30488487519E+01  0.12000000000E+01 0. -1.
</event>
<event>
 5   0  0.5136900E+01  0.9118800E+02  0.7818608E-02  0.1180000E+00
       11   -1    0    0    0    0  0.00000000000E+00  0.00000000000E+00  0.39999999673E+01  0.40000000000E+01  0.51109989000E-03 0.  1.
     -623   -1    0    0    0    0  0.00000000000E+00  0.00000000000E+00  0.12525980253E-10  0.17130000000E+03  0.17130000000E+03 0.  1.
       11    1    1    2    0    0  0.10201458691E+00  0.93726525486E-01  0.11591819271E+00  0.18063478665E+00  0.51109989000E-03 0.  1.
     -623    1    1    2    0    0  0.24485958118E-01 -0.38487503304E+00  0.27273762141E+00  0.17130065124E+03  0.17130000000E+03 0.  1.
      622    1    1    2    0    0 -0.12650054503E+00  0.29114850756E+00  0.36113441532E+01  0.38187139765E+01  0.12000000000E+01 0.  1.
</event>
<event>
 5   0  0.5136900E+01  0.9118800E+02  0.7818608E-02  0.1180000E+00
       11   -1    0    0    0    0  0.00000000000E+00  0.00000000000E+00  0.39999999673E+01  0.40000000000E+01  0.51109989000E-03 0.  1.
     -623   -1    0    0    0    0  0.00000000000E+00  0.00000000000E+00  0.12525980253E-10  0.17130000000E+03  0.17130000000E+03 0. -1.
       11    1    1    2    0    0  0.20472725371E+00  0.33778365604E-01  0.33139421383E+00  0.39099438945E+00  0.51109989000E-03 0.  1.
     -623    1    1    2    0    0 -0.74198684437E-01 -0.24495434182E+00  0.27444582129E+00  0.17130041106E+03  0.17130000000E+03 0. -1.
      622    1    1    2    0    0 -0.13052856928E+00  0.21117597622E+00  0.33941599322E+01  0.36085945527E+01  0.12000000000E+01 0.  1.
</event>
<event>
 5   0  0.5136900E+01  0.9118800E+02  0.7818608E-02  0.1180000E+00
       11   -1    0    0    0    0  0.00000000000E+00  0.00000000000E+00  0.39999999673E+01  0.40000000000E+01  0.51109989000E-03 0. -1.
     -623   -1    0    0    0    0  0.00000000000E+00  0.00000000000E+00  0.12525980253E-10  0.17130000000E+03  0.17130000000E+03 0.  1.
       11    1    1    2    0    0 -0.13592023359E+00 -0.79327638924E-01  0.40428458053E+00  0.43383576095E+00  0.51109989000E-03 0. -1.
     -623    1    1    2    0    0 -0.13904605438E-01 -0.32580141548E+00  0.26596100750E+00  0.17130051686E+03  0.17130000000E+03 0.  1.
      622    1    1    2    0    0  0.14982483903E+00  0.40512905441E+00  0.33297543793E+01  0.35656473830E+01  0.12000000000E+01 0.  0.
</event>
<event>
 5   0  0.5136900E+01  0.9118800E+02  0.7818608E-02  0.1180000E+00
       11   -1    0    0    0    0  0.00000000000E+00  0.00000000000E+00  0.39999999673E+01  0.40000000000E+01  0.51109989000E-03 0. -1.
     -623   -1    0    0    0    0  0.00000000000E+00  0.00000000000E+00  0.12525980253E-10  0.17130000000E+03  0.17130000000E+03 0.  1.
       11    1    1    2    0    0  0.15311760085E+00 -0.45345469562E-01  0.25643611724E+00  0.30209428122E+00  0.51109989000E-03 0. -1.
     -623    1    1    2    0    0  0.33973986156E-01 -0.23257473851E+00  0.26224416693E+00  0.17130036199E+03  0.17130000000E+03 0.  1.
      622    1    1    2    0    0 -0.18709158700E+00  0.27792020808E+00  0.34813196832E+01  0.36975437307E+01  0.12000000000E+01 0. -1.
</event>
<event>
 5   0  0.5136900E+01  0.9118800E+02  0.7818608E-02  0.1180000E+00
       11   -1    0    0    0    0  0.00000000000E+00  0.00000000000E+00  0.39999999673E+01  0.40000000000E+01  0.51109989000E-03 0. -1.
     -623   -1    0    0    0    0  0.00000000000E+00  0.00000000000E+00  0.12525980253E-10  0.17130000000E+03  0.17130000000E+03 0.  1.
       11    1    1    2    0    0 -0.58904761322E-01  0.30324468142E-01  0.43477215621E-01  0.79245654618E-01  0.51109989000E-03 0. -1.
     -623    1    1    2    0    0 -0.18260918522E-01  0.16580175073E-01  0.22517103035E+00  0.17130014977E+03  0.17130000000E+03 0.  1.
      622    1    1    2    0    0  0.77165679844E-01 -0.46904643215E-01  0.37313517214E+01  0.39206045779E+01  0.12000000000E+01 0. -1.
</event>
<event>
 5   0  0.5136900E+01  0.9118800E+02  0.7818608E-02  0.1180000E+00
       11   -1    0    0    0    0  0.00000000000E+00  0.00000000000E+00  0.39999999673E+01  0.40000000000E+01  0.51109989000E-03 0.  1.
     -623   -1    0    0    0    0  0.00000000000E+00  0.00000000000E+00  0.12525980253E-10  0.17130000000E+03  0.17130000000E+03 0. -1.
       11    1    1    2    0    0  0.47765066966E-02  0.24374510070E-01 -0.64346720870E-01  0.68976035456E-01  0.51109989000E-03 0.  1.
     -623    1    1    2    0    0  0.15264006030E+00  0.86577383143E-01  0.32633803476E+00  0.17130040073E+03  0.17130000000E+03 0. -1.
      622    1    1    2    0    0 -0.15741656700E+00 -0.11095189321E+00  0.37380086535E+01  0.39306232320E+01  0.12000000000E+01 0.  1.
</event>
<event>
 5   0  0.5136900E+01  0.9118800E+02  0.7818608E-02  0.1180000E+00
       11   -1    0    0    0    0  0.00000000000E+00  0.00000000000E+00  0.39999999673E+01  0.40000000000E+01  0.51109989000E-03 0. -1.
     -623   -1    0    0    0    0  0.00000000000E+00  0.00000000000E+00  0.12525980253E-10  0.17130000000E+03  0.17130000000E+03 0. -1.
       11    1    1    2    0    0  0.26275845186E+00 -0.33887017677E+00  0.42684324405E+00  0.60503753349E+00  0.51109989000E-03 0. -1.
     -623    1    1    2    0    0 -0.86493874315E-01  0.26217351756E+00  0.40391783630E+00  0.17130069867E+03  0.17130000000E+03 0. -1.
      622    1    1    2    0    0 -0.17626457754E+00  0.76696659203E-01  0.31692388870E+01  0.33942637938E+01  0.12000000000E+01 0.  0.
</event>
<event>
 5   0  0.5136900E+01  0.9118800E+02  0.7818608E-02  0.1180000E+00
       11   -1    0    0    0    0  0.00000000000E+00  0.00000000000E+00  0.39999999673E+01  0.40000000000E+01  0.51109989000E-03 0.  1.
     -623   -1    0    0    0    0  0.00000000000E+00  0.00000000000E+00  0.12525980253E-10  0.17130000000E+03  0.17130000000E+03 0. -1.
       11    1    1    2    0    0 -0.10384783099E+00  0.11259908974E+00  0.12576776644E+00  0.19819364094E+00  0.51109989000E-03 0.  1.
     -623    1    1    2    0    0  0.11582814852E+00  0.17138682102E+00  0.27836362618E+00  0.17130035107E+03  0.17130000000E+03 0. -1.
      622    1    1    2    0    0 -0.11980317528E-01 -0.28398591076E+00  0.35958685747E+01  0.38014552914E+01  0.12000000000E+01 0.  1.
</event>
<event>
 5   0  0.5136900E+01  0.9118800E+02  0.7818608E-02  0.1180000E+00
       11   -1    0    0    0    0  0.00000000000E+00  0.00000000000E+00  0.39999999673E+01  0.40000000000E+01  0.51109989000E-03 0.  1.
     -623   -1    0    0    0    0  0.00000000000E+00  0.00000000000E+00  0.12525980253E-10  0.17130000000E+03  0.17130000000E+03 0. -1.
       11    1    1    2    0    0  0.13453069953E+00 -0.85487245342E-01  0.16285373662E+00  0.22787755261E+00  0.51109989000E-03 0.  1.
     -623    1    1    2    0    0  0.14183061441E+00  0.60473246038E-01  0.27207217290E+00  0.17130028545E+03  0.17130000000E+03 0. -1.
      622    1    1    2    0    0 -0.27636131394E+00  0.25013999304E-01  0.35650740578E+01  0.37718369946E+01  0.12000000000E+01 0.  1.
</event>
<event>
 5   0  0.5136900E+01  0.9118800E+02  0.7818608E-02  0.1180000E+00
       11   -1    0    0    0    0  0.00000000000E+00  0.00000000000E+00  0.39999999673E+01  0.40000000000E+01  0.51109989000E-03 0. -1.
     -623   -1    0    0    0    0  0.00000000000E+00  0.00000000000E+00  0.12525980253E-10  0.17130000000E+03  0.17130000000E+03 0.  1.
       11    1    1    2    0    0 -0.86496796989E-01 -0.29390277966E-01 -0.34743886960E-02  0.91421096734E-01  0.51109989000E-03 0. -1.
     -623    1    1    2    0    0  0.18276741061E+00 -0.13955909999E+00  0.28916920547E+00  0.17130039842E+03  0.17130000000E+03 0.  1.
      622    1    1    2    0    0 -0.96270613618E-01  0.16894937796E+00  0.37143051506E+01  0.39081804814E+01  0.12000000000E+01 0. -1.
</event>
<event>
 5   0  0.5136900E+01  0.9118800E+02  0.7818608E-02  0.1180000E+00
       11   -1    0    0    0    0  0.00000000000E+00  0.00000000000E+00  0.39999999673E+01  0.40000000000E+01  0.51109989000E-03 0. -1.
     -623   -1    0    0    0    0  0.00000000000E+00  0.00000000000E+00  0.12525980253E-10  0.17130000000E+03  0.17130000000E+03 0.  1.
       11    1    1    2    0    0 -0.50573268892E-01 -0.17382814197E-01 -0.15870206899E+00  0.16747067111E+00  0.51109989000E-03 0. -1.
     -623    1    1    2    0    0  0.51672494303E+00 -0.28872455095E+00  0.56393754123E+00  0.17130195093E+03  0.17130000000E+03 0.  1.
      622    1    1    2    0    0 -0.46615167414E+00  0.30610736514E+00  0.35947644951E+01  0.38305783999E+01  0.12000000000E+01 0. -1.
</event>
<event>
 5   0  0.5136900E+01  0.9118800E+02  0.7818608E-02  0.1180000E+00
       11   -1    0    0    0    0  0.00000000000E+00  0.00000000000E+00  0.39999999673E+01  0.40000000000E+01  0.51109989000E-03 0. -1.
     -623   -1    0    0    0    0  0.00000000000E+00  0.00000000000E+00  0.12525980253E-10  0.17130000000E+03  0.17130000000E+03 0.  1.
       11    1    1    2    0    0  0.68191603729E-01 -0.87293600053E-01  0.12813711106E+00  0.16938018740E+00  0.51109989000E-03 0. -1.
     -623    1    1    2    0    0 -0.15135805542E+00  0.96525891038E-01  0.23528648373E+00  0.17130025565E+03  0.17130000000E+03 0.  1.
      622    1    1    2    0    0  0.83166451686E-01 -0.92322909854E-02  0.36365763726E+01  0.38303641612E+01  0.12000000000E+01 0. -1.
</event>
<event>
 5   0  0.5136900E+01  0.9118800E+02  0.7818608E-02  0.1180000E+00
       11   -1    0    0    0    0  0.00000000000E+00  0.00000000000E+00  0.39999999673E+01  0.40000000000E+01  0.51109989000E-03 0. -1.
     -623   -1    0    0    0    0  0.00000000000E+00  0.00000000000E+00  0.12525980253E-10  0.17130000000E+03  0.17130000000E+03 0.  1.
       11    1    1    2    0    0  0.41511175289E+00  0.18329095435E+00  0.88772432375E+00  0.99697947699E+00  0.51109989000E-03 0. -1.
     -623    1    1    2    0    0 -0.40117276370E+00  0.12856182700E+00  0.37821862346E+00  0.17130093554E+03  0.17130000000E+03 0.  1.
      622    1    1    2    0    0 -0.13938989189E-01 -0.31185278135E+00  0.27340570202E+01  0.30020849825E+01  0.12000000000E+01 0. -1.
</event>
<event>
 5   0  0.5136900E+01  0.9118800E+02  0.7818608E-02  0.1180000E+00
       11   -1    0    0    0    0  0.00000000000E+00  0.00000000000E+00  0.39999999673E+01  0.40000000000E+01  0.51109989000E-03 0. -1.
     -623   -1    0    0    0    0  0.00000000000E+00  0.00000000000E+00  0.12525980253E-10  0.17130000000E+03  0.17130000000E+03 0. -1.
       11    1    1    2    0    0 -0.16961666565E+00 -0.27935437006E-01  0.32046530079E+00  0.36365983026E+00  0.51109989000E-03 0. -1.
     -623    1    1    2    0    0 -0.23326320450E-01 -0.95185289063E-01  0.25477154825E+00  0.17130021749E+03  0.17130000000E+03 0. -1.
      622    1    1    2    0    0  0.19294298610E+00  0.12312072607E+00  0.34247631183E+01  0.36361226775E+01  0.12000000000E+01 0. -1.
</event>
<event>
 5   0  0.5136900E+01  0.9118800E+02  0.7818608E-02  0.1180000E+00
       11   -1    0    0    0    0  0.00000000000E+00  0.00000000000E+00  0.39999999673E+01  0.40000000000E+01  0.51109989000E-03 0.  1.
     -623   -1    0    0    0    0  0.00000000000E+00  0.00000000000E+00  0.12525980253E-10  0.17130000000E+03  0.17130000000E+03 0.  1.
       11    1    1    2    0    0 -0.53716631132E-01  0.13352077922E+00  0.82732112888E-03  0.14392435730E+00  0.51109989000E-03 0.  1.
     -623    1    1    2    0    0 -0.12453040359E-01 -0.23158843212E+00  0.33699341882E+00  0.17130048848E+03  0.17130000000E+03 0.  1.
      622    1    1    2    0    0  0.66169671492E-01  0.98067652909E-01  0.36621792274E+01  0.38555871646E+01  0.12000000000E+01 0.  1.
</event>
<event>
 5   0  0.5136900E+01  0.9118800E+02  0.7818608E-02  0.1180000E+00
       11   -1    0    0    0    0  0.00000000000E+00  0.00000000000E+00  0.39999999673E+01  0.40000000000E+01  0.51109989000E-03 0.  1.
     -623   -1    0    0    0    0  0.00000000000E+00  0.00000000000E+00  0.12525980253E-10  0.17130000000E+03  0.17130000000E+03 0. -1.
       11    1    1    2    0    0  0.19906823728E+00 -0.95154438459E-01  0.23864280150E+00  0.32501258158E+00  0.51109989000E-03 0.  1.
     -623    1    1    2    0    0 -0.24734145747E+00  0.16305464562E+00  0.28933856567E+00  0.17130050053E+03  0.17130000000E+03 0. -1.
      622    1    1    2    0    0  0.48273220193E-01 -0.67900207159E-01  0.34720186002E+01  0.36744868896E+01  0.12000000000E+01 0.  1.
</event>
<event>
 5   0  0.5136900E+01  0.9118800E+02  0.7818608E-02  0.1180000E+00
       11   -1    0    0    0    0  0.00000000000E+00  0.00000000000E+00  0.39999999673E+01  0.40000000000E+01  0.51109989000E-03 0.  1.
     -623   -1    0    0    0    0  0.00000000000E+00  0.00000000000E+00  0.12525980253E-10  0.17130000000E+03  0.17130000000E+03 0.  1.
       11    1    1    2    0    0  0.32733208343E-01  0.12937709380E+00  0.19999668875E+00  0.24043467317E+00  0.51109989000E-03 0.  1.
     -623    1    1    2    0    0  0.25250850138E-01 -0.20983205777E+00  0.23878654087E+00  0.17130029681E+03  0.17130000000E+03 0.  1.
      622    1    1    2    0    0 -0.57984058482E-01  0.80454963966E-01  0.35612167377E+01  0.37592685200E+01  0.12000000000E+01 0.  1.
</event>
<event>
 5   0  0.5136900E+01  0.9118800E+02  0.7818608E-02  0.1180000E+00
       11   -1    0    0    0    0  0.00000000000E+00  0.00000000000E+00  0.39999999673E+01  0.40000000000E+01  0.51109989000E-03 0.  1.
     -623   -1    0    0    0    0  0.00000000000E+00  0.00000000000E+00  0.12525980253E-10  0.17130000000E+03  0.17130000000E+03 0.  1.
       11    1    1    2    0    0 -0.79535652180E-01 -0.11467965115E+00 -0.25650365674E-01  0.14189977040E+00  0.51109989000E-03 0.  1.
     -623    1    1    2    0    0 -0.27946538870E-01  0.14610836676E-01  0.36226485087E+00  0.17130038596E+03  0.17130000000E+03 0.  1.
      622    1    1    2    0    0  0.10748219105E+00  0.10006881448E+00  0.36633854822E+01  0.38577142688E+01  0.12000000000E+01 0.  1.
</event>
<event>
 5   0  0.5136900E+01  0.9118800E+02  0.7818608E-02  0.1180000E+00
       11   -1    0    0    0    0  0.00000000000E+00  0.00000000000E+00  0.39999999673E+01  0.40000000000E+01  0.51109989000E-03 0. -1.
     -623   -1    0    0    0    0  0.00000000000E+00  0.00000000000E+00  0.12525980253E-10  0.17130000000E+03  0.17130000000E+03 0. -1.
       11    1    1    2    0    0 -0.31872935605E-01  0.52160964914E-01 -0.10035046333E-01  0.61948475862E-01  0.51109989000E-03 0. -1.
     -623    1    1    2    0    0  0.50560304233E-01 -0.20913133565E+00  0.26295519247E+00  0.17130033695E+03  0.17130000000E+03 0. -1.
      622    1    1    2    0    0 -0.18687368629E-01  0.15697037074E+00  0.37470798212E+01  0.39377145785E+01  0.12000000000E+01 0. -1.
</event>
<event>
 5   0  0.5136900E+01  0.9118800E+02  0.7818608E-02  0.1180000E+00
       11   -1    0    0    0    0  0.00000000000E+00  0.00000000000E+00  0.39999999673E+01  0.40000000000E+01  0.51109989000E-03 0. -1.
     -623   -1    0    0    0    0  0.00000000000E+00  0.00000000000E+00  0.12525980253E-10  0.17130000000E+03  0.17130000000E+03 0. -1.
       11    1    1    2    0    0  0.70649586947E-01 -0.89342741943E-01  0.11295670782E+00  0.16041498913E+00  0.51109989000E-03 0. -1.
     -623    1    1    2    0    0  0.47149298349E-01 -0.23515342777E-01  0.24363731967E+00  0.17130018136E+03  0.17130000000E+03 0. -1.
      622    1    1    2    0    0 -0.11779888530E+00  0.11285808472E+00  0.36434059399E+01  0.38394036474E+01  0.12000000000E+01 0. -1.
</event>
<event>
 5   0  0.5136900E+01  0.9118800E+02  0.7818608E-02  0.1180000E+00
       11   -1    0    0    0    0  0.00000000000E+00  0.00000000000E+00  0.39999999673E+01  0.40000000000E+01  0.51109989000E-03 0.  1.
     -623   -1    0    0    0    0  0.00000000000E+00  0.00000000000E+00  0.12525980253E-10  0.17130000000E+03  0.17130000000E+03 0.  1.
       11    1    1    2    0    0  0.39144151190E-01 -0.13793559184E+00  0.22947744859E+00  0.27058945416E+00  0.51109989000E-03 0.  1.
     -623    1    1    2    0    0  0.53716062269E-01  0.18087479418E+00  0.24121742499E+00  0.17130027375E+03  0.17130000000E+03 0.  1.
      622    1    1    2    0    0 -0.92860213459E-01 -0.42939202342E-01  0.35293050938E+01  0.37291367955E+01  0.12000000000E+01 0.  1.
</event>
<event>
 5   0  0.5136900E+01  0.9118800E+02  0.7818608E-02  0.1180000E+00
       11   -1    0    0    0    0  0.00000000000E+00  0.00000000000E+00  0.39999999673E+01  0.40000000000E+01  0.51109989000E-03 0. -1.
     -623   -1    0    0    0    0  0.00000000000E+00  0.00000000000E+00  0.12525980253E-10  0.17130000000E+03  0.17130000000E+03 0. -1.
       11    1    1    2    0    0 -0.12369381000E+00  0.36621929597E-01  0.21462451991E+00  0.25041020372E+00  0.51109989000E-03 0. -1.
     -623    1    1    2    0    0  0.14237519676E+00 -0.78007073858E-01  0.23353208049E+00  0.17130023611E+03  0.17130000000E+03 0. -1.
      622    1    1    2    0    0 -0.18681386754E-01  0.41385144260E-01  0.35518433670E+01  0.37493536813E+01  0.12000000000E+01 0. -1.
</event>
<event>
 5   0  0.5136900E+01  0.9118800E+02  0.7818608E-02  0.1180000E+00
       11   -1    0    0    0    0  0.00000000000E+00  0.00000000000E+00  0.39999999673E+01  0.40000000000E+01  0.51109989000E-03 0.  1.
     -623   -1    0    0    0    0  0.00000000000E+00  0.00000000000E+00  0.12525980253E-10  0.17130000000E+03  0.17130000000E+03 0. -1.
       11    1    1    2    0    0 -0.13171904702E-01 -0.94102404695E-01 -0.22805837545E-02  0.95048534593E-01  0.51109989000E-03 0.  1.
     -623    1    1    2    0    0 -0.11374610641E+00  0.15287780491E+00  0.28928338614E+00  0.17130035025E+03  0.17130000000E+03 0. -1.
      622    1    1    2    0    0  0.12691801112E+00 -0.58775400212E-01  0.37129971650E+01  0.39046012186E+01  0.12000000000E+01 0.  1.
</event>
<event>
 5   0  0.5136900E+01  0.9118800E+02  0.7818608E-02  0.1180000E+00
       11   -1    0    0    0    0  0.00000000000E+00  0.00000000000E+00  0.39999999673E+01  0.40000000000E+01  0.51109989000E-03 0.  1.
     -623   -1    0    0    0    0  0.00000000000E+00  0.00000000000E+00  0.12525980253E-10  0.17130000000E+03  0.17130000000E+03 0. -1.
       11    1    1    2    0    0 -0.47532183204E-01  0.16862929114E+00  0.80848415449E+00  0.82724968150E+00  0.51109989000E-03 0.  1.
     -623    1    1    2    0    0  0.39135549194E+00 -0.62433685777E-01  0.27732301293E+00  0.17130068291E+03  0.17130000000E+03 0. -1.
      622    1    1    2    0    0 -0.34382330873E+00 -0.10619560536E+00  0.29141927999E+01  0.31720674093E+01  0.12000000000E+01 0.  1.
</event>
<event>
 5   0  0.5136900E+01  0.9118800E+02  0.7818608E-02  0.1180000E+00
       11   -1    0    0    0    0  0.00000000000E+00  0.00000000000E+00  0.39999999673E+01  0.40000000000E+01  0.51109989000E-03 0. -1.
     -623   -1    0    0    0    0  0.00000000000E+00  0.00000000000E+00  0.12525980253E-10  0.17130000000E+03  0.17130000000E+03 0.  1.
       11    1    1    2    0    0  0.61375172427E-02  0.59749796237E-01  0.11325332692E+00  0.12819627353E+00  0.51109989000E-03 0. -1.
     -623    1    1    2    0    0 -0.83691491691E-01 -0.51759891778E-01  0.20658330210E+00  0.17130015283E+03  0.17130000000E+03 0.  1.
      622    1    1    2    0    0  0.77553974449E-01 -0.79899044593E-02  0.36801633383E+01  0.38716508952E+01  0.12000000000E+01 0. -1.
</event>
<event>
 5   0  0.5136900E+01  0.9118800E+02  0.7818608E-02  0.1180000E+00
       11   -1    0    0    0    0  0.00000000000E+00  0.00000000000E+00  0.39999999673E+01  0.40000000000E+01  0.51109989000E-03 0. -1.
     -623   -1    0    0    0    0  0.00000000000E+00  0.00000000000E+00  0.12525980253E-10  0.17130000000E+03  0.17130000000E+03 0.  1.
       11    1    1    2    0    0 -0.18395354768E-01  0.33549368035E-01 -0.83974764136E-01  0.92282021040E-01  0.51109989000E-03 0. -1.
     -623    1    1    2    0    0 -0.19803966284E+00  0.39097557092E-01  0.37263518737E+00  0.17130052424E+03  0.17130000000E+03 0.  1.
      622    1    1    2    0    0  0.21643501761E+00 -0.72646925126E-01  0.37113395441E+01  0.39071937378E+01  0.12000000000E+01 0. -1.
</event>
<event>
 5   0  0.5136900E+01  0.9118800E+02  0.7818608E-02  0.1180000E+00
       11   -1    0    0    0    0  0.00000000000E+00  0.00000000000E+00  0.39999999673E+01  0.40000000000E+01  0.51109989000E-03 0.  1.
     -623   -1    0    0    0    0  0.00000000000E+00  0.00000000000E+00  0.12525980253E-10  0.17130000000E+03  0.17130000000E+03 0.  1.
       11    1    1    2    0    0  0.29802464390E-01  0.62106386854E-01  0.64339936926E+00  0.64707681133E+00  0.51109989000E-03 0.  1.
     -623    1    1    2    0    0  0.15578542465E+00 -0.13641073977E+00  0.23246343575E+00  0.17130028288E+03  0.17130000000E+03 0.  1.
      622    1    1    2    0    0 -0.18558788904E+00  0.74304352919E-01  0.31241371623E+01  0.33526403044E+01  0.12000000000E+01 0.  0.
</event>
<event>
 5   0  0.5136900E+01  0.9118800E+02  0.7818608E-02  0.1180000E+00
       11   -1    0    0    0    0  0.00000000000E+00  0.00000000000E+00  0.39999999673E+01  0.40000000000E+01  0.51109989000E-03 0. -1.
     -623   -1    0    0    0    0  0.00000000000E+00  0.00000000000E+00  0.12525980253E-10  0.17130000000E+03  0.17130000000E+03 0. -1.
       11    1    1    2    0    0 -0.73571241503E-02  0.10550519223E+00 -0.12302138359E+00  0.16223438263E+00  0.51109989000E-03 0. -1.
     -623    1    1    2    0    0  0.22069838719E+00 -0.22652463328E+00  0.48698894809E+00  0.17130098418E+03  0.17130000000E+03 0. -1.
      622    1    1    2    0    0 -0.21334126304E+00  0.12101944105E+00  0.36360324029E+01  0.38367814421E+01  0.12000000000E+01 0. -1.
</event>
<event>
 5   0  0.5136900E+01  0.9118800E+02  0.7818608E-02  0.1180000E+00
       11   -1    0    0    0    0  0.00000000000E+00  0.00000000000E+00  0.39999999673E+01  0.40000000000E+01  0.51109989000E-03 0.  1.
     -623   -1    0    0    0    0  0.00000000000E+00  0.00000000000E+00  0.12525980253E-10  0.17130000000E+03  0.17130000000E+03 0.  1.
       11    1    1    2    0    0 -0.18548671019E+00  0.44835262569E-01  0.35206149486E+00  0.40045359009E+00  0.51109989000E-03 0.  1.
     -623    1    1    2    0    0  0.54523103048E-01  0.84843415942E-01  0.25955581728E+00  0.17130022633E+03  0.17130000000E+03 0.  1.
      622    1    1    2    0    0  0.13096360714E+00 -0.12967867851E+00  0.33883826552E+01  0.35993200808E+01  0.12000000000E+01 0.  1.
</event>
<event>
 5   0  0.5136900E+01  0.9118800E+02  0.7818608E-02  0.1180000E+00
       11   -1    0    0    0    0  0.00000000000E+00  0.00000000000E+00  0.39999999673E+01  0.40000000000E+01  0.51109989000E-03 0.  1.
     -623   -1    0    0    0    0  0.00000000000E+00  0.00000000000E+00  0.12525980253E-10  0.17130000000E+03  0.17130000000E+03 0.  1.
       11    1    1    2    0    0 -0.77749245237E-02 -0.49570842750E-01  0.34842932292E-01  0.61090171506E-01  0.51109989000E-03 0.  1.
     -623    1    1    2    0    0  0.79725437523E-01  0.35236054267E-01  0.21437086422E+00  0.17130015631E+03  0.17130000000E+03 0.  1.
      622    1    1    2    0    0 -0.71950512999E-01  0.14334788483E-01  0.37507861709E+01  0.39387535163E+01  0.12000000000E+01 0.  1.
</event>
<event>
 5   0  0.5136900E+01  0.9118800E+02  0.7818608E-02  0.1180000E+00
       11   -1    0    0    0    0  0.00000000000E+00  0.00000000000E+00  0.39999999673E+01  0.40000000000E+01  0.51109989000E-03 0.  1.
     -623   -1    0    0    0    0  0.00000000000E+00  0.00000000000E+00  0.12525980253E-10  0.17130000000E+03  0.17130000000E+03 0. -1.
       11    1    1    2    0    0 -0.31220498525E-01 -0.31841248663E+00  0.71669626777E+00  0.78486625143E+00  0.51109989000E-03 0.  1.
     -623    1    1    2    0    0  0.13469343378E+00  0.33842012798E+00  0.30307478340E+00  0.17130065535E+03  0.17130000000E+03 0. -1.
      622    1    1    2    0    0 -0.10347293526E+00 -0.20007641356E-01  0.29802289162E+01  0.32144783942E+01  0.12000000000E+01 0.  1.
</event>
<event>
 5   0  0.5136900E+01  0.9118800E+02  0.7818608E-02  0.1180000E+00
       11   -1    0    0    0    0  0.00000000000E+00  0.00000000000E+00  0.39999999673E+01  0.40000000000E+01  0.51109989000E-03 0.  1.
     -623   -1    0    0    0    0  0.00000000000E+00  0.00000000000E+00  0.12525980253E-10  0.17130000000E+03  0.17130000000E+03 0. -1.
       11    1    1    2    0    0  0.17203297890E-02  0.18325087058E+00  0.12074218828E+00  0.21946019765E+00  0.51109989000E-03 0.  1.
     -623    1    1    2    0    0 -0.17074310918E+00 -0.20535960220E+00  0.29877181427E+00  0.17130046874E+03  0.17130000000E+03 0. -1.
      622    1    1    2    0    0  0.16902277939E+00  0.22108731622E-01  0.35804859648E+01  0.37800710628E+01  0.12000000000E+01 0.  1.
</event>
<event>
 5   0  0.5136900E+01  0.9118800E+02  0.7818608E-02  0.1180000E+00
       11   -1    0    0    0    0  0.00000000000E+00  0.00000000000E+00  0.39999999673E+01  0.40000000000E+01  0.51109989000E-03 0.  1.
     -623   -1    0    0    0    0  0.00000000000E+00  0.00000000000E+00  0.12525980253E-10  0.17130000000E+03  0.17130000000E+03 0. -1.
       11    1    1    2    0    0  0.15654688102E-01  0.49861993341E-02  0.12633329619E-02  0.16486014577E-01  0.51109989000E-03 0.  1.
     -623    1    1    2    0    0 -0.13251078314E+00  0.18663827012E+00  0.20719449701E+00  0.17130027823E+03  0.17130000000E+03 0. -1.
      622    1    1    2    0    0  0.11685609503E+00 -0.19162446946E+00  0.37915421374E+01  0.39832357530E+01  0.12000000000E+01 0.  1.
</event>
<event>
 5   0  0.5136900E+01  0.9118800E+02  0.7818608E-02  0.1180000E+00
       11   -1    0    0    0    0  0.00000000000E+00  0.00000000000E+00  0.39999999673E+01  0.40000000000E+01  0.51109989000E-03 0.  1.
     -623   -1    0    0    0    0  0.00000000000E+00  0.00000000000E+00  0.12525980253E-10  0.17130000000E+03  0.17130000000E+03 0.  1.
       11    1    1    2    0    0 -0.59555864998E-01  0.67595380383E-01  0.56671078924E+00  0.57382699167E+00  0.51109989000E-03 0.  1.
     -623    1    1    2    0    0 -0.39158178878E-01 -0.15232696081E+00  0.22701218988E+00  0.17130022263E+03  0.17130000000E+03 0.  1.
      622    1    1    2    0    0  0.98714043876E-01  0.84731580424E-01  0.32062769882E+01  0.34259503833E+01  0.12000000000E+01 0.  1.
</event>
<event>
 5   0  0.5136900E+01  0.9118800E+02  0.7818608E-02  0.1180000E+00
       11   -1    0    0    0    0  0.00000000000E+00  0.00000000000E+00  0.39999999673E+01  0.40000000000E+01  0.51109989000E-03 0.  1.
     -623   -1    0    0    0    0  0.00000000000E+00  0.00000000000E+00  0.12525980253E-10  0.17130000000E+03  0.17130000000E+03 0.  1.
       11    1    1    2    0    0 -0.26086424976E+00 -0.18505177129E+00  0.17682615159E+00  0.36546143978E+00  0.51109989000E-03 0.  1.
     -623    1    1    2    0    0  0.31566474163E+00 -0.35716930670E-01  0.40080921823E+00  0.17130076348E+03  0.17130000000E+03 0.  1.
      622    1    1    2    0    0 -0.54800491873E-01  0.22076870196E+00  0.34223645975E+01  0.36337750828E+01  0.12000000000E+01 0.  1.
</event>
<event>
 5   0  0.5136900E+01  0.9118800E+02  0.7818608E-02  0.1180000E+00
       11   -1    0    0    0    0  0.00000000000E+00  0.00000000000E+00  0.39999999673E+01  0.40000000000E+01  0.51109989000E-03 0.  1.
     -623   -1    0    0    0    0  0.00000000000E+00  0.00000000000E+00  0.12525980253E-10  0.17130000000E+03  0.17130000000E+03 0. -1.
       11    1    1    2    0    0 -0.92534211429E-01  0.56116503031E-01  0.14703989960E+00  0.18257227471E+00  0.51109989000E-03 0.  1.
     -623    1    1    2    0    0 -0.12121551514E+00 -0.22773777748E+00  0.23981089745E+00  0.17130036213E+03  0.17130000000E+03 0. -1.
      622    1    1    2    0    0  0.21374972657E+00  0.17162127445E+00  0.36131491703E+01  0.38170655921E+01  0.12000000000E+01 0.  1.
</event>
<event>
 5   0  0.5136900E+01  0.9118800E+02  0.7818608E-02  0.1180000E+00
       11   -1    0    0    0    0  0.00000000000E+00  0.00000000000E+00  0.39999999673E+01  0.40000000000E+01  0.51109989000E-03 0.  1.
     -623   -1    0    0    0    0  0.00000000000E+00  0.00000000000E+00  0.12525980253E-10  0.17130000000E+03  0.17130000000E+03 0. -1.
       11    1    1    2    0    0 -0.84409274146E-01 -0.81672557573E-01  0.76401111734E+00  0.77298679217E+00  0.51109989000E-03 0.  1.
     -623    1    1    2    0    0 -0.29471119066E-01  0.14632373211E+00  0.24351010871E+00  0.17130023811E+03  0.17130000000E+03 0. -1.
      622    1    1    2    0    0  0.11388039321E+00 -0.64651174538E-01  0.29924787413E+01  0.32267750984E+01  0.12000000000E+01 0.  1.
</event>
<event>
 5   0  0.5136900E+01  0.9118800E+02  0.7818608E-02  0.1180000E+00
       11   -1    0    0    0    0  0.00000000000E+00  0.00000000000E+00  0.39999999673E+01  0.40000000000E+01  0.51109989000E-03 0. -1.
     -623   -1    0    0    0    0  0.00000000000E+00  0.00000000000E+00  0.12525980253E-10  0.17130000000E+03  0.17130000000E+03 0.  1.
       11    1    1    2    0    0 -0.94375148095E-01  0.19360301360E-01  0.24181772233E+00  0.26030282730E+00  0.51109989000E-03 0. -1.
     -623    1    1    2    0    0 -0.16666950439E-01 -0.16516951638E+00  0.22122391139E+00  0.17130022329E+03  0.17130000000E+03 0.  1.
      622    1    1    2    0    0  0.11104209853E+00  0.14580921502E+00  0.35369583336E+01  0.37394738840E+01  0.12000000000E+01 0. -1.
</event>
<event>
 5   0  0.5136900E+01  0.9118800E+02  0.7818608E-02  0.1180000E+00
       11   -1    0    0    0    0  0.00000000000E+00  0.00000000000E+00  0.39999999673E+01  0.40000000000E+01  0.51109989000E-03 0.  1.
     -623   -1    0    0    0    0  0.00000000000E+00  0.00000000000E+00  0.12525980253E-10  0.17130000000E+03  0.17130000000E+03 0. -1.
       11    1    1    2    0    0  0.14220368655E+00 -0.14988917997E+00  0.59058822261E-01  0.21488801840E+00  0.51109989000E-03 0.  1.
     -623    1    1    2    0    0 -0.21880367453E+00  0.24259848049E+00  0.35381330096E+00  0.17130067692E+03  0.17130000000E+03 0. -1.
      622    1    1    2    0    0  0.76599987984E-01 -0.92709300518E-01  0.35871278441E+01  0.37844350626E+01  0.12000000000E+01 0.  1.
</event>
<event>
 5   0  0.5136900E+01  0.9118800E+02  0.7818608E-02  0.1180000E+00
       11   -1    0    0    0    0  0.00000000000E+00  0.00000000000E+00  0.39999999673E+01  0.40000000000E+01  0.51109989000E-03 0. -1.
     -623   -1    0    0    0    0  0.00000000000E+00  0.00000000000E+00  0.12525980253E-10  0.17130000000E+03  0.17130000000E+03 0.  1.
       11    1    1    2    0    0  0.14693286343E+00 -0.89602092228E-01  0.71416642366E+00  0.73460992587E+00  0.51109989000E-03 0. -1.
     -623    1    1    2    0    0  0.63685833711E-01 -0.25433303223E+00  0.27628949256E+00  0.17130042346E+03  0.17130000000E+03 0.  1.
      622    1    1    2    0    0 -0.21061869714E+00  0.34393512446E+00  0.30095440511E+01  0.32649666156E+01  0.12000000000E+01 0. -1.
</event>
<event>
 5   0  0.5136900E+01  0.9118800E+02  0.7818608E-02  0.1180000E+00
       11   -1    0    0    0    0  0.00000000000E+00  0.00000000000E+00  0.39999999673E+01  0.40000000000E+01  0.51109989000E-03 0.  1.
     -623   -1    0    0    0    0  0.00000000000E+00  0.00000000000E+00  0.12525980253E-10  0.17130000000E+03  0.17130000000E+03 0. -1.
       11    1    1    2    0    0 -0.11066763822E+00 -0.11038650216E-01  0.31954297589E+00  0.33834472452E+00  0.51109989000E-03 0.  1.
     -623    1    1    2    0    0  0.19626869750E+00  0.12491836700E+00  0.22427540565E+00  0.17130030480E+03  0.17130000000E+03 0. -1.
      622    1    1    2    0    0 -0.85601059272E-01 -0.11387971679E+00  0.34561815858E+01  0.36613504729E+01  0.12000000000E+01 0.  1.
</event>
<event>
 5   0  0.5136900E+01  0.9118800E+02  0.7818608E-02  0.1180000E+00
       11   -1    0    0    0    0  0.00000000000E+00  0.00000000000E+00  0.39999999673E+01  0.40000000000E+01  0.51109989000E-03 0. -1.
     -623   -1    0    0    0    0  0.00000000000E+00  0.00000000000E+00  0.12525980253E-10  0.17130000000E+03  0.17130000000E+03 0. -1.
       11    1    1    2    0    0 -0.32867705257E-01 -0.56178779721E-02  0.30882926226E-01  0.45451765170E-01  0.51109989000E-03 0. -1.
     -623    1    1    2    0    0  0.19826577229E+00  0.81611961060E-01  0.20570341607E+00  0.17130025769E+03  0.17130000000E+03 0. -1.
      622    1    1    2    0    0 -0.16539806703E+00 -0.75994083088E-01  0.37634136251E+01  0.39542905476E+01  0.12000000000E+01 0. -1.
</event>
<event>
 5   0  0.5136900E+01  0.9118800E+02  0.7818608E-02  0.1180000E+00
       11   -1    0    0    0    0  0.00000000000E+00  0.00000000000E+00  0.39999999673E+01  0.40000000000E+01  0.51109989000E-03 0. -1.
     -623   -1    0    0    0    0  0.00000000000E+00  0.00000000000E+00  0.12525980253E-10  0.17130000000E+03  0.17130000000E+03 0.  1.
       11    1    1    2    0    0  0.23038374090E+00  0.15305129831E+00  0.56953019419E+00  0.63314000924E+00  0.51109989000E-03 0. -1.
     -623    1    1    2    0    0 -0.14578736619E+00  0.16024993997E+00  0.30193691728E+00  0.17130040309E+03  0.17130000000E+03 0.  1.
      622    1    1    2    0    0 -0.84596374716E-01 -0.31330123828E+00  0.31285328559E+01  0.33664568975E+01  0.12000000000E+01 0. -1.
</event>
<event>
 5   0  0.5136900E+01  0.9118800E+02  0.7818608E-02  0.1180000E+00
       11   -1    0    0    0    0  0.00000000000E+00  0.00000000000E+00  0.39999999673E+01  0.40000000000E+01  0.51109989000E-03 0.  1.
     -623   -1    0    0    0    0  0.00000000000E+00  0.00000000000E+00  0.12525980253E-10  0.17130000000E+03  0.17130000000E+03 0.  1.
       11    1    1    2    0    0 -0.63129900767E-01  0.85116617160E-01  0.53606453843E+00  0.54643908487E+00  0.51109989000E-03 0.  1.
     -623    1    1    2    0    0  0.41041703694E+00  0.12700410280E+00  0.25200789908E+00  0.17130072411E+03  0.17130000000E+03 0.  1.
      622    1    1    2    0    0 -0.34728713617E+00 -0.21212071996E+00  0.32119275299E+01  0.34528368064E+01  0.12000000000E+01 0.  1.
</event>
<event>
 5   0  0.5136900E+01  0.9118800E+02  0.7818608E-02  0.1180000E+00
       11   -1    0    0    0    0  0.00000000000E+00  0.00000000000E+00  0.39999999673E+01  0.40000000000E+01  0.51109989000E-03 0.  1.
     -623   -1    0    0    0    0  0.00000000000E+00  0.00000000000E+00  0.12525980253E-10  0.17130000000E+03  0.17130000000E+03 0.  1.
       11    1    1    2    0    0  0.41201967098E-01 -0.16449761688E-01 -0.64051170790E-01  0.77916689195E-01  0.51109989000E-03 0.  1.
     -623    1    1    2    0    0 -0.13741943337E+00  0.18276127394E+00  0.33550638149E+00  0.17130048117E+03  0.17130000000E+03 0.  1.
      622    1    1    2    0    0  0.96217466271E-01 -0.16631151225E+00  0.37285447567E+01  0.39216021372E+01  0.12000000000E+01 0.  1.
</event>
<event>
 5   0  0.5136900E+01  0.9118800E+02  0.7818608E-02  0.1180000E+00
       11   -1    0    0    0    0  0.00000000000E+00  0.00000000000E+00  0.39999999673E+01  0.40000000000E+01  0.51109989000E-03 0. -1.
     -623   -1    0    0    0    0  0.00000000000E+00  0.00000000000E+00  0.12525980253E-10  0.17130000000E+03  0.17130000000E+03 0. -1.
       11    1    1    2    0    0  0.22902665735E-01 -0.10589969448E+00  0.18101654842E+00  0.21096570672E+00  0.51109989000E-03 0. -1.
     -623    1    1    2    0    0 -0.32185004294E-01  0.41105231001E+00  0.23868222367E+00  0.17130066249E+03  0.17130000000E+03 0. -1.
      622    1    1    2    0    0  0.92823385596E-02 -0.30515261552E+00  0.35803011953E+01  0.37883718045E+01  0.12000000000E+01 0.  0.
</event>
<event>
 5   0  0.5136900E+01  0.9118800E+02  0.7818608E-02  0.1180000E+00
       11   -1    0    0    0    0  0.00000000000E+00  0.00000000000E+00  0.39999999673E+01  0.40000000000E+01  0.51109989000E-03 0.  1.
     -623   -1    0    0    0    0  0.00000000000E+00  0.00000000000E+00  0.12525980253E-10  0.17130000000E+03  0.17130000000E+03 0. -1.
       11    1    1    2    0    0 -0.25795657957E+00  0.22017991812E+00  0.68910615525E+00  0.76804189190E+00  0.51109989000E-03 0.  1.
     -623    1    1    2    0    0  0.45241507050E+00  0.50789933603E-01  0.32955925352E+00  0.17130092197E+03  0.17130000000E+03 0. -1.
      622    1    1    2    0    0 -0.19445849094E+00 -0.27096985173E+00  0.29813345586E+01  0.32310361365E+01  0.12000000000E+01 0.  1.
</event>
<event>
 5   0  0.5136900E+01  0.9118800E+02  0.7818608E-02  0.1180000E+00
       11   -1    0    0    0    0  0.00000000000E+00  0.00000000000E+00  0.39999999673E+01  0.40000000000E+01  0.51109989000E-03 0.  1.
     -623   -1    0    0    0    0  0.00000000000E+00  0.00000000000E+00  0.12525980253E-10  0.17130000000E+03  0.17130000000E+03 0. -1.
       11    1    1    2    0    0 -0.18620490465E+00 -0.15347338859E+00  0.65656573026E+00  0.69950351457E+00  0.51109989000E-03 0.  1.
     -623    1    1    2    0    0  0.27929599593E+00  0.37269551732E+00  0.27898083025E+00  0.17130086030E+03  0.17130000000E+03 0. -1.
      622    1    1    2    0    0 -0.93091091271E-01 -0.21922212873E+00  0.30644534068E+01  0.32996361884E+01  0.12000000000E+01 0. -1.
</event>
<event>
 5   0  0.5136900E+01  0.9118800E+02  0.7818608E-02  0.1180000E+00
       11   -1    0    0    0    0  0.00000000000E+00  0.00000000000E+00  0.39999999673E+01  0.40000000000E+01  0.51109989000E-03 0. -1.
     -623   -1    0    0    0    0  0.00000000000E+00  0.00000000000E+00  0.12525980253E-10  0.17130000000E+03  0.17130000000E+03 0.  1.
       11    1    1    2    0    0 -0.91298222401E-01 -0.29532296765E-01 -0.88271460294E-01  0.13038264413E+00  0.51109989000E-03 0. -1.
     -623    1    1    2    0    0  0.45948092220E+00 -0.55106188707E-01  0.43010234048E+00  0.17130116505E+03  0.17130000000E+03 0.  1.
      622    1    1    2    0    0 -0.36818269980E+00  0.84638485472E-01  0.36581690872E+01  0.38684523060E+01  0.12000000000E+01 0. -1.
</event>
<event>
 5   0  0.5136900E+01  0.9118800E+02  0.7818608E-02  0.1180000E+00
       11   -1    0    0    0    0  0.00000000000E+00  0.00000000000E+00  0.39999999673E+01  0.40000000000E+01  0.51109989000E-03 0.  1.
     -623   -1    0    0    0    0  0.00000000000E+00  0.00000000000E+00  0.12525980253E-10  0.17130000000E+03  0.17130000000E+03 0. -1.
       11    1    1    2    0    0 -0.79062817718E-03 -0.31310346452E-01  0.12389569217E-01  0.33685687411E-01  0.51109989000E-03 0.  1.
     -623    1    1    2    0    0  0.10323388648E+00  0.62130084205E-01  0.20887271567E+00  0.17130016972E+03  0.17130000000E+03 0. -1.
      622    1    1    2    0    0 -0.10244325830E+00 -0.30819737753E-01  0.37787376825E+01  0.39661445952E+01  0.12000000000E+01 0.  1.
</event>
<event>
 5   0  0.5136900E+01  0.9118800E+02  0.7818608E-02  0.1180000E+00
       11   -1    0    0    0    0  0.00000000000E+00  0.00000000000E+00  0.39999999673E+01  0.40000000000E+01  0.51109989000E-03 0. -1.
     -623   -1    0    0    0    0  0.00000000000E+00  0.00000000000E+00  0.12525980253E-10  0.17130000000E+03  0.17130000000E+03 0. -1.
       11    1    1    2    0    0 -0.17147092573E-01 -0.11447395024E-01 -0.42912932062E-01  0.47611412465E-01  0.51109989000E-03 0. -1.
     -623    1    1    2    0    0  0.17223529990E+00 -0.11925973608E+00  0.28294225834E+00  0.17130036177E+03  0.17130000000E+03 0. -1.
      622    1    1    2    0    0 -0.15508820733E+00  0.13070713110E+00  0.37599706411E+01  0.39520268127E+01  0.12000000000E+01 0. -1.
</event>
<event>
 5   0  0.5136900E+01  0.9118800E+02  0.7818608E-02  0.1180000E+00
       11   -1    0    0    0    0  0.00000000000E+00  0.00000000000E+00  0.39999999673E+01  0.40000000000E+01  0.51109989000E-03 0.  1.
     -623   -1    0    0    0    0  0.00000000000E+00  0.00000000000E+00  0.12525980253E-10  0.17130000000E+03  0.17130000000E+03 0. -1.
       11    1    1    2    0    0  0.23497280471E-01  0.98032251012E-01 -0.80675175390E-01  0.12911696083E+00  0.51109989000E-03 0.  1.
     -623    1    1    2    0    0 -0.10063224793E+00 -0.30430747081E-01  0.40245462349E+00  0.17130050503E+03  0.17130000000E+03 0. -1.
      622    1    1    2    0    0  0.77134967459E-01 -0.67601503931E-01  0.36782205193E+01  0.38703780119E+01  0.12000000000E+01 0.  1.
</event>
<event>
 5   0  0.5136900E+01  0.9118800E+02  0.7818608E-02  0.1180000E+00
       11   -1    0    0    0    0  0.00000000000E+00  0.00000000000E+00  0.39999999673E+01  0.40000000000E+01  0.51109989000E-03 0. -1.
     -623   -1    0    0    0    0  0.00000000000E+00  0.00000000000E+00  0.12525980253E-10  0.17130000000E+03  0.17130000000E+03 0. -1.
       11    1    1    2    0    0 -0.90986851835E-01 -0.21235723092E+00  0.38149980657E+00  0.44600063269E+00  0.51109989000E-03 0. -1.
     -623    1    1    2    0    0 -0.25898048133E-01  0.14965284011E+00  0.27615714161E+00  0.17130028993E+03  0.17130000000E+03 0. -1.
      622    1    1    2    0    0  0.11688489997E+00  0.62704390805E-01  0.33423430192E+01  0.35537094392E+01  0.12000000000E+01 0. -1.
</event>
<event>
 5   0  0.5136900E+01  0.9118800E+02  0.7818608E-02  0.1180000E+00
       11   -1    0    0    0    0  0.00000000000E+00  0.00000000000E+00  0.39999999673E+01  0.40000000000E+01  0.51109989000E-03 0.  1.
     -623   -1    0    0    0    0  0.00000000000E+00  0.00000000000E+00  0.12525980253E-10  0.17130000000E+03  0.17130000000E+03 0. -1.
       11    1    1    2    0    0 -0.28984623231E+00 -0.13858187691E+00  0.86108591343E+00  0.91906745483E+00  0.51109989000E-03 0.  1.
     -623    1    1    2    0    0 -0.21052049610E+00 -0.35812644045E+00  0.39133292203E+00  0.17130095071E+03  0.17130000000E+03 0. -1.
      622    1    1    2    0    0  0.50036672841E+00  0.49670831737E+00  0.27475811319E+01  0.30799818330E+01  0.12000000000E+01 0.  0.
</event>
<event>
 5   0  0.5136900E+01  0.9118800E+02  0.7818608E-02  0.1180000E+00
       11   -1    0    0    0    0  0.00000000000E+00  0.00000000000E+00  0.39999999673E+01  0.40000000000E+01  0.51109989000E-03 0.  1.
     -623   -1    0    0    0    0  0.00000000000E+00  0.00000000000E+00  0.12525980253E-10  0.17130000000E+03  0.17130000000E+03 0. -1.
       11    1    1    2    0    0 -0.29508496241E+00  0.38422591052E+00  0.16135975608E+00  0.51062894303E+00  0.51109989000E-03 0.  1.
     -623    1    1    2    0    0  0.51695256681E+00 -0.63597020131E-01  0.58731230045E+00  0.17130179865E+03  0.17130000000E+03 0. -1.
      622    1    1    2    0    0 -0.22186760440E+00 -0.32062889039E+00  0.32513279108E+01  0.34875724083E+01  0.12000000000E+01 0.  1.
</event>
<event>
 5   0  0.5136900E+01  0.9118800E+02  0.7818608E-02  0.1180000E+00
       11   -1    0    0    0    0  0.00000000000E+00  0.00000000000E+00  0.39999999673E+01  0.40000000000E+01  0.51109989000E-03 0.  1.
     -623   -1    0    0    0    0  0.00000000000E+00  0.00000000000E+00  0.12525980253E-10  0.17130000000E+03  0.17130000000E+03 0.  1.
       11    1    1    2    0    0  0.43659747007E-02  0.60429904912E-01 -0.30409124906E-01  0.67792412875E-01  0.51109989000E-03 0.  1.
     -623    1    1    2    0    0 -0.11695034637E+00  0.90986199933E-01  0.29086252799E+00  0.17130031102E+03  0.17130000000E+03 0.  1.
      622    1    1    2    0    0  0.11258437167E+00 -0.15141610485E+00  0.37395465643E+01  0.39318965632E+01  0.12000000000E+01 0.  1.
</event>
<event>
 5   0  0.5136900E+01  0.9118800E+02  0.7818608E-02  0.1180000E+00
       11   -1    0    0    0    0  0.00000000000E+00  0.00000000000E+00  0.39999999673E+01  0.40000000000E+01  0.51109989000E-03 0. -1.
     -623   -1    0    0    0    0  0.00000000000E+00  0.00000000000E+00  0.12525980253E-10  0.17130000000E+03  0.17130000000E+03 0.  1.
       11    1    1    2    0    0  0.43316165360E-01 -0.34149692179E+00  0.36485940255E+00  0.50161646965E+00  0.51109989000E-03 0. -1.
     -623    1    1    2    0    0  0.64978057850E-01  0.22704201406E+00  0.35334665916E+00  0.17130052721E+03  0.17130000000E+03 0.  1.
      622    1    1    2    0    0 -0.10829422321E+00  0.11445490773E+00  0.32817939057E+01  0.34978563155E+01  0.12000000000E+01 0. -1.
</event>
<event>
 5   0  0.5136900E+01  0.9118800E+02  0.7818608E-02  0.1180000E+00
       11   -1    0    0    0    0  0.00000000000E+00  0.00000000000E+00  0.39999999673E+01  0.40000000000E+01  0.51109989000E-03 0.  1.
     -623   -1    0    0    0    0  0.00000000000E+00  0.00000000000E+00  0.12525980253E-10  0.17130000000E+03  0.17130000000E+03 0. -1.
       11    1    1    2    0    0 -0.30102470681E+00 -0.60431450579E-01  0.83623515566E+00  0.89081834911E+00  0.51109989000E-03 0.  1.
     -623    1    1    2    0    0 -0.41072538285E-01  0.40341004867E+00  0.33758480237E+00  0.17130081258E+03  0.17130000000E+03 0. -1.
      622    1    1    2    0    0  0.34209724510E+00 -0.34297859809E+00  0.28261800093E+01  0.31083690722E+01  0.12000000000E+01 0.  1.
</event>
<event>
 5   0  0.5136900E+01  0.9118800E+02  0.7818608E-02  0.1180000E+00
       11   -1    0    0    0    0  0.00000000000E+00  0.00000000000E+00  0.39999999673E+01  0.40000000000E+01  0.51109989000E-03 0.  1.
     -623   -1    0    0    0    0  0.00000000000E+00  0.00000000000E+00  0.12525980253E-10  0.17130000000E+03  0.17130000000E+03 0.  1.
       11    1    1    2    0    0 -0.22735953216E-01  0.53182532724E-01  0.32370482318E-01  0.66282838664E-01  0.51109989000E-03 0.  1.
     -623    1    1    2    0    0 -0.28128355577E-01 -0.33782887247E+00  0.23311032346E+00  0.17130049404E+03  0.17130000000E+03 0.  1.
      622    1    1    2    0    0  0.50864308793E-01  0.28464633974E+00  0.37345191616E+01  0.39332231166E+01  0.12000000000E+01 0.  1.
</event>
<event>
 5   0  0.5136900E+01  0.9118800E+02  0.7818608E-02  0.1180000E+00
       11   -1    0    0    0    0  0.00000000000E+00  0.00000000000E+00  0.39999999673E+01  0.40000000000E+01  0.51109989000E-03 0.  1.
     -623   -1    0    0    0    0  0.00000000000E+00  0.00000000000E+00  0.12525980253E-10  0.17130000000E+03  0.17130000000E+03 0.  1.
       11    1    1    2    0    0  0.48614571284E-01 -0.11139015844E+00  0.21297294176E+00  0.24521190649E+00  0.51109989000E-03 0.  1.
     -623    1    1    2    0    0 -0.24163926080E+00  0.28067079239E+00  0.23903315522E+00  0.17130056714E+03  0.17130000000E+03 0.  1.
      622    1    1    2    0    0  0.19302468951E+00 -0.16928063395E+00  0.35479938704E+01  0.37542209535E+01  0.12000000000E+01 0.  1.
</event>
<event>
 5   0  0.5136900E+01  0.9118800E+02  0.7818608E-02  0.1180000E+00
       11   -1    0    0    0    0  0.00000000000E+00  0.00000000000E+00  0.39999999673E+01  0.40000000000E+01  0.51109989000E-03 0.  1.
     -623   -1    0    0    0    0  0.00000000000E+00  0.00000000000E+00  0.12525980253E-10  0.17130000000E+03  0.17130000000E+03 0.  1.
       11    1    1    2    0    0  0.14298029080E+00 -0.24137713478E+00  0.83798823771E+00  0.88370290964E+00  0.51109989000E-03 0.  1.
     -623    1    1    2    0    0 -0.15383539770E+00  0.92809642500E-01  0.29025308775E+00  0.17130034012E+03  0.17130000000E+03 0.  1.
      622    1    1    2    0    0  0.10855106908E-01  0.14856749228E+00  0.28717586419E+01  0.31159569686E+01  0.12000000000E+01 0.  1.
</event>
<event>
 5   0  0.5136900E+01  0.9118800E+02  0.7818608E-02  0.1180000E+00
       11   -1    0    0    0    0  0.00000000000E+00  0.00000000000E+00  0.39999999673E+01  0.40000000000E+01  0.51109989000E-03 0.  1.
     -623   -1    0    0    0    0  0.00000000000E+00  0.00000000000E+00  0.12525980253E-10  0.17130000000E+03  0.17130000000E+03 0.  1.
       11    1    1    2    0    0 -0.93389999694E-01 -0.95621668164E-01  0.79046705506E-01  0.15528631086E+00  0.51109989000E-03 0.  1.
     -623    1    1    2    0    0  0.26890288190E-02 -0.72962305549E-01  0.27357382619E+00  0.17130023401E+03  0.17130000000E+03 0.  1.
      622    1    1    2    0    0  0.90700970875E-01  0.16858397371E+00  0.36473794357E+01  0.38444796748E+01  0.12000000000E+01 0.  1.
</event>
<event>
 5   0  0.5136900E+01  0.9118800E+02  0.7818608E-02  0.1180000E+00
       11   -1    0    0    0    0  0.00000000000E+00  0.00000000000E+00  0.39999999673E+01  0.40000000000E+01  0.51109989000E-03 0. -1.
     -623   -1    0    0    0    0  0.00000000000E+00  0.00000000000E+00  0.12525980253E-10  0.17130000000E+03  0.17130000000E+03 0. -1.
       11    1    1    2    0    0  0.86531337243E-01 -0.13545483245E-01  0.13907907636E+00  0.16436058879E+00  0.51109989000E-03 0. -1.
     -623    1    1    2    0    0 -0.12562499405E+00  0.46154640455E-01  0.21838481008E+00  0.17130019149E+03  0.17130000000E+03 0. -1.
      622    1    1    2    0    0  0.39093656808E-01 -0.32609157209E-01  0.36425360809E+01  0.38354479232E+01  0.12000000000E+01 0. -1.
</event>
<event>
 5   0  0.5136900E+01  0.9118800E+02  0.7818608E-02  0.1180000E+00
       11   -1    0    0    0    0  0.00000000000E+00  0.00000000000E+00  0.39999999673E+01  0.40000000000E+01  0.51109989000E-03 0. -1.
     -623   -1    0    0    0    0  0.00000000000E+00  0.00000000000E+00  0.12525980253E-10  0.17130000000E+03  0.17130000000E+03 0. -1.
       11    1    1    2    0    0  0.21739487066E-01 -0.61454407173E-01  0.19673835175E-01  0.68092367194E-01  0.51109989000E-03 0. -1.
     -623    1    1    2    0    0  0.77832050474E-01  0.10712566197E+00  0.23784080316E+00  0.17130021629E+03  0.17130000000E+03 0. -1.
      622    1    1    2    0    0 -0.99571537541E-01 -0.45671254794E-01  0.37424853290E+01  0.39316913399E+01  0.12000000000E+01 0. -1.
</event>
<event>
 5   0  0.5136900E+01  0.9118800E+02  0.7818608E-02  0.1180000E+00
       11   -1    0    0    0    0  0.00000000000E+00  0.00000000000E+00  0.39999999673E+01  0.40000000000E+01  0.51109989000E-03 0. -1.
     -623   -1    0    0    0    0  0.00000000000E+00  0.00000000000E+00  0.12525980253E-10  0.17130000000E+03  0.17130000000E+03 0.  1.
       11    1    1    2    0    0  0.55808917358E-01 -0.27722346158E-01  0.56606412393E-01  0.84188543627E-01  0.51109989000E-03 0. -1.
     -623    1    1    2    0    0 -0.11690524063E+00 -0.88567619130E-02  0.21685099568E+00  0.17130017738E+03  0.17130000000E+03 0.  1.
      622    1    1    2    0    0  0.61096323267E-01  0.36579108071E-01  0.37265425593E+01  0.39156340787E+01  0.12000000000E+01 0. -1.
</event>
<event>
 5   0  0.5136900E+01  0.9118800E+02  0.7818608E-02  0.1180000E+00
       11   -1    0    0    0    0  0.00000000000E+00  0.00000000000E+00  0.39999999673E+01  0.40000000000E+01  0.51109989000E-03 0.  1.
     -623   -1    0    0    0    0  0.00000000000E+00  0.00000000000E+00  0.12525980253E-10  0.17130000000E+03  0.17130000000E+03 0.  1.
       11    1    1    2    0    0  0.15089076172E+00  0.15382184319E+00  0.19215714237E+00  0.28871059904E+00  0.51109989000E-03 0.  1.
     -623    1    1    2    0    0 -0.18426693882E+00 -0.27402378096E-01  0.29872783534E+00  0.17130036177E+03  0.17130000000E+03 0.  1.
      622    1    1    2    0    0  0.33376177094E-01 -0.12641946509E+00  0.35091149896E+01  0.37109276281E+01  0.12000000000E+01 0.  1.
</event>
<event>
 5   0  0.5136900E+01  0.9118800E+02  0.7818608E-02  0.1180000E+00
       11   -1    0    0    0    0  0.00000000000E+00  0.00000000000E+00  0.39999999673E+01  0.40000000000E+01  0.51109989000E-03 0. -1.
     -623   -1    0    0    0    0  0.00000000000E+00  0.00000000000E+00  0.12525980253E-10  0.17130000000E+03  0.17130000000E+03 0.  1.
       11    1    1    2    0    0  0.69865842302E-01 -0.98693082568E-02 -0.68256754756E-01  0.98172730217E-01  0.51109989000E-03 0. -1.
     -623    1    1    2    0    0  0.76040682433E-01 -0.91451063171E-01  0.36023519628E+00  0.17130042007E+03  0.17130000000E+03 0.  1.
      622    1    1    2    0    0 -0.14590652473E+00  0.10132037143E+00  0.37080215258E+01  0.39014072035E+01  0.12000000000E+01 0. -1.
</event>
<event>
 5   0  0.5136900E+01  0.9118800E+02  0.7818608E-02  0.1180000E+00
       11   -1    0    0    0    0  0.00000000000E+00  0.00000000000E+00  0.39999999673E+01  0.40000000000E+01  0.51109989000E-03 0. -1.
     -623   -1    0    0    0    0  0.00000000000E+00  0.00000000000E+00  0.12525980253E-10  0.17130000000E+03  0.17130000000E+03 0.  1.
       11    1    1    2    0    0  0.21663895437E+00  0.15267393383E+00  0.35570856840E-01  0.26740851464E+00  0.51109989000E-03 0. -1.
     -623    1    1    2    0    0  0.15549648224E+00 -0.21997950577E+00  0.45113877878E+00  0.17130080588E+03  0.17130000000E+03 0.  1.
      622    1    1    2    0    0 -0.37213543661E+00  0.67305571945E-01  0.35132903317E+01  0.37317856019E+01  0.12000000000E+01 0. -1.
</event>
<event>
 5   0  0.5136900E+01  0.9118800E+02  0.7818608E-02  0.1180000E+00
       11   -1    0    0    0    0  0.00000000000E+00  0.00000000000E+00  0.39999999673E+01  0.40000000000E+01  0.51109989000E-03 0.  1.
     -623   -1    0    0    0    0  0.00000000000E+00  0.00000000000E+00  0.12525980253E-10  0.17130000000E+03  0.17130000000E+03 0.  1.
       11    1    1    2    0    0  0.11535652507E+00  0.23903521761E+00  0.50716711059E+00  0.57241916671E+00  0.51109989000E-03 0.  1.
     -623    1    1    2    0    0  0.13456052185E+00 -0.72571217817E-01  0.29659854447E+00  0.17130032500E+03  0.17130000000E+03 0.  1.
      622    1    1    2    0    0 -0.24991704691E+00 -0.16646399979E+00  0.31962343123E+01  0.34272558371E+01  0.12000000000E+01 0.  1.
</event>
<event>
 5   0  0.5136900E+01  0.9118800E+02  0.7818608E-02  0.1180000E+00
       11   -1    0    0    0    0  0.00000000000E+00  0.00000000000E+00  0.39999999673E+01  0.40000000000E+01  0.51109989000E-03 0. -1.
     -623   -1    0    0    0    0  0.00000000000E+00  0.00000000000E+00  0.12525980253E-10  0.17130000000E+03  0.17130000000E+03 0.  1.
       11    1    1    2    0    0 -0.13526266923E-01  0.20185827067E+00  0.35550707280E+00  0.40904188217E+00  0.51109989000E-03 0. -1.
     -623    1    1    2    0    0 -0.95086677032E-01 -0.16758278975E+00  0.26221716780E+00  0.17130030906E+03  0.17130000000E+03 0.  1.
      622    1    1    2    0    0  0.10861294395E+00 -0.34275480917E-01  0.33822757268E+01  0.35906490600E+01  0.12000000000E+01 0. -1.
</event>
<event>
 5   0  0.5136900E+01  0.9118800E+02  0.7818608E-02  0.1180000E+00
       11   -1    0    0    0    0  0.00000000000E+00  0.00000000000E+00  0.39999999673E+01  0.40000000000E+01  0.51109989000E-03 0. -1.
     -623   -1    0    0    0    0  0.00000000000E+00  0.00000000000E+00  0.12525980253E-10  0.17130000000E+03  0.17130000000E+03 0.  1.
       11    1    1    2    0    0 -0.71991516497E-01  0.17400438212E+00  0.53167996895E-01  0.19567166520E+00  0.51109989000E-03 0. -1.
     -623    1    1    2    0    0  0.46338828098E+00 -0.14340934511E+00  0.35925676870E+00  0.17130106351E+03  0.17130000000E+03 0.  1.
      622    1    1    2    0    0 -0.39139676448E+00 -0.30595037009E-01  0.35875752018E+01  0.38032648227E+01  0.12000000000E+01 0. -1.
</event>
<event>
 5   0  0.5136900E+01  0.9118800E+02  0.7818608E-02  0.1180000E+00
       11   -1    0    0    0    0  0.00000000000E+00  0.00000000000E+00  0.39999999673E+01  0.40000000000E+01  0.51109989000E-03 0. -1.
     -623   -1    0    0    0    0  0.00000000000E+00  0.00000000000E+00  0.12525980253E-10  0.17130000000E+03  0.17130000000E+03 0.  1.
       11    1    1    2    0    0 -0.13523016177E+00  0.57118669566E-01  0.19354625040E+00  0.24292005132E+00  0.51109989000E-03 0. -1.
     -623    1    1    2    0    0  0.19886305998E+00 -0.51902150353E-01  0.24705653188E+00  0.17130030145E+03  0.17130000000E+03 0.  1.
      622    1    1    2    0    0 -0.63632898216E-01 -0.52165192123E-02  0.35593971851E+01  0.37567784975E+01  0.12000000000E+01 0. -1.
</event>
<event>
 5   0  0.5136900E+01  0.9118800E+02  0.7818608E-02  0.1180000E+00
       11   -1    0    0    0    0  0.00000000000E+00  0.00000000000E+00  0.39999999673E+01  0.40000000000E+01  0.51109989000E-03 0.  1.
     -623   -1    0    0    0    0  0.00000000000E+00  0.00000000000E+00  0.12525980253E-10  0.17130000000E+03  0.17130000000E+03 0. -1.
       11    1    1    2    0    0 -0.55573144470E-02  0.62698950352E-01 -0.25087473831E-01  0.67761970791E-01  0.51109989000E-03 0.  1.
     -623    1    1    2    0    0  0.84070941293E-01 -0.26786541519E-01  0.28168768655E+00  0.17130025433E+03  0.17130000000E+03 0. -1.
      622    1    1    2    0    0 -0.78513626846E-01 -0.35912408833E-01  0.37433997546E+01  0.39319836996E+01  0.12000000000E+01 0.  1.
</event>
<event>
 5   0  0.5136900E+01  0.9118800E+02  0.7818608E-02  0.1180000E+00
       11   -1    0    0    0    0  0.00000000000E+00  0.00000000000E+00  0.39999999673E+01  0.40000000000E+01  0.51109989000E-03 0.  1.
     -623   -1    0    0    0    0  0.00000000000E+00  0.00000000000E+00  0.12525980253E-10  0.17130000000E+03  0.17130000000E+03 0. -1.
       11    1    1    2    0    0 -0.47344797483E-01  0.47668176999E-01 -0.31448619050E-01  0.74182624720E-01  0.51109989000E-03 0.  1.
     -623    1    1    2    0    0 -0.26923175189E+00 -0.13355202474E+00  0.30852040916E+00  0.17130054147E+03  0.17130000000E+03 0. -1.
      622    1    1    2    0    0  0.31657654937E+00  0.85883847737E-01  0.37229281773E+01  0.39252759088E+01  0.12000000000E+01 0.  1.
</event>
<event>
 5   0  0.5136900E+01  0.9118800E+02  0.7818608E-02  0.1180000E+00
       11   -1    0    0    0    0  0.00000000000E+00  0.00000000000E+00  0.39999999673E+01  0.40000000000E+01  0.51109989000E-03 0.  1.
     -623   -1    0    0    0    0  0.00000000000E+00  0.00000000000E+00  0.12525980253E-10  0.17130000000E+03  0.17130000000E+03 0. -1.
       11    1    1    2    0    0 -0.42281079713E+00 -0.50413963588E-01  0.88972690112E+00  0.98636948336E+00  0.51109989000E-03 0.  1.
     -623    1    1    2    0    0 -0.16014560018E+00 -0.18496027025E+00  0.41906747255E+00  0.17130068731E+03  0.17130000000E+03 0. -1.
      622    1    1    2    0    0  0.58295639731E+00  0.23537423383E+00  0.26912055937E+01  0.30129432020E+01  0.12000000000E+01 0.  0.
</event>
<event>
 5   0  0.5136900E+01  0.9118800E+02  0.7818608E-02  0.1180000E+00
       11   -1    0    0    0    0  0.00000000000E+00  0.00000000000E+00  0.39999999673E+01  0.40000000000E+01  0.51109989000E-03 0.  1.
     -623   -1    0    0    0    0  0.00000000000E+00  0.00000000000E+00  0.12525980253E-10  0.17130000000E+03  0.17130000000E+03 0. -1.
       11    1    1    2    0    0 -0.13070958975E+00  0.19295872610E+00  0.29766008845E+00  0.37804742601E+00  0.51109989000E-03 0.  1.
     -623    1    1    2    0    0  0.98073989312E-01 -0.11195003333E+00  0.28639045405E+00  0.17130030406E+03  0.17130000000E+03 0. -1.
      622    1    1    2    0    0  0.32635600442E-01 -0.81008692767E-01  0.34159494249E+01  0.36216485147E+01  0.12000000000E+01 0.  1.
</event>
<event>
 5   0  0.5136900E+01  0.9118800E+02  0.7818608E-02  0.1180000E+00
       11   -1    0    0    0    0  0.00000000000E+00  0.00000000000E+00  0.39999999673E+01  0.40000000000E+01  0.51109989000E-03 0.  1.
     -623   -1    0    0    0    0  0.00000000000E+00  0.00000000000E+00  0.12525980253E-10  0.17130000000E+03  0.17130000000E+03 0.  1.
       11    1    1    2    0    0 -0.58267006586E-02 -0.47896808687E-01  0.36295495322E-02  0.48388940636E-01  0.51109989000E-03 0.  1.
     -623    1    1    2    0    0  0.33018624589E+00  0.11432863100E+00  0.24651848082E+00  0.17130053376E+03  0.17130000000E+03 0.  1.
      622    1    1    2    0    0 -0.32435954523E+00 -0.66431822316E-01  0.37498519370E+01  0.39510773026E+01  0.12000000000E+01 0.  1.
</event>
<event>
 5   0  0.5136900E+01  0.9118800E+02  0.7818608E-02  0.1180000E+00
       11   -1    0    0    0    0  0.00000000000E+00  0.00000000000E+00  0.39999999673E+01  0.40000000000E+01  0.51109989000E-03 0.  1.
     -623   -1    0    0    0    0  0.00000000000E+00  0.00000000000E+00  0.12525980253E-10  0.17130000000E+03  0.17130000000E+03 0. -1.
       11    1    1    2    0    0  0.29859497342E-01 -0.37328176362E+00  0.85544044747E+00  0.93381448105E+00  0.51109989000E-03 0.  1.
     -623    1    1    2    0    0 -0.13858704922E+00  0.17167182686E+00  0.33276788238E+00  0.17130046530E+03  0.17130000000E+03 0. -1.
      622    1    1    2    0    0  0.10872755187E+00  0.20160993677E+00  0.28117916375E+01  0.30657202188E+01  0.12000000000E+01 0.  1.
</event>
<event>
 5   0  0.5136900E+01  0.9118800E+02  0.7818608E-02  0.1180000E+00
       11   -1    0    0    0    0  0.00000000000E+00  0.00000000000E+00  0.39999999673E+01  0.40000000000E+01  0.51109989000E-03 0.  1.
     -623   -1    0    0    0    0  0.00000000000E+00  0.00000000000E+00  0.12525980253E-10  0.17130000000E+03  0.17130000000E+03 0.  1.
       11    1    1    2    0    0 -0.12633388029E-02  0.25567198122E+00  0.58294050478E+00  0.63654508979E+00  0.51109989000E-03 0.  1.
     -623    1    1    2    0    0  0.63282818847E-01 -0.19271612285E+00  0.27656435738E+00  0.17130034335E+03  0.17130000000E+03 0.  1.
      622    1    1    2    0    0 -0.62019480044E-01 -0.62955858365E-01  0.31404951052E+01  0.33631115595E+01  0.12000000000E+01 0.  1.
</event>
<event>
 5   0  0.5136900E+01  0.9118800E+02  0.7818608E-02  0.1180000E+00
       11   -1    0    0    0    0  0.00000000000E+00  0.00000000000E+00  0.39999999673E+01  0.40000000000E+01  0.51109989000E-03 0.  1.
     -623   -1    0    0    0    0  0.00000000000E+00  0.00000000000E+00  0.12525980253E-10  0.17130000000E+03  0.17130000000E+03 0. -1.
       11    1    1    2    0    0  0.16000753403E+00  0.51850958231E-01  0.88206284437E-01  0.18992509748E+00  0.51109989000E-03 0.  1.
     -623    1    1    2    0    0 -0.79868781682E-01  0.89347833934E-01  0.29959272825E+00  0.17130030390E+03  0.17130000000E+03 0. -1.
      622    1    1    2    0    0 -0.80138752346E-01 -0.14119879217E+00  0.36122009547E+01  0.38097709978E+01  0.12000000000E+01 0.  1.
</event>
<event>
 5   0  0.5136900E+01  0.9118800E+02  0.7818608E-02  0.1180000E+00
       11   -1    0    0    0    0  0.00000000000E+00  0.00000000000E+00  0.39999999673E+01  0.40000000000E+01  0.51109989000E-03 0. -1.
     -623   -1    0    0    0    0  0.00000000000E+00  0.00000000000E+00  0.12525980253E-10  0.17130000000E+03  0.17130000000E+03 0.  1.
       11    1    1    2    0    0 -0.54824993481E-02 -0.73119815117E-01  0.19393407717E+00  0.20733367471E+00  0.51109989000E-03 0. -1.
     -623    1    1    2    0    0 -0.80890628249E-03  0.13458913211E+00  0.20896539698E+00  0.17130018033E+03  0.17130000000E+03 0.  1.
      622    1    1    2    0    0  0.62914056305E-02 -0.61469316989E-01  0.35971004932E+01  0.37924859943E+01  0.12000000000E+01 0. -1.
</event>
<event>
 5   0  0.5136900E+01  0.9118800E+02  0.7818608E-02  0.1180000E+00
       11   -1    0    0    0    0  0.00000000000E+00  0.00000000000E+00  0.39999999673E+01  0.40000000000E+01  0.51109989000E-03 0. -1.
     -623   -1    0    0    0    0  0.00000000000E+00  0.00000000000E+00  0.12525980253E-10  0.17130000000E+03  0.17130000000E+03 0. -1.
       11    1    1    2    0    0 -0.23224698802E+00  0.21633558427E+00  0.75402710170E+00  0.81810566542E+00  0.51109989000E-03 0. -1.
     -623    1    1    2    0    0 -0.16545318350E+00 -0.57048083109E-01  0.33078635579E+00  0.17130040878E+03  0.17130000000E+03 0. -1.
      622    1    1    2    0    0  0.39770017152E+00 -0.15928750117E+00  0.29151865099E+01  0.31814855527E+01  0.12000000000E+01 0. -1.
</event>
<event>
 5   0  0.5136900E+01  0.9118800E+02  0.7818608E-02  0.1180000E+00
       11   -1    0    0    0    0  0.00000000000E+00  0.00000000000E+00  0.39999999673E+01  0.40000000000E+01  0.51109989000E-03 0. -1.
     -623   -1    0    0    0    0  0.00000000000E+00  0.00000000000E+00  0.12525980253E-10  0.17130000000E+03  0.17130000000E+03 0.  1.
       11    1    1    2    0    0  0.18427584593E-01 -0.28876911715E-01  0.86143560059E-01  0.92706127450E-01  0.51109989000E-03 0. -1.
     -623    1    1    2    0    0  0.41349736093E-01  0.10701074686E+00  0.19685720519E+00  0.17130015153E+03  0.17130000000E+03 0.  1.
      622    1    1    2    0    0 -0.59777320686E-01 -0.78133835146E-01  0.37169992021E+01  0.39071423435E+01  0.12000000000E+01 0. -1.
</event>
<event>
 5   0  0.5136900E+01  0.9118800E+02  0.7818608E-02  0.1180000E+00
       11   -1    0    0    0    0  0.00000000000E+00  0.00000000000E+00  0.39999999673E+01  0.40000000000E+01  0.51109989000E-03 0.  1.
     -623   -1    0    0    0    0  0.00000000000E+00  0.00000000000E+00  0.12525980253E-10  0.17130000000E+03  0.17130000000E+03 0.  1.
       11    1    1    2    0    0  0.34625765857E-01 -0.14276431322E+00  0.29423896354E-01  0.14982195997E+00  0.51109989000E-03 0.  1.
     -623    1    1    2    0    0  0.10966932043E+00  0.43607561128E+00  0.32776670343E+00  0.17130090373E+03  0.17130000000E+03 0.  1.
      622    1    1    2    0    0 -0.14429508629E+00 -0.29331129806E+00  0.36428093676E+01  0.38492743054E+01  0.12000000000E+01 0.  1.
</event>
<event>
 5   0  0.5136900E+01  0.9118800E+02  0.7818608E-02  0.1180000E+00
       11   -1    0    0    0    0  0.00000000000E+00  0.00000000000E+00  0.39999999673E+01  0.40000000000E+01  0.51109989000E-03 0.  1.
     -623   -1    0    0    0    0  0.00000000000E+00  0.00000000000E+00  0.12525980253E-10  0.17130000000E+03  0.17130000000E+03 0.  1.
       11    1    1    2    0    0 -0.56598419318E-01  0.68957886543E-01  0.36797511053E-01  0.96503311999E-01  0.51109989000E-03 0.  1.
     -623    1    1    2    0    0  0.49077644518E-01  0.17381156543E+00  0.25698542511E+00  0.17130028798E+03  0.17130000000E+03 0.  1.
      622    1    1    2    0    0  0.75207747997E-02 -0.24276945197E+00  0.37062170312E+01  0.39032087122E+01  0.12000000000E+01 0.  1.
</event>
<event>
 5   0  0.5136900E+01  0.9118800E+02  0.7818608E-02  0.1180000E+00
       11   -1    0    0    0    0  0.00000000000E+00  0.00000000000E+00  0.39999999673E+01  0.40000000000E+01  0.51109989000E-03 0. -1.
     -623   -1    0    0    0    0  0.00000000000E+00  0.00000000000E+00  0.12525980253E-10  0.17130000000E+03  0.17130000000E+03 0. -1.
       11    1    1    2    0    0 -0.16261345203E-01  0.21181592796E-01 -0.61717777986E-01  0.67249063651E-01  0.51109989000E-03 0. -1.
     -623    1    1    2    0    0  0.39400703559E-01 -0.34378722893E-01  0.31692781154E+00  0.17130030116E+03  0.17130000000E+03 0. -1.
      622    1    1    2    0    0 -0.23139358356E-01  0.13197130097E-01  0.37447899338E+01  0.39324497762E+01  0.12000000000E+01 0. -1.
</event>
<event>
 5   0  0.5136900E+01  0.9118800E+02  0.7818608E-02  0.1180000E+00
       11   -1    0    0    0    0  0.00000000000E+00  0.00000000000E+00  0.39999999673E+01  0.40000000000E+01  0.51109989000E-03 0.  1.
     -623   -1    0    0    0    0  0.00000000000E+00  0.00000000000E+00  0.12525980253E-10  0.17130000000E+03  0.17130000000E+03 0. -1.
       11    1    1    2    0    0  0.10226433887E+00  0.30259921519E-01  0.58846688293E-01  0.12180661641E+00  0.51109989000E-03 0.  1.
     -623    1    1    2    0    0 -0.19159718034E+00  0.18283544062E+00  0.26095430643E+00  0.17130040349E+03  0.17130000000E+03 0. -1.
      622    1    1    2    0    0  0.89332841475E-01 -0.21309536214E+00  0.36801989726E+01  0.38777898948E+01  0.12000000000E+01 0.  1.
</event>
<event>
 5   0  0.5136900E+01  0.9118800E+02  0.7818608E-02  0.1180000E+00
       11   -1    0    0    0    0  0.00000000000E+00  0.00000000000E+00  0.39999999673E+01  0.40000000000E+01  0.51109989000E-03 0. -1.
     -623   -1    0    0    0    0  0.00000000000E+00  0.00000000000E+00  0.12525980253E-10  0.17130000000E+03  0.17130000000E+03 0. -1.
       11    1    1    2    0    0  0.45509493411E-01  0.79280624183E-02  0.15845298971E+00  0.16505023276E+00  0.51109989000E-03 0. -1.
     -623    1    1    2    0    0 -0.12790206834E+00  0.60648590408E-03  0.20029527122E+00  0.17130016485E+03  0.17130000000E+03 0. -1.
      622    1    1    2    0    0  0.82392574933E-01 -0.85345483224E-02  0.36412517064E+01  0.38347849176E+01  0.12000000000E+01 0. -1.
</event>
<event>
 5   0  0.5136900E+01  0.9118800E+02  0.7818608E-02  0.1180000E+00
       11   -1    0    0    0    0  0.00000000000E+00  0.00000000000E+00  0.39999999673E+01  0.40000000000E+01  0.51109989000E-03 0. -1.
     -623   -1    0    0    0    0  0.00000000000E+00  0.00000000000E+00  0.12525980253E-10  0.17130000000E+03  0.17130000000E+03 0. -1.
       11    1    1    2    0    0  0.59067797903E-01  0.14962462501E+00 -0.72603072560E-01  0.17648796142E+00  0.51109989000E-03 0. -1.
     -623    1    1    2    0    0 -0.16910625439E+00 -0.17320857924E+00  0.44481363778E+00  0.17130074856E+03  0.17130000000E+03 0. -1.
      622    1    1    2    0    0  0.11003845648E+00  0.23583954234E-01  0.36277894021E+01  0.38227634783E+01  0.12000000000E+01 0. -1.
</event>
<event>
 5   0  0.5136900E+01  0.9118800E+02  0.7818608E-02  0.1180000E+00
       11   -1    0    0    0    0  0.00000000000E+00  0.00000000000E+00  0.39999999673E+01  0.40000000000E+01  0.51109989000E-03 0. -1.
     -623   -1    0    0    0    0  0.00000000000E+00  0.00000000000E+00  0.12525980253E-10  0.17130000000E+03  0.17130000000E+03 0. -1.
       11    1    1    2    0    0  0.33477625150E+00  0.39705775198E-01  0.86972613633E+00  0.93277837699E+00  0.51109989000E-03 0. -1.
     -623    1    1    2    0    0 -0.26389853039E+00 -0.79533256868E-02  0.30912908750E+00  0.17130048239E+03  0.17130000000E+03 0. -1.
      622    1    1    2    0    0 -0.70877721115E-01 -0.31752449511E-01  0.28211447435E+01  0.30667392347E+01  0.12000000000E+01 0. -1.
</event>
<event>
 5   0  0.5136900E+01  0.9118800E+02  0.7818608E-02  0.1180000E+00
       11   -1    0    0    0    0  0.00000000000E+00  0.00000000000E+00  0.39999999673E+01  0.40000000000E+01  0.51109989000E-03 0. -1.
     -623   -1    0    0    0    0  0.00000000000E+00  0.00000000000E+00  0.12525980253E-10  0.17130000000E+03  0.17130000000E+03 0.  1.
       11    1    1    2    0    0  0.15528626388E+00  0.14645608763E+00  0.61288362579E+00  0.64899137848E+00  0.51109989000E-03 0. -1.
     -623    1    1    2    0    0 -0.17230776162E+00 -0.14198654407E+00  0.25875186920E+00  0.17130034093E+03  0.17130000000E+03 0.  1.
      622    1    1    2    0    0  0.17021497733E-01 -0.44695435611E-02  0.31283644724E+01  0.33506676917E+01  0.12000000000E+01 0. -1.
</event>
<event>
 5   0  0.5136900E+01  0.9118800E+02  0.7818608E-02  0.1180000E+00
       11   -1    0    0    0    0  0.00000000000E+00  0.00000000000E+00  0.39999999673E+01  0.40000000000E+01  0.51109989000E-03 0.  1.
     -623   -1    0    0    0    0  0.00000000000E+00  0.00000000000E+00  0.12525980253E-10  0.17130000000E+03  0.17130000000E+03 0. -1.
       11    1    1    2    0    0  0.59758839647E-02 -0.30432325899E-01  0.67951509101E-02  0.31753313965E-01  0.51109989000E-03 0.  1.
     -623    1    1    2    0    0 -0.73822881689E-02  0.14642245621E+00  0.21273132133E+00  0.17130019483E+03  0.17130000000E+03 0. -1.
      622    1    1    2    0    0  0.14064042042E-02 -0.11599013031E+00  0.37804734951E+01  0.39680518565E+01  0.12000000000E+01 0.  1.
</event>
<event>
 5   0  0.5136900E+01  0.9118800E+02  0.7818608E-02  0.1180000E+00
       11   -1    0    0    0    0  0.00000000000E+00  0.00000000000E+00  0.39999999673E+01  0.40000000000E+01  0.51109989000E-03 0. -1.
     -623   -1    0    0    0    0  0.00000000000E+00  0.00000000000E+00  0.12525980253E-10  0.17130000000E+03  0.17130000000E+03 0.  1.
       11    1    1    2    0    0 -0.95374338372E-01 -0.63927479642E-01  0.20717461854E+00  0.23686403455E+00  0.51109989000E-03 0. -1.
     -623    1    1    2    0    0  0.21708643968E+00 -0.58982212597E-01  0.23066431657E+00  0.17130030301E+03  0.17130000000E+03 0.  1.
      622    1    1    2    0    0 -0.12171210131E+00  0.12290969224E+00  0.35621610322E+01  0.37628329551E+01  0.12000000000E+01 0. -1.
</event>
<event>
 5   0  0.5136900E+01  0.9118800E+02  0.7818608E-02  0.1180000E+00
       11   -1    0    0    0    0  0.00000000000E+00  0.00000000000E+00  0.39999999673E+01  0.40000000000E+01  0.51109989000E-03 0.  1.
     -623   -1    0    0    0    0  0.00000000000E+00  0.00000000000E+00  0.12525980253E-10  0.17130000000E+03  0.17130000000E+03 0.  1.
       11    1    1    2    0    0 -0.49751124784E-01  0.16655673065E+00  0.12268564464E+00  0.21276359550E+00  0.51109989000E-03 0.  1.
     -623    1    1    2    0    0  0.46014973100E-01 -0.25482435068E+00  0.28676365355E+00  0.17130043574E+03  0.17130000000E+03 0.  1.
      622    1    1    2    0    0  0.37361516847E-02  0.88267620026E-01  0.35905506692E+01  0.37868006601E+01  0.12000000000E+01 0.  1.
</event>
<event>
 5   0  0.5136900E+01  0.9118800E+02  0.7818608E-02  0.1180000E+00
       11   -1    0    0    0    0  0.00000000000E+00  0.00000000000E+00  0.39999999673E+01  0.40000000000E+01  0.51109989000E-03 0. -1.
     -623   -1    0    0    0    0  0.00000000000E+00  0.00000000000E+00  0.12525980253E-10  0.17130000000E+03  0.17130000000E+03 0. -1.
       11    1    1    2    0    0 -0.23707587854E+00  0.21064284659E-01  0.29507050891E+00  0.37909832856E+00  0.51109989000E-03 0. -1.
     -623    1    1    2    0    0 -0.99638829589E-02 -0.28666995061E-01  0.29788566795E+00  0.17130026170E+03  0.17130000000E+03 0. -1.
      622    1    1    2    0    0  0.24703976150E+00  0.76027104017E-02  0.34070437905E+01  0.36206399759E+01  0.12000000000E+01 0. -1.
</event>
<event>
 5   0  0.5136900E+01  0.9118800E+02  0.7818608E-02  0.1180000E+00
       11   -1    0    0    0    0  0.00000000000E+00  0.00000000000E+00  0.39999999673E+01  0.40000000000E+01  0.51109989000E-03 0. -1.
     -623   -1    0    0    0    0  0.00000000000E+00  0.00000000000E+00  0.12525980253E-10  0.17130000000E+03  0.17130000000E+03 0.  1.
       11    1    1    2    0    0 -0.26737250129E+00 -0.18089263967E-01  0.28502978166E+00  0.39122565557E+00  0.51109989000E-03 0. -1.
     -623    1    1    2    0    0  0.22200391855E+00  0.13059504580E+00  0.31422630668E+00  0.17130048184E+03  0.17130000000E+03 0.  1.
      622    1    1    2    0    0  0.45368582738E-01 -0.11250578183E+00  0.34007438790E+01  0.36082925034E+01  0.12000000000E+01 0. -1.
</event>
<event>
 5   0  0.5136900E+01  0.9118800E+02  0.7818608E-02  0.1180000E+00
       11   -1    0    0    0    0  0.00000000000E+00  0.00000000000E+00  0.39999999673E+01  0.40000000000E+01  0.51109989000E-03 0. -1.
     -623   -1    0    0    0    0  0.00000000000E+00  0.00000000000E+00  0.12525980253E-10  0.17130000000E+03  0.17130000000E+03 0.  1.
       11    1    1    2    0    0 -0.41034509698E-01  0.27215193523E-01  0.78518379809E-02  0.49863918091E-01  0.51109989000E-03 0. -1.
     -623    1    1    2    0    0  0.83219438079E-01  0.73171116401E-01  0.23047162913E+00  0.17130019088E+03  0.17130000000E+03 0.  1.
      622    1    1    2    0    0 -0.42184928382E-01 -0.10038630992E+00  0.37616765002E+01  0.39499451986E+01  0.12000000000E+01 0. -1.
</event>
<event>
 5   0  0.5136900E+01  0.9118800E+02  0.7818608E-02  0.1180000E+00
       11   -1    0    0    0    0  0.00000000000E+00  0.00000000000E+00  0.39999999673E+01  0.40000000000E+01  0.51109989000E-03 0. -1.
     -623   -1    0    0    0    0  0.00000000000E+00  0.00000000000E+00  0.12525980253E-10  0.17130000000E+03  0.17130000000E+03 0. -1.
       11    1    1    2    0    0  0.10010878173E+00 -0.21155614343E-03  0.67742541569E-01  0.12087649108E+00  0.51109989000E-03 0. -1.
     -623    1    1    2    0    0 -0.64645791937E-01 -0.16245687320E+00  0.24745054759E+00  0.17130026796E+03  0.17130000000E+03 0. -1.
      622    1    1    2    0    0 -0.35462989794E-01  0.16266842934E+00  0.36848068782E+01  0.38788555492E+01  0.12000000000E+01 0. -1.
</event>
<event>
 5   0  0.5136900E+01  0.9118800E+02  0.7818608E-02  0.1180000E+00
       11   -1    0    0    0    0  0.00000000000E+00  0.00000000000E+00  0.39999999673E+01  0.40000000000E+01  0.51109989000E-03 0. -1.
     -623   -1    0    0    0    0  0.00000000000E+00  0.00000000000E+00  0.12525980253E-10  0.17130000000E+03  0.17130000000E+03 0. -1.
       11    1    1    2    0    0 -0.13912231536E+00  0.17498642370E+00  0.19224070413E+00  0.29484235899E+00  0.51109989000E-03 0. -1.
     -623    1    1    2    0    0  0.13787822425E+00 -0.13919967434E+00  0.30289173651E+00  0.17130037983E+03  0.17130000000E+03 0. -1.
      622    1    1    2    0    0  0.12440911071E-02 -0.35786749356E-01  0.35048675267E+01  0.37047778097E+01  0.12000000000E+01 0. -1.
</event>
<event>
 5   0  0.5136900E+01  0.9118800E+02  0.7818608E-02  0.1180000E+00
       11   -1    0    0    0    0  0.00000000000E+00  0.00000000000E+00  0.39999999673E+01  0.40000000000E+01  0.51109989000E-03 0.  1.
     -623   -1    0    0    0    0  0.00000000000E+00  0.00000000000E+00  0.12525980253E-10  0.17130000000E+03  0.17130000000E+03 0.  1.
       11    1    1    2    0    0  0.64626538953E-01  0.17286415480E+00  0.43123697815E+00  0.46906737053E+00  0.51109989000E-03 0.  1.
     -623    1    1    2    0    0 -0.14751786411E+00  0.24791542343E+00  0.27630647369E+00  0.17130046576E+03  0.17130000000E+03 0.  1.
      622    1    1    2    0    0  0.82891325153E-01 -0.42077957824E+00  0.32924565155E+01  0.35304668716E+01  0.12000000000E+01 0.  1.
</event>
<event>
 5   0  0.5136900E+01  0.9118800E+02  0.7818608E-02  0.1180000E+00
       11   -1    0    0    0    0  0.00000000000E+00  0.00000000000E+00  0.39999999673E+01  0.40000000000E+01  0.51109989000E-03 0. -1.
     -623   -1    0    0    0    0  0.00000000000E+00  0.00000000000E+00  0.12525980253E-10  0.17130000000E+03  0.17130000000E+03 0.  1.
       11    1    1    2    0    0 -0.12432752108E-01 -0.85767372528E-01  0.42294452150E+00  0.43173249241E+00  0.51109989000E-03 0. -1.
     -623    1    1    2    0    0 -0.93142296557E-01  0.68038567345E-03  0.21953217575E+00  0.17130016600E+03  0.17130000000E+03 0.  1.
      622    1    1    2    0    0  0.10557504866E+00  0.85086986855E-01  0.33575232701E+01  0.35681015114E+01  0.12000000000E+01 0. -1.
</event>
<event>
 5   0  0.5136900E+01  0.9118800E+02  0.7818608E-02  0.1180000E+00
       11   -1    0    0    0    0  0.00000000000E+00  0.00000000000E+00  0.39999999673E+01  0.40000000000E+01  0.51109989000E-03 0.  1.
     -623   -1    0    0    0    0  0.00000000000E+00  0.00000000000E+00  0.12525980253E-10  0.17130000000E+03  0.17130000000E+03 0. -1.
       11    1    1    2    0    0  0.38399780152E-01 -0.17926802213E+00  0.16329805993E+00  0.24551595564E+00  0.51109989000E-03 0.  1.
     -623    1    1    2    0    0 -0.13422267548E+00  0.10826656143E+00  0.28148899221E+00  0.17130031808E+03  0.17130000000E+03 0. -1.
      622    1    1    2    0    0  0.95822895325E-01  0.71001460702E-01  0.35552129152E+01  0.37541659669E+01  0.12000000000E+01 0.  1.
</event>
<event>
 5   0  0.5136900E+01  0.9118800E+02  0.7818608E-02  0.1180000E+00
       11   -1    0    0    0    0  0.00000000000E+00  0.00000000000E+00  0.39999999673E+01  0.40000000000E+01  0.51109989000E-03 0. -1.
     -623   -1    0    0    0    0  0.00000000000E+00  0.00000000000E+00  0.12525980253E-10  0.17130000000E+03  0.17130000000E+03 0. -1.
       11    1    1    2    0    0  0.81356372489E-01  0.16863146743E+00  0.59068602026E+00  0.61964963238E+00  0.51109989000E-03 0. -1.
     -623    1    1    2    0    0 -0.10209500647E+00 -0.13551053473E+00  0.24965516966E+00  0.17130026595E+03  0.17130000000E+03 0. -1.
      622    1    1    2    0    0  0.20738633982E-01 -0.33120932696E-01  0.31596587774E+01  0.33800844186E+01  0.12000000000E+01 0. -1.
</event>
<event>
 5   0  0.5136900E+01  0.9118800E+02  0.7818608E-02  0.1180000E+00
       11   -1    0    0    0    0  0.00000000000E+00  0.00000000000E+00  0.39999999673E+01  0.40000000000E+01  0.51109989000E-03 0. -1.
     -623   -1    0    0    0    0  0.00000000000E+00  0.00000000000E+00  0.12525980253E-10  0.17130000000E+03  0.17130000000E+03 0. -1.
       11    1    1    2    0    0  0.36361499002E-01 -0.11096521556E+00  0.13780116230E-01  0.11758227120E+00  0.51109989000E-03 0. -1.
     -623    1    1    2    0    0  0.17927273702E+00  0.95981046001E-03  0.30223158356E+00  0.17130036043E+03  0.17130000000E+03 0. -1.
      622    1    1    2    0    0 -0.21563423602E+00  0.11000540510E+00  0.36839882676E+01  0.38820572985E+01  0.12000000000E+01 0. -1.
</event>
<event>
 5   0  0.5136900E+01  0.9118800E+02  0.7818608E-02  0.1180000E+00
       11   -1    0    0    0    0  0.00000000000E+00  0.00000000000E+00  0.39999999673E+01  0.40000000000E+01  0.51109989000E-03 0. -1.
     -623   -1    0    0    0    0  0.00000000000E+00  0.00000000000E+00  0.12525980253E-10  0.17130000000E+03  0.17130000000E+03 0. -1.
       11    1    1    2    0    0 -0.12768135256E+00 -0.63959546197E-02  0.47337937317E+00  0.49033838132E+00  0.51109989000E-03 0. -1.
     -623    1    1    2    0    0  0.26732432804E+00  0.26034664073E-01  0.23188855147E+00  0.17130036752E+03  0.17130000000E+03 0. -1.
      622    1    1    2    0    0 -0.13964297548E+00 -0.19638709453E-01  0.32947320427E+01  0.35092940989E+01  0.12000000000E+01 0. -1.
</event>
<event>
 5   0  0.5136900E+01  0.9118800E+02  0.7818608E-02  0.1180000E+00
       11   -1    0    0    0    0  0.00000000000E+00  0.00000000000E+00  0.39999999673E+01  0.40000000000E+01  0.51109989000E-03 0.  1.
     -623   -1    0    0    0    0  0.00000000000E+00  0.00000000000E+00  0.12525980253E-10  0.17130000000E+03  0.17130000000E+03 0.  1.
       11    1    1    2    0    0  0.30338093103E-01  0.10987843782E+00  0.11079208556E+01  0.11137695248E+01  0.51109989000E-03 0.  1.
     -623    1    1    2    0    0 -0.23026234723E+00  0.19553771053E+00  0.29321556531E+00  0.17130051731E+03  0.17130000000E+03 0.  1.
      622    1    1    2    0    0  0.19992425413E+00 -0.30541614835E+00  0.25988635465E+01  0.28857131639E+01  0.12000000000E+01 0.  1.
</event>
<event>
 5   0  0.5136900E+01  0.9118800E+02  0.7818608E-02  0.1180000E+00
       11   -1    0    0    0    0  0.00000000000E+00  0.00000000000E+00  0.39999999673E+01  0.40000000000E+01  0.51109989000E-03 0. -1.
     -623   -1    0    0    0    0  0.00000000000E+00  0.00000000000E+00  0.12525980253E-10  0.17130000000E+03  0.17130000000E+03 0. -1.
       11    1    1    2    0    0  0.14325377309E+00 -0.34268275158E+00  0.10063911912E+00  0.38481372800E+00  0.51109989000E-03 0. -1.
     -623    1    1    2    0    0  0.52196359013E+00  0.12701323334E-01  0.57287717942E+00  0.17130175363E+03  0.17130000000E+03 0. -1.
      622    1    1    2    0    0 -0.66521736322E+00  0.32998142825E+00  0.33264836688E+01  0.36134326453E+01  0.12000000000E+01 0. -1.
</event>
<event>
 5   0  0.5136900E+01  0.9118800E+02  0.7818608E-02  0.1180000E+00
       11   -1    0    0    0    0  0.00000000000E+00  0.00000000000E+00  0.39999999673E+01  0.40000000000E+01  0.51109989000E-03 0. -1.
     -623   -1    0    0    0    0  0.00000000000E+00  0.00000000000E+00  0.12525980253E-10  0.17130000000E+03  0.17130000000E+03 0. -1.
       11    1    1    2    0    0 -0.78059837295E-01 -0.34698146893E+00  0.36617249895E+00  0.51046257276E+00  0.51109989000E-03 0. -1.
     -623    1    1    2    0    0  0.46319528746E-01  0.20724721859E+00  0.36079091706E+00  0.17130051158E+03  0.17130000000E+03 0. -1.
      622    1    1    2    0    0  0.31740308549E-01  0.13973425035E+00  0.32730365514E+01  0.34890258489E+01  0.12000000000E+01 0. -1.
</event>
<event>
 5   0  0.5136900E+01  0.9118800E+02  0.7818608E-02  0.1180000E+00
       11   -1    0    0    0    0  0.00000000000E+00  0.00000000000E+00  0.39999999673E+01  0.40000000000E+01  0.51109989000E-03 0. -1.
     -623   -1    0    0    0    0  0.00000000000E+00  0.00000000000E+00  0.12525980253E-10  0.17130000000E+03  0.17130000000E+03 0. -1.
       11    1    1    2    0    0 -0.22273894909E+00 -0.26279969029E+00  0.17323408452E-02  0.34449902596E+00  0.51109989000E-03 0. -1.
     -623    1    1    2    0    0  0.37490314511E+00  0.42158267980E-01  0.55716449768E+00  0.17130132154E+03  0.17130000000E+03 0. -1.
      622    1    1    2    0    0 -0.15216419602E+00  0.22064142231E+00  0.34411031288E+01  0.36541794322E+01  0.12000000000E+01 0. -1.
</event>
<event>
 5   0  0.5136900E+01  0.9118800E+02  0.7818608E-02  0.1180000E+00
       11   -1    0    0    0    0  0.00000000000E+00  0.00000000000E+00  0.39999999673E+01  0.40000000000E+01  0.51109989000E-03 0.  1.
     -623   -1    0    0    0    0  0.00000000000E+00  0.00000000000E+00  0.12525980253E-10  0.17130000000E+03  0.17130000000E+03 0. -1.
       11    1    1    2    0    0 -0.11184940247E-03  0.58160586399E-01 -0.60568215020E-02  0.58477454035E-01  0.51109989000E-03 0.  1.
     -623    1    1    2    0    0  0.25448119458E+00 -0.26540571775E+00  0.26664518048E+00  0.17130060216E+03  0.17130000000E+03 0. -1.
      622    1    1    2    0    0 -0.25436934518E+00  0.20724513135E+00  0.37394116084E+01  0.39409203855E+01  0.12000000000E+01 0.  1.
</event>
<event>
 5   0  0.5136900E+01  0.9118800E+02  0.7818608E-02  0.1180000E+00
       11   -1    0    0    0    0  0.00000000000E+00  0.00000000000E+00  0.39999999673E+01  0.40000000000E+01  0.51109989000E-03 0.  1.
     -623   -1    0    0    0    0  0.00000000000E+00  0.00000000000E+00  0.12525980253E-10  0.17130000000E+03  0.17130000000E+03 0. -1.
       11    1    1    2    0    0  0.40044228194E-02 -0.57447056560E-01  0.96380498155E-01  0.11227493646E+00  0.51109989000E-03 0.  1.
     -623    1    1    2    0    0  0.39010447155E-01  0.31278031006E+00  0.21525200062E+00  0.17130042524E+03  0.17130000000E+03 0. -1.
      622    1    1    2    0    0 -0.43014869974E-01 -0.25533325350E+00  0.36883674686E+01  0.38872998254E+01  0.12000000000E+01 0.  0.
</event>
<event>
 5   0  0.5136900E+01  0.9118800E+02  0.7818608E-02  0.1180000E+00
       11   -1    0    0    0    0  0.00000000000E+00  0.00000000000E+00  0.39999999673E+01  0.40000000000E+01  0.51109989000E-03 0. -1.
     -623   -1    0    0    0    0  0.00000000000E+00  0.00000000000E+00  0.12525980253E-10  0.17130000000E+03  0.17130000000E+03 0.  1.
       11    1    1    2    0    0 -0.13884786748E-02  0.19385087226E+00  0.42087291101E+00  0.46337280563E+00  0.51109989000E-03 0. -1.
     -623    1    1    2    0    0  0.23476239225E-01 -0.16755492241E+00  0.25277131650E+00  0.17130027005E+03  0.17130000000E+03 0.  1.
      622    1    1    2    0    0 -0.22087760550E-01 -0.26295949850E-01  0.33263557398E+01  0.35363571446E+01  0.12000000000E+01 0. -1.
</event>
<event>
 5   0  0.5136900E+01  0.9118800E+02  0.7818608E-02  0.1180000E+00
       11   -1    0    0    0    0  0.00000000000E+00  0.00000000000E+00  0.39999999673E+01  0.40000000000E+01  0.51109989000E-03 0.  1.
     -623   -1    0    0    0    0  0.00000000000E+00  0.00000000000E+00  0.12525980253E-10  0.17130000000E+03  0.17130000000E+03 0. -1.
       11    1    1    2    0    0  0.30351347197E+00  0.20622888205E+00  0.55099132985E-01  0.37106192898E+00  0.51109989000E-03 0.  1.
     -623    1    1    2    0    0 -0.20810346179E+00 -0.32873213477E+00  0.52495372607E+00  0.17130124620E+03  0.17130000000E+03 0. -1.
      622    1    1    2    0    0 -0.95410010172E-01  0.12250325272E+00  0.34199471083E+01  0.36276918751E+01  0.12000000000E+01 0.  1.
</event>
<event>
 5   0  0.5136900E+01  0.9118800E+02  0.7818608E-02  0.1180000E+00
       11   -1    0    0    0    0  0.00000000000E+00  0.00000000000E+00  0.39999999673E+01  0.40000000000E+01  0.51109989000E-03 0. -1.
     -623   -1    0    0    0    0  0.00000000000E+00  0.00000000000E+00  0.12525980253E-10  0.17130000000E+03  0.17130000000E+03 0.  1.
       11    1    1    2    0    0 -0.66727877750E-01 -0.59188072523E-01  0.82874347449E+00  0.83352975072E+00  0.51109989000E-03 0. -1.
     -623    1    1    2    0    0  0.87154441891E-01  0.17849286807E+00  0.24379085213E+00  0.17130028864E+03  0.17130000000E+03 0.  1.
      622    1    1    2    0    0 -0.20426564141E-01 -0.11930479555E+00  0.29274656407E+01  0.31661816051E+01  0.12000000000E+01 0. -1.
</event>
<event>
 5   0  0.5136900E+01  0.9118800E+02  0.7818608E-02  0.1180000E+00
       11   -1    0    0    0    0  0.00000000000E+00  0.00000000000E+00  0.39999999673E+01  0.40000000000E+01  0.51109989000E-03 0.  1.
     -623   -1    0    0    0    0  0.00000000000E+00  0.00000000000E+00  0.12525980253E-10  0.17130000000E+03  0.17130000000E+03 0.  1.
       11    1    1    2    0    0 -0.19643166761E-01  0.99603761501E-01  0.87088975144E+00  0.87678730813E+00  0.51109989000E-03 0.  1.
     -623    1    1    2    0    0  0.10545791110E-01 -0.22702502235E+00  0.24882061974E+00  0.17130033147E+03  0.17130000000E+03 0.  1.
      622    1    1    2    0    0  0.90973756510E-02  0.12742126085E+00  0.28802895962E+01  0.31228812174E+01  0.12000000000E+01 0.  1.
</event>
<event>
 5   0  0.5136900E+01  0.9118800E+02  0.7818608E-02  0.1180000E+00
       11   -1    0    0    0    0  0.00000000000E+00  0.00000000000E+00  0.39999999673E+01  0.40000000000E+01  0.51109989000E-03 0. -1.
     -623   -1    0    0    0    0  0.00000000000E+00  0.00000000000E+00  0.12525980253E-10  0.17130000000E+03  0.17130000000E+03 0. -1.
       11    1    1    2    0    0  0.16702476390E+00 -0.13628839928E+00  0.17137034316E+00  0.27539036888E+00  0.51109989000E-03 0. -1.
     -623    1    1    2    0    0 -0.14564247706E+00  0.84771810554E-01  0.30343651895E+00  0.17130035164E+03  0.17130000000E+03 0. -1.
      622    1    1    2    0    0 -0.21382286835E-01  0.51516588724E-01  0.35251931053E+01  0.37242579919E+01  0.12000000000E+01 0. -1.
</event>
<event>
 5   0  0.5136900E+01  0.9118800E+02  0.7818608E-02  0.1180000E+00
       11   -1    0    0    0    0  0.00000000000E+00  0.00000000000E+00  0.39999999673E+01  0.40000000000E+01  0.51109989000E-03 0.  1.
     -623   -1    0    0    0    0  0.00000000000E+00  0.00000000000E+00  0.12525980253E-10  0.17130000000E+03  0.17130000000E+03 0. -1.
       11    1    1    2    0    0 -0.14167707219E+00  0.39723498354E-01  0.89390538425E-01  0.17216642730E+00  0.51109989000E-03 0.  1.
     -623    1    1    2    0    0  0.10024483905E+00  0.85176714237E-01  0.27840975033E+00  0.17130027675E+03  0.17130000000E+03 0. -1.
      622    1    1    2    0    0  0.41432233145E-01 -0.12490021259E+00  0.36321996786E+01  0.38275568184E+01  0.12000000000E+01 0.  1.
</event>
<event>
 5   0  0.5136900E+01  0.9118800E+02  0.7818608E-02  0.1180000E+00
       11   -1    0    0    0    0  0.00000000000E+00  0.00000000000E+00  0.39999999673E+01  0.40000000000E+01  0.51109989000E-03 0.  1.
     -623   -1    0    0    0    0  0.00000000000E+00  0.00000000000E+00  0.12525980253E-10  0.17130000000E+03  0.17130000000E+03 0. -1.
       11    1    1    2    0    0 -0.17756086485E-01 -0.11972457129E+00 -0.32509771438E-01  0.12532516921E+00  0.51109989000E-03 0.  1.
     -623    1    1    2    0    0  0.19301823099E+00  0.26199390501E+00  0.35597787947E+00  0.17130067897E+03  0.17130000000E+03 0. -1.
      622    1    1    2    0    0 -0.17526214451E+00 -0.14226933373E+00  0.36765318593E+01  0.38739958564E+01  0.12000000000E+01 0.  1.
</event>
<event>
 5   0  0.5136900E+01  0.9118800E+02  0.7818608E-02  0.1180000E+00
       11   -1    0    0    0    0  0.00000000000E+00  0.00000000000E+00  0.39999999673E+01  0.40000000000E+01  0.51109989000E-03 0.  1.
     -623   -1    0    0    0    0  0.00000000000E+00  0.00000000000E+00  0.12525980253E-10  0.17130000000E+03  0.17130000000E+03 0.  1.
       11    1    1    2    0    0  0.36176999956E-02 -0.15158859368E-02 -0.22887652142E-01  0.23226956475E-01  0.51109989000E-03 0.  1.
     -623    1    1    2    0    0  0.12960913541E+00 -0.23709700701E+00  0.24175198748E+00  0.17130038371E+03  0.17130000000E+03 0.  1.
      622    1    1    2    0    0 -0.13322683541E+00  0.23861289295E+00  0.37811356320E+01  0.39763893383E+01  0.12000000000E+01 0.  1.
</event>
<event>
 5   0  0.5136900E+01  0.9118800E+02  0.7818608E-02  0.1180000E+00
       11   -1    0    0    0    0  0.00000000000E+00  0.00000000000E+00  0.39999999673E+01  0.40000000000E+01  0.51109989000E-03 0. -1.
     -623   -1    0    0    0    0  0.00000000000E+00  0.00000000000E+00  0.12525980253E-10  0.17130000000E+03  0.17130000000E+03 0.  1.
       11    1    1    2    0    0 -0.23098436441E+00 -0.95451368538E-01 -0.70010807648E-02  0.25002803186E+00  0.51109989000E-03 0. -1.
     -623    1    1    2    0    0  0.32474104327E+00  0.27124721281E-01  0.45708083641E+00  0.17130091977E+03  0.17130000000E+03 0.  1.
      622    1    1    2    0    0 -0.93756678856E-01  0.68326647256E-01  0.35499202117E+01  0.37490521942E+01  0.12000000000E+01 0. -1.
</event>
<event>
 5   0  0.5136900E+01  0.9118800E+02  0.7818608E-02  0.1180000E+00
       11   -1    0    0    0    0  0.00000000000E+00  0.00000000000E+00  0.39999999673E+01  0.40000000000E+01  0.51109989000E-03 0.  1.
     -623   -1    0    0    0    0  0.00000000000E+00  0.00000000000E+00  0.12525980253E-10  0.17130000000E+03  0.17130000000E+03 0. -1.
       11    1    1    2    0    0  0.88189468671E-01  0.21881269112E+00  0.28376554598E+00  0.36902509736E+00  0.51109989000E-03 0.  1.
     -623    1    1    2    0    0 -0.19494923967E+00 -0.39861333766E+00  0.29655375613E+00  0.17130083141E+03  0.17130000000E+03 0. -1.
      622    1    1    2    0    0  0.10675977100E+00  0.17980064655E+00  0.34196806652E+01  0.36301434921E+01  0.12000000000E+01 0.  1.
</event>
<event>
 5   0  0.5136900E+01  0.9118800E+02  0.7818608E-02  0.1180000E+00
       11   -1    0    0    0    0  0.00000000000E+00  0.00000000000E+00  0.39999999673E+01  0.40000000000E+01  0.51109989000E-03 0.  1.
     -623   -1    0    0    0    0  0.00000000000E+00  0.00000000000E+00  0.12525980253E-10  0.17130000000E+03  0.17130000000E+03 0. -1.
       11    1    1    2    0    0 -0.13924655598E+00 -0.29665201479E+00  0.33974749520E+00  0.47203881509E+00  0.51109989000E-03 0.  1.
     -623    1    1    2    0    0  0.15133038996E+00  0.35566959760E+00  0.34402461738E+00  0.17130078154E+03  0.17130000000E+03 0. -1.
      622    1    1    2    0    0 -0.12083833980E-01 -0.59017582805E-01  0.33162278548E+01  0.35271796494E+01  0.12000000000E+01 0.  1.
</event>
<event>
 5   0  0.5136900E+01  0.9118800E+02  0.7818608E-02  0.1180000E+00
       11   -1    0    0    0    0  0.00000000000E+00  0.00000000000E+00  0.39999999673E+01  0.40000000000E+01  0.51109989000E-03 0. -1.
     -623   -1    0    0    0    0  0.00000000000E+00  0.00000000000E+00  0.12525980253E-10  0.17130000000E+03  0.17130000000E+03 0.  1.
       11    1    1    2    0    0  0.46745353047E-01 -0.37039926758E+00  0.40504772362E+00  0.55085811702E+00  0.51109989000E-03 0. -1.
     -623    1    1    2    0    0  0.14648034526E+00  0.20937314991E+00  0.37172131610E+00  0.17130059390E+03  0.17130000000E+03 0.  1.
      622    1    1    2    0    0 -0.19322569831E+00  0.16102611767E+00  0.32232309276E+01  0.34485479834E+01  0.12000000000E+01 0. -1.
</event>
<event>
 5   0  0.5136900E+01  0.9118800E+02  0.7818608E-02  0.1180000E+00
       11   -1    0    0    0    0  0.00000000000E+00  0.00000000000E+00  0.39999999673E+01  0.40000000000E+01  0.51109989000E-03 0.  1.
     -623   -1    0    0    0    0  0.00000000000E+00  0.00000000000E+00  0.12525980253E-10  0.17130000000E+03  0.17130000000E+03 0. -1.
       11    1    1    2    0    0  0.16411878220E-01  0.11922908139E+00  0.10096550235E+00  0.15709620455E+00  0.51109989000E-03 0.  1.
     -623    1    1    2    0    0  0.95122284244E-02 -0.14173542879E+00  0.24870698651E+00  0.17130023945E+03  0.17130000000E+03 0. -1.
      622    1    1    2    0    0 -0.25924106645E-01  0.22506347393E-01  0.36503274785E+01  0.38426643485E+01  0.12000000000E+01 0.  1.
</event>
<event>
 5   0  0.5136900E+01  0.9118800E+02  0.7818608E-02  0.1180000E+00
       11   -1    0    0    0    0  0.00000000000E+00  0.00000000000E+00  0.39999999673E+01  0.40000000000E+01  0.51109989000E-03 0. -1.
     -623   -1    0    0    0    0  0.00000000000E+00  0.00000000000E+00  0.12525980253E-10  0.17130000000E+03  0.17130000000E+03 0.  1.
       11    1    1    2    0    0 -0.90982881111E-01  0.10416030230E+00  0.32540427953E+00  0.35357525308E+00  0.51109989000E-03 0. -1.
     -623    1    1    2    0    0  0.36127967611E+00 -0.73315291700E-02  0.24386222052E+00  0.17130055471E+03  0.17130000000E+03 0.  1.
      622    1    1    2    0    0 -0.27029679500E+00 -0.96828773132E-01  0.34307334673E+01  0.36458700323E+01  0.12000000000E+01 0. -1.
</event>
<event>
 5   0  0.5136900E+01  0.9118800E+02  0.7818608E-02  0.1180000E+00
       11   -1    0    0    0    0  0.00000000000E+00  0.00000000000E+00  0.39999999673E+01  0.40000000000E+01  0.51109989000E-03 0. -1.
     -623   -1    0    0    0    0  0.00000000000E+00  0.00000000000E+00  0.12525980253E-10  0.17130000000E+03  0.17130000000E+03 0. -1.
       11    1    1    2    0    0  0.28500352077E+00  0.53443977664E-01  0.82233185445E+00  0.87195940597E+00  0.51109989000E-03 0. -1.
     -623    1    1    2    0    0 -0.23183970804E+00  0.20921571186E+00  0.30201595063E+00  0.17130055089E+03  0.17130000000E+03 0. -1.
      622    1    1    2    0    0 -0.53163812723E-01 -0.26265968952E+00  0.28756521623E+01  0.31274897061E+01  0.12000000000E+01 0. -1.
</event>
<event>
 5   0  0.5136900E+01  0.9118800E+02  0.7818608E-02  0.1180000E+00
       11   -1    0    0    0    0  0.00000000000E+00  0.00000000000E+00  0.39999999673E+01  0.40000000000E+01  0.51109989000E-03 0. -1.
     -623   -1    0    0    0    0  0.00000000000E+00  0.00000000000E+00  0.12525980253E-10  0.17130000000E+03  0.17130000000E+03 0.  1.
       11    1    1    2    0    0 -0.17363552908E-01  0.42903302918E-01  0.84891178116E-01  0.96690018698E-01  0.51109989000E-03 0. -1.
     -623    1    1    2    0    0 -0.11803641334E+00  0.22531171796E+00  0.21334636127E+00  0.17130032170E+03  0.17130000000E+03 0.  1.
      622    1    1    2    0    0  0.13539996625E+00 -0.26821502088E+00  0.37017624280E+01  0.39029882810E+01  0.12000000000E+01 0.  0.
</event>
<event>
 5   0  0.5136900E+01  0.9118800E+02  0.7818608E-02  0.1180000E+00
       11   -1    0    0    0    0  0.00000000000E+00  0.00000000000E+00  0.39999999673E+01  0.40000000000E+01  0.51109989000E-03 0. -1.
     -623   -1    0    0    0    0  0.00000000000E+00  0.00000000000E+00  0.12525980253E-10  0.17130000000E+03  0.17130000000E+03 0. -1.
       11    1    1    2    0    0 -0.21662570731E+00  0.66984507383E-02  0.71466945191E+00  0.74680938199E+00  0.51109989000E-03 0. -1.
     -623    1    1    2    0    0  0.15604787105E+00  0.35078072958E-02  0.26246689594E+00  0.17130027219E+03  0.17130000000E+03 0. -1.
      622    1    1    2    0    0  0.60577836268E-01 -0.10206258034E-01  0.30228636195E+01  0.32529184287E+01  0.12000000000E+01 0. -1.
</event>
<event>
 5   0  0.5136900E+01  0.9118800E+02  0.7818608E-02  0.1180000E+00
       11   -1    0    0    0    0  0.00000000000E+00  0.00000000000E+00  0.39999999673E+01  0.40000000000E+01  0.51109989000E-03 0. -1.
     -623   -1    0    0    0    0  0.00000000000E+00  0.00000000000E+00  0.12525980253E-10  0.17130000000E+03  0.17130000000E+03 0. -1.
       11    1    1    2    0    0 -0.28117544177E-02  0.15799586696E-01 -0.76639218431E-01  0.78303026298E-01  0.51109989000E-03 0. -1.
     -623    1    1    2    0    0  0.17976262302E+00 -0.13955979156E+00  0.34983200983E+00  0.17130050839E+03  0.17130000000E+03 0. -1.
      622    1    1    2    0    0 -0.17695086861E+00  0.12376020487E+00  0.37268071760E+01  0.39211885857E+01  0.12000000000E+01 0. -1.
</event>
<event>
 5   0  0.5136900E+01  0.9118800E+02  0.7818608E-02  0.1180000E+00
       11   -1    0    0    0    0  0.00000000000E+00  0.00000000000E+00  0.39999999673E+01  0.40000000000E+01  0.51109989000E-03 0.  1.
     -623   -1    0    0    0    0  0.00000000000E+00  0.00000000000E+00  0.12525980253E-10  0.17130000000E+03  0.17130000000E+03 0.  1.
       11    1    1    2    0    0 -0.12586240265E-01 -0.12703041002E-01 -0.26845198032E-01  0.32259984106E-01  0.51109989000E-03 0.  1.
     -623    1    1    2    0    0  0.17904140237E-01  0.16161499720E+00  0.24812588502E+00  0.17130025688E+03  0.17130000000E+03 0.  1.
      622    1    1    2    0    0 -0.53178999718E-02 -0.14891195620E+00  0.37787192804E+01  0.39674831380E+01  0.12000000000E+01 0.  1.
</event>
<event>
 5   0  0.5136900E+01  0.9118800E+02  0.7818608E-02  0.1180000E+00
       11   -1    0    0    0    0  0.00000000000E+00  0.00000000000E+00  0.39999999673E+01  0.40000000000E+01  0.51109989000E-03 0.  1.
     -623   -1    0    0    0    0  0.00000000000E+00  0.00000000000E+00  0.12525980253E-10  0.17130000000E+03  0.17130000000E+03 0. -1.
       11    1    1    2    0    0  0.15890045232E+00  0.12648573112E+00  0.28546694482E+00  0.35034216380E+00  0.51109989000E-03 0.  1.
     -623    1    1    2    0    0 -0.20525990914E+00 -0.56369794369E-01  0.26918429632E+00  0.17130034375E+03  0.17130000000E+03 0. -1.
      622    1    1    2    0    0  0.46359456823E-01 -0.70115936751E-01  0.34453487262E+01  0.36493140847E+01  0.12000000000E+01 0.  1.
</event>
<event>
 5   0  0.5136900E+01  0.9118800E+02  0.7818608E-02  0.1180000E+00
       11   -1    0    0    0    0  0.00000000000E+00  0.00000000000E+00  0.39999999673E+01  0.40000000000E+01  0.51109989000E-03 0.  1.
     -623   -1    0    0    0    0  0.00000000000E+00  0.00000000000E+00  0.12525980253E-10  0.17130000000E+03  0.17130000000E+03 0.  1.
       11    1    1    2    0    0 -0.11188518246E+00  0.75292186672E-01  0.35702977112E+00  0.38165131484E+00  0.51109989000E-03 0.  1.
     -623    1    1    2    0    0  0.61828207337E-01  0.43745302858E-01  0.23202996906E+00  0.17130017389E+03  0.17130000000E+03 0.  1.
      622    1    1    2    0    0  0.50056975127E-01 -0.11903748953E+00  0.34109402272E+01  0.36181747965E+01  0.12000000000E+01 0.  1.
</event>
<event>
 5   0  0.5136900E+01  0.9118800E+02  0.7818608E-02  0.1180000E+00
       11   -1    0    0    0    0  0.00000000000E+00  0.00000000000E+00  0.39999999673E+01  0.40000000000E+01  0.51109989000E-03 0.  1.
     -623   -1    0    0    0    0  0.00000000000E+00  0.00000000000E+00  0.12525980253E-10  0.17130000000E+03  0.17130000000E+03 0.  1.
       11    1    1    2    0    0  0.17449992801E+00 -0.70274439574E-01  0.73336111046E+00  0.75710468318E+00  0.51109989000E-03 0.  1.
     -623    1    1    2    0    0  0.90193763540E-01  0.36019841526E+00  0.28031099353E+00  0.17130063179E+03  0.17130000000E+03 0.  1.
      622    1    1    2    0    0 -0.26469369155E+00 -0.28992397569E+00  0.29863278634E+01  0.32422635256E+01  0.12000000000E+01 0.  1.
</event>
<event>
 5   0  0.5136900E+01  0.9118800E+02  0.7818608E-02  0.1180000E+00
       11   -1    0    0    0    0  0.00000000000E+00  0.00000000000E+00  0.39999999673E+01  0.40000000000E+01  0.51109989000E-03 0.  1.
     -623   -1    0    0    0    0  0.00000000000E+00  0.00000000000E+00  0.12525980253E-10  0.17130000000E+03  0.17130000000E+03 0. -1.
       11    1    1    2    0    0 -0.12922973480E+00  0.44983091913E-01  0.99489670810E-01  0.16918114179E+00  0.51109989000E-03 0.  1.
     -623    1    1    2    0    0  0.16390153212E+00 -0.23464568065E-01  0.26301831763E+00  0.17130028194E+03  0.17130000000E+03 0. -1.
      622    1    1    2    0    0 -0.34671797322E-01 -0.21518523847E-01  0.36374919789E+01  0.38305369176E+01  0.12000000000E+01 0.  1.
</event>
<event>
 5   0  0.5136900E+01  0.9118800E+02  0.7818608E-02  0.1180000E+00
       11   -1    0    0    0    0  0.00000000000E+00  0.00000000000E+00  0.39999999673E+01  0.40000000000E+01  0.51109989000E-03 0.  1.
     -623   -1    0    0    0    0  0.00000000000E+00  0.00000000000E+00  0.12525980253E-10  0.17130000000E+03  0.17130000000E+03 0.  1.
       11    1    1    2    0    0  0.11195137450E+00 -0.27333479286E+00  0.84053447807E-01  0.30709975994E+00  0.51109989000E-03 0.  1.
     -623    1    1    2    0    0 -0.88348011584E-01  0.39655476515E+00  0.42677929091E+00  0.17130101343E+03  0.17130000000E+03 0.  1.
      622    1    1    2    0    0 -0.23603362915E-01 -0.12321997229E+00  0.34891672286E+01  0.36918868116E+01  0.12000000000E+01 0.  1.
</event>
<event>
 5   0  0.5136900E+01  0.9118800E+02  0.7818608E-02  0.1180000E+00
       11   -1    0    0    0    0  0.00000000000E+00  0.00000000000E+00  0.39999999673E+01  0.40000000000E+01  0.51109989000E-03 0. -1.
     -623   -1    0    0    0    0  0.00000000000E+00  0.00000000000E+00  0.12525980253E-10  0.17130000000E+03  0.17130000000E+03 0. -1.
       11    1    1    2    0    0 -0.77262192406E-01  0.16103238857E+00  0.12303171726E+00  0.21688232113E+00  0.51109989000E-03 0. -1.
     -623    1    1    2    0    0 -0.13702203819E+00  0.15666113167E+00  0.31016978287E+00  0.17130040725E+03  0.17130000000E+03 0. -1.
      622    1    1    2    0    0  0.21428423060E+00 -0.31769352024E+00  0.35667984672E+01  0.37827104317E+01  0.12000000000E+01 0. -1.
</event>
<event>
 5   0  0.5136900E+01  0.9118800E+02  0.7818608E-02  0.1180000E+00
       11   -1    0    0    0    0  0.00000000000E+00  0.00000000000E+00  0.39999999673E+01  0.40000000000E+01  0.51109989000E-03 0. -1.
     -623   -1    0    0    0    0  0.00000000000E+00  0.00000000000E+00  0.12525980253E-10  0.17130000000E+03  0.17130000000E+03 0.  1.
       11    1    1    2    0    0 -0.97712934175E-01 -0.12695706006E-02  0.28798340029E+00  0.30411203426E+00  0.51109989000E-03 0. -1.
     -623    1    1    2    0    0  0.74747163422E-01  0.63883465177E-01  0.21717554848E+00  0.17130016589E+03  0.17130000000E+03 0.  1.
      622    1    1    2    0    0  0.22965770752E-01 -0.62613894577E-01  0.34948410186E+01  0.36957220772E+01  0.12000000000E+01 0. -1.
</event>
<event>
 5   0  0.5136900E+01  0.9118800E+02  0.7818608E-02  0.1180000E+00
       11   -1    0    0    0    0  0.00000000000E+00  0.00000000000E+00  0.39999999673E+01  0.40000000000E+01  0.51109989000E-03 0. -1.
     -623   -1    0    0    0    0  0.00000000000E+00  0.00000000000E+00  0.12525980253E-10  0.17130000000E+03  0.17130000000E+03 0.  1.
       11    1    1    2    0    0 -0.12643377109E-01  0.20859270628E+00  0.32028996550E-01  0.21141638996E+00  0.51109989000E-03 0. -1.
     -623    1    1    2    0    0 -0.22229345866E+00  0.66723043129E-01  0.39337192158E+00  0.17130060890E+03  0.17130000000E+03 0.  1.
      622    1    1    2    0    0  0.23493683577E+00 -0.27531574941E+00  0.35745990492E+01  0.37879747150E+01  0.12000000000E+01 0. -1.
</event>
<event>
 5   0  0.5136900E+01  0.9118800E+02  0.7818608E-02  0.1180000E+00
       11   -1    0    0    0    0  0.00000000000E+00  0.00000000000E+00  0.39999999673E+01  0.40000000000E+01  0.51109989000E-03 0.  1.
     -623   -1    0    0    0    0  0.00000000000E+00  0.00000000000E+00  0.12525980253E-10  0.17130000000E+03  0.17130000000E+03 0.  1.
       11    1    1    2    0    0  0.17343613791E+00  0.15383676456E+00  0.34947735525E+00  0.41938112394E+00  0.51109989000E-03 0.  1.
     -623    1    1    2    0    0 -0.20144774510E+00 -0.16545653166E+00  0.27755933809E+00  0.17130042322E+03  0.17130000000E+03 0.  1.
      622    1    1    2    0    0  0.28011607188E-01  0.11619767107E-01  0.33729632740E+01  0.35801956534E+01  0.12000000000E+01 0.  1.
</event>
<event>
 5   0  0.5136900E+01  0.9118800E+02  0.7818608E-02  0.1180000E+00
       11   -1    0    0    0    0  0.00000000000E+00  0.00000000000E+00  0.39999999673E+01  0.40000000000E+01  0.51109989000E-03 0.  1.
     -623   -1    0    0    0    0  0.00000000000E+00  0.00000000000E+00  0.12525980253E-10  0.17130000000E+03  0.17130000000E+03 0. -1.
       11    1    1    2    0    0 -0.52991195179E-01  0.31604523271E+00  0.43005102133E+00  0.53631781441E+00  0.51109989000E-03 0.  1.
     -623    1    1    2    0    0  0.46265236021E+00 -0.40079533739E-01  0.35963115373E+00  0.17130100697E+03  0.17130000000E+03 0. -1.
      622    1    1    2    0    0 -0.40966116503E+00 -0.27596569897E+00  0.32103177923E+01  0.34626752179E+01  0.12000000000E+01 0.  1.
</event>
<event>
 5   0  0.5136900E+01  0.9118800E+02  0.7818608E-02  0.1180000E+00
       11   -1    0    0    0    0  0.00000000000E+00  0.00000000000E+00  0.39999999673E+01  0.40000000000E+01  0.51109989000E-03 0.  1.
     -623   -1    0    0    0    0  0.00000000000E+00  0.00000000000E+00  0.12525980253E-10  0.17130000000E+03  0.17130000000E+03 0.  1.
       11    1    1    2    0    0 -0.29971418712E-01 -0.47028426582E-01  0.17900682209E+00  0.18749309967E+00  0.51109989000E-03 0.  1.
     -623    1    1    2    0    0  0.74051311601E-01 -0.48751422027E-01  0.20395134960E+00  0.17130014436E+03  0.17130000000E+03 0.  1.
      622    1    1    2    0    0 -0.44079892889E-01  0.95779848609E-01  0.36170417957E+01  0.38123625441E+01  0.12000000000E+01 0.  1.
</event>
<event>
 5   0  0.5136900E+01  0.9118800E+02  0.7818608E-02  0.1180000E+00
       11   -1    0    0    0    0  0.00000000000E+00  0.00000000000E+00  0.39999999673E+01  0.40000000000E+01  0.51109989000E-03 0. -1.
     -623   -1    0    0    0    0  0.00000000000E+00  0.00000000000E+00  0.12525980253E-10  0.17130000000E+03  0.17130000000E+03 0.  1.
       11    1    1    2    0    0  0.25009135123E-01 -0.38203648554E-01 -0.45986199361E-02  0.45895360668E-01  0.51109989000E-03 0. -1.
     -623    1    1    2    0    0 -0.63428586212E-02  0.17638108160E+00  0.23983360711E+00  0.17130025882E+03  0.17130000000E+03 0.  1.
      622    1    1    2    0    0 -0.18666276501E-01 -0.13817743304E+00  0.37647649802E+01  0.39538458226E+01  0.12000000000E+01 0. -1.
</event>
<event>
 5   0  0.5136900E+01  0.9118800E+02  0.7818608E-02  0.1180000E+00
       11   -1    0    0    0    0  0.00000000000E+00  0.00000000000E+00  0.39999999673E+01  0.40000000000E+01  0.51109989000E-03 0.  1.
     -623   -1    0    0    0    0  0.00000000000E+00  0.00000000000E+00  0.12525980253E-10  0.17130000000E+03  0.17130000000E+03 0. -1.
       11    1    1    2    0    0  0.25304928735E+00  0.11693442870E+00  0.46507534877E-01  0.28261425030E+00  0.51109989000E-03 0.  1.
     -623    1    1    2    0    0 -0.28736422532E+00 -0.25238029888E+00  0.43893992636E+00  0.17130098932E+03  0.17130000000E+03 0. -1.
      622    1    1    2    0    0  0.34314937961E-01  0.13544587018E+00  0.35145525061E+01  0.37163964289E+01  0.12000000000E+01 0.  1.
</event>
<event>
 5   0  0.5136900E+01  0.9118800E+02  0.7818608E-02  0.1180000E+00
       11   -1    0    0    0    0  0.00000000000E+00  0.00000000000E+00  0.39999999673E+01  0.40000000000E+01  0.51109989000E-03 0.  1.
     -623   -1    0    0    0    0  0.00000000000E+00  0.00000000000E+00  0.12525980253E-10  0.17130000000E+03  0.17130000000E+03 0. -1.
       11    1    1    2    0    0  0.93980978546E-01  0.11435663609E+00  0.50380191287E+00  0.52509665128E+00  0.51109989000E-03 0.  1.
     -623    1    1    2    0    0 -0.92011367095E-01 -0.74897731063E-01  0.23552609621E+00  0.17130020300E+03  0.17130000000E+03 0. -1.
      622    1    1    2    0    0 -0.19696114510E-02 -0.39458905027E-01  0.32606719583E+01  0.34747003474E+01  0.12000000000E+01 0.  1.
</event>
<event>
 5   0  0.5136900E+01  0.9118800E+02  0.7818608E-02  0.1180000E+00
       11   -1    0    0    0    0  0.00000000000E+00  0.00000000000E+00  0.39999999673E+01  0.40000000000E+01  0.51109989000E-03 0. -1.
     -623   -1    0    0    0    0  0.00000000000E+00  0.00000000000E+00  0.12525980253E-10  0.17130000000E+03  0.17130000000E+03 0. -1.
       11    1    1    2    0    0  0.10375987780E+00 -0.32183565385E-01  0.24721074156E+00  0.27002834312E+00  0.51109989000E-03 0. -1.
     -623    1    1    2    0    0  0.47004840786E-01  0.57623063926E-01  0.22460377791E+00  0.17130016339E+03  0.17130000000E+03 0. -1.
      622    1    1    2    0    0 -0.15076471859E+00 -0.25439498541E-01  0.35281854479E+01  0.37298082690E+01  0.12000000000E+01 0. -1.
</event>
<event>
 5   0  0.5136900E+01  0.9118800E+02  0.7818608E-02  0.1180000E+00
       11   -1    0    0    0    0  0.00000000000E+00  0.00000000000E+00  0.39999999673E+01  0.40000000000E+01  0.51109989000E-03 0. -1.
     -623   -1    0    0    0    0  0.00000000000E+00  0.00000000000E+00  0.12525980253E-10  0.17130000000E+03  0.17130000000E+03 0. -1.
       11    1    1    2    0    0 -0.33388596578E+00 -0.35213037399E-01  0.23060098301E+00  0.40730439567E+00  0.51109989000E-03 0. -1.
     -623    1    1    2    0    0  0.20331609319E+00  0.16615046389E+00  0.38876987913E+00  0.17130064240E+03  0.17130000000E+03 0. -1.
      622    1    1    2    0    0  0.13056987259E+00 -0.13093742649E+00  0.33806291052E+01  0.35920532079E+01  0.12000000000E+01 0. -1.
</event>
<event>
 5   0  0.5136900E+01  0.9118800E+02  0.7818608E-02  0.1180000E+00
       11   -1    0    0    0    0  0.00000000000E+00  0.00000000000E+00  0.39999999673E+01  0.40000000000E+01  0.51109989000E-03 0. -1.
     -623   -1    0    0    0    0  0.00000000000E+00  0.00000000000E+00  0.12525980253E-10  0.17130000000E+03  0.17130000000E+03 0.  1.
       11    1    1    2    0    0 -0.31646787300E+00  0.16271700657E-01  0.12236371017E+00  0.33969077360E+00  0.51109989000E-03 0. -1.
     -623    1    1    2    0    0 -0.25044982559E-01 -0.30440954333E+00  0.44953204383E+00  0.17130086214E+03  0.17130000000E+03 0.  1.
      622    1    1    2    0    0  0.34151285556E+00  0.28813784267E+00  0.34281042134E+01  0.36594470818E+01  0.12000000000E+01 0. -1.
</event>
<event>
 5   0  0.5136900E+01  0.9118800E+02  0.7818608E-02  0.1180000E+00
       11   -1    0    0    0    0  0.00000000000E+00  0.00000000000E+00  0.39999999673E+01  0.40000000000E+01  0.51109989000E-03 0.  1.
     -623   -1    0    0    0    0  0.00000000000E+00  0.00000000000E+00  0.12525980253E-10  0.17130000000E+03  0.17130000000E+03 0. -1.
       11    1    1    2    0    0  0.53997373756E-01 -0.45069017444E-01  0.20201838989E+00  0.21391265456E+00  0.51109989000E-03 0.  1.
     -623    1    1    2    0    0  0.74080685672E-01  0.10022866163E+00  0.20998869598E+00  0.17130017405E+03  0.17130000000E+03 0. -1.
      622    1    1    2    0    0 -0.12807805943E+00 -0.55159644188E-01  0.35879928815E+01  0.37859132971E+01  0.12000000000E+01 0.  1.
</event>
<event>
 5   0  0.5136900E+01  0.9118800E+02  0.7818608E-02  0.1180000E+00
       11   -1    0    0    0    0  0.00000000000E+00  0.00000000000E+00  0.39999999673E+01  0.40000000000E+01  0.51109989000E-03 0.  1.
     -623   -1    0    0    0    0  0.00000000000E+00  0.00000000000E+00  0.12525980253E-10  0.17130000000E+03  0.17130000000E+03 0.  1.
       11    1    1    2    0    0 -0.17970251114E-01 -0.53983020668E-01  0.12256825396E+00  0.13513080532E+00  0.51109989000E-03 0.  1.
     -623    1    1    2    0    0  0.10942460101E+00  0.62396774143E+00  0.25065664379E+00  0.17130135475E+03  0.17130000000E+03 0.  1.
      622    1    1    2    0    0 -0.91454349895E-01 -0.56998472076E+00  0.36267750696E+01  0.38635144474E+01  0.12000000000E+01 0.  1.
</event>
<event>
 5   0  0.5136900E+01  0.9118800E+02  0.7818608E-02  0.1180000E+00
       11   -1    0    0    0    0  0.00000000000E+00  0.00000000000E+00  0.39999999673E+01  0.40000000000E+01  0.51109989000E-03 0.  1.
     -623   -1    0    0    0    0  0.00000000000E+00  0.00000000000E+00  0.12525980253E-10  0.17130000000E+03  0.17130000000E+03 0. -1.
       11    1    1    2    0    0  0.10917398271E+00  0.74807846415E-01  0.17306511648E+00  0.21786915374E+00  0.51109989000E-03 0.  1.
     -623    1    1    2    0    0 -0.10909720702E+00 -0.13235156122E+00  0.24095226402E+00  0.17130025533E+03  0.17130000000E+03 0. -1.
      622    1    1    2    0    0 -0.76775688094E-04  0.57543714806E-01  0.35859825869E+01  0.37818755133E+01  0.12000000000E+01 0.  1.
</event>
<event>
 5   0  0.5136900E+01  0.9118800E+02  0.7818608E-02  0.1180000E+00
       11   -1    0    0    0    0  0.00000000000E+00  0.00000000000E+00  0.39999999673E+01  0.40000000000E+01  0.51109989000E-03 0.  1.
     -623   -1    0    0    0    0  0.00000000000E+00  0.00000000000E+00  0.12525980253E-10  0.17130000000E+03  0.17130000000E+03 0. -1.
       11    1    1    2    0    0 -0.60667276909E-01  0.50800636156E-01 -0.33484222023E-01  0.85922508512E-01  0.51109989000E-03 0.  1.
     -623    1    1    2    0    0  0.22563352808E+00 -0.13644634888E+00  0.31305062679E+00  0.17130048899E+03  0.17130000000E+03 0. -1.
      622    1    1    2    0    0 -0.16496625117E+00  0.85645712719E-01  0.37204335626E+01  0.39135884998E+01  0.12000000000E+01 0.  1.
</event>
<event>
 5   0  0.5136900E+01  0.9118800E+02  0.7818608E-02  0.1180000E+00
       11   -1    0    0    0    0  0.00000000000E+00  0.00000000000E+00  0.39999999673E+01  0.40000000000E+01  0.51109989000E-03 0.  1.
     -623   -1    0    0    0    0  0.00000000000E+00  0.00000000000E+00  0.12525980253E-10  0.17130000000E+03  0.17130000000E+03 0.  1.
       11    1    1    2    0    0  0.45844850846E-01 -0.23290132499E-01  0.57543280965E+00  0.57772602526E+00  0.51109989000E-03 0.  1.
     -623    1    1    2    0    0 -0.24885122490E+00  0.92118335993E-02  0.22639790156E+00  0.17130033061E+03  0.17130000000E+03 0.  1.
      622    1    1    2    0    0  0.20300637406E+00  0.14078298900E-01  0.31981692562E+01  0.34219433627E+01  0.12000000000E+01 0.  1.
</event>
<event>
 5   0  0.5136900E+01  0.9118800E+02  0.7818608E-02  0.1180000E+00
       11   -1    0    0    0    0  0.00000000000E+00  0.00000000000E+00  0.39999999673E+01  0.40000000000E+01  0.51109989000E-03 0.  1.
     -623   -1    0    0    0    0  0.00000000000E+00  0.00000000000E+00  0.12525980253E-10  0.17130000000E+03  0.17130000000E+03 0. -1.
       11    1    1    2    0    0  0.68916756972E-01 -0.11107680315E+00  0.42024099155E-01  0.13730936502E+00  0.51109989000E-03 0.  1.
     -623    1    1    2    0    0 -0.28138360494E+00  0.21201444104E+00  0.29460410119E+00  0.17130061564E+03  0.17130000000E+03 0. -1.
      622    1    1    2    0    0  0.21246684797E+00 -0.10093763789E+00  0.36633717670E+01  0.38620749956E+01  0.12000000000E+01 0.  1.
</event>
<event>
 5   0  0.5136900E+01  0.9118800E+02  0.7818608E-02  0.1180000E+00
       11   -1    0    0    0    0  0.00000000000E+00  0.00000000000E+00  0.39999999673E+01  0.40000000000E+01  0.51109989000E-03 0.  1.
     -623   -1    0    0    0    0  0.00000000000E+00  0.00000000000E+00  0.12525980253E-10  0.17130000000E+03  0.17130000000E+03 0. -1.
       11    1    1    2    0    0  0.28956880700E+00 -0.33389031694E-01  0.11301441862E+01  0.11671294119E+01  0.51109989000E-03 0.  1.
     -623    1    1    2    0    0 -0.13249805496E+00 -0.29907124926E+00  0.33088452962E+00  0.17130063188E+03  0.17130000000E+03 0. -1.
      622    1    1    2    0    0 -0.15707075204E+00  0.33246028095E+00  0.25389712516E+01  0.28322387039E+01  0.12000000000E+01 0.  1.
</event>
<event>
 5   0  0.5136900E+01  0.9118800E+02  0.7818608E-02  0.1180000E+00
       11   -1    0    0    0    0  0.00000000000E+00  0.00000000000E+00  0.39999999673E+01  0.40000000000E+01  0.51109989000E-03 0.  1.
     -623   -1    0    0    0    0  0.00000000000E+00  0.00000000000E+00  0.12525980253E-10  0.17130000000E+03  0.17130000000E+03 0.  1.
       11    1    1    2    0    0  0.66705927273E-02 -0.36043569119E-01  0.48263925011E-03  0.36662376417E-01  0.51109989000E-03 0.  1.
     -623    1    1    2    0    0 -0.60844413120E-02 -0.76574354158E-02  0.22261566180E+00  0.17130014493E+03  0.17130000000E+03 0.  1.
      622    1    1    2    0    0 -0.58615141522E-03  0.43701004534E-01  0.37769016663E+01  0.39631926926E+01  0.12000000000E+01 0.  1.
</event>
<event>
 5   0  0.5136900E+01  0.9118800E+02  0.7818608E-02  0.1180000E+00
       11   -1    0    0    0    0  0.00000000000E+00  0.00000000000E+00  0.39999999673E+01  0.40000000000E+01  0.51109989000E-03 0.  1.
     -623   -1    0    0    0    0  0.00000000000E+00  0.00000000000E+00  0.12525980253E-10  0.17130000000E+03  0.17130000000E+03 0.  1.
       11    1    1    2    0    0  0.22078843682E+00  0.12770447633E+00  0.37455371069E+00  0.45315197288E+00  0.51109989000E-03 0.  1.
     -623    1    1    2    0    0 -0.21453574395E+00  0.48488057913E-01  0.29283903038E+00  0.17130039151E+03  0.17130000000E+03 0.  1.
      622    1    1    2    0    0 -0.62526928676E-02 -0.17619253424E+00  0.33326072263E+01  0.35464565174E+01  0.12000000000E+01 0.  1.
</event>
<event>
 5   0  0.5136900E+01  0.9118800E+02  0.7818608E-02  0.1180000E+00
       11   -1    0    0    0    0  0.00000000000E+00  0.00000000000E+00  0.39999999673E+01  0.40000000000E+01  0.51109989000E-03 0.  1.
     -623   -1    0    0    0    0  0.00000000000E+00  0.00000000000E+00  0.12525980253E-10  0.17130000000E+03  0.17130000000E+03 0.  1.
       11    1    1    2    0    0  0.37697977633E-01 -0.59077796072E-01  0.31442896417E+00  0.32214462317E+00  0.51109989000E-03 0.  1.
     -623    1    1    2    0    0 -0.30826632301E+00  0.14546059067E-01  0.22026530846E+00  0.17130041960E+03  0.17130000000E+03 0.  1.
      622    1    1    2    0    0  0.27056834538E+00  0.44531737005E-01  0.34653056947E+01  0.36774357728E+01  0.12000000000E+01 0.  1.
</event>
<event>
 5   0  0.5136900E+01  0.9118800E+02  0.7818608E-02  0.1180000E+00
       11   -1    0    0    0    0  0.00000000000E+00  0.00000000000E+00  0.39999999673E+01  0.40000000000E+01  0.51109989000E-03 0. -1.
     -623   -1    0    0    0    0  0.00000000000E+00  0.00000000000E+00  0.12525980253E-10  0.17130000000E+03  0.17130000000E+03 0. -1.
       11    1    1    2    0    0  0.12884031494E+00  0.95306698858E-01  0.30513669155E+00  0.34466194358E+00  0.51109989000E-03 0. -1.
     -623    1    1    2    0    0 -0.11288361597E+00 -0.12588564511E+00  0.24255373017E+00  0.17130025517E+03  0.17130000000E+03 0. -1.
      622    1    1    2    0    0 -0.15956698974E-01  0.30578946254E-01  0.34523095456E+01  0.36550828838E+01  0.12000000000E+01 0. -1.
</event>
<event>
 5   0  0.5136900E+01  0.9118800E+02  0.7818608E-02  0.1180000E+00
       11   -1    0    0    0    0  0.00000000000E+00  0.00000000000E+00  0.39999999673E+01  0.40000000000E+01  0.51109989000E-03 0.  1.
     -623   -1    0    0    0    0  0.00000000000E+00  0.00000000000E+00  0.12525980253E-10  0.17130000000E+03  0.17130000000E+03 0. -1.
       11    1    1    2    0    0  0.92340672089E-01 -0.34835922309E-01  0.56880658026E+00  0.57730540286E+00  0.51109989000E-03 0.  1.
     -623    1    1    2    0    0 -0.27675884449E+00 -0.79666821502E-01  0.23354260980E+00  0.17130040130E+03  0.17130000000E+03 0. -1.
      622    1    1    2    0    0  0.18441817240E+00  0.11450274381E+00  0.31976507773E+01  0.34222933004E+01  0.12000000000E+01 0.  1.
</event>
<event>
 5   0  0.5136900E+01  0.9118800E+02  0.7818608E-02  0.1180000E+00
       11   -1    0    0    0    0  0.00000000000E+00  0.00000000000E+00  0.39999999673E+01  0.40000000000E+01  0.51109989000E-03 0.  1.
     -623   -1    0    0    0    0  0.00000000000E+00  0.00000000000E+00  0.12525980253E-10  0.17130000000E+03  0.17130000000E+03 0. -1.
       11    1    1    2    0    0  0.19795264695E+00 -0.14996825616E-01  0.39268423244E-01  0.20236705636E+00  0.51109989000E-03 0.  1.
     -623    1    1    2    0    0 -0.28502334880E+00  0.42658863874E+00  0.38359150300E+00  0.17130119777E+03  0.17130000000E+03 0. -1.
      622    1    1    2    0    0  0.87070701854E-01 -0.41159181312E+00  0.35771400411E+01  0.37964351702E+01  0.12000000000E+01 0.  1.
</event>
<event>
 5   0  0.5136900E+01  0.9118800E+02  0.7818608E-02  0.1180000E+00
       11   -1    0    0    0    0  0.00000000000E+00  0.00000000000E+00  0.39999999673E+01  0.40000000000E+01  0.51109989000E-03 0.  1.
     -623   -1    0    0    0    0  0.00000000000E+00  0.00000000000E+00  0.12525980253E-10  0.17130000000E+03  0.17130000000E+03 0.  1.
       11    1    1    2    0    0  0.27268769031E+00 -0.55236184471E-01  0.17241982132E+00  0.32732013157E+00  0.51109989000E-03 0.  1.
     -623    1    1    2    0    0 -0.94841999542E-01  0.24096775537E+00  0.36663624779E+00  0.17130058810E+03  0.17130000000E+03 0.  1.
      622    1    1    2    0    0 -0.17784569077E+00 -0.18573157090E+00  0.34609438983E+01  0.36720917708E+01  0.12000000000E+01 0.  1.
</event>
<event>
 5   0  0.5136900E+01  0.9118800E+02  0.7818608E-02  0.1180000E+00
       11   -1    0    0    0    0  0.00000000000E+00  0.00000000000E+00  0.39999999673E+01  0.40000000000E+01  0.51109989000E-03 0. -1.
     -623   -1    0    0    0    0  0.00000000000E+00  0.00000000000E+00  0.12525980253E-10  0.17130000000E+03  0.17130000000E+03 0. -1.
       11    1    1    2    0    0  0.22157835333E-01 -0.13226711803E+00  0.81862442547E-01  0.15712186640E+00  0.51109989000E-03 0. -1.
     -623    1    1    2    0    0 -0.59092747674E-01 -0.95531560870E-01  0.27499651464E+00  0.17130025756E+03  0.17130000000E+03 0. -1.
      622    1    1    2    0    0  0.36934912341E-01  0.22779867890E+00  0.36431410102E+01  0.38426205701E+01  0.12000000000E+01 0. -1.
</event>
<event>
 5   0  0.5136900E+01  0.9118800E+02  0.7818608E-02  0.1180000E+00
       11   -1    0    0    0    0  0.00000000000E+00  0.00000000000E+00  0.39999999673E+01  0.40000000000E+01  0.51109989000E-03 0.  1.
     -623   -1    0    0    0    0  0.00000000000E+00  0.00000000000E+00  0.12525980253E-10  0.17130000000E+03  0.17130000000E+03 0. -1.
       11    1    1    2    0    0 -0.42579176231E-01  0.16808076651E+00  0.17396114905E+00  0.24561529456E+00  0.51109989000E-03 0.  1.
     -623    1    1    2    0    0  0.20402331448E+00 -0.10687696260E+00  0.27318134004E+00  0.17130037267E+03  0.17130000000E+03 0. -1.
      622    1    1    2    0    0 -0.16144413824E+00 -0.61203803914E-01  0.35528574783E+01  0.37540120373E+01  0.12000000000E+01 0.  1.
</event>
<event>
 5   0  0.5136900E+01  0.9118800E+02  0.7818608E-02  0.1180000E+00
       11   -1    0    0    0    0  0.00000000000E+00  0.00000000000E+00  0.39999999673E+01  0.40000000000E+01  0.51109989000E-03 0.  1.
     -623   -1    0    0    0    0  0.00000000000E+00  0.00000000000E+00  0.12525980253E-10  0.17130000000E+03  0.17130000000E+03 0. -1.
       11    1    1    2    0    0  0.14161499092E+00  0.87683067165E-01  0.43413888240E-01  0.17212830342E+00  0.51109989000E-03 0.  1.
     -623    1    1    2    0    0 -0.83150867027E-01 -0.73646729081E-01  0.32252683962E+00  0.17130033964E+03  0.17130000000E+03 0. -1.
      622    1    1    2    0    0 -0.58464123898E-01 -0.14036338085E-01  0.36340592395E+01  0.38275320546E+01  0.12000000000E+01 0.  1.
</event>
<event>
 5   0  0.5136900E+01  0.9118800E+02  0.7818608E-02  0.1180000E+00
       11   -1    0    0    0    0  0.00000000000E+00  0.00000000000E+00  0.39999999673E+01  0.40000000000E+01  0.51109989000E-03 0.  1.
     -623   -1    0    0    0    0  0.00000000000E+00  0.00000000000E+00  0.12525980253E-10  0.17130000000E+03  0.17130000000E+03 0.  1.
       11    1    1    2    0    0  0.12818787079E+00 -0.19075190033E+00  0.10124089143E+01  0.10381668886E+01  0.51109989000E-03 0.  1.
     -623    1    1    2    0    0  0.16462280915E+00  0.20556140614E+00  0.29616347578E+00  0.17130045846E+03  0.17130000000E+03 0.  1.
      622    1    1    2    0    0 -0.29281067994E+00 -0.14809505812E-01  0.26914275773E+01  0.29613746503E+01  0.12000000000E+01 0.  1.
</event>
<event>
 5   0  0.5136900E+01  0.9118800E+02  0.7818608E-02  0.1180000E+00
       11   -1    0    0    0    0  0.00000000000E+00  0.00000000000E+00  0.39999999673E+01  0.40000000000E+01  0.51109989000E-03 0. -1.
     -623   -1    0    0    0    0  0.00000000000E+00  0.00000000000E+00  0.12525980253E-10  0.17130000000E+03  0.17130000000E+03 0.  1.
       11    1    1    2    0    0  0.24685176352E-01 -0.53880471849E+00  0.65733261935E+00  0.85029778094E+00  0.51109989000E-03 0. -1.
     -623    1    1    2    0    0  0.50754789359E+00  0.52741265377E+00  0.48205492612E+00  0.17130224209E+03  0.17130000000E+03 0.  1.
      622    1    1    2    0    0 -0.53223306994E+00  0.11392064712E-01  0.28606124219E+01  0.31474601265E+01  0.12000000000E+01 0. -1.
</event>
<event>
 5   0  0.5136900E+01  0.9118800E+02  0.7818608E-02  0.1180000E+00
       11   -1    0    0    0    0  0.00000000000E+00  0.00000000000E+00  0.39999999673E+01  0.40000000000E+01  0.51109989000E-03 0. -1.
     -623   -1    0    0    0    0  0.00000000000E+00  0.00000000000E+00  0.12525980253E-10  0.17130000000E+03  0.17130000000E+03 0. -1.
       11    1    1    2    0    0 -0.43932654381E-01  0.13956036082E+00  0.22971073807E+00  0.27234987945E+00  0.51109989000E-03 0. -1.
     -623    1    1    2    0    0  0.22412125319E+00 -0.22794956085E+00  0.24728758517E+00  0.17130047677E+03  0.17130000000E+03 0. -1.
      622    1    1    2    0    0 -0.18018859881E+00  0.88389200030E-01  0.35230016441E+01  0.37271733480E+01  0.12000000000E+01 0. -1.
</event>
<event>
 5   0  0.5136900E+01  0.9118800E+02  0.7818608E-02  0.1180000E+00
       11   -1    0    0    0    0  0.00000000000E+00  0.00000000000E+00  0.39999999673E+01  0.40000000000E+01  0.51109989000E-03 0. -1.
     -623   -1    0    0    0    0  0.00000000000E+00  0.00000000000E+00  0.12525980253E-10  0.17130000000E+03  0.17130000000E+03 0. -1.
       11    1    1    2    0    0  0.25310615018E+00 -0.45482192664E-01  0.49999144523E+00  0.56224821888E+00  0.51109989000E-03 0. -1.
     -623    1    1    2    0    0 -0.19018076969E+00 -0.26737577189E+00  0.29495134981E+00  0.17130056817E+03  0.17130000000E+03 0. -1.
      622    1    1    2    0    0 -0.62925380483E-01  0.31285796456E+00  0.32050571723E+01  0.34371836127E+01  0.12000000000E+01 0. -1.
</event>
<event>
 5   0  0.5136900E+01  0.9118800E+02  0.7818608E-02  0.1180000E+00
       11   -1    0    0    0    0  0.00000000000E+00  0.00000000000E+00  0.39999999673E+01  0.40000000000E+01  0.51109989000E-03 0.  1.
     -623   -1    0    0    0    0  0.00000000000E+00  0.00000000000E+00  0.12525980253E-10  0.17130000000E+03  0.17130000000E+03 0.  1.
       11    1    1    2    0    0 -0.33566359578E-01  0.97265254463E-01 -0.33869507571E-01  0.10832652024E+00  0.51109989000E-03 0.  1.
     -623    1    1    2    0    0 -0.12187340483E+00 -0.23753416480E+00  0.33832266733E+00  0.17130054214E+03  0.17130000000E+03 0.  1.
      622    1    1    2    0    0  0.15543976440E+00  0.14026891034E+00  0.36955468076E+01  0.38911313387E+01  0.12000000000E+01 0.  1.
</event>
<event>
 5   0  0.5136900E+01  0.9118800E+02  0.7818608E-02  0.1180000E+00
       11   -1    0    0    0    0  0.00000000000E+00  0.00000000000E+00  0.39999999673E+01  0.40000000000E+01  0.51109989000E-03 0.  1.
     -623   -1    0    0    0    0  0.00000000000E+00  0.00000000000E+00  0.12525980253E-10  0.17130000000E+03  0.17130000000E+03 0. -1.
       11    1    1    2    0    0  0.27404799159E+00 -0.10581431805E+00  0.50907976501E+00  0.58775967875E+00  0.51109989000E-03 0.  1.
     -623    1    1    2    0    0  0.90822991942E-01  0.23384832716E+00  0.32065855611E+00  0.17130048382E+03  0.17130000000E+03 0. -1.
      622    1    1    2    0    0 -0.36487098353E+00 -0.12803400911E+00  0.31702616462E+01  0.34117565048E+01  0.12000000000E+01 0.  1.
</event>
<event>
 5   0  0.5136900E+01  0.9118800E+02  0.7818608E-02  0.1180000E+00
       11   -1    0    0    0    0  0.00000000000E+00  0.00000000000E+00  0.39999999673E+01  0.40000000000E+01  0.51109989000E-03 0.  1.
     -623   -1    0    0    0    0  0.00000000000E+00  0.00000000000E+00  0.12525980253E-10  0.17130000000E+03  0.17130000000E+03 0.  1.
       11    1    1    2    0    0  0.47660224097E-02  0.10271875494E+00  0.47958621373E+00  0.49048654946E+00  0.51109989000E-03 0.  1.
     -623    1    1    2    0    0  0.27644229362E-01 -0.15664922377E+00  0.22326557123E+00  0.17130021935E+03  0.17130000000E+03 0.  1.
      622    1    1    2    0    0 -0.32410251772E-01  0.53930468837E-01  0.32971481824E+01  0.35092940966E+01  0.12000000000E+01 0.  1.
</event>
<event>
 5   0  0.5136900E+01  0.9118800E+02  0.7818608E-02  0.1180000E+00
       11   -1    0    0    0    0  0.00000000000E+00  0.00000000000E+00  0.39999999673E+01  0.40000000000E+01  0.51109989000E-03 0.  1.
     -623   -1    0    0    0    0  0.00000000000E+00  0.00000000000E+00  0.12525980253E-10  0.17130000000E+03  0.17130000000E+03 0. -1.
       11    1    1    2    0    0  0.87349879426E-01  0.18594664275E-01  0.51433166762E+00  0.52202786182E+00  0.51109989000E-03 0.  1.
     -623    1    1    2    0    0 -0.10214070150E+00 -0.23315079915E+00  0.22872809334E+00  0.17130034182E+03  0.17130000000E+03 0. -1.
      622    1    1    2    0    0  0.14790822073E-01  0.21455613487E+00  0.32569402064E+01  0.34776303155E+01  0.12000000000E+01 0.  1.
</event>
<event>
 5   0  0.5136900E+01  0.9118800E+02  0.7818608E-02  0.1180000E+00
       11   -1    0    0    0    0  0.00000000000E+00  0.00000000000E+00  0.39999999673E+01  0.40000000000E+01  0.51109989000E-03 0.  1.
     -623   -1    0    0    0    0  0.00000000000E+00  0.00000000000E+00  0.12525980253E-10  0.17130000000E+03  0.17130000000E+03 0.  1.
       11    1    1    2    0    0 -0.29978342298E+00  0.40055595599E-01  0.72707333565E-01  0.31106457369E+00  0.51109989000E-03 0.  1.
     -623    1    1    2    0    0 -0.33218240047E-01 -0.32402696727E+00  0.46756389067E+00  0.17130094779E+03  0.17130000000E+03 0.  1.
      622    1    1    2    0    0  0.33300166302E+00  0.28397137167E+00  0.34597287431E+01  0.36879876387E+01  0.12000000000E+01 0.  1.
</event>
<event>
 5   0  0.5136900E+01  0.9118800E+02  0.7818608E-02  0.1180000E+00
       11   -1    0    0    0    0  0.00000000000E+00  0.00000000000E+00  0.39999999673E+01  0.40000000000E+01  0.51109989000E-03 0.  1.
     -623   -1    0    0    0    0  0.00000000000E+00  0.00000000000E+00  0.12525980253E-10  0.17130000000E+03  0.17130000000E+03 0. -1.
       11    1    1    2    0    0  0.10515577092E+00  0.39698874513E+00  0.11147387857E+01  0.11879817429E+01  0.51109989000E-03 0.  1.
     -623    1    1    2    0    0  0.13874970159E+00 -0.22574137858E-01  0.38225344813E+00  0.17130048418E+03  0.17130000000E+03 0. -1.
      622    1    1    2    0    0 -0.24390547251E+00 -0.37441460728E+00  0.25030077335E+01  0.28115340816E+01  0.12000000000E+01 0.  1.
</event>
<event>
 5   0  0.5136900E+01  0.9118800E+02  0.7818608E-02  0.1180000E+00
       11   -1    0    0    0    0  0.00000000000E+00  0.00000000000E+00  0.39999999673E+01  0.40000000000E+01  0.51109989000E-03 0. -1.
     -623   -1    0    0    0    0  0.00000000000E+00  0.00000000000E+00  0.12525980253E-10  0.17130000000E+03  0.17130000000E+03 0.  1.
       11    1    1    2    0    0  0.19736552440E-01  0.10721561478E-01  0.13212196903E-01  0.26063513824E-01  0.51109989000E-03 0. -1.
     -623    1    1    2    0    0 -0.75255526374E-01 -0.85738292003E-01  0.19967349763E+00  0.17130015436E+03  0.17130000000E+03 0.  1.
      622    1    1    2    0    0  0.55518973933E-01  0.75016730524E-01  0.37871142728E+01  0.39737821256E+01  0.12000000000E+01 0. -1.
</event>
<event>
 5   0  0.5136900E+01  0.9118800E+02  0.7818608E-02  0.1180000E+00
       11   -1    0    0    0    0  0.00000000000E+00  0.00000000000E+00  0.39999999673E+01  0.40000000000E+01  0.51109989000E-03 0. -1.
     -623   -1    0    0    0    0  0.00000000000E+00  0.00000000000E+00  0.12525980253E-10  0.17130000000E+03  0.17130000000E+03 0.  1.
       11    1    1    2    0    0  0.14605200663E+00  0.27123127621E-01  0.13142528901E+00  0.19834243244E+00  0.51109989000E-03 0. -1.
     -623    1    1    2    0    0 -0.26911062205E+00 -0.29886962562E-01  0.26381702938E+00  0.17130041714E+03  0.17130000000E+03 0.  1.
      622    1    1    2    0    0  0.12305861542E+00  0.27638349417E-02  0.36047576490E+01  0.38012404251E+01  0.12000000000E+01 0. -1.
</event>
<event>
 5   0  0.5136900E+01  0.9118800E+02  0.7818608E-02  0.1180000E+00
       11   -1    0    0    0    0  0.00000000000E+00  0.00000000000E+00  0.39999999673E+01  0.40000000000E+01  0.51109989000E-03 0. -1.
     -623   -1    0    0    0    0  0.00000000000E+00  0.00000000000E+00  0.12525980253E-10  0.17130000000E+03  0.17130000000E+03 0. -1.
       11    1    1    2    0    0 -0.68731072037E-01 -0.95398792432E-01  0.10284181814E+00  0.15621008495E+00  0.51109989000E-03 0. -1.
     -623    1    1    2    0    0  0.26994007675E-01  0.23002005604E-01  0.24663153673E+00  0.17130018122E+03  0.17130000000E+03 0. -1.
      622    1    1    2    0    0  0.41737064362E-01  0.72396786828E-01  0.36505266125E+01  0.38436086983E+01  0.12000000000E+01 0. -1.
</event>
<event>
 5   0  0.5136900E+01  0.9118800E+02  0.7818608E-02  0.1180000E+00
       11   -1    0    0    0    0  0.00000000000E+00  0.00000000000E+00  0.39999999673E+01  0.40000000000E+01  0.51109989000E-03 0. -1.
     -623   -1    0    0    0    0  0.00000000000E+00  0.00000000000E+00  0.12525980253E-10  0.17130000000E+03  0.17130000000E+03 0. -1.
       11    1    1    2    0    0 -0.84255820844E-02  0.36162222020E-01 -0.80108969294E-02  0.37988582824E-01  0.51109989000E-03 0. -1.
     -623    1    1    2    0    0 -0.62063066041E-01 -0.15616553253E+00  0.23491723585E+00  0.17130024351E+03  0.17130000000E+03 0. -1.
      622    1    1    2    0    0  0.70488648125E-01  0.12000331051E+00  0.37730936284E+01  0.39617679100E+01  0.12000000000E+01 0. -1.
</event>
<event>
 5   0  0.5136900E+01  0.9118800E+02  0.7818608E-02  0.1180000E+00
       11   -1    0    0    0    0  0.00000000000E+00  0.00000000000E+00  0.39999999673E+01  0.40000000000E+01  0.51109989000E-03 0. -1.
     -623   -1    0    0    0    0  0.00000000000E+00  0.00000000000E+00  0.12525980253E-10  0.17130000000E+03  0.17130000000E+03 0. -1.
       11    1    1    2    0    0  0.10339894807E+00 -0.70358768132E-01 -0.72424563350E-02  0.12527734477E+00  0.51109989000E-03 0. -1.
     -623    1    1    2    0    0  0.12251507282E-01 -0.22763425171E+00  0.33742632897E+00  0.17130048402E+03  0.17130000000E+03 0. -1.
      622    1    1    2    0    0 -0.11565045536E+00  0.29799301984E+00  0.36698160947E+01  0.38742386396E+01  0.12000000000E+01 0. -1.
</event>
<event>
 5   0  0.5136900E+01  0.9118800E+02  0.7818608E-02  0.1180000E+00
       11   -1    0    0    0    0  0.00000000000E+00  0.00000000000E+00  0.39999999673E+01  0.40000000000E+01  0.51109989000E-03 0.  1.
     -623   -1    0    0    0    0  0.00000000000E+00  0.00000000000E+00  0.12525980253E-10  0.17130000000E+03  0.17130000000E+03 0.  1.
       11    1    1    2    0    0  0.61120949433E-01 -0.33527182488E-01  0.11590586145E+00  0.13525632098E+00  0.51109989000E-03 0.  1.
     -623    1    1    2    0    0  0.98285995535E-01  0.26218657418E+00  0.22135280019E+00  0.17130037186E+03  0.17130000000E+03 0.  1.
      622    1    1    2    0    0 -0.15940694497E+00 -0.22865939169E+00  0.36627413057E+01  0.38643718201E+01  0.12000000000E+01 0.  1.
</event>
<event>
 5   0  0.5136900E+01  0.9118800E+02  0.7818608E-02  0.1180000E+00
       11   -1    0    0    0    0  0.00000000000E+00  0.00000000000E+00  0.39999999673E+01  0.40000000000E+01  0.51109989000E-03 0. -1.
     -623   -1    0    0    0    0  0.00000000000E+00  0.00000000000E+00  0.12525980253E-10  0.17130000000E+03  0.17130000000E+03 0. -1.
       11    1    1    2    0    0 -0.36912938603E+00 -0.31984658017E-01  0.62537958190E+00  0.72689710735E+00  0.51109989000E-03 0. -1.
     -623    1    1    2    0    0  0.42375708177E+00  0.70681104736E-01  0.33108615726E+00  0.17130085868E+03  0.17130000000E+03 0. -1.
      622    1    1    2    0    0 -0.54627695736E-01 -0.38696446718E-01  0.30435342282E+01  0.32722442143E+01  0.12000000000E+01 0. -1.
</event>
<event>
 5   0  0.5136900E+01  0.9118800E+02  0.7818608E-02  0.1180000E+00
       11   -1    0    0    0    0  0.00000000000E+00  0.00000000000E+00  0.39999999673E+01  0.40000000000E+01  0.51109989000E-03 0. -1.
     -623   -1    0    0    0    0  0.00000000000E+00  0.00000000000E+00  0.12525980253E-10  0.17130000000E+03  0.17130000000E+03 0. -1.
       11    1    1    2    0    0  0.83929871587E-02 -0.87938456305E-01  0.15634882692E+00  0.17957959581E+00  0.51109989000E-03 0. -1.
     -623    1    1    2    0    0 -0.72498042335E-01  0.13278019182E+00  0.21764438487E+00  0.17130020507E+03  0.17130000000E+03 0. -1.
      622    1    1    2    0    0  0.64105055177E-01 -0.44841735516E-01  0.36260067556E+01  0.38202153383E+01  0.12000000000E+01 0. -1.
</event>
<event>
 5   0  0.5136900E+01  0.9118800E+02  0.7818608E-02  0.1180000E+00
       11   -1    0    0    0    0  0.00000000000E+00  0.00000000000E+00  0.39999999673E+01  0.40000000000E+01  0.51109989000E-03 0.  1.
     -623   -1    0    0    0    0  0.00000000000E+00  0.00000000000E+00  0.12525980253E-10  0.17130000000E+03  0.17130000000E+03 0.  1.
       11    1    1    2    0    0  0.17884055583E+00  0.27480795925E+00  0.77927171290E+00  0.84543954404E+00  0.51109989000E-03 0.  1.
     -623    1    1    2    0    0 -0.37378099640E+00 -0.18507452819E+00  0.31208575400E+00  0.17130079207E+03  0.17130000000E+03 0.  1.
      622    1    1    2    0    0  0.19494044057E+00 -0.89733431053E-01  0.29086425005E+01  0.31537683903E+01  0.12000000000E+01 0.  1.
</event>
<event>
 5   0  0.5136900E+01  0.9118800E+02  0.7818608E-02  0.1180000E+00
       11   -1    0    0    0    0  0.00000000000E+00  0.00000000000E+00  0.39999999673E+01  0.40000000000E+01  0.51109989000E-03 0. -1.
     -623   -1    0    0    0    0  0.00000000000E+00  0.00000000000E+00  0.12525980253E-10  0.17130000000E+03  0.17130000000E+03 0.  1.
       11    1    1    2    0    0 -0.13458638963E-01 -0.36397854774E-01  0.11935873091E+00  0.12550978711E+00  0.51109989000E-03 0. -1.
     -623    1    1    2    0    0 -0.41926201784E+00  0.51420705495E-01  0.22290388080E+00  0.17130066582E+03  0.17130000000E+03 0.  1.
      622    1    1    2    0    0  0.43272065680E+00 -0.15022850721E-01  0.36577373557E+01  0.38738243915E+01  0.12000000000E+01 0. -1.
</event>
<event>
 5   0  0.5136900E+01  0.9118800E+02  0.7818608E-02  0.1180000E+00
       11   -1    0    0    0    0  0.00000000000E+00  0.00000000000E+00  0.39999999673E+01  0.40000000000E+01  0.51109989000E-03 0.  1.
     -623   -1    0    0    0    0  0.00000000000E+00  0.00000000000E+00  0.12525980253E-10  0.17130000000E+03  0.17130000000E+03 0. -1.
       11    1    1    2    0    0  0.33037040193E-01 -0.37977230014E-01 -0.38390237833E-01  0.63307089715E-01  0.51109989000E-03 0.  1.
     -623    1    1    2    0    0  0.12166048398E+00  0.64036791582E-01  0.29265421839E+00  0.17130030516E+03  0.17130000000E+03 0. -1.
      622    1    1    2    0    0 -0.15469752417E+00 -0.26059561568E-01  0.37457359868E+01  0.39363877486E+01  0.12000000000E+01 0.  1.
</event>
<event>
 5   0  0.5136900E+01  0.9118800E+02  0.7818608E-02  0.1180000E+00
       11   -1    0    0    0    0  0.00000000000E+00  0.00000000000E+00  0.39999999673E+01  0.40000000000E+01  0.51109989000E-03 0. -1.
     -623   -1    0    0    0    0  0.00000000000E+00  0.00000000000E+00  0.12525980253E-10  0.17130000000E+03  0.17130000000E+03 0. -1.
       11    1    1    2    0    0 -0.20129285672E+00  0.21968649639E+00  0.98904616837E-01  0.31394801371E+00  0.51109989000E-03 0. -1.
     -623    1    1    2    0    0 -0.14898177405E+00 -0.44835853920E+00  0.44234067385E+00  0.17130122266E+03  0.17130000000E+03 0. -1.
      622    1    1    2    0    0  0.35027463076E+00  0.22867204281E+00  0.34587546767E+01  0.36848293222E+01  0.12000000000E+01 0. -1.
</event>
<event>
 5   0  0.5136900E+01  0.9118800E+02  0.7818608E-02  0.1180000E+00
       11   -1    0    0    0    0  0.00000000000E+00  0.00000000000E+00  0.39999999673E+01  0.40000000000E+01  0.51109989000E-03 0.  1.
     -623   -1    0    0    0    0  0.00000000000E+00  0.00000000000E+00  0.12525980253E-10  0.17130000000E+03  0.17130000000E+03 0.  1.
       11    1    1    2    0    0  0.24146236013E-01 -0.10726886317E+00 -0.89907607898E-02  0.11032109827E+00  0.51109989000E-03 0.  1.
     -623    1    1    2    0    0 -0.53590839244E+00 -0.23216431623E-01  0.34819984862E+00  0.17130119375E+03  0.17130000000E+03 0.  1.
      622    1    1    2    0    0  0.51176215642E+00  0.13048529480E+00  0.36607908795E+01  0.38884851524E+01  0.12000000000E+01 0.  1.
</event>
<event>
 5   0  0.5136900E+01  0.9118800E+02  0.7818608E-02  0.1180000E+00
       11   -1    0    0    0    0  0.00000000000E+00  0.00000000000E+00  0.39999999673E+01  0.40000000000E+01  0.51109989000E-03 0. -1.
     -623   -1    0    0    0    0  0.00000000000E+00  0.00000000000E+00  0.12525980253E-10  0.17130000000E+03  0.17130000000E+03 0.  1.
       11    1    1    2    0    0  0.11975032822E+00 -0.84693405033E-01 -0.18753281985E-01  0.14786839004E+00  0.51109989000E-03 0. -1.
     -623    1    1    2    0    0 -0.13804789484E-01  0.19689930647E+00  0.36207725504E+00  0.17130049638E+03  0.17130000000E+03 0.  1.
      622    1    1    2    0    0 -0.10594553874E+00 -0.11220590144E+00  0.36566759943E+01  0.38516352305E+01  0.12000000000E+01 0. -1.
</event>
<event>
 5   0  0.5136900E+01  0.9118800E+02  0.7818608E-02  0.1180000E+00
       11   -1    0    0    0    0  0.00000000000E+00  0.00000000000E+00  0.39999999673E+01  0.40000000000E+01  0.51109989000E-03 0.  1.
     -623   -1    0    0    0    0  0.00000000000E+00  0.00000000000E+00  0.12525980253E-10  0.17130000000E+03  0.17130000000E+03 0.  1.
       11    1    1    2    0    0 -0.50262308765E-01 -0.67047166974E-01  0.26186322313E-01  0.87792977971E-01  0.51109989000E-03 0.  1.
     -623    1    1    2    0    0  0.35070460611E-01 -0.11097920196E+00  0.25472122033E+00  0.17130022892E+03  0.17130000000E+03 0.  1.
      622    1    1    2    0    0  0.15191848154E-01  0.17802636894E+00  0.37190924247E+01  0.39119780986E+01  0.12000000000E+01 0.  1.
</event>
<event>
 5   0  0.5136900E+01  0.9118800E+02  0.7818608E-02  0.1180000E+00
       11   -1    0    0    0    0  0.00000000000E+00  0.00000000000E+00  0.39999999673E+01  0.40000000000E+01  0.51109989000E-03 0.  1.
     -623   -1    0    0    0    0  0.00000000000E+00  0.00000000000E+00  0.12525980253E-10  0.17130000000E+03  0.17130000000E+03 0. -1.
       11    1    1    2    0    0 -0.38541628049E-01 -0.21907568199E-01  0.37744726208E-02  0.44496140315E-01  0.51109989000E-03 0.  1.
     -623    1    1    2    0    0  0.64078553777E-02  0.43076828199E-01  0.22750008862E+00  0.17130015661E+03  0.17130000000E+03 0. -1.
      622    1    1    2    0    0  0.32133772671E-01 -0.21169260000E-01  0.37687254061E+01  0.39553472545E+01  0.12000000000E+01 0.  1.
</event>
<event>
 5   0  0.5136900E+01  0.9118800E+02  0.7818608E-02  0.1180000E+00
       11   -1    0    0    0    0  0.00000000000E+00  0.00000000000E+00  0.39999999673E+01  0.40000000000E+01  0.51109989000E-03 0. -1.
     -623   -1    0    0    0    0  0.00000000000E+00  0.00000000000E+00  0.12525980253E-10  0.17130000000E+03  0.17130000000E+03 0. -1.
       11    1    1    2    0    0 -0.64372329631E-01 -0.11242655312E+00  0.11086867250E+00  0.17051583631E+00  0.51109989000E-03 0. -1.
     -623    1    1    2    0    0  0.13987660941E+00  0.29363880266E+00  0.25835268093E+00  0.17130050360E+03  0.17130000000E+03 0. -1.
      622    1    1    2    0    0 -0.75504279776E-01 -0.18121224954E+00  0.36307786139E+01  0.38289805587E+01  0.12000000000E+01 0. -1.
</event>
<event>
 5   0  0.5136900E+01  0.9118800E+02  0.7818608E-02  0.1180000E+00
       11   -1    0    0    0    0  0.00000000000E+00  0.00000000000E+00  0.39999999673E+01  0.40000000000E+01  0.51109989000E-03 0.  1.
     -623   -1    0    0    0    0  0.00000000000E+00  0.00000000000E+00  0.12525980253E-10  0.17130000000E+03  0.17130000000E+03 0.  1.
       11    1    1    2    0    0 -0.10376151398E+00  0.36687154371E-01  0.31165343576E+00  0.33051554324E+00  0.51109989000E-03 0.  1.
     -623    1    1    2    0    0  0.66138709417E-01  0.16202718620E-02  0.22120197838E+00  0.17130015560E+03  0.17130000000E+03 0.  1.
      622    1    1    2    0    0  0.37622804560E-01 -0.38307426233E-01  0.34671445532E+01  0.36693288606E+01  0.12000000000E+01 0.  1.
</event>
<event>
 5   0  0.5136900E+01  0.9118800E+02  0.7818608E-02  0.1180000E+00
       11   -1    0    0    0    0  0.00000000000E+00  0.00000000000E+00  0.39999999673E+01  0.40000000000E+01  0.51109989000E-03 0. -1.
     -623   -1    0    0    0    0  0.00000000000E+00  0.00000000000E+00  0.12525980253E-10  0.17130000000E+03  0.17130000000E+03 0.  1.
       11    1    1    2    0    0 -0.69035050238E-01  0.15285447123E-01  0.24272725648E+00  0.25281666344E+00  0.51109989000E-03 0. -1.
     -623    1    1    2    0    0 -0.13095993212E+00 -0.25493095991E+00  0.22158547047E+00  0.17130038307E+03  0.17130000000E+03 0.  1.
      622    1    1    2    0    0  0.19999498236E+00  0.23964551279E+00  0.35356872404E+01  0.37468002651E+01  0.12000000000E+01 0. -1.
</event>
<event>
 5   0  0.5136900E+01  0.9118800E+02  0.7818608E-02  0.1180000E+00
       11   -1    0    0    0    0  0.00000000000E+00  0.00000000000E+00  0.39999999673E+01  0.40000000000E+01  0.51109989000E-03 0. -1.
     -623   -1    0    0    0    0  0.00000000000E+00  0.00000000000E+00  0.12525980253E-10  0.17130000000E+03  0.17130000000E+03 0.  1.
       11    1    1    2    0    0  0.16122763548E+00  0.25734005407E+00  0.60219633208E+00  0.67443230755E+00  0.51109989000E-03 0. -1.
     -623    1    1    2    0    0 -0.24335803842E+00 -0.12722994856E+00  0.30062618814E+00  0.17130048391E+03  0.17130000000E+03 0.  1.
      622    1    1    2    0    0  0.82130402945E-01 -0.13011010551E+00  0.30971774471E+01  0.33250837857E+01  0.12000000000E+01 0. -1.
</event>
<event>
 5   0  0.5136900E+01  0.9118800E+02  0.7818608E-02  0.1180000E+00
       11   -1    0    0    0    0  0.00000000000E+00  0.00000000000E+00  0.39999999673E+01  0.40000000000E+01  0.51109989000E-03 0.  1.
     -623   -1    0    0    0    0  0.00000000000E+00  0.00000000000E+00  0.12525980253E-10  0.17130000000E+03  0.17130000000E+03 0. -1.
       11    1    1    2    0    0  0.20446131058E+00 -0.52953946563E-01  0.30740890456E+00  0.37297324811E+00  0.51109989000E-03 0.  1.
     -623    1    1    2    0    0 -0.19992340485E+00  0.20230134117E+00  0.27357065498E+00  0.17130045457E+03  0.17130000000E+03 0. -1.
      622    1    1    2    0    0 -0.45379057243E-02 -0.14934739461E+00  0.34190204078E+01  0.36265721813E+01  0.12000000000E+01 0.  1.
</event>
<event>
 5   0  0.5136900E+01  0.9118800E+02  0.7818608E-02  0.1180000E+00
       11   -1    0    0    0    0  0.00000000000E+00  0.00000000000E+00  0.39999999673E+01  0.40000000000E+01  0.51109989000E-03 0. -1.
     -623   -1    0    0    0    0  0.00000000000E+00  0.00000000000E+00  0.12525980253E-10  0.17130000000E+03  0.17130000000E+03 0.  1.
       11    1    1    2    0    0 -0.10267576676E-01  0.11219103577E-01 -0.21713333869E-03  0.15218402868E-01  0.51109989000E-03 0. -1.
     -623    1    1    2    0    0 -0.52232271721E-01  0.18556176753E+00  0.20627439374E+00  0.17130023266E+03  0.17130000000E+03 0.  1.
      622    1    1    2    0    0  0.62499848397E-01 -0.19678087111E+00  0.37939427070E+01  0.39845489338E+01  0.12000000000E+01 0. -1.
</event>
<event>
 5   0  0.5136900E+01  0.9118800E+02  0.7818608E-02  0.1180000E+00
       11   -1    0    0    0    0  0.00000000000E+00  0.00000000000E+00  0.39999999673E+01  0.40000000000E+01  0.51109989000E-03 0.  1.
     -623   -1    0    0    0    0  0.00000000000E+00  0.00000000000E+00  0.12525980253E-10  0.17130000000E+03  0.17130000000E+03 0.  1.
       11    1    1    2    0    0  0.59545686536E-01  0.67781046695E-01  0.40369096862E-01  0.98842724976E-01  0.51109989000E-03 0.  1.
     -623    1    1    2    0    0  0.33728789062E-01 -0.14420112415E-01  0.24937026564E+00  0.17130018544E+03  0.17130000000E+03 0.  1.
      622    1    1    2    0    0 -0.93274475598E-01 -0.53360934280E-01  0.37102606049E+01  0.39009718370E+01  0.12000000000E+01 0.  1.
</event>
<event>
 5   0  0.5136900E+01  0.9118800E+02  0.7818608E-02  0.1180000E+00
       11   -1    0    0    0    0  0.00000000000E+00  0.00000000000E+00  0.39999999673E+01  0.40000000000E+01  0.51109989000E-03 0. -1.
     -623   -1    0    0    0    0  0.00000000000E+00  0.00000000000E+00  0.12525980253E-10  0.17130000000E+03  0.17130000000E+03 0. -1.
       11    1    1    2    0    0  0.21212483378E+00 -0.16477266268E+00  0.13469073716E+00  0.30048100002E+00  0.51109989000E-03 0. -1.
     -623    1    1    2    0    0 -0.15591822113E+00  0.24027778767E+00  0.36775460738E+00  0.17130063423E+03  0.17130000000E+03 0. -1.
      622    1    1    2    0    0 -0.56206612656E-01 -0.75505124983E-01  0.34975546228E+01  0.36988847707E+01  0.12000000000E+01 0. -1.
</event>
<event>
 5   0  0.5136900E+01  0.9118800E+02  0.7818608E-02  0.1180000E+00
       11   -1    0    0    0    0  0.00000000000E+00  0.00000000000E+00  0.39999999673E+01  0.40000000000E+01  0.51109989000E-03 0. -1.
     -623   -1    0    0    0    0  0.00000000000E+00  0.00000000000E+00  0.12525980253E-10  0.17130000000E+03  0.17130000000E+03 0. -1.
       11    1    1    2    0    0 -0.18657381748E+00  0.38548392162E-01  0.58867876141E+00  0.61873961669E+00  0.51109989000E-03 0. -1.
     -623    1    1    2    0    0  0.58663318022E-01 -0.16990161160E+00  0.25578988827E+00  0.17130028528E+03  0.17130000000E+03 0. -1.
      622    1    1    2    0    0  0.12791049946E+00  0.13135321944E+00  0.31555313177E+01  0.33809751051E+01  0.12000000000E+01 0. -1.
</event>
<event>
 5   0  0.5136900E+01  0.9118800E+02  0.7818608E-02  0.1180000E+00
       11   -1    0    0    0    0  0.00000000000E+00  0.00000000000E+00  0.39999999673E+01  0.40000000000E+01  0.51109989000E-03 0.  1.
     -623   -1    0    0    0    0  0.00000000000E+00  0.00000000000E+00  0.12525980253E-10  0.17130000000E+03  0.17130000000E+03 0.  1.
       11    1    1    2    0    0 -0.20849510406E+00 -0.29556027960E+00  0.42459035151E+00  0.55776636248E+00  0.51109989000E-03 0.  1.
     -623    1    1    2    0    0  0.32883051640E+00  0.16365843164E-01  0.36422622507E+00  0.17130070361E+03  0.17130000000E+03 0.  1.
      622    1    1    2    0    0 -0.12033541234E+00  0.27919443643E+00  0.32111833908E+01  0.34415300252E+01  0.12000000000E+01 0.  1.
</event>
<event>
 5   0  0.5136900E+01  0.9118800E+02  0.7818608E-02  0.1180000E+00
       11   -1    0    0    0    0  0.00000000000E+00  0.00000000000E+00  0.39999999673E+01  0.40000000000E+01  0.51109989000E-03 0. -1.
     -623   -1    0    0    0    0  0.00000000000E+00  0.00000000000E+00  0.12525980253E-10  0.17130000000E+03  0.17130000000E+03 0. -1.
       11    1    1    2    0    0 -0.35071470334E+00  0.19973228930E+00  0.24139265830E+00  0.47028126396E+00  0.51109989000E-03 0. -1.
     -623    1    1    2    0    0  0.56767350543E+00 -0.22668650610E+00  0.44812658831E+00  0.17130167675E+03  0.17130000000E+03 0. -1.
      622    1    1    2    0    0 -0.21695880208E+00  0.26954216799E-01  0.33104807207E+01  0.35280419859E+01  0.12000000000E+01 0. -1.
</event>
<event>
 5   0  0.5136900E+01  0.9118800E+02  0.7818608E-02  0.1180000E+00
       11   -1    0    0    0    0  0.00000000000E+00  0.00000000000E+00  0.39999999673E+01  0.40000000000E+01  0.51109989000E-03 0.  1.
     -623   -1    0    0    0    0  0.00000000000E+00  0.00000000000E+00  0.12525980253E-10  0.17130000000E+03  0.17130000000E+03 0. -1.
       11    1    1    2    0    0 -0.28332960420E-01 -0.85175915363E-01  0.22629451717E+00  0.24344848105E+00  0.51109989000E-03 0.  1.
     -623    1    1    2    0    0 -0.40140288483E-01  0.18982295800E+00  0.21643303863E+00  0.17130024661E+03  0.17130000000E+03 0. -1.
      622    1    1    2    0    0  0.68473248903E-01 -0.10464704264E+00  0.35572724116E+01  0.37563049130E+01  0.12000000000E+01 0.  1.
</event>
<event>
 5   0  0.5136900E+01  0.9118800E+02  0.7818608E-02  0.1180000E+00
       11   -1    0    0    0    0  0.00000000000E+00  0.00000000000E+00  0.39999999673E+01  0.40000000000E+01  0.51109989000E-03 0. -1.
     -623   -1    0    0    0    0  0.00000000000E+00  0.00000000000E+00  0.12525980253E-10  0.17130000000E+03  0.17130000000E+03 0.  1.
       11    1    1    2    0    0 -0.16283486616E+00  0.13081252428E+00  0.52314788951E+00  0.56330372417E+00  0.51109989000E-03 0. -1.
     -623    1    1    2    0    0  0.16862363431E+00 -0.29704856926E+00  0.26134237100E+00  0.17130053990E+03  0.17130000000E+03 0.  1.
      622    1    1    2    0    0 -0.57887681536E-02  0.16623604498E+00  0.32155097068E+01  0.34361563712E+01  0.12000000000E+01 0. -1.
</event>
<event>
 5   0  0.5136900E+01  0.9118800E+02  0.7818608E-02  0.1180000E+00
       11   -1    0    0    0    0  0.00000000000E+00  0.00000000000E+00  0.39999999673E+01  0.40000000000E+01  0.51109989000E-03 0. -1.
     -623   -1    0    0    0    0  0.00000000000E+00  0.00000000000E+00  0.12525980253E-10  0.17130000000E+03  0.17130000000E+03 0. -1.
       11    1    1    2    0    0 -0.16734624070E-01 -0.28036287448E-01 -0.21152101820E-01  0.38906987690E-01  0.51109989000E-03 0. -1.
     -623    1    1    2    0    0 -0.11851501385E+00  0.11114130523E+00  0.24981205167E+00  0.17130025921E+03  0.17130000000E+03 0. -1.
      622    1    1    2    0    0  0.13524963791E+00 -0.83105017778E-01  0.37713400175E+01  0.39608338057E+01  0.12000000000E+01 0. -1.
</event>
<event>
 5   0  0.5136900E+01  0.9118800E+02  0.7818608E-02  0.1180000E+00
       11   -1    0    0    0    0  0.00000000000E+00  0.00000000000E+00  0.39999999673E+01  0.40000000000E+01  0.51109989000E-03 0. -1.
     -623   -1    0    0    0    0  0.00000000000E+00  0.00000000000E+00  0.12525980253E-10  0.17130000000E+03  0.17130000000E+03 0.  1.
       11    1    1    2    0    0 -0.12952441643E+00 -0.41509699434E-01  0.24118502661E+00  0.27689367613E+00  0.51109989000E-03 0. -1.
     -623    1    1    2    0    0  0.37580988295E+00 -0.11520976538E+00  0.24717463962E+00  0.17130062931E+03  0.17130000000E+03 0.  1.
      622    1    1    2    0    0 -0.24628546652E+00  0.15671946482E+00  0.35116403011E+01  0.37224770149E+01  0.12000000000E+01 0. -1.
</event>
<event>
 5   0  0.5136900E+01  0.9118800E+02  0.7818608E-02  0.1180000E+00
       11   -1    0    0    0    0  0.00000000000E+00  0.00000000000E+00  0.39999999673E+01  0.40000000000E+01  0.51109989000E-03 0.  1.
     -623   -1    0    0    0    0  0.00000000000E+00  0.00000000000E+00  0.12525980253E-10  0.17130000000E+03  0.17130000000E+03 0. -1.
       11    1    1    2    0    0 -0.15394135688E+00  0.27201575431E+00  0.25275898624E+00  0.40196750901E+00  0.51109989000E-03 0.  1.
     -623    1    1    2    0    0  0.27537827982E+00 -0.16719118425E+00  0.35973377355E+00  0.17130068066E+03  0.17130000000E+03 0. -1.
      622    1    1    2    0    0 -0.12143692294E+00 -0.10482457006E+00  0.33875072076E+01  0.35973518313E+01  0.12000000000E+01 0.  1.
</event>
<event>
 5   0  0.5136900E+01  0.9118800E+02  0.7818608E-02  0.1180000E+00
       11   -1    0    0    0    0  0.00000000000E+00  0.00000000000E+00  0.39999999673E+01  0.40000000000E+01  0.51109989000E-03 0.  1.
     -623   -1    0    0    0    0  0.00000000000E+00  0.00000000000E+00  0.12525980253E-10  0.17130000000E+03  0.17130000000E+03 0. -1.
       11    1    1    2    0    0  0.42071042543E-01 -0.19656045840E+00  0.24173567310E+00  0.31439208530E+00  0.51109989000E-03 0.  1.
     -623    1    1    2    0    0 -0.13960523258E+00 -0.40407327923E+00  0.32793098710E+00  0.17130084735E+03  0.17130000000E+03 0. -1.
      622    1    1    2    0    0  0.97534190035E-01  0.60063373763E+00  0.34303333072E+01  0.36847605625E+01  0.12000000000E+01 0.  0.
</event>
<event>
 5   0  0.5136900E+01  0.9118800E+02  0.7818608E-02  0.1180000E+00
       11   -1    0    0    0    0  0.00000000000E+00  0.00000000000E+00  0.39999999673E+01  0.40000000000E+01  0.51109989000E-03 0.  1.
     -623   -1    0    0    0    0  0.00000000000E+00  0.00000000000E+00  0.12525980253E-10  0.17130000000E+03  0.17130000000E+03 0.  1.
       11    1    1    2    0    0  0.22350442725E-01  0.29880804205E-01  0.48010441326E-01  0.60808457047E-01  0.51109989000E-03 0.  1.
     -623    1    1    2    0    0 -0.95267421757E-01 -0.13849410814E+00  0.20251977989E+00  0.17130020219E+03  0.17130000000E+03 0.  1.
      622    1    1    2    0    0  0.72916979032E-01  0.10861330393E+00  0.37494697461E+01  0.39389893517E+01  0.12000000000E+01 0.  1.
</event>
<event>
 5   0  0.5136900E+01  0.9118800E+02  0.7818608E-02  0.1180000E+00
       11   -1    0    0    0    0  0.00000000000E+00  0.00000000000E+00  0.39999999673E+01  0.40000000000E+01  0.51109989000E-03 0. -1.
     -623   -1    0    0    0    0  0.00000000000E+00  0.00000000000E+00  0.12525980253E-10  0.17130000000E+03  0.17130000000E+03 0.  1.
       11    1    1    2    0    0 -0.48473221837E-01  0.10407578493E+00  0.21567974455E-01  0.11681977995E+00  0.51109989000E-03 0. -1.
     -623    1    1    2    0    0  0.71487280606E-01 -0.19288255604E+00  0.28684045058E+00  0.17130036366E+03  0.17130000000E+03 0.  1.
      622    1    1    2    0    0 -0.23014058769E-01  0.88806771109E-01  0.36915915423E+01  0.38828165556E+01  0.12000000000E+01 0. -1.
</event>
<event>
 5   0  0.5136900E+01  0.9118800E+02  0.7818608E-02  0.1180000E+00
       11   -1    0    0    0    0  0.00000000000E+00  0.00000000000E+00  0.39999999673E+01  0.40000000000E+01  0.51109989000E-03 0. -1.
     -623   -1    0    0    0    0  0.00000000000E+00  0.00000000000E+00  0.12525980253E-10  0.17130000000E+03  0.17130000000E+03 0.  1.
       11    1    1    2    0    0 -0.18443282333E+00 -0.93329972656E-01  0.13880750102E+00  0.24898540857E+00  0.51109989000E-03 0. -1.
     -623    1    1    2    0    0  0.78685462988E-01  0.12758736184E+00  0.30940894758E+00  0.17130034502E+03  0.17130000000E+03 0.  1.
      622    1    1    2    0    0  0.10574736034E+00 -0.34257389187E-01  0.35517835188E+01  0.37506695718E+01  0.12000000000E+01 0. -1.
</event>
<event>
 5   0  0.5136900E+01  0.9118800E+02  0.7818608E-02  0.1180000E+00
       11   -1    0    0    0    0  0.00000000000E+00  0.00000000000E+00  0.39999999673E+01  0.40000000000E+01  0.51109989000E-03 0. -1.
     -623   -1    0    0    0    0  0.00000000000E+00  0.00000000000E+00  0.12525980253E-10  0.17130000000E+03  0.17130000000E+03 0.  1.
       11    1    1    2    0    0 -0.30708532472E-01 -0.30777487167E-01 -0.33696227289E-01  0.55008768751E-01  0.51109989000E-03 0. -1.
     -623    1    1    2    0    0 -0.54014214211E-01  0.54527907349E-01  0.27692736188E+00  0.17130024104E+03  0.17130000000E+03 0.  1.
      622    1    1    2    0    0  0.84722746683E-01 -0.23750420182E-01  0.37567688328E+01  0.39447501935E+01  0.12000000000E+01 0. -1.
</event>
<event>
 5   0  0.5136900E+01  0.9118800E+02  0.7818608E-02  0.1180000E+00
       11   -1    0    0    0    0  0.00000000000E+00  0.00000000000E+00  0.39999999673E+01  0.40000000000E+01  0.51109989000E-03 0. -1.
     -623   -1    0    0    0    0  0.00000000000E+00  0.00000000000E+00  0.12525980253E-10  0.17130000000E+03  0.17130000000E+03 0. -1.
       11    1    1    2    0    0 -0.30267813890E-01 -0.12297798905E+00  0.30168047128E+00  0.32718663531E+00  0.51109989000E-03 0. -1.
     -623    1    1    2    0    0 -0.20286992199E-01  0.16723020272E+00  0.22797062436E+00  0.17130023452E+03  0.17130000000E+03 0. -1.
      622    1    1    2    0    0  0.50554806089E-01 -0.44252213666E-01  0.34703488717E+01  0.36725788403E+01  0.12000000000E+01 0. -1.
</event>
<event>
 5   0  0.5136900E+01  0.9118800E+02  0.7818608E-02  0.1180000E+00
       11   -1    0    0    0    0  0.00000000000E+00  0.00000000000E+00  0.39999999673E+01  0.40000000000E+01  0.51109989000E-03 0. -1.
     -623   -1    0    0    0    0  0.00000000000E+00  0.00000000000E+00  0.12525980253E-10  0.17130000000E+03  0.17130000000E+03 0. -1.
       11    1    1    2    0    0 -0.14504629525E+00 -0.49647075785E-01  0.25171238730E+00  0.29472469704E+00  0.51109989000E-03 0. -1.
     -623    1    1    2    0    0  0.29670167675E+00  0.11140827910E-01  0.24666506091E+00  0.17130043491E+03  0.17130000000E+03 0. -1.
      622    1    1    2    0    0 -0.15165538150E+00  0.38506247875E-01  0.35016225191E+01  0.37048403950E+01  0.12000000000E+01 0. -1.
</event>
<event>
 5   0  0.5136900E+01  0.9118800E+02  0.7818608E-02  0.1180000E+00
       11   -1    0    0    0    0  0.00000000000E+00  0.00000000000E+00  0.39999999673E+01  0.40000000000E+01  0.51109989000E-03 0. -1.
     -623   -1    0    0    0    0  0.00000000000E+00  0.00000000000E+00  0.12525980253E-10  0.17130000000E+03  0.17130000000E+03 0. -1.
       11    1    1    2    0    0  0.25217851518E-01  0.36890790065E-01  0.42578136121E-01  0.61725434983E-01  0.51109989000E-03 0. -1.
     -623    1    1    2    0    0  0.55599039508E-01 -0.33635513856E-01  0.20743806753E+00  0.17130013793E+03  0.17130000000E+03 0. -1.
      622    1    1    2    0    0 -0.80816891026E-01 -0.32552762092E-02  0.37499837637E+01  0.39381366399E+01  0.12000000000E+01 0. -1.
</event>
<event>
 5   0  0.5136900E+01  0.9118800E+02  0.7818608E-02  0.1180000E+00
       11   -1    0    0    0    0  0.00000000000E+00  0.00000000000E+00  0.39999999673E+01  0.40000000000E+01  0.51109989000E-03 0.  1.
     -623   -1    0    0    0    0  0.00000000000E+00  0.00000000000E+00  0.12525980253E-10  0.17130000000E+03  0.17130000000E+03 0.  1.
       11    1    1    2    0    0  0.10000996082E+00  0.21646451971E+00  0.71761395115E-01  0.24901574169E+00  0.51109989000E-03 0.  1.
     -623    1    1    2    0    0 -0.14701542397E+00 -0.31659892922E+00  0.37691937043E+00  0.17130077033E+03  0.17130000000E+03 0.  1.
      622    1    1    2    0    0  0.47005463154E-01  0.10013440951E+00  0.35513192018E+01  0.37502139255E+01  0.12000000000E+01 0.  1.
</event>
<event>
 5   0  0.5136900E+01  0.9118800E+02  0.7818608E-02  0.1180000E+00
       11   -1    0    0    0    0  0.00000000000E+00  0.00000000000E+00  0.39999999673E+01  0.40000000000E+01  0.51109989000E-03 0. -1.
     -623   -1    0    0    0    0  0.00000000000E+00  0.00000000000E+00  0.12525980253E-10  0.17130000000E+03  0.17130000000E+03 0. -1.
       11    1    1    2    0    0 -0.79211443474E-02 -0.16846508877E-01  0.36848254228E-01  0.41286855645E-01  0.51109989000E-03 0. -1.
     -623    1    1    2    0    0 -0.47138108323E-01  0.10833830597E+00  0.19236535598E+00  0.17130014876E+03  0.17130000000E+03 0. -1.
      622    1    1    2    0    0  0.55059252670E-01 -0.91491797090E-01  0.37707863572E+01  0.39585643890E+01  0.12000000000E+01 0. -1.
</event>
<event>
 5   0  0.5136900E+01  0.9118800E+02  0.7818608E-02  0.1180000E+00
       11   -1    0    0    0    0  0.00000000000E+00  0.00000000000E+00  0.39999999673E+01  0.40000000000E+01  0.51109989000E-03 0.  1.
     -623   -1    0    0    0    0  0.00000000000E+00  0.00000000000E+00  0.12525980253E-10  0.17130000000E+03  0.17130000000E+03 0.  1.
       11    1    1    2    0    0 -0.23663985210E+00  0.14655642039E+00  0.63676525880E-01  0.28553837767E+00  0.51109989000E-03 0.  1.
     -623    1    1    2    0    0  0.20191529580E+00 -0.46759666298E+00  0.43729750539E+00  0.17130131536E+03  0.17130000000E+03 0.  1.
      622    1    1    2    0    0  0.34724556300E-01  0.32104024260E+00  0.34990259361E+01  0.37131462580E+01  0.12000000000E+01 0.  1.
</event>
<event>
 5   0  0.5136900E+01  0.9118800E+02  0.7818608E-02  0.1180000E+00
       11   -1    0    0    0    0  0.00000000000E+00  0.00000000000E+00  0.39999999673E+01  0.40000000000E+01  0.51109989000E-03 0. -1.
     -623   -1    0    0    0    0  0.00000000000E+00  0.00000000000E+00  0.12525980253E-10  0.17130000000E+03  0.17130000000E+03 0. -1.
       11    1    1    2    0    0 -0.45232524573E-01  0.20203910381E-01  0.11610283857E+00  0.12623117531E+00  0.51109989000E-03 0. -1.
     -623    1    1    2    0    0  0.26614980007E+00  0.87922309658E-01  0.20927848282E+00  0.17130035716E+03  0.17130000000E+03 0. -1.
      622    1    1    2    0    0 -0.22091727549E+00 -0.10812622004E+00  0.36746186460E+01  0.38734116636E+01  0.12000000000E+01 0. -1.
</event>
<event>
 5   0  0.5136900E+01  0.9118800E+02  0.7818608E-02  0.1180000E+00
       11   -1    0    0    0    0  0.00000000000E+00  0.00000000000E+00  0.39999999673E+01  0.40000000000E+01  0.51109989000E-03 0.  1.
     -623   -1    0    0    0    0  0.00000000000E+00  0.00000000000E+00  0.12525980253E-10  0.17130000000E+03  0.17130000000E+03 0. -1.
       11    1    1    2    0    0 -0.10232366702E+00 -0.39255196249E-01  0.92496221486E+00  0.93143247925E+00  0.51109989000E-03 0.  1.
     -623    1    1    2    0    0  0.24070074281E+00  0.65998648918E-01  0.25476031275E+00  0.17130037126E+03  0.17130000000E+03 0. -1.
      622    1    1    2    0    0 -0.13837707579E+00 -0.26743452669E-01  0.28202774397E+01  0.30681962559E+01  0.12000000000E+01 0.  1.
</event>
<event>
 5   0  0.5136900E+01  0.9118800E+02  0.7818608E-02  0.1180000E+00
       11   -1    0    0    0    0  0.00000000000E+00  0.00000000000E+00  0.39999999673E+01  0.40000000000E+01  0.51109989000E-03 0. -1.
     -623   -1    0    0    0    0  0.00000000000E+00  0.00000000000E+00  0.12525980253E-10  0.17130000000E+03  0.17130000000E+03 0. -1.
       11    1    1    2    0    0 -0.29439546493E-01  0.16093225317E+00  0.46961639472E-01  0.17021026353E+00  0.51109989000E-03 0. -1.
     -623    1    1    2    0    0 -0.18112358168E-01 -0.46197158434E+00  0.32989154504E+00  0.17130094155E+03  0.17130000000E+03 0. -1.
      622    1    1    2    0    0  0.47551904661E-01  0.30103933117E+00  0.36231467828E+01  0.38288481914E+01  0.12000000000E+01 0. -1.
</event>
<event>
 5   0  0.5136900E+01  0.9118800E+02  0.7818608E-02  0.1180000E+00
       11   -1    0    0    0    0  0.00000000000E+00  0.00000000000E+00  0.39999999673E+01  0.40000000000E+01  0.51109989000E-03 0.  1.
     -623   -1    0    0    0    0  0.00000000000E+00  0.00000000000E+00  0.12525980253E-10  0.17130000000E+03  0.17130000000E+03 0. -1.
       11    1    1    2    0    0 -0.16221448838E+00  0.65271426185E-01  0.11057044995E+00  0.20688157226E+00  0.51109989000E-03 0.  1.
     -623    1    1    2    0    0  0.12949243702E+00 -0.11075093110E+00  0.29191947201E+00  0.17130033348E+03  0.17130000000E+03 0. -1.
      622    1    1    2    0    0  0.32722051358E-01  0.45479504920E-01  0.35975100454E+01  0.37927849458E+01  0.12000000000E+01 0.  1.
</event>
<event>
 5   0  0.5136900E+01  0.9118800E+02  0.7818608E-02  0.1180000E+00
       11   -1    0    0    0    0  0.00000000000E+00  0.00000000000E+00  0.39999999673E+01  0.40000000000E+01  0.51109989000E-03 0. -1.
     -623   -1    0    0    0    0  0.00000000000E+00  0.00000000000E+00  0.12525980253E-10  0.17130000000E+03  0.17130000000E+03 0. -1.
       11    1    1    2    0    0  0.66843655037E-02 -0.44776433509E-02 -0.63460898243E-02  0.10259829985E-01  0.51109989000E-03 0. -1.
     -623    1    1    2    0    0 -0.49961069188E-01 -0.31643156337E-02  0.20173186449E+00  0.17130012610E+03  0.17130000000E+03 0. -1.
      622    1    1    2    0    0  0.43276703684E-01  0.76419589846E-02  0.38046141927E+01  0.39896140700E+01  0.12000000000E+01 0. -1.
</event>
<event>
 5   0  0.5136900E+01  0.9118800E+02  0.7818608E-02  0.1180000E+00
       11   -1    0    0    0    0  0.00000000000E+00  0.00000000000E+00  0.39999999673E+01  0.40000000000E+01  0.51109989000E-03 0. -1.
     -623   -1    0    0    0    0  0.00000000000E+00  0.00000000000E+00  0.12525980253E-10  0.17130000000E+03  0.17130000000E+03 0.  1.
       11    1    1    2    0    0 -0.12259207844E-01 -0.38228748738E-02  0.13960713573E+00  0.14019741836E+00  0.51109989000E-03 0. -1.
     -623    1    1    2    0    0 -0.13711022269E+00  0.25754298956E-01  0.19515244229E+00  0.17130016797E+03  0.17130000000E+03 0.  1.
      622    1    1    2    0    0  0.14936943053E+00 -0.21931424082E-01  0.36652403893E+01  0.38596346104E+01  0.12000000000E+01 0. -1.
</event>
<event>
 5   0  0.5136900E+01  0.9118800E+02  0.7818608E-02  0.1180000E+00
       11   -1    0    0    0    0  0.00000000000E+00  0.00000000000E+00  0.39999999673E+01  0.40000000000E+01  0.51109989000E-03 0.  1.
     -623   -1    0    0    0    0  0.00000000000E+00  0.00000000000E+00  0.12525980253E-10  0.17130000000E+03  0.17130000000E+03 0. -1.
       11    1    1    2    0    0  0.10073787846E+00 -0.15479597852E+00  0.41652245597E-01  0.18932798501E+00  0.51109989000E-03 0.  1.
     -623    1    1    2    0    0 -0.12030832737E+00  0.14571986138E+00  0.34208467091E+00  0.17130044580E+03  0.17130000000E+03 0. -1.
      622    1    1    2    0    0  0.19570448908E-01  0.90761171356E-02  0.36162630509E+01  0.38102262179E+01  0.12000000000E+01 0.  1.
</event>
<event>
 5   0  0.5136900E+01  0.9118800E+02  0.7818608E-02  0.1180000E+00
       11   -1    0    0    0    0  0.00000000000E+00  0.00000000000E+00  0.39999999673E+01  0.40000000000E+01  0.51109989000E-03 0.  1.
     -623   -1    0    0    0    0  0.00000000000E+00  0.00000000000E+00  0.12525980253E-10  0.17130000000E+03  0.17130000000E+03 0.  1.
       11    1    1    2    0    0  0.11994699198E+00  0.19931711430E-01 -0.13546131846E-01  0.12234505677E+00  0.51109989000E-03 0.  1.
     -623    1    1    2    0    0 -0.22743721123E+00 -0.69510852211E-02  0.32832245982E+00  0.17130046577E+03  0.17130000000E+03 0.  1.
      622    1    1    2    0    0  0.10749021925E+00 -0.12980626209E-01  0.36852236394E+01  0.38771891773E+01  0.12000000000E+01 0.  1.
</event>
<event>
 5   0  0.5136900E+01  0.9118800E+02  0.7818608E-02  0.1180000E+00
       11   -1    0    0    0    0  0.00000000000E+00  0.00000000000E+00  0.39999999673E+01  0.40000000000E+01  0.51109989000E-03 0.  1.
     -623   -1    0    0    0    0  0.00000000000E+00  0.00000000000E+00  0.12525980253E-10  0.17130000000E+03  0.17130000000E+03 0.  1.
       11    1    1    2    0    0  0.15107154396E+00  0.65344965935E-01  0.12769915332E+00  0.20832645283E+00  0.51109989000E-03 0.  1.
     -623    1    1    2    0    0 -0.37077729432E+00  0.36993071640E-01  0.28437917675E+00  0.17130064132E+03  0.17130000000E+03 0.  1.
      622    1    1    2    0    0  0.21970575036E+00 -0.10233803758E+00  0.35879216373E+01  0.37910322296E+01  0.12000000000E+01 0.  1.
</event>
<event>
 5   0  0.5136900E+01  0.9118800E+02  0.7818608E-02  0.1180000E+00
       11   -1    0    0    0    0  0.00000000000E+00  0.00000000000E+00  0.39999999673E+01  0.40000000000E+01  0.51109989000E-03 0. -1.
     -623   -1    0    0    0    0  0.00000000000E+00  0.00000000000E+00  0.12525980253E-10  0.17130000000E+03  0.17130000000E+03 0. -1.
       11    1    1    2    0    0 -0.10385036849E+00 -0.10304233065E+00  0.74717055795E+00  0.76135847328E+00  0.51109989000E-03 0. -1.
     -623    1    1    2    0    0  0.21001431625E+00 -0.10916979663E+00  0.25446137026E+00  0.17130035252E+03  0.17130000000E+03 0. -1.
      622    1    1    2    0    0 -0.10616394776E+00  0.21221212728E+00  0.29983680391E+01  0.32382890033E+01  0.12000000000E+01 0. -1.
</event>
<event>
 5   0  0.5136900E+01  0.9118800E+02  0.7818608E-02  0.1180000E+00
       11   -1    0    0    0    0  0.00000000000E+00  0.00000000000E+00  0.39999999673E+01  0.40000000000E+01  0.51109989000E-03 0.  1.
     -623   -1    0    0    0    0  0.00000000000E+00  0.00000000000E+00  0.12525980253E-10  0.17130000000E+03  0.17130000000E+03 0. -1.
       11    1    1    2    0    0 -0.31328265966E+00 -0.17238435990E+00  0.95976360539E-01  0.37023521630E+00  0.51109989000E-03 0.  1.
     -623    1    1    2    0    0  0.32568004951E+00  0.61204237563E-01  0.48124046172E+00  0.17130099651E+03  0.17130000000E+03 0. -1.
      622    1    1    2    0    0 -0.12397389850E-01  0.11118012234E+00  0.34227831451E+01  0.36287682722E+01  0.12000000000E+01 0.  1.
</event>
<event>
 5   0  0.5136900E+01  0.9118800E+02  0.7818608E-02  0.1180000E+00
       11   -1    0    0    0    0  0.00000000000E+00  0.00000000000E+00  0.39999999673E+01  0.40000000000E+01  0.51109989000E-03 0. -1.
     -623   -1    0    0    0    0  0.00000000000E+00  0.00000000000E+00  0.12525980253E-10  0.17130000000E+03  0.17130000000E+03 0.  1.
       11    1    1    2    0    0 -0.81080307976E-01 -0.91226040749E-01 -0.38042862721E-02  0.12211036266E+00  0.51109989000E-03 0. -1.
     -623    1    1    2    0    0  0.11859533863E-01 -0.69288674859E-01  0.32073066567E+00  0.17130031468E+03  0.17130000000E+03 0.  1.
      622    1    1    2    0    0  0.69220774113E-01  0.16051471561E+00  0.36830735880E+01  0.38775749566E+01  0.12000000000E+01 0. -1.
</event>
<event>
 5   0  0.5136900E+01  0.9118800E+02  0.7818608E-02  0.1180000E+00
       11   -1    0    0    0    0  0.00000000000E+00  0.00000000000E+00  0.39999999673E+01  0.40000000000E+01  0.51109989000E-03 0. -1.
     -623   -1    0    0    0    0  0.00000000000E+00  0.00000000000E+00  0.12525980253E-10  0.17130000000E+03  0.17130000000E+03 0. -1.
       11    1    1    2    0    0  0.14334677632E+00 -0.75748155642E-01 -0.19052564935E+00  0.25017267166E+00  0.51109989000E-03 0. -1.
     -623    1    1    2    0    0 -0.20339607047E+00  0.10357807083E+00  0.63993107640E+00  0.17130134737E+03  0.17130000000E+03 0. -1.
      622    1    1    2    0    0  0.60049294147E-01 -0.27829915183E-01  0.35505945403E+01  0.37484799601E+01  0.12000000000E+01 0. -1.
</event>
<event>
 5   0  0.5136900E+01  0.9118800E+02  0.7818608E-02  0.1180000E+00
       11   -1    0    0    0    0  0.00000000000E+00  0.00000000000E+00  0.39999999673E+01  0.40000000000E+01  0.51109989000E-03 0. -1.
     -623   -1    0    0    0    0  0.00000000000E+00  0.00000000000E+00  0.12525980253E-10  0.17130000000E+03  0.17130000000E+03 0. -1.
       11    1    1    2    0    0  0.15997374648E+00  0.50278948092E-01  0.26575547743E+00  0.31423845594E+00  0.51109989000E-03 0. -1.
     -623    1    1    2    0    0 -0.20002182135E+00  0.13447655309E+00  0.25481165350E+00  0.17130035908E+03  0.17130000000E+03 0. -1.
      622    1    1    2    0    0  0.40048074871E-01 -0.18475550118E+00  0.34794328364E+01  0.36854024620E+01  0.12000000000E+01 0. -1.
</event>
<event>
 5   0  0.5136900E+01  0.9118800E+02  0.7818608E-02  0.1180000E+00
       11   -1    0    0    0    0  0.00000000000E+00  0.00000000000E+00  0.39999999673E+01  0.40000000000E+01  0.51109989000E-03 0. -1.
     -623   -1    0    0    0    0  0.00000000000E+00  0.00000000000E+00  0.12525980253E-10  0.17130000000E+03  0.17130000000E+03 0.  1.
       11    1    1    2    0    0 -0.31023628459E-01  0.42634252873E-01  0.26947025129E+00  0.27458081250E+00  0.51109989000E-03 0. -1.
     -623    1    1    2    0    0 -0.16848170934E+00 -0.18468142991E+00  0.21251505585E+00  0.17130031423E+03  0.17130000000E+03 0.  1.
      622    1    1    2    0    0  0.19950533779E+00  0.14204717704E+00  0.35180146602E+01  0.37251049555E+01  0.12000000000E+01 0. -1.
</event>
<event>
 5   0  0.5136900E+01  0.9118800E+02  0.7818608E-02  0.1180000E+00
       11   -1    0    0    0    0  0.00000000000E+00  0.00000000000E+00  0.39999999673E+01  0.40000000000E+01  0.51109989000E-03 0.  1.
     -623   -1    0    0    0    0  0.00000000000E+00  0.00000000000E+00  0.12525980253E-10  0.17130000000E+03  0.17130000000E+03 0.  1.
       11    1    1    2    0    0  0.20812930280E+00  0.10212760323E+00  0.57382085533E+00  0.61888487561E+00  0.51109989000E-03 0.  1.
     -623    1    1    2    0    0 -0.15574839719E+00 -0.19226609338E+00  0.26731030763E+00  0.17130038727E+03  0.17130000000E+03 0.  1.
      622    1    1    2    0    0 -0.52380905615E-01  0.90138490143E-01  0.31588688044E+01  0.33807278551E+01  0.12000000000E+01 0.  1.
</event>
<event>
 5   0  0.5136900E+01  0.9118800E+02  0.7818608E-02  0.1180000E+00
       11   -1    0    0    0    0  0.00000000000E+00  0.00000000000E+00  0.39999999673E+01  0.40000000000E+01  0.51109989000E-03 0. -1.
     -623   -1    0    0    0    0  0.00000000000E+00  0.00000000000E+00  0.12525980253E-10  0.17130000000E+03  0.17130000000E+03 0.  1.
       11    1    1    2    0    0  0.43883325324E-01 -0.20059381766E-01  0.62093357734E-02  0.48651229298E-01  0.51109989000E-03 0. -1.
     -623    1    1    2    0    0 -0.84113430060E-01  0.30746507817E-01  0.22948130314E+00  0.17130017712E+03  0.17130000000E+03 0.  1.
      622    1    1    2    0    0  0.40230104736E-01 -0.10687126051E-01  0.37643093284E+01  0.39511716485E+01  0.12000000000E+01 0. -1.
</event>
<event>
 5   0  0.5136900E+01  0.9118800E+02  0.7818608E-02  0.1180000E+00
       11   -1    0    0    0    0  0.00000000000E+00  0.00000000000E+00  0.39999999673E+01  0.40000000000E+01  0.51109989000E-03 0.  1.
     -623   -1    0    0    0    0  0.00000000000E+00  0.00000000000E+00  0.12525980253E-10  0.17130000000E+03  0.17130000000E+03 0. -1.
       11    1    1    2    0    0  0.17156448580E-01 -0.73644706162E-01  0.90009070075E-01  0.11755756203E+00  0.51109989000E-03 0.  1.
     -623    1    1    2    0    0 -0.17121518423E+00  0.24172345537E-01  0.22144258065E+00  0.17130023040E+03  0.17130000000E+03 0. -1.
      622    1    1    2    0    0  0.15405873565E+00  0.49472360624E-01  0.36885483166E+01  0.38822120360E+01  0.12000000000E+01 0.  1.
</event>
<event>
 5   0  0.5136900E+01  0.9118800E+02  0.7818608E-02  0.1180000E+00
       11   -1    0    0    0    0  0.00000000000E+00  0.00000000000E+00  0.39999999673E+01  0.40000000000E+01  0.51109989000E-03 0. -1.
     -623   -1    0    0    0    0  0.00000000000E+00  0.00000000000E+00  0.12525980253E-10  0.17130000000E+03  0.17130000000E+03 0.  1.
       11    1    1    2    0    0  0.13477933919E+00 -0.41278198819E-01 -0.27484178495E-01  0.14361407055E+00  0.51109989000E-03 0. -1.
     -623    1    1    2    0    0 -0.80317061360E-01 -0.91255014707E-01  0.36581292326E+00  0.17130043373E+03  0.17130000000E+03 0.  1.
      622    1    1    2    0    0 -0.54462277827E-01  0.13253321353E+00  0.36616712226E+01  0.38559521956E+01  0.12000000000E+01 0. -1.
</event>
<event>
 5   0  0.5136900E+01  0.9118800E+02  0.7818608E-02  0.1180000E+00
       11   -1    0    0    0    0  0.00000000000E+00  0.00000000000E+00  0.39999999673E+01  0.40000000000E+01  0.51109989000E-03 0. -1.
     -623   -1    0    0    0    0  0.00000000000E+00  0.00000000000E+00  0.12525980253E-10  0.17130000000E+03  0.17130000000E+03 0.  1.
       11    1    1    2    0    0 -0.17354028472E+00 -0.37243838888E-01 -0.42530206966E-01  0.18251688602E+00  0.51109989000E-03 0. -1.
     -623    1    1    2    0    0  0.80400230094E-01 -0.11435784447E+00  0.42354048982E+00  0.17130058064E+03  0.17130000000E+03 0.  1.
      622    1    1    2    0    0  0.93140054628E-01  0.15160168335E+00  0.36189896845E+01  0.38169024715E+01  0.12000000000E+01 0. -1.
</event>
<event>
 5   0  0.5136900E+01  0.9118800E+02  0.7818608E-02  0.1180000E+00
       11   -1    0    0    0    0  0.00000000000E+00  0.00000000000E+00  0.39999999673E+01  0.40000000000E+01  0.51109989000E-03 0. -1.
     -623   -1    0    0    0    0  0.00000000000E+00  0.00000000000E+00  0.12525980253E-10  0.17130000000E+03  0.17130000000E+03 0. -1.
       11    1    1    2    0    0 -0.50098697093E-01 -0.90703580915E-01  0.24757746185E+00  0.26838755538E+00  0.51109989000E-03 0. -1.
     -623    1    1    2    0    0  0.68206920205E-01  0.16260457341E+00  0.22004345654E+00  0.17130023208E+03  0.17130000000E+03 0. -1.
      622    1    1    2    0    0 -0.18108223111E-01 -0.71900992495E-01  0.35323790490E+01  0.37313803620E+01  0.12000000000E+01 0. -1.
</event>
<event>
 5   0  0.5136900E+01  0.9118800E+02  0.7818608E-02  0.1180000E+00
       11   -1    0    0    0    0  0.00000000000E+00  0.00000000000E+00  0.39999999673E+01  0.40000000000E+01  0.51109989000E-03 0. -1.
     -623   -1    0    0    0    0  0.00000000000E+00  0.00000000000E+00  0.12525980253E-10  0.17130000000E+03  0.17130000000E+03 0.  1.
       11    1    1    2    0    0  0.82423892376E-01 -0.11709583789E+00  0.94710475772E+00  0.95786889322E+00  0.51109989000E-03 0. -1.
     -623    1    1    2    0    0  0.29117183474E+00  0.15194943182E+00  0.28334072620E+00  0.17130054919E+03  0.17130000000E+03 0.  1.
      622    1    1    2    0    0 -0.37359572712E+00 -0.34853593930E-01  0.27695544834E+01  0.30415819202E+01  0.12000000000E+01 0. -1.
</event>
<event>
 5   0  0.5136900E+01  0.9118800E+02  0.7818608E-02  0.1180000E+00
       11   -1    0    0    0    0  0.00000000000E+00  0.00000000000E+00  0.39999999673E+01  0.40000000000E+01  0.51109989000E-03 0. -1.
     -623   -1    0    0    0    0  0.00000000000E+00  0.00000000000E+00  0.12525980253E-10  0.17130000000E+03  0.17130000000E+03 0.  1.
       11    1    1    2    0    0  0.11092611407E+00  0.77904215158E-01  0.66596986311E+00  0.67962474154E+00  0.51109989000E-03 0. -1.
     -623    1    1    2    0    0 -0.63293608185E-01 -0.14721547358E-01  0.23928628942E+00  0.17130017945E+03  0.17130000000E+03 0.  1.
      622    1    1    2    0    0 -0.47632505887E-01 -0.63182667800E-01  0.30947438148E+01  0.33201958052E+01  0.12000000000E+01 0. -1.
</event>
<event>
 5   0  0.5136900E+01  0.9118800E+02  0.7818608E-02  0.1180000E+00
       11   -1    0    0    0    0  0.00000000000E+00  0.00000000000E+00  0.39999999673E+01  0.40000000000E+01  0.51109989000E-03 0. -1.
     -623   -1    0    0    0    0  0.00000000000E+00  0.00000000000E+00  0.12525980253E-10  0.17130000000E+03  0.17130000000E+03 0.  1.
       11    1    1    2    0    0  0.10022801793E-01 -0.96242066769E-02 -0.82861069093E-01  0.84019639991E-01  0.51109989000E-03 0. -1.
     -623    1    1    2    0    0  0.33492025941E-01 -0.34765623942E-02  0.35594341963E+00  0.17130037312E+03  0.17130000000E+03 0.  1.
      622    1    1    2    0    0 -0.43514827734E-01  0.13100769071E-01  0.37269176168E+01  0.39156072445E+01  0.12000000000E+01 0. -1.
</event>
<event>
 5   0  0.5136900E+01  0.9118800E+02  0.7818608E-02  0.1180000E+00
       11   -1    0    0    0    0  0.00000000000E+00  0.00000000000E+00  0.39999999673E+01  0.40000000000E+01  0.51109989000E-03 0.  1.
     -623   -1    0    0    0    0  0.00000000000E+00  0.00000000000E+00  0.12525980253E-10  0.17130000000E+03  0.17130000000E+03 0. -1.
       11    1    1    2    0    0 -0.86862228873E-01 -0.48321172031E-01  0.50122600323E+00  0.51098703507E+00  0.51109989000E-03 0.  1.
     -623    1    1    2    0    0 -0.41252734611E+00 -0.44605992075E-01  0.26299413437E+00  0.17130070442E+03  0.17130000000E+03 0. -1.
      622    1    1    2    0    0  0.49938957498E+00  0.92927164107E-01  0.32357798298E+01  0.34883085460E+01  0.12000000000E+01 0.  0.
</event>
<event>
 5   0  0.5136900E+01  0.9118800E+02  0.7818608E-02  0.1180000E+00
       11   -1    0    0    0    0  0.00000000000E+00  0.00000000000E+00  0.39999999673E+01  0.40000000000E+01  0.51109989000E-03 0.  1.
     -623   -1    0    0    0    0  0.00000000000E+00  0.00000000000E+00  0.12525980253E-10  0.17130000000E+03  0.17130000000E+03 0.  1.
       11    1    1    2    0    0  0.28631683483E+00  0.27930626733E-01  0.37557360992E+00  0.47308904818E+00  0.51109989000E-03 0.  1.
     -623    1    1    2    0    0  0.26080169890E+00 -0.35296079161E+00  0.37060934692E+00  0.17130096307E+03  0.17130000000E+03 0.  1.
      622    1    1    2    0    0 -0.54711853373E+00  0.32503016488E+00  0.32538170105E+01  0.35259478777E+01  0.12000000000E+01 0.  0.
</event>
<event>
 5   0  0.5136900E+01  0.9118800E+02  0.7818608E-02  0.1180000E+00
       11   -1    0    0    0    0  0.00000000000E+00  0.00000000000E+00  0.39999999673E+01  0.40000000000E+01  0.51109989000E-03 0. -1.
     -623   -1    0    0    0    0  0.00000000000E+00  0.00000000000E+00  0.12525980253E-10  0.17130000000E+03  0.17130000000E+03 0.  1.
       11    1    1    2    0    0  0.94413853913E-01  0.25358682983E-01 -0.88323922342E-02  0.98159619942E-01  0.51109989000E-03 0. -1.
     -623    1    1    2    0    0 -0.59222469560E-01 -0.11487349323E+00  0.29767238810E+00  0.17130030739E+03  0.17130000000E+03 0.  1.
      622    1    1    2    0    0 -0.35191384354E-01  0.89514810247E-01  0.37111599715E+01  0.39015329896E+01  0.12000000000E+01 0. -1.
</event>
<event>
 5   0  0.5136900E+01  0.9118800E+02  0.7818608E-02  0.1180000E+00
       11   -1    0    0    0    0  0.00000000000E+00  0.00000000000E+00  0.39999999673E+01  0.40000000000E+01  0.51109989000E-03 0. -1.
     -623   -1    0    0    0    0  0.00000000000E+00  0.00000000000E+00  0.12525980253E-10  0.17130000000E+03  0.17130000000E+03 0. -1.
       11    1    1    2    0    0 -0.35249404175E-01 -0.45517587087E+00  0.44418344610E+00  0.63696686643E+00  0.51109989000E-03 0. -1.
     -623    1    1    2    0    0  0.32269219094E+00  0.31494323566E+00  0.43170800091E+00  0.17130113745E+03  0.17130000000E+03 0. -1.
      622    1    1    2    0    0 -0.28744278677E+00  0.14023263520E+00  0.31241085204E+01  0.33618956847E+01  0.12000000000E+01 0. -1.
</event>
<event>
 5   0  0.5136900E+01  0.9118800E+02  0.7818608E-02  0.1180000E+00
       11   -1    0    0    0    0  0.00000000000E+00  0.00000000000E+00  0.39999999673E+01  0.40000000000E+01  0.51109989000E-03 0. -1.
     -623   -1    0    0    0    0  0.00000000000E+00  0.00000000000E+00  0.12525980253E-10  0.17130000000E+03  0.17130000000E+03 0.  1.
       11    1    1    2    0    0 -0.11967276367E+00 -0.38722462142E-01  0.81612766488E-01  0.14993966892E+00  0.51109989000E-03 0. -1.
     -623    1    1    2    0    0  0.21012497844E+00  0.10443400444E+00  0.26220307083E+00  0.17130036138E+03  0.17130000000E+03 0.  1.
      622    1    1    2    0    0 -0.90452214764E-01 -0.65711542294E-01  0.36561841300E+01  0.38496989496E+01  0.12000000000E+01 0. -1.
</event>
<event>
 5   0  0.5136900E+01  0.9118800E+02  0.7818608E-02  0.1180000E+00
       11   -1    0    0    0    0  0.00000000000E+00  0.00000000000E+00  0.39999999673E+01  0.40000000000E+01  0.51109989000E-03 0.  1.
     -623   -1    0    0    0    0  0.00000000000E+00  0.00000000000E+00  0.12525980253E-10  0.17130000000E+03  0.17130000000E+03 0. -1.
       11    1    1    2    0    0 -0.65453597438E-01  0.56191476402E-01  0.89683174510E-01  0.12443869354E+00  0.51109989000E-03 0.  1.
     -623    1    1    2    0    0  0.28882664342E+00  0.13375764054E+00  0.23738439036E+00  0.17130046020E+03  0.17130000000E+03 0. -1.
      622    1    1    2    0    0 -0.22337304598E+00 -0.18994911694E+00  0.36729324025E+01  0.38751011107E+01  0.12000000000E+01 0.  0.
</event>
<event>
 5   0  0.5136900E+01  0.9118800E+02  0.7818608E-02  0.1180000E+00
       11   -1    0    0    0    0  0.00000000000E+00  0.00000000000E+00  0.39999999673E+01  0.40000000000E+01  0.51109989000E-03 0.  1.
     -623   -1    0    0    0    0  0.00000000000E+00  0.00000000000E+00  0.12525980253E-10  0.17130000000E+03  0.17130000000E+03 0.  1.
       11    1    1    2    0    0 -0.18345391975E+00  0.60061426421E-01  0.30280156725E+00  0.35909854631E+00  0.51109989000E-03 0.  1.
     -623    1    1    2    0    0  0.14696223026E+00 -0.35706566176E+00  0.27347789110E+00  0.17130065348E+03  0.17130000000E+03 0.  1.
      622    1    1    2    0    0  0.36491689484E-01  0.29700423534E+00  0.34237205090E+01  0.36402479700E+01  0.12000000000E+01 0.  1.
</event>
<event>
 5   0  0.5136900E+01  0.9118800E+02  0.7818608E-02  0.1180000E+00
       11   -1    0    0    0    0  0.00000000000E+00  0.00000000000E+00  0.39999999673E+01  0.40000000000E+01  0.51109989000E-03 0. -1.
     -623   -1    0    0    0    0  0.00000000000E+00  0.00000000000E+00  0.12525980253E-10  0.17130000000E+03  0.17130000000E+03 0.  1.
       11    1    1    2    0    0 -0.55253723023E-01 -0.16748366806E+00  0.21175780261E+00  0.27558189557E+00  0.51109989000E-03 0. -1.
     -623    1    1    2    0    0  0.11569010761E+00  0.30745499991E+00  0.26628844617E+00  0.17130052196E+03  0.17130000000E+03 0.  1.
      622    1    1    2    0    0 -0.60436384589E-01 -0.13997133185E+00  0.35219537186E+01  0.37238961487E+01  0.12000000000E+01 0. -1.
</event>
<event>
 5   0  0.5136900E+01  0.9118800E+02  0.7818608E-02  0.1180000E+00
       11   -1    0    0    0    0  0.00000000000E+00  0.00000000000E+00  0.39999999673E+01  0.40000000000E+01  0.51109989000E-03 0.  1.
     -623   -1    0    0    0    0  0.00000000000E+00  0.00000000000E+00  0.12525980253E-10  0.17130000000E+03  0.17130000000E+03 0.  1.
       11    1    1    2    0    0 -0.13826875162E+00  0.31956363976E+00  0.11189312789E+00  0.36573145999E+00  0.51109989000E-03 0.  1.
     -623    1    1    2    0    0 -0.12888343197E-01 -0.26099233103E+00  0.46237406493E+00  0.17130082333E+03  0.17130000000E+03 0.  1.
      622    1    1    2    0    0  0.15115709481E+00 -0.58571308736E-01  0.34257327745E+01  0.36334452119E+01  0.12000000000E+01 0.  1.
</event>
<event>
 5   0  0.5136900E+01  0.9118800E+02  0.7818608E-02  0.1180000E+00
       11   -1    0    0    0    0  0.00000000000E+00  0.00000000000E+00  0.39999999673E+01  0.40000000000E+01  0.51109989000E-03 0.  1.
     -623   -1    0    0    0    0  0.00000000000E+00  0.00000000000E+00  0.12525980253E-10  0.17130000000E+03  0.17130000000E+03 0.  1.
       11    1    1    2    0    0  0.49393320498E-01 -0.98443451720E-01  0.16371096789E+00  0.19731283670E+00  0.51109989000E-03 0.  1.
     -623    1    1    2    0    0 -0.20109593513E+00  0.29050857001E+00  0.23677354127E+00  0.17130052801E+03  0.17130000000E+03 0.  1.
      622    1    1    2    0    0  0.15170261463E+00 -0.19206511829E+00  0.35995154582E+01  0.38021591533E+01  0.12000000000E+01 0.  1.
</event>
<event>
 5   0  0.5136900E+01  0.9118800E+02  0.7818608E-02  0.1180000E+00
       11   -1    0    0    0    0  0.00000000000E+00  0.00000000000E+00  0.39999999673E+01  0.40000000000E+01  0.51109989000E-03 0.  1.
     -623   -1    0    0    0    0  0.00000000000E+00  0.00000000000E+00  0.12525980253E-10  0.17130000000E+03  0.17130000000E+03 0.  1.
       11    1    1    2    0    0  0.79898244031E-01  0.35910016183E-01  0.80612632889E-01  0.11904585867E+00  0.51109989000E-03 0.  1.
     -623    1    1    2    0    0 -0.16145405869E+00 -0.98231482093E-01  0.23031443913E+00  0.17130025908E+03  0.17130000000E+03 0.  1.
      622    1    1    2    0    0  0.81555814655E-01  0.62321465910E-01  0.36890728953E+01  0.38806950593E+01  0.12000000000E+01 0.  1.
</event>
<event>
 5   0  0.5136900E+01  0.9118800E+02  0.7818608E-02  0.1180000E+00
       11   -1    0    0    0    0  0.00000000000E+00  0.00000000000E+00  0.39999999673E+01  0.40000000000E+01  0.51109989000E-03 0.  1.
     -623   -1    0    0    0    0  0.00000000000E+00  0.00000000000E+00  0.12525980253E-10  0.17130000000E+03  0.17130000000E+03 0.  1.
       11    1    1    2    0    0  0.14888493051E+00  0.47545589324E+00  0.63399614262E+00  0.80633516545E+00  0.51109989000E-03 0.  1.
     -623    1    1    2    0    0  0.20010435664E+00 -0.18238751248E+00  0.44251351034E+00  0.17130078554E+03  0.17130000000E+03 0.  1.
      622    1    1    2    0    0 -0.34898928716E+00 -0.29306838077E+00  0.29234903144E+01  0.31928792988E+01  0.12000000000E+01 0.  1.
</event>
<event>
 5   0  0.5136900E+01  0.9118800E+02  0.7818608E-02  0.1180000E+00
       11   -1    0    0    0    0  0.00000000000E+00  0.00000000000E+00  0.39999999673E+01  0.40000000000E+01  0.51109989000E-03 0. -1.
     -623   -1    0    0    0    0  0.00000000000E+00  0.00000000000E+00  0.12525980253E-10  0.17130000000E+03  0.17130000000E+03 0. -1.
       11    1    1    2    0    0 -0.13315619577E+00 -0.14887494801E+00  0.62932919259E+00  0.66026495930E+00  0.51109989000E-03 0. -1.
     -623    1    1    2    0    0 -0.12728563249E+00  0.56363740054E+00  0.29402019606E+00  0.17130122690E+03  0.17130000000E+03 0. -1.
      622    1    1    2    0    0  0.26044182825E+00 -0.41476245253E+00  0.30766505787E+01  0.33385081431E+01  0.12000000000E+01 0. -1.
</event>
<event>
 5   0  0.5136900E+01  0.9118800E+02  0.7818608E-02  0.1180000E+00
       11   -1    0    0    0    0  0.00000000000E+00  0.00000000000E+00  0.39999999673E+01  0.40000000000E+01  0.51109989000E-03 0. -1.
     -623   -1    0    0    0    0  0.00000000000E+00  0.00000000000E+00  0.12525980253E-10  0.17130000000E+03  0.17130000000E+03 0.  1.
       11    1    1    2    0    0 -0.10389002141E+00 -0.11088108987E+00  0.39138916233E+00  0.41984936615E+00  0.51109989000E-03 0. -1.
     -623    1    1    2    0    0  0.26080853903E+00  0.22978566842E+00  0.24186618812E+00  0.17130052341E+03  0.17130000000E+03 0.  1.
      622    1    1    2    0    0 -0.15691851762E+00 -0.11890457855E+00  0.33667446169E+01  0.35796272202E+01  0.12000000000E+01 0. -1.
</event>
<event>
 5   0  0.5136900E+01  0.9118800E+02  0.7818608E-02  0.1180000E+00
       11   -1    0    0    0    0  0.00000000000E+00  0.00000000000E+00  0.39999999673E+01  0.40000000000E+01  0.51109989000E-03 0.  1.
     -623   -1    0    0    0    0  0.00000000000E+00  0.00000000000E+00  0.12525980253E-10  0.17130000000E+03  0.17130000000E+03 0.  1.
       11    1    1    2    0    0  0.41342349687E-02  0.88441305405E-02 -0.40616896446E-01  0.41776836211E-01  0.51109989000E-03 0.  1.
     -623    1    1    2    0    0 -0.17494922492E+00  0.79540401688E-01  0.27392682416E+00  0.17130032682E+03  0.17130000000E+03 0.  1.
      622    1    1    2    0    0  0.17081498995E+00 -0.88384532228E-01  0.37666900396E+01  0.39578963404E+01  0.12000000000E+01 0.  1.
</event>
<event>
 5   0  0.5136900E+01  0.9118800E+02  0.7818608E-02  0.1180000E+00
       11   -1    0    0    0    0  0.00000000000E+00  0.00000000000E+00  0.39999999673E+01  0.40000000000E+01  0.51109989000E-03 0.  1.
     -623   -1    0    0    0    0  0.00000000000E+00  0.00000000000E+00  0.12525980253E-10  0.17130000000E+03  0.17130000000E+03 0.  1.
       11    1    1    2    0    0 -0.31802741233E+00  0.30356099701E+00  0.56721408007E+00  0.71765088153E+00  0.51109989000E-03 0.  1.
     -623    1    1    2    0    0  0.23660906939E+00 -0.47615469736E+00  0.38497636271E+00  0.17130125777E+03  0.17130000000E+03 0.  1.
      622    1    1    2    0    0  0.81418342941E-01  0.17259370035E+00  0.30478095246E+01  0.32810913474E+01  0.12000000000E+01 0.  1.
</event>
<event>
 5   0  0.5136900E+01  0.9118800E+02  0.7818608E-02  0.1180000E+00
       11   -1    0    0    0    0  0.00000000000E+00  0.00000000000E+00  0.39999999673E+01  0.40000000000E+01  0.51109989000E-03 0.  1.
     -623   -1    0    0    0    0  0.00000000000E+00  0.00000000000E+00  0.12525980253E-10  0.17130000000E+03  0.17130000000E+03 0. -1.
       11    1    1    2    0    0 -0.90449946315E-01  0.70085126491E-01  0.59538517103E+00  0.60628118958E+00  0.51109989000E-03 0.  1.
     -623    1    1    2    0    0  0.12923701734E+00 -0.93690114977E-01  0.23070450694E+00  0.17130022973E+03  0.17130000000E+03 0. -1.
      622    1    1    2    0    0 -0.38787071028E-01  0.23604988486E-01  0.31739102894E+01  0.33934890832E+01  0.12000000000E+01 0.  1.
</event>
<event>
 5   0  0.5136900E+01  0.9118800E+02  0.7818608E-02  0.1180000E+00
       11   -1    0    0    0    0  0.00000000000E+00  0.00000000000E+00  0.39999999673E+01  0.40000000000E+01  0.51109989000E-03 0. -1.
     -623   -1    0    0    0    0  0.00000000000E+00  0.00000000000E+00  0.12525980253E-10  0.17130000000E+03  0.17130000000E+03 0.  1.
       11    1    1    2    0    0  0.19522555427E-01 -0.43281620003E-02  0.99431088066E-01  0.10142320076E+00  0.51109989000E-03 0. -1.
     -623    1    1    2    0    0 -0.74637645839E-01  0.53113080599E-01  0.19213898847E+00  0.17130013225E+03  0.17130000000E+03 0.  1.
      622    1    1    2    0    0  0.55115090411E-01 -0.48784918599E-01  0.37084298908E+01  0.38984445484E+01  0.12000000000E+01 0. -1.
</event>
<event>
 5   0  0.5136900E+01  0.9118800E+02  0.7818608E-02  0.1180000E+00
       11   -1    0    0    0    0  0.00000000000E+00  0.00000000000E+00  0.39999999673E+01  0.40000000000E+01  0.51109989000E-03 0.  1.
     -623   -1    0    0    0    0  0.00000000000E+00  0.00000000000E+00  0.12525980253E-10  0.17130000000E+03  0.17130000000E+03 0.  1.
       11    1    1    2    0    0  0.25113742032E+00  0.14135858287E+00  0.74988341124E+00  0.80335399701E+00  0.51109989000E-03 0.  1.
     -623    1    1    2    0    0 -0.29587746147E+00  0.61074681937E-01  0.29508070007E+00  0.17130052057E+03  0.17130000000E+03 0.  1.
      622    1    1    2    0    0  0.44740041150E-01 -0.20243326481E+00  0.29550358560E+01  0.31961254369E+01  0.12000000000E+01 0.  1.
</event>
<event>
 5   0  0.5136900E+01  0.9118800E+02  0.7818608E-02  0.1180000E+00
       11   -1    0    0    0    0  0.00000000000E+00  0.00000000000E+00  0.39999999673E+01  0.40000000000E+01  0.51109989000E-03 0.  1.
     -623   -1    0    0    0    0  0.00000000000E+00  0.00000000000E+00  0.12525980253E-10  0.17130000000E+03  0.17130000000E+03 0. -1.
       11    1    1    2    0    0 -0.68275990834E-01 -0.50832890407E-01 -0.10423650449E-01  0.85758424554E-01  0.51109989000E-03 0.  1.
     -623    1    1    2    0    0  0.10627025933E+00 -0.48835341278E-01  0.28648458450E+00  0.17130027949E+03  0.17130000000E+03 0. -1.
      622    1    1    2    0    0 -0.37994268500E-01  0.99668231686E-01  0.37239390333E+01  0.39139620903E+01  0.12000000000E+01 0.  1.
</event>
<event>
 5   0  0.5136900E+01  0.9118800E+02  0.7818608E-02  0.1180000E+00
       11   -1    0    0    0    0  0.00000000000E+00  0.00000000000E+00  0.39999999673E+01  0.40000000000E+01  0.51109989000E-03 0. -1.
     -623   -1    0    0    0    0  0.00000000000E+00  0.00000000000E+00  0.12525980253E-10  0.17130000000E+03  0.17130000000E+03 0.  1.
       11    1    1    2    0    0 -0.21528335303E-01  0.21876953688E-01 -0.12707284630E-01  0.33223585428E-01  0.51109989000E-03 0. -1.
     -623    1    1    2    0    0  0.12218730083E+00  0.10406821694E+00  0.23548073374E+00  0.17130023704E+03  0.17130000000E+03 0.  1.
      622    1    1    2    0    0 -0.10065896553E+00 -0.12594517063E+00  0.37772265182E+01  0.39665393712E+01  0.12000000000E+01 0. -1.
</event>
<event>
 5   0  0.5136900E+01  0.9118800E+02  0.7818608E-02  0.1180000E+00
       11   -1    0    0    0    0  0.00000000000E+00  0.00000000000E+00  0.39999999673E+01  0.40000000000E+01  0.51109989000E-03 0.  1.
     -623   -1    0    0    0    0  0.00000000000E+00  0.00000000000E+00  0.12525980253E-10  0.17130000000E+03  0.17130000000E+03 0.  1.
       11    1    1    2    0    0 -0.21448911379E+00 -0.51792140210E-01  0.28242396287E+00  0.35840139753E+00  0.51109989000E-03 0.  1.
     -623    1    1    2    0    0  0.19171248286E+00 -0.54723251927E-01  0.28146671835E+00  0.17130034726E+03  0.17130000000E+03 0.  1.
      622    1    1    2    0    0  0.22776630933E-01  0.10651539214E+00  0.34361092861E+01  0.36412513412E+01  0.12000000000E+01 0.  1.
</event>
<event>
 5   0  0.5136900E+01  0.9118800E+02  0.7818608E-02  0.1180000E+00
       11   -1    0    0    0    0  0.00000000000E+00  0.00000000000E+00  0.39999999673E+01  0.40000000000E+01  0.51109989000E-03 0.  1.
     -623   -1    0    0    0    0  0.00000000000E+00  0.00000000000E+00  0.12525980253E-10  0.17130000000E+03  0.17130000000E+03 0. -1.
       11    1    1    2    0    0 -0.17019431201E+00 -0.27011672340E-01  0.33765330577E+00  0.37908541307E+00  0.51109989000E-03 0.  1.
     -623    1    1    2    0    0  0.32661284441E-01  0.43175351782E+00  0.27372672300E+00  0.17130076592E+03  0.17130000000E+03 0. -1.
      622    1    1    2    0    0  0.13753302757E+00 -0.40474184548E+00  0.33886199386E+01  0.36201486687E+01  0.12000000000E+01 0.  1.
</event>
<event>
 5   0  0.5136900E+01  0.9118800E+02  0.7818608E-02  0.1180000E+00
       11   -1    0    0    0    0  0.00000000000E+00  0.00000000000E+00  0.39999999673E+01  0.40000000000E+01  0.51109989000E-03 0.  1.
     -623   -1    0    0    0    0  0.00000000000E+00  0.00000000000E+00  0.12525980253E-10  0.17130000000E+03  0.17130000000E+03 0. -1.
       11    1    1    2    0    0 -0.63081435910E-01 -0.86880686038E-02  0.21263784124E+00  0.22196815727E+00  0.51109989000E-03 0.  1.
     -623    1    1    2    0    0  0.15074164438E+00  0.21010514325E+00  0.21205724051E+00  0.17130032643E+03  0.17130000000E+03 0. -1.
      622    1    1    2    0    0 -0.87660208472E-01 -0.20141707465E+00  0.35753048856E+01  0.37777054114E+01  0.12000000000E+01 0.  1.
</event>
<event>
 5   0  0.5136900E+01  0.9118800E+02  0.7818608E-02  0.1180000E+00
       11   -1    0    0    0    0  0.00000000000E+00  0.00000000000E+00  0.39999999673E+01  0.40000000000E+01  0.51109989000E-03 0. -1.
     -623   -1    0    0    0    0  0.00000000000E+00  0.00000000000E+00  0.12525980253E-10  0.17130000000E+03  0.17130000000E+03 0.  1.
       11    1    1    2    0    0 -0.12966961281E+00 -0.23960399726E+00  0.60015435438E+00  0.65909771225E+00  0.51109989000E-03 0. -1.
     -623    1    1    2    0    0 -0.99643207379E-01  0.30319080752E-01  0.29770061651E+00  0.17130029035E+03  0.17130000000E+03 0.  1.
      622    1    1    2    0    0  0.22931282019E+00  0.20928491651E+00  0.31021449965E+01  0.33406119387E+01  0.12000000000E+01 0. -1.
</event>
<event>
 5   0  0.5136900E+01  0.9118800E+02  0.7818608E-02  0.1180000E+00
       11   -1    0    0    0    0  0.00000000000E+00  0.00000000000E+00  0.39999999673E+01  0.40000000000E+01  0.51109989000E-03 0.  1.
     -623   -1    0    0    0    0  0.00000000000E+00  0.00000000000E+00  0.12525980253E-10  0.17130000000E+03  0.17130000000E+03 0. -1.
       11    1    1    2    0    0  0.12432964595E+00  0.37518071966E-01  0.98311811981E+00  0.99165869396E+00  0.51109989000E-03 0.  1.
     -623    1    1    2    0    0 -0.25510553899E+00  0.38273879803E+00  0.29453709151E+00  0.17130087075E+03  0.17130000000E+03 0. -1.
      622    1    1    2    0    0  0.13077589303E+00 -0.42025686999E+00  0.27223447560E+01  0.30074705554E+01  0.12000000000E+01 0.  1.
</event>
<event>
 5   0  0.5136900E+01  0.9118800E+02  0.7818608E-02  0.1180000E+00
       11   -1    0    0    0    0  0.00000000000E+00  0.00000000000E+00  0.39999999673E+01  0.40000000000E+01  0.51109989000E-03 0.  1.
     -623   -1    0    0    0    0  0.00000000000E+00  0.00000000000E+00  0.12525980253E-10  0.17130000000E+03  0.17130000000E+03 0. -1.
       11    1    1    2    0    0  0.90969009338E-01 -0.29265439739E-01 -0.55577264122E-01  0.11054827060E+00  0.51109989000E-03 0.  1.
     -623    1    1    2    0    0  0.15084911768E+00  0.37656966537E+00  0.38111059360E+00  0.17130090428E+03  0.17130000000E+03 0. -1.
      622    1    1    2    0    0 -0.24181812702E+00 -0.34730422563E+00  0.36744666379E+01  0.38885474543E+01  0.12000000000E+01 0.  1.
</event>
<event>
 5   0  0.5136900E+01  0.9118800E+02  0.7818608E-02  0.1180000E+00
       11   -1    0    0    0    0  0.00000000000E+00  0.00000000000E+00  0.39999999673E+01  0.40000000000E+01  0.51109989000E-03 0. -1.
     -623   -1    0    0    0    0  0.00000000000E+00  0.00000000000E+00  0.12525980253E-10  0.17130000000E+03  0.17130000000E+03 0.  1.
       11    1    1    2    0    0  0.46848253208E-01  0.58138388202E-01 -0.12707244414E+00  0.14738554303E+00  0.51109989000E-03 0. -1.
     -623    1    1    2    0    0 -0.14160822183E-01 -0.57351324238E-01  0.46693752314E+00  0.17130064658E+03  0.17130000000E+03 0.  1.
      622    1    1    2    0    0 -0.32687431024E-01 -0.78706396410E-03  0.36601348884E+01  0.38519678722E+01  0.12000000000E+01 0. -1.
</event>
<event>
 5   0  0.5136900E+01  0.9118800E+02  0.7818608E-02  0.1180000E+00
       11   -1    0    0    0    0  0.00000000000E+00  0.00000000000E+00  0.39999999673E+01  0.40000000000E+01  0.51109989000E-03 0. -1.
     -623   -1    0    0    0    0  0.00000000000E+00  0.00000000000E+00  0.12525980253E-10  0.17130000000E+03  0.17130000000E+03 0.  1.
       11    1    1    2    0    0  0.77451861191E-01  0.13845248628E+00  0.95288832276E-01  0.18506243416E+00  0.51109989000E-03 0. -1.
     -623    1    1    2    0    0 -0.29318368147E+00  0.10835882230E+00  0.29886478508E+00  0.17130054588E+03  0.17130000000E+03 0.  1.
      622    1    1    2    0    0  0.21573182028E+00 -0.24681130858E+00  0.36058463500E+01  0.38143916868E+01  0.12000000000E+01 0. -1.
</event>
<event>
 5   0  0.5136900E+01  0.9118800E+02  0.7818608E-02  0.1180000E+00
       11   -1    0    0    0    0  0.00000000000E+00  0.00000000000E+00  0.39999999673E+01  0.40000000000E+01  0.51109989000E-03 0.  1.
     -623   -1    0    0    0    0  0.00000000000E+00  0.00000000000E+00  0.12525980253E-10  0.17130000000E+03  0.17130000000E+03 0.  1.
       11    1    1    2    0    0  0.68722456365E-04  0.46773299600E-01  0.20056402120E+00  0.20594643502E+00  0.51109989000E-03 0.  1.
     -623    1    1    2    0    0  0.28641021361E+00 -0.12550582124E+00  0.21287712243E+00  0.17130041769E+03  0.17130000000E+03 0.  1.
      622    1    1    2    0    0 -0.28647893606E+00  0.78732521639E-01  0.35865588237E+01  0.37936358796E+01  0.12000000000E+01 0.  1.
</event>
<event>
 5   0  0.5136900E+01  0.9118800E+02  0.7818608E-02  0.1180000E+00
       11   -1    0    0    0    0  0.00000000000E+00  0.00000000000E+00  0.39999999673E+01  0.40000000000E+01  0.51109989000E-03 0.  1.
     -623   -1    0    0    0    0  0.00000000000E+00  0.00000000000E+00  0.12525980253E-10  0.17130000000E+03  0.17130000000E+03 0. -1.
       11    1    1    2    0    0  0.21842136189E+00  0.31353979835E+00  0.52805647055E+00  0.65181208472E+00  0.51109989000E-03 0.  1.
     -623    1    1    2    0    0 -0.55267239908E-01 -0.21457482441E+00  0.35255892373E+00  0.17130050611E+03  0.17130000000E+03 0. -1.
      622    1    1    2    0    0 -0.16315412198E+00 -0.98964973946E-01  0.31193845731E+01  0.33476818021E+01  0.12000000000E+01 0.  1.
</event>
<event>
 5   0  0.5136900E+01  0.9118800E+02  0.7818608E-02  0.1180000E+00
       11   -1    0    0    0    0  0.00000000000E+00  0.00000000000E+00  0.39999999673E+01  0.40000000000E+01  0.51109989000E-03 0.  1.
     -623   -1    0    0    0    0  0.00000000000E+00  0.00000000000E+00  0.12525980253E-10  0.17130000000E+03  0.17130000000E+03 0.  1.
       11    1    1    2    0    0  0.25448746125E-03 -0.55931163097E-01  0.18290806737E+00  0.19126939666E+00  0.51109989000E-03 0.  1.
     -623    1    1    2    0    0  0.15452665665E+00  0.17263793482E+00  0.20784029297E+00  0.17130028278E+03  0.17130000000E+03 0.  1.
      622    1    1    2    0    0 -0.15478114411E+00 -0.11670677173E+00  0.36092516070E+01  0.38084478250E+01  0.12000000000E+01 0.  1.
</event>
<event>
 5   0  0.5136900E+01  0.9118800E+02  0.7818608E-02  0.1180000E+00
       11   -1    0    0    0    0  0.00000000000E+00  0.00000000000E+00  0.39999999673E+01  0.40000000000E+01  0.51109989000E-03 0.  1.
     -623   -1    0    0    0    0  0.00000000000E+00  0.00000000000E+00  0.12525980253E-10  0.17130000000E+03  0.17130000000E+03 0.  1.
       11    1    1    2    0    0 -0.18009320696E-01  0.18608436991E-01  0.48768027081E-01  0.55219482500E-01  0.51109989000E-03 0.  1.
     -623    1    1    2    0    0  0.37141896276E-02  0.28043476211E-02  0.19360412211E+00  0.17130010947E+03  0.17130000000E+03 0.  1.
      622    1    1    2    0    0  0.14295131068E-01 -0.21412784612E-01  0.37576278182E+01  0.39446710481E+01  0.12000000000E+01 0.  1.
</event>
<event>
 5   0  0.5136900E+01  0.9118800E+02  0.7818608E-02  0.1180000E+00
       11   -1    0    0    0    0  0.00000000000E+00  0.00000000000E+00  0.39999999673E+01  0.40000000000E+01  0.51109989000E-03 0.  1.
     -623   -1    0    0    0    0  0.00000000000E+00  0.00000000000E+00  0.12525980253E-10  0.17130000000E+03  0.17130000000E+03 0.  1.
       11    1    1    2    0    0  0.27646530970E+00 -0.11715329339E+00  0.31231413587E+00  0.43324166733E+00  0.51109989000E-03 0.  1.
     -623    1    1    2    0    0 -0.88517763377E-01  0.20293872644E+00  0.33571410553E+00  0.17130047205E+03  0.17130000000E+03 0.  1.
      622    1    1    2    0    0 -0.18794754632E+00 -0.85785433050E-01  0.33519717260E+01  0.35662862858E+01  0.12000000000E+01 0.  1.
</event>
<event>
 5   0  0.5136900E+01  0.9118800E+02  0.7818608E-02  0.1180000E+00
       11   -1    0    0    0    0  0.00000000000E+00  0.00000000000E+00  0.39999999673E+01  0.40000000000E+01  0.51109989000E-03 0.  1.
     -623   -1    0    0    0    0  0.00000000000E+00  0.00000000000E+00  0.12525980253E-10  0.17130000000E+03  0.17130000000E+03 0. -1.
       11    1    1    2    0    0  0.28317825617E-01 -0.12461821174E-02 -0.28448784586E-01  0.40162753704E-01  0.51109989000E-03 0.  1.
     -623    1    1    2    0    0 -0.27588490751E-01  0.65224419119E-01  0.25557299587E+00  0.17130020529E+03  0.17130000000E+03 0. -1.
      622    1    1    2    0    0 -0.72933486655E-03 -0.63978237002E-01  0.37728757561E+01  0.39596319548E+01  0.12000000000E+01 0.  1.
</event>
<event>
 5   0  0.5136900E+01  0.9118800E+02  0.7818608E-02  0.1180000E+00
       11   -1    0    0    0    0  0.00000000000E+00  0.00000000000E+00  0.39999999673E+01  0.40000000000E+01  0.51109989000E-03 0. -1.
     -623   -1    0    0    0    0  0.00000000000E+00  0.00000000000E+00  0.12525980253E-10  0.17130000000E+03  0.17130000000E+03 0. -1.
       11    1    1    2    0    0 -0.38171870361E-01  0.10118051327E+00  0.13336807661E+00  0.17170292086E+00  0.51109989000E-03 0. -1.
     -623    1    1    2    0    0  0.33532755721E-01 -0.21936772224E+00  0.23351344191E+00  0.17130030290E+03  0.17130000000E+03 0. -1.
      622    1    1    2    0    0  0.46391146400E-02  0.11818720897E+00  0.36331184488E+01  0.38279941746E+01  0.12000000000E+01 0. -1.
</event>
<event>
 5   0  0.5136900E+01  0.9118800E+02  0.7818608E-02  0.1180000E+00
       11   -1    0    0    0    0  0.00000000000E+00  0.00000000000E+00  0.39999999673E+01  0.40000000000E+01  0.51109989000E-03 0. -1.
     -623   -1    0    0    0    0  0.00000000000E+00  0.00000000000E+00  0.12525980253E-10  0.17130000000E+03  0.17130000000E+03 0.  1.
       11    1    1    2    0    0  0.61015300409E-01  0.87112455563E-02 -0.34473152448E-01  0.70621612456E-01  0.51109989000E-03 0. -1.
     -623    1    1    2    0    0 -0.33803235194E-01 -0.26893536194E+00  0.30247986596E+00  0.17130048150E+03  0.17130000000E+03 0.  1.
      622    1    1    2    0    0 -0.27212065214E-01  0.26022411638E+00  0.37319932539E+01  0.39288968851E+01  0.12000000000E+01 0. -1.
</event>
<event>
 5   0  0.5136900E+01  0.9118800E+02  0.7818608E-02  0.1180000E+00
       11   -1    0    0    0    0  0.00000000000E+00  0.00000000000E+00  0.39999999673E+01  0.40000000000E+01  0.51109989000E-03 0.  1.
     -623   -1    0    0    0    0  0.00000000000E+00  0.00000000000E+00  0.12525980253E-10  0.17130000000E+03  0.17130000000E+03 0.  1.
       11    1    1    2    0    0 -0.33912991063E-01  0.71045910415E-01  0.14542749558E+00  0.16536937456E+00  0.51109989000E-03 0.  1.
     -623    1    1    2    0    0  0.14538982833E+00  0.27388587016E+00  0.23108804542E+00  0.17130043652E+03  0.17130000000E+03 0.  1.
      622    1    1    2    0    0 -0.11147683726E+00 -0.34493178058E+00  0.36234844264E+01  0.38341941013E+01  0.12000000000E+01 0.  1.
</event>
<event>
 5   0  0.5136900E+01  0.9118800E+02  0.7818608E-02  0.1180000E+00
       11   -1    0    0    0    0  0.00000000000E+00  0.00000000000E+00  0.39999999673E+01  0.40000000000E+01  0.51109989000E-03 0.  1.
     -623   -1    0    0    0    0  0.00000000000E+00  0.00000000000E+00  0.12525980253E-10  0.17130000000E+03  0.17130000000E+03 0. -1.
       11    1    1    2    0    0 -0.17476482755E+00 -0.88676834911E-01  0.65536106851E+00  0.68403561117E+00  0.51109989000E-03 0.  1.
     -623    1    1    2    0    0 -0.36599155361E-01  0.26443471014E+00  0.26611586827E+00  0.17130041472E+03  0.17130000000E+03 0. -1.
      622    1    1    2    0    0  0.21136398291E+00 -0.17575787523E+00  0.30785230306E+01  0.33155496699E+01  0.12000000000E+01 0.  1.
</event>
<event>
 5   0  0.5136900E+01  0.9118800E+02  0.7818608E-02  0.1180000E+00
       11   -1    0    0    0    0  0.00000000000E+00  0.00000000000E+00  0.39999999673E+01  0.40000000000E+01  0.51109989000E-03 0. -1.
     -623   -1    0    0    0    0  0.00000000000E+00  0.00000000000E+00  0.12525980253E-10  0.17130000000E+03  0.17130000000E+03 0. -1.
       11    1    1    2    0    0 -0.12054242614E+00 -0.59247655361E-02  0.25198211091E+00  0.27939367349E+00  0.51109989000E-03 0. -1.
     -623    1    1    2    0    0  0.30491613992E+00  0.16435011474E+00  0.23518252641E+00  0.17130051166E+03  0.17130000000E+03 0. -1.
      622    1    1    2    0    0 -0.18437371378E+00 -0.15842534920E+00  0.35128353300E+01  0.37200946646E+01  0.12000000000E+01 0. -1.
</event>
<event>
 5   0  0.5136900E+01  0.9118800E+02  0.7818608E-02  0.1180000E+00
       11   -1    0    0    0    0  0.00000000000E+00  0.00000000000E+00  0.39999999673E+01  0.40000000000E+01  0.51109989000E-03 0. -1.
     -623   -1    0    0    0    0  0.00000000000E+00  0.00000000000E+00  0.12525980253E-10  0.17130000000E+03  0.17130000000E+03 0.  1.
       11    1    1    2    0    0  0.96781590953E-01 -0.22394967615E+00  0.41235132046E+00  0.47911794634E+00  0.51109989000E-03 0. -1.
     -623    1    1    2    0    0 -0.19845458155E+00  0.48741483126E+00  0.29076678708E+00  0.17130105517E+03  0.17130000000E+03 0.  1.
      622    1    1    2    0    0  0.10167299060E+00 -0.26346515511E+00  0.32968818598E+01  0.35198268825E+01  0.12000000000E+01 0. -1.
</event>
<event>
 5   0  0.5136900E+01  0.9118800E+02  0.7818608E-02  0.1180000E+00
       11   -1    0    0    0    0  0.00000000000E+00  0.00000000000E+00  0.39999999673E+01  0.40000000000E+01  0.51109989000E-03 0. -1.
     -623   -1    0    0    0    0  0.00000000000E+00  0.00000000000E+00  0.12525980253E-10  0.17130000000E+03  0.17130000000E+03 0. -1.
       11    1    1    2    0    0 -0.13944440547E+00 -0.26972053059E-01  0.58715731762E+00  0.60409122715E+00  0.51109989000E-03 0. -1.
     -623    1    1    2    0    0  0.13491200516E+00  0.80001604109E-01  0.23671840833E+00  0.17130023537E+03  0.17130000000E+03 0. -1.
      622    1    1    2    0    0  0.45324003125E-02 -0.53029551050E-01  0.31761242414E+01  0.33956734049E+01  0.12000000000E+01 0. -1.
</event>
<event>
 5   0  0.5136900E+01  0.9118800E+02  0.7818608E-02  0.1180000E+00
       11   -1    0    0    0    0  0.00000000000E+00  0.00000000000E+00  0.39999999673E+01  0.40000000000E+01  0.51109989000E-03 0. -1.
     -623   -1    0    0    0    0  0.00000000000E+00  0.00000000000E+00  0.12525980253E-10  0.17130000000E+03  0.17130000000E+03 0.  1.
       11    1    1    2    0    0 -0.11028337486E-01  0.77438473124E-01 -0.38744021700E-01  0.87290903229E-01  0.51109989000E-03 0. -1.
     -623    1    1    2    0    0  0.15124903507E+00 -0.38548997662E-01  0.31782277444E+00  0.17130036595E+03  0.17130000000E+03 0.  1.
      622    1    1    2    0    0 -0.14022069758E+00 -0.38889475462E-01  0.37209212146E+01  0.39123431497E+01  0.12000000000E+01 0. -1.
</event>
<event>
 5   0  0.5136900E+01  0.9118800E+02  0.7818608E-02  0.1180000E+00
       11   -1    0    0    0    0  0.00000000000E+00  0.00000000000E+00  0.39999999673E+01  0.40000000000E+01  0.51109989000E-03 0.  1.
     -623   -1    0    0    0    0  0.00000000000E+00  0.00000000000E+00  0.12525980253E-10  0.17130000000E+03  0.17130000000E+03 0. -1.
       11    1    1    2    0    0  0.18714841741E+00  0.14685607890E+00  0.88016175525E-01  0.25365004716E+00  0.51109989000E-03 0.  1.
     -623    1    1    2    0    0 -0.44054723737E+00  0.16178185314E+00  0.38670602576E+00  0.17130107938E+03  0.17130000000E+03 0. -1.
      622    1    1    2    0    0  0.25339881996E+00 -0.30863793204E+00  0.35252777661E+01  0.37452705727E+01  0.12000000000E+01 0.  1.
</event>
<event>
 5   0  0.5136900E+01  0.9118800E+02  0.7818608E-02  0.1180000E+00
       11   -1    0    0    0    0  0.00000000000E+00  0.00000000000E+00  0.39999999673E+01  0.40000000000E+01  0.51109989000E-03 0.  1.
     -623   -1    0    0    0    0  0.00000000000E+00  0.00000000000E+00  0.12525980253E-10  0.17130000000E+03  0.17130000000E+03 0. -1.
       11    1    1    2    0    0  0.87076547447E-01  0.24451554372E+00  0.70912632305E+00  0.75513613310E+00  0.51109989000E-03 0.  1.
     -623    1    1    2    0    0  0.75020316555E-01 -0.20163708598E+00  0.28111385484E+00  0.17130036576E+03  0.17130000000E+03 0. -1.
      622    1    1    2    0    0 -0.16209686400E+00 -0.42878457748E-01  0.30097597895E+01  0.32444981038E+01  0.12000000000E+01 0.  1.
</event>
<event>
 5   0  0.5136900E+01  0.9118800E+02  0.7818608E-02  0.1180000E+00
       11   -1    0    0    0    0  0.00000000000E+00  0.00000000000E+00  0.39999999673E+01  0.40000000000E+01  0.51109989000E-03 0.  1.
     -623   -1    0    0    0    0  0.00000000000E+00  0.00000000000E+00  0.12525980253E-10  0.17130000000E+03  0.17130000000E+03 0. -1.
       11    1    1    2    0    0 -0.12505288705E+00  0.59334169352E-01  0.46154175532E-01  0.14590831832E+00  0.51109989000E-03 0.  1.
     -623    1    1    2    0    0  0.29020327243E+00 -0.18252794688E+00  0.29776422245E+00  0.17130060186E+03  0.17130000000E+03 0. -1.
      622    1    1    2    0    0 -0.16515038538E+00  0.12319377753E+00  0.36560815694E+01  0.38534898207E+01  0.12000000000E+01 0.  1.
</event>
<event>
 5   0  0.5136900E+01  0.9118800E+02  0.7818608E-02  0.1180000E+00
       11   -1    0    0    0    0  0.00000000000E+00  0.00000000000E+00  0.39999999673E+01  0.40000000000E+01  0.51109989000E-03 0.  1.
     -623   -1    0    0    0    0  0.00000000000E+00  0.00000000000E+00  0.12525980253E-10  0.17130000000E+03  0.17130000000E+03 0. -1.
       11    1    1    2    0    0  0.21420222110E-01  0.88769732454E-01 -0.13940829758E+00  0.16665481083E+00  0.51109989000E-03 0.  1.
     -623    1    1    2    0    0 -0.36014859434E-01  0.11963618012E+00  0.50556444193E+00  0.17130079161E+03  0.17130000000E+03 0. -1.
      622    1    1    2    0    0  0.14594637325E-01 -0.20840591258E+00  0.36338438230E+01  0.38325535819E+01  0.12000000000E+01 0.  1.
</event>
<event>
 5   0  0.5136900E+01  0.9118800E+02  0.7818608E-02  0.1180000E+00
       11   -1    0    0    0    0  0.00000000000E+00  0.00000000000E+00  0.39999999673E+01  0.40000000000E+01  0.51109989000E-03 0.  1.
     -623   -1    0    0    0    0  0.00000000000E+00  0.00000000000E+00  0.12525980253E-10  0.17130000000E+03  0.17130000000E+03 0.  1.
       11    1    1    2    0    0 -0.14055175316E+00  0.15029204591E-01 -0.16250885722E-01  0.14228501263E+00  0.51109989000E-03 0.  1.
     -623    1    1    2    0    0  0.28047968369E+00  0.17393725012E+00  0.35820017203E+00  0.17130069244E+03  0.17130000000E+03 0.  1.
      622    1    1    2    0    0 -0.13992793053E+00 -0.18896645471E+00  0.36580506810E+01  0.38570225475E+01  0.12000000000E+01 0.  1.
</event>
<event>
 5   0  0.5136900E+01  0.9118800E+02  0.7818608E-02  0.1180000E+00
       11   -1    0    0    0    0  0.00000000000E+00  0.00000000000E+00  0.39999999673E+01  0.40000000000E+01  0.51109989000E-03 0.  1.
     -623   -1    0    0    0    0  0.00000000000E+00  0.00000000000E+00  0.12525980253E-10  0.17130000000E+03  0.17130000000E+03 0.  1.
       11    1    1    2    0    0 -0.89038991817E-01 -0.47148519046E-01  0.17643709073E+00  0.20317783620E+00  0.51109989000E-03 0.  1.
     -623    1    1    2    0    0  0.88568392689E-01  0.91048991635E-01  0.22182957107E+00  0.17130019073E+03  0.17130000000E+03 0.  1.
      622    1    1    2    0    0  0.47059912836E-03 -0.43900472589E-01  0.36017333056E+01  0.37966314382E+01  0.12000000000E+01 0.  1.
</event>
<event>
 5   0  0.5136900E+01  0.9118800E+02  0.7818608E-02  0.1180000E+00
       11   -1    0    0    0    0  0.00000000000E+00  0.00000000000E+00  0.39999999673E+01  0.40000000000E+01  0.51109989000E-03 0.  1.
     -623   -1    0    0    0    0  0.00000000000E+00  0.00000000000E+00  0.12525980253E-10  0.17130000000E+03  0.17130000000E+03 0.  1.
       11    1    1    2    0    0  0.41487821627E-01  0.66712564950E-01  0.80932079748E-01  0.11279214698E+00  0.51109989000E-03 0.  1.
     -623    1    1    2    0    0 -0.28630604343E-01 -0.29121666172E-01  0.22208947116E+00  0.17130014884E+03  0.17130000000E+03 0.  1.
      622    1    1    2    0    0 -0.12857217285E-01 -0.37590898778E-01  0.36969784165E+01  0.38870590162E+01  0.12000000000E+01 0.  1.
</event>
<event>
 5   0  0.5136900E+01  0.9118800E+02  0.7818608E-02  0.1180000E+00
       11   -1    0    0    0    0  0.00000000000E+00  0.00000000000E+00  0.39999999673E+01  0.40000000000E+01  0.51109989000E-03 0.  1.
     -623   -1    0    0    0    0  0.00000000000E+00  0.00000000000E+00  0.12525980253E-10  0.17130000000E+03  0.17130000000E+03 0. -1.
       11    1    1    2    0    0 -0.35499410876E+00 -0.13994585753E-01  0.18498103344E+00  0.40054326813E+00  0.51109989000E-03 0.  1.
     -623    1    1    2    0    0  0.81177711677E-01 -0.12748481206E+00  0.43617004401E+00  0.17130062197E+03  0.17130000000E+03 0. -1.
      622    1    1    2    0    0  0.27381639709E+00  0.14147939781E+00  0.33788488899E+01  0.35988347642E+01  0.12000000000E+01 0.  1.
</event>
<event>
 5   0  0.5136900E+01  0.9118800E+02  0.7818608E-02  0.1180000E+00
       11   -1    0    0    0    0  0.00000000000E+00  0.00000000000E+00  0.39999999673E+01  0.40000000000E+01  0.51109989000E-03 0. -1.
     -623   -1    0    0    0    0  0.00000000000E+00  0.00000000000E+00  0.12525980253E-10  0.17130000000E+03  0.17130000000E+03 0. -1.
       11    1    1    2    0    0  0.18292727292E+00 -0.38022501485E-01  0.39995437453E+00  0.44144293032E+00  0.51109989000E-03 0. -1.
     -623    1    1    2    0    0 -0.79245646133E-01 -0.57699063030E-01  0.25312382246E+00  0.17130021506E+03  0.17130000000E+03 0. -1.
      622    1    1    2    0    0 -0.10368162679E+00  0.95721564516E-01  0.33469217704E+01  0.35583420064E+01  0.12000000000E+01 0. -1.
</event>
<event>
 5   0  0.5136900E+01  0.9118800E+02  0.7818608E-02  0.1180000E+00
       11   -1    0    0    0    0  0.00000000000E+00  0.00000000000E+00  0.39999999673E+01  0.40000000000E+01  0.51109989000E-03 0. -1.
     -623   -1    0    0    0    0  0.00000000000E+00  0.00000000000E+00  0.12525980253E-10  0.17130000000E+03  0.17130000000E+03 0.  1.
       11    1    1    2    0    0 -0.11936828150E+00 -0.13715314996E+00  0.16863767323E+00  0.24798931272E+00  0.51109989000E-03 0. -1.
     -623    1    1    2    0    0  0.25559019946E-01  0.41993429191E+00  0.28973782283E+00  0.17130076166E+03  0.17130000000E+03 0.  1.
      622    1    1    2    0    0  0.93809261554E-01 -0.28278114195E+00  0.35416244713E+01  0.37512490250E+01  0.12000000000E+01 0. -1.
</event>
<event>
 5   0  0.5136900E+01  0.9118800E+02  0.7818608E-02  0.1180000E+00
       11   -1    0    0    0    0  0.00000000000E+00  0.00000000000E+00  0.39999999673E+01  0.40000000000E+01  0.51109989000E-03 0. -1.
     -623   -1    0    0    0    0  0.00000000000E+00  0.00000000000E+00  0.12525980253E-10  0.17130000000E+03  0.17130000000E+03 0. -1.
       11    1    1    2    0    0 -0.10490194480E+00 -0.13344652441E+00  0.56148992232E+00  0.58658638493E+00  0.51109989000E-03 0. -1.
     -623    1    1    2    0    0  0.92838976557E-01  0.50004592437E+00  0.26513680307E+00  0.17130096019E+03  0.17130000000E+03 0. -1.
      622    1    1    2    0    0  0.12062968245E-01 -0.36659939995E+00  0.31733732420E+01  0.34124534236E+01  0.12000000000E+01 0.  0.
</event>
<event>
 5   0  0.5136900E+01  0.9118800E+02  0.7818608E-02  0.1180000E+00
       11   -1    0    0    0    0  0.00000000000E+00  0.00000000000E+00  0.39999999673E+01  0.40000000000E+01  0.51109989000E-03 0. -1.
     -623   -1    0    0    0    0  0.00000000000E+00  0.00000000000E+00  0.12525980253E-10  0.17130000000E+03  0.17130000000E+03 0.  1.
       11    1    1    2    0    0 -0.13988147813E+00  0.50085519053E-02  0.39892852281E-01  0.14554591853E+00  0.51109989000E-03 0. -1.
     -623    1    1    2    0    0  0.28131931362E+00 -0.14328344043E+00  0.30314368915E+00  0.17130055915E+03  0.17130000000E+03 0.  1.
      622    1    1    2    0    0 -0.14143783550E+00  0.13827488853E+00  0.36569634259E+01  0.38538949265E+01  0.12000000000E+01 0. -1.
</event>
<event>
 5   0  0.5136900E+01  0.9118800E+02  0.7818608E-02  0.1180000E+00
       11   -1    0    0    0    0  0.00000000000E+00  0.00000000000E+00  0.39999999673E+01  0.40000000000E+01  0.51109989000E-03 0.  1.
     -623   -1    0    0    0    0  0.00000000000E+00  0.00000000000E+00  0.12525980253E-10  0.17130000000E+03  0.17130000000E+03 0.  1.
       11    1    1    2    0    0  0.28825267521E-01  0.12082340390E+00  0.52568010994E+00  0.54015648675E+00  0.51109989000E-03 0.  1.
     -623    1    1    2    0    0  0.25912782589E+00  0.36795834950E-01  0.24629449950E+00  0.17130037701E+03  0.17130000000E+03 0.  1.
      622    1    1    2    0    0 -0.28795309341E+00 -0.15761923885E+00  0.32280253579E+01  0.34594665080E+01  0.12000000000E+01 0.  0.
</event>
<event>
 5   0  0.5136900E+01  0.9118800E+02  0.7818608E-02  0.1180000E+00
       11   -1    0    0    0    0  0.00000000000E+00  0.00000000000E+00  0.39999999673E+01  0.40000000000E+01  0.51109989000E-03 0.  1.
     -623   -1    0    0    0    0  0.00000000000E+00  0.00000000000E+00  0.12525980253E-10  0.17130000000E+03  0.17130000000E+03 0. -1.
       11    1    1    2    0    0  0.19488081469E-01 -0.15089701875E+00  0.85210849536E+00  0.86558583900E+00  0.51109989000E-03 0.  1.
     -623    1    1    2    0    0 -0.19715938638E+00  0.35782674636E+00  0.26590991494E+00  0.17130069358E+03  0.17130000000E+03 0. -1.
      622    1    1    2    0    0  0.17767130491E+00 -0.20692972761E+00  0.28819815571E+01  0.31337205842E+01  0.12000000000E+01 0.  1.
</event>
<event>
 5   0  0.5136900E+01  0.9118800E+02  0.7818608E-02  0.1180000E+00
       11   -1    0    0    0    0  0.00000000000E+00  0.00000000000E+00  0.39999999673E+01  0.40000000000E+01  0.51109989000E-03 0.  1.
     -623   -1    0    0    0    0  0.00000000000E+00  0.00000000000E+00  0.12525980253E-10  0.17130000000E+03  0.17130000000E+03 0. -1.
       11    1    1    2    0    0 -0.55305797612E-01 -0.57271293926E-02  0.15966907939E+00  0.16907397020E+00  0.51109989000E-03 0.  1.
     -623    1    1    2    0    0  0.37546497654E-01  0.23662868043E+00  0.20989090819E+00  0.17130029614E+03  0.17130000000E+03 0. -1.
      622    1    1    2    0    0  0.17759299958E-01 -0.23090155104E+00  0.36304399798E+01  0.38306298915E+01  0.12000000000E+01 0.  1.
</event>
<event>
 5   0  0.5136900E+01  0.9118800E+02  0.7818608E-02  0.1180000E+00
       11   -1    0    0    0    0  0.00000000000E+00  0.00000000000E+00  0.39999999673E+01  0.40000000000E+01  0.51109989000E-03 0.  1.
     -623   -1    0    0    0    0  0.00000000000E+00  0.00000000000E+00  0.12525980253E-10  0.17130000000E+03  0.17130000000E+03 0. -1.
       11    1    1    2    0    0 -0.10767092490E+00  0.99604104118E-01  0.16533968007E+00  0.22102370157E+00  0.51109989000E-03 0.  1.
     -623    1    1    2    0    0  0.32661677333E+00 -0.11284069504E+00  0.25856738001E+00  0.17130054369E+03  0.17130000000E+03 0. -1.
      622    1    1    2    0    0 -0.21894584843E+00  0.13236590927E-01  0.35760929073E+01  0.37784326080E+01  0.12000000000E+01 0.  1.
</event>
<event>
 5   0  0.5136900E+01  0.9118800E+02  0.7818608E-02  0.1180000E+00
       11   -1    0    0    0    0  0.00000000000E+00  0.00000000000E+00  0.39999999673E+01  0.40000000000E+01  0.51109989000E-03 0. -1.
     -623   -1    0    0    0    0  0.00000000000E+00  0.00000000000E+00  0.12525980253E-10  0.17130000000E+03  0.17130000000E+03 0.  1.
       11    1    1    2    0    0  0.13518876283E+00 -0.22697716721E-01  0.28293410428E+00  0.31439331502E+00  0.51109989000E-03 0. -1.
     -623    1    1    2    0    0 -0.78539575405E-02  0.22855271110E+00  0.24104356765E+00  0.17130032224E+03  0.17130000000E+03 0.  1.
      622    1    1    2    0    0 -0.12733480529E+00 -0.20585499438E+00  0.34760222954E+01  0.36852844435E+01  0.12000000000E+01 0. -1.
</event>
<event>
 5   0  0.5136900E+01  0.9118800E+02  0.7818608E-02  0.1180000E+00
       11   -1    0    0    0    0  0.00000000000E+00  0.00000000000E+00  0.39999999673E+01  0.40000000000E+01  0.51109989000E-03 0.  1.
     -623   -1    0    0    0    0  0.00000000000E+00  0.00000000000E+00  0.12525980253E-10  0.17130000000E+03  0.17130000000E+03 0.  1.
       11    1    1    2    0    0  0.48974041066E-01 -0.18844561097E+00  0.20283191357E+00  0.28116054378E+00  0.51109989000E-03 0.  1.
     -623    1    1    2    0    0  0.20971708503E-01  0.15285212130E+00  0.27844559512E+00  0.17130029578E+03  0.17130000000E+03 0.  1.
      622    1    1    2    0    0 -0.69945749569E-01  0.35593489670E-01  0.35187224587E+01  0.37185436727E+01  0.12000000000E+01 0.  1.
</event>
<event>
 5   0  0.5136900E+01  0.9118800E+02  0.7818608E-02  0.1180000E+00
       11   -1    0    0    0    0  0.00000000000E+00  0.00000000000E+00  0.39999999673E+01  0.40000000000E+01  0.51109989000E-03 0.  1.
     -623   -1    0    0    0    0  0.00000000000E+00  0.00000000000E+00  0.12525980253E-10  0.17130000000E+03  0.17130000000E+03 0.  1.
       11    1    1    2    0    0 -0.70668994404E-01  0.45623536323E-01  0.31247376932E-01  0.89734461742E-01  0.51109989000E-03 0.  1.
     -623    1    1    2    0    0  0.29102452208E-01 -0.45949904010E-01  0.24759930379E+00  0.17130018758E+03  0.17130000000E+03 0.  1.
      622    1    1    2    0    0  0.41566542196E-01  0.32636768639E-03  0.37211532866E+01  0.39100779617E+01  0.12000000000E+01 0.  1.
</event>
<event>
 5   0  0.5136900E+01  0.9118800E+02  0.7818608E-02  0.1180000E+00
       11   -1    0    0    0    0  0.00000000000E+00  0.00000000000E+00  0.39999999673E+01  0.40000000000E+01  0.51109989000E-03 0. -1.
     -623   -1    0    0    0    0  0.00000000000E+00  0.00000000000E+00  0.12525980253E-10  0.17130000000E+03  0.17130000000E+03 0. -1.
       11    1    1    2    0    0 -0.60082543126E-02  0.20766876668E+00  0.56807184355E-01  0.21538275974E+00  0.51109989000E-03 0. -1.
     -623    1    1    2    0    0  0.80344109965E-02 -0.32505581202E+00  0.35649505191E+00  0.17130067955E+03  0.17130000000E+03 0. -1.
      622    1    1    2    0    0 -0.20261566838E-02  0.11738704534E+00  0.35866977311E+01  0.37839376895E+01  0.12000000000E+01 0. -1.
</event>
<event>
 5   0  0.5136900E+01  0.9118800E+02  0.7818608E-02  0.1180000E+00
       11   -1    0    0    0    0  0.00000000000E+00  0.00000000000E+00  0.39999999673E+01  0.40000000000E+01  0.51109989000E-03 0. -1.
     -623   -1    0    0    0    0  0.00000000000E+00  0.00000000000E+00  0.12525980253E-10  0.17130000000E+03  0.17130000000E+03 0.  1.
       11    1    1    2    0    0 -0.61657824710E-01 -0.58788537897E+00  0.29923287385E+00  0.66253413509E+00  0.51109989000E-03 0. -1.
     -623    1    1    2    0    0 -0.22213580614E+00  0.40992053378E+00  0.60640587965E+00  0.17130170784E+03  0.17130000000E+03 0.  1.
      622    1    1    2    0    0  0.28379363085E+00  0.17796484518E+00  0.30943612139E+01  0.33357580297E+01  0.12000000000E+01 0. -1.
</event>
<event>
 5   0  0.5136900E+01  0.9118800E+02  0.7818608E-02  0.1180000E+00
       11   -1    0    0    0    0  0.00000000000E+00  0.00000000000E+00  0.39999999673E+01  0.40000000000E+01  0.51109989000E-03 0.  1.
     -623   -1    0    0    0    0  0.00000000000E+00  0.00000000000E+00  0.12525980253E-10  0.17130000000E+03  0.17130000000E+03 0. -1.
       11    1    1    2    0    0 -0.33304827734E-01  0.21070608474E-01  0.80825223955E-01  0.89923079031E-01  0.51109989000E-03 0.  1.
     -623    1    1    2    0    0  0.16496263630E+00 -0.27935639929E+00  0.20955865669E+00  0.17130043540E+03  0.17130000000E+03 0. -1.
      622    1    1    2    0    0 -0.13165780857E+00  0.25828579082E+00  0.37096160867E+01  0.39096415231E+01  0.12000000000E+01 0.  1.
</event>
<event>
 5   0  0.5136900E+01  0.9118800E+02  0.7818608E-02  0.1180000E+00
       11   -1    0    0    0    0  0.00000000000E+00  0.00000000000E+00  0.39999999673E+01  0.40000000000E+01  0.51109989000E-03 0. -1.
     -623   -1    0    0    0    0  0.00000000000E+00  0.00000000000E+00  0.12525980253E-10  0.17130000000E+03  0.17130000000E+03 0.  1.
       11    1    1    2    0    0  0.97835333970E-02  0.31489643662E-02 -0.24359421218E-01  0.26443829667E-01  0.51109989000E-03 0. -1.
     -623    1    1    2    0    0 -0.87807968727E-01  0.35555883547E-01  0.23753409282E+00  0.17130019088E+03  0.17130000000E+03 0.  1.
      622    1    1    2    0    0  0.78024435330E-01 -0.38704847913E-01  0.37868252958E+01  0.39733652863E+01  0.12000000000E+01 0. -1.
</event>
<event>
 5   0  0.5136900E+01  0.9118800E+02  0.7818608E-02  0.1180000E+00
       11   -1    0    0    0    0  0.00000000000E+00  0.00000000000E+00  0.39999999673E+01  0.40000000000E+01  0.51109989000E-03 0. -1.
     -623   -1    0    0    0    0  0.00000000000E+00  0.00000000000E+00  0.12525980253E-10  0.17130000000E+03  0.17130000000E+03 0.  1.
       11    1    1    2    0    0 -0.49660480592E+00  0.22017334857E-01  0.21133482604E+00  0.54015161410E+00  0.51109989000E-03 0. -1.
     -623    1    1    2    0    0  0.65798760863E+00  0.16537596710E+00  0.55542100681E+00  0.17130224397E+03  0.17130000000E+03 0.  1.
      622    1    1    2    0    0 -0.16138280271E+00 -0.18739330195E+00  0.32332441345E+01  0.34576044152E+01  0.12000000000E+01 0. -1.
</event>
<event>
 5   0  0.5136900E+01  0.9118800E+02  0.7818608E-02  0.1180000E+00
       11   -1    0    0    0    0  0.00000000000E+00  0.00000000000E+00  0.39999999673E+01  0.40000000000E+01  0.51109989000E-03 0. -1.
     -623   -1    0    0    0    0  0.00000000000E+00  0.00000000000E+00  0.12525980253E-10  0.17130000000E+03  0.17130000000E+03 0. -1.
       11    1    1    2    0    0  0.12191306689E+00  0.92194737979E-01  0.30288379157E+00  0.33926614627E+00  0.51109989000E-03 0. -1.
     -623    1    1    2    0    0 -0.19175652391E+00 -0.20105231748E+00  0.24149054068E+00  0.17130039553E+03  0.17130000000E+03 0. -1.
      622    1    1    2    0    0  0.69843457023E-01  0.10885757950E+00  0.34556256351E+01  0.36603383192E+01  0.12000000000E+01 0. -1.
</event>
<event>
 5   0  0.5136900E+01  0.9118800E+02  0.7818608E-02  0.1180000E+00
       11   -1    0    0    0    0  0.00000000000E+00  0.00000000000E+00  0.39999999673E+01  0.40000000000E+01  0.51109989000E-03 0. -1.
     -623   -1    0    0    0    0  0.00000000000E+00  0.00000000000E+00  0.12525980253E-10  0.17130000000E+03  0.17130000000E+03 0.  1.
       11    1    1    2    0    0 -0.46499819630E-02  0.45514230727E-01 -0.13703071815E-01  0.47761940195E-01  0.51109989000E-03 0. -1.
     -623    1    1    2    0    0 -0.58227559611E-01 -0.77870171764E-01  0.24892715554E+00  0.17130020846E+03  0.17130000000E+03 0.  1.
      622    1    1    2    0    0  0.62877541574E-01  0.32355941036E-01  0.37647758836E+01  0.39520295983E+01  0.12000000000E+01 0. -1.
</event>
<event>
 5   0  0.5136900E+01  0.9118800E+02  0.7818608E-02  0.1180000E+00
       11   -1    0    0    0    0  0.00000000000E+00  0.00000000000E+00  0.39999999673E+01  0.40000000000E+01  0.51109989000E-03 0.  1.
     -623   -1    0    0    0    0  0.00000000000E+00  0.00000000000E+00  0.12525980253E-10  0.17130000000E+03  0.17130000000E+03 0.  1.
       11    1    1    2    0    0  0.11882317009E+00 -0.13728911460E+00  0.24747226662E+00  0.30693652553E+00  0.51109989000E-03 0.  1.
     -623    1    1    2    0    0 -0.24423221410E-01 -0.17490810053E+00  0.27545547615E+00  0.17130031251E+03  0.17130000000E+03 0.  1.
      622    1    1    2    0    0 -0.94399948683E-01  0.31219721513E+00  0.34770722246E+01  0.36927509673E+01  0.12000000000E+01 0.  1.
</event>
<event>
 5   0  0.5136900E+01  0.9118800E+02  0.7818608E-02  0.1180000E+00
       11   -1    0    0    0    0  0.00000000000E+00  0.00000000000E+00  0.39999999673E+01  0.40000000000E+01  0.51109989000E-03 0.  1.
     -623   -1    0    0    0    0  0.00000000000E+00  0.00000000000E+00  0.12525980253E-10  0.17130000000E+03  0.17130000000E+03 0.  1.
       11    1    1    2    0    0  0.28479359312E+00  0.36006837748E-01  0.29588871533E+00  0.41225511049E+00  0.51109989000E-03 0.  1.
     -623    1    1    2    0    0 -0.44132841406E+00  0.22102975979E+00  0.33753214625E+00  0.17130104364E+03  0.17130000000E+03 0.  1.
      622    1    1    2    0    0  0.15653482094E+00 -0.25703659754E+00  0.33665791058E+01  0.35867012474E+01  0.12000000000E+01 0.  1.
</event>
<event>
 5   0  0.5136900E+01  0.9118800E+02  0.7818608E-02  0.1180000E+00
       11   -1    0    0    0    0  0.00000000000E+00  0.00000000000E+00  0.39999999673E+01  0.40000000000E+01  0.51109989000E-03 0.  1.
     -623   -1    0    0    0    0  0.00000000000E+00  0.00000000000E+00  0.12525980253E-10  0.17130000000E+03  0.17130000000E+03 0.  1.
       11    1    1    2    0    0  0.14923690186E+00 -0.40941057406E-02  0.94188804443E+00  0.95364656139E+00  0.51109989000E-03 0.  1.
     -623    1    1    2    0    0 -0.43879941652E+00 -0.22646473309E+00  0.28367521578E+00  0.17130094659E+03  0.17130000000E+03 0.  1.
      622    1    1    2    0    0  0.28956251465E+00  0.23055883883E+00  0.27744367071E+01  0.30454068480E+01  0.12000000000E+01 0.  1.
</event>
<event>
 5   0  0.5136900E+01  0.9118800E+02  0.7818608E-02  0.1180000E+00
       11   -1    0    0    0    0  0.00000000000E+00  0.00000000000E+00  0.39999999673E+01  0.40000000000E+01  0.51109989000E-03 0. -1.
     -623   -1    0    0    0    0  0.00000000000E+00  0.00000000000E+00  0.12525980253E-10  0.17130000000E+03  0.17130000000E+03 0. -1.
       11    1    1    2    0    0  0.11005019975E-01 -0.28794936214E-01  0.48770502433E+00  0.48867853523E+00  0.51109989000E-03 0. -1.
     -623    1    1    2    0    0 -0.93532852508E-01 -0.57791851976E-01  0.21473867593E+00  0.17130016988E+03  0.17130000000E+03 0. -1.
      622    1    1    2    0    0  0.82527832533E-01  0.86586788190E-01  0.32975562671E+01  0.35111515846E+01  0.12000000000E+01 0. -1.
</event>
<event>
 5   0  0.5136900E+01  0.9118800E+02  0.7818608E-02  0.1180000E+00
       11   -1    0    0    0    0  0.00000000000E+00  0.00000000000E+00  0.39999999673E+01  0.40000000000E+01  0.51109989000E-03 0.  1.
     -623   -1    0    0    0    0  0.00000000000E+00  0.00000000000E+00  0.12525980253E-10  0.17130000000E+03  0.17130000000E+03 0.  1.
       11    1    1    2    0    0  0.11982759331E-01  0.17305152039E-01 -0.77151828724E-02  0.22424095926E-01  0.51109989000E-03 0.  1.
     -623    1    1    2    0    0 -0.35502182794E-01 -0.10783261877E+00  0.21680879745E+00  0.17130017482E+03  0.17130000000E+03 0.  1.
      622    1    1    2    0    0  0.23519423463E-01  0.90527466736E-01  0.37909063528E+01  0.39774010812E+01  0.12000000000E+01 0.  1.
</event>
<event>
 5   0  0.5136900E+01  0.9118800E+02  0.7818608E-02  0.1180000E+00
       11   -1    0    0    0    0  0.00000000000E+00  0.00000000000E+00  0.39999999673E+01  0.40000000000E+01  0.51109989000E-03 0.  1.
     -623   -1    0    0    0    0  0.00000000000E+00  0.00000000000E+00  0.12525980253E-10  0.17130000000E+03  0.17130000000E+03 0. -1.
       11    1    1    2    0    0 -0.11177426132E+00 -0.17893639817E+00  0.54122976558E+00  0.58089727186E+00  0.51109989000E-03 0.  1.
     -623    1    1    2    0    0  0.23901012742E+00 -0.65581945940E-01  0.26947404577E+00  0.17130039125E+03  0.17130000000E+03 0. -1.
      622    1    1    2    0    0 -0.12723586610E+00  0.24451834411E+00  0.31892961560E+01  0.34187114761E+01  0.12000000000E+01 0.  1.
</event>
<event>
 5   0  0.5136900E+01  0.9118800E+02  0.7818608E-02  0.1180000E+00
       11   -1    0    0    0    0  0.00000000000E+00  0.00000000000E+00  0.39999999673E+01  0.40000000000E+01  0.51109989000E-03 0. -1.
     -623   -1    0    0    0    0  0.00000000000E+00  0.00000000000E+00  0.12525980253E-10  0.17130000000E+03  0.17130000000E+03 0. -1.
       11    1    1    2    0    0  0.82076964293E-02 -0.10223292727E+00  0.65995447389E-01  0.12196146111E+00  0.51109989000E-03 0. -1.
     -623    1    1    2    0    0 -0.13741414440E+00  0.44052084383E-01  0.24927583338E+00  0.17130024215E+03  0.17130000000E+03 0. -1.
      622    1    1    2    0    0  0.12920644797E+00  0.58180842888E-01  0.36847286866E+01  0.38777963859E+01  0.12000000000E+01 0. -1.
</event>
<event>
 5   0  0.5136900E+01  0.9118800E+02  0.7818608E-02  0.1180000E+00
       11   -1    0    0    0    0  0.00000000000E+00  0.00000000000E+00  0.39999999673E+01  0.40000000000E+01  0.51109989000E-03 0.  1.
     -623   -1    0    0    0    0  0.00000000000E+00  0.00000000000E+00  0.12525980253E-10  0.17130000000E+03  0.17130000000E+03 0.  1.
       11    1    1    2    0    0 -0.21113324609E-01 -0.14195136983E+00  0.71993451552E+00  0.73409940181E+00  0.51109989000E-03 0.  1.
     -623    1    1    2    0    0  0.17089329689E+00  0.43078469215E-01  0.24821286408E+00  0.17130027049E+03  0.17130000000E+03 0.  1.
      622    1    1    2    0    0 -0.14977997228E+00  0.98872900611E-01  0.30318525878E+01  0.32656301083E+01  0.12000000000E+01 0.  1.
</event>
<event>
 5   0  0.5136900E+01  0.9118800E+02  0.7818608E-02  0.1180000E+00
       11   -1    0    0    0    0  0.00000000000E+00  0.00000000000E+00  0.39999999673E+01  0.40000000000E+01  0.51109989000E-03 0.  1.
     -623   -1    0    0    0    0  0.00000000000E+00  0.00000000000E+00  0.12525980253E-10  0.17130000000E+03  0.17130000000E+03 0.  1.
       11    1    1    2    0    0  0.14327679020E+00  0.13888595802E+00  0.91942304410E+00  0.94082758420E+00  0.51109989000E-03 0.  1.
     -623    1    1    2    0    0 -0.65576823214E-01  0.29913888285E-01  0.27298335317E+00  0.17130023268E+03  0.17130000000E+03 0.  1.
      622    1    1    2    0    0 -0.77699966987E-01 -0.16879984630E+00  0.28075935701E+01  0.30589397392E+01  0.12000000000E+01 0.  1.
</event>
<event>
 5   0  0.5136900E+01  0.9118800E+02  0.7818608E-02  0.1180000E+00
       11   -1    0    0    0    0  0.00000000000E+00  0.00000000000E+00  0.39999999673E+01  0.40000000000E+01  0.51109989000E-03 0. -1.
     -623   -1    0    0    0    0  0.00000000000E+00  0.00000000000E+00  0.12525980253E-10  0.17130000000E+03  0.17130000000E+03 0. -1.
       11    1    1    2    0    0 -0.43300045609E-01 -0.40802403900E-01 -0.10514653168E+00  0.12081301445E+00  0.51109989000E-03 0. -1.
     -623    1    1    2    0    0  0.16693052362E+00  0.12546379726E+00  0.41995196233E+00  0.17130064205E+03  0.17130000000E+03 0. -1.
      622    1    1    2    0    0 -0.12363047801E+00 -0.84661393360E-01  0.36851945367E+01  0.38785449359E+01  0.12000000000E+01 0. -1.
</event>
<event>
 5   0  0.5136900E+01  0.9118800E+02  0.7818608E-02  0.1180000E+00
       11   -1    0    0    0    0  0.00000000000E+00  0.00000000000E+00  0.39999999673E+01  0.40000000000E+01  0.51109989000E-03 0.  1.
     -623   -1    0    0    0    0  0.00000000000E+00  0.00000000000E+00  0.12525980253E-10  0.17130000000E+03  0.17130000000E+03 0.  1.
       11    1    1    2    0    0  0.74182674910E-01  0.27411525030E+00  0.77380283875E-01  0.29433010254E+00  0.51109989000E-03 0.  1.
     -623    1    1    2    0    0  0.80115913344E-01 -0.49790519488E+00  0.42853516684E+00  0.17130127837E+03  0.17130000000E+03 0.  1.
      622    1    1    2    0    0 -0.15429858825E+00  0.22378994458E+00  0.34940845166E+01  0.37043915294E+01  0.12000000000E+01 0.  1.
</event>
<event>
 5   0  0.5136900E+01  0.9118800E+02  0.7818608E-02  0.1180000E+00
       11   -1    0    0    0    0  0.00000000000E+00  0.00000000000E+00  0.39999999673E+01  0.40000000000E+01  0.51109989000E-03 0.  1.
     -623   -1    0    0    0    0  0.00000000000E+00  0.00000000000E+00  0.12525980253E-10  0.17130000000E+03  0.17130000000E+03 0.  1.
       11    1    1    2    0    0 -0.18481491982E+00  0.90342188243E-01  0.35782887170E+00  0.41274692998E+00  0.51109989000E-03 0.  1.
     -623    1    1    2    0    0  0.13761492910E+00  0.13264850527E+00  0.26961350741E+00  0.17130031881E+03  0.17130000000E+03 0.  1.
      622    1    1    2    0    0  0.47199990728E-01 -0.22299069351E+00  0.33725575883E+01  0.35869342585E+01  0.12000000000E+01 0.  1.
</event>
<event>
 5   0  0.5136900E+01  0.9118800E+02  0.7818608E-02  0.1180000E+00
       11   -1    0    0    0    0  0.00000000000E+00  0.00000000000E+00  0.39999999673E+01  0.40000000000E+01  0.51109989000E-03 0. -1.
     -623   -1    0    0    0    0  0.00000000000E+00  0.00000000000E+00  0.12525980253E-10  0.17130000000E+03  0.17130000000E+03 0. -1.
       11    1    1    2    0    0 -0.22481719107E+00  0.57635920216E-01  0.60448724850E+00  0.64751043506E+00  0.51109989000E-03 0. -1.
     -623    1    1    2    0    0  0.11991034944E+00  0.17159099644E+00  0.27569047059E+00  0.17130034976E+03  0.17130000000E+03 0. -1.
      622    1    1    2    0    0  0.10490684163E+00 -0.22922691666E+00  0.31198222483E+01  0.33521398070E+01  0.12000000000E+01 0. -1.
</event>
<event>
 5   0  0.5136900E+01  0.9118800E+02  0.7818608E-02  0.1180000E+00
       11   -1    0    0    0    0  0.00000000000E+00  0.00000000000E+00  0.39999999673E+01  0.40000000000E+01  0.51109989000E-03 0.  1.
     -623   -1    0    0    0    0  0.00000000000E+00  0.00000000000E+00  0.12525980253E-10  0.17130000000E+03  0.17130000000E+03 0. -1.
       11    1    1    2    0    0  0.21523923963E-01  0.41577029459E-01  0.10710252529E+00  0.11688943847E+00  0.51109989000E-03 0.  1.
     -623    1    1    2    0    0 -0.19450257750E+00 -0.12119735696E+00  0.20506027824E+00  0.17130027604E+03  0.17130000000E+03 0. -1.
      622    1    1    2    0    0  0.17297865354E+00  0.79620327499E-01  0.36878371638E+01  0.38828345262E+01  0.12000000000E+01 0.  1.
</event>
<event>
 5   0  0.5136900E+01  0.9118800E+02  0.7818608E-02  0.1180000E+00
       11   -1    0    0    0    0  0.00000000000E+00  0.00000000000E+00  0.39999999673E+01  0.40000000000E+01  0.51109989000E-03 0. -1.
     -623   -1    0    0    0    0  0.00000000000E+00  0.00000000000E+00  0.12525980253E-10  0.17130000000E+03  0.17130000000E+03 0.  1.
       11    1    1    2    0    0 -0.19106231976E+00  0.48687429226E-01  0.16500964500E+00  0.25710643703E+00  0.51109989000E-03 0. -1.
     -623    1    1    2    0    0  0.53106123270E-01 -0.79299473124E-01  0.29278603512E+00  0.17130027680E+03  0.17130000000E+03 0.  1.
      622    1    1    2    0    0  0.13795619649E+00  0.30612043898E-01  0.35422042872E+01  0.37426167613E+01  0.12000000000E+01 0. -1.
</event>
<event>
 5   0  0.5136900E+01  0.9118800E+02  0.7818608E-02  0.1180000E+00
       11   -1    0    0    0    0  0.00000000000E+00  0.00000000000E+00  0.39999999673E+01  0.40000000000E+01  0.51109989000E-03 0. -1.
     -623   -1    0    0    0    0  0.00000000000E+00  0.00000000000E+00  0.12525980253E-10  0.17130000000E+03  0.17130000000E+03 0.  1.
       11    1    1    2    0    0  0.20756037449E+00 -0.29798148703E+00  0.46233587838E+00  0.58790220389E+00  0.51109989000E-03 0. -1.
     -623    1    1    2    0    0 -0.33824664901E+00  0.36901380443E+00  0.34816848813E+00  0.17130108524E+03  0.17130000000E+03 0.  1.
      622    1    1    2    0    0  0.13068627452E+00 -0.71032317400E-01  0.31894956009E+01  0.34110125594E+01  0.12000000000E+01 0. -1.
</event>
<event>
 5   0  0.5136900E+01  0.9118800E+02  0.7818608E-02  0.1180000E+00
       11   -1    0    0    0    0  0.00000000000E+00  0.00000000000E+00  0.39999999673E+01  0.40000000000E+01  0.51109989000E-03 0. -1.
     -623   -1    0    0    0    0  0.00000000000E+00  0.00000000000E+00  0.12525980253E-10  0.17130000000E+03  0.17130000000E+03 0.  1.
       11    1    1    2    0    0  0.15873231393E+00  0.50586558489E-01 -0.26994554925E-01  0.16877178261E+00  0.51109989000E-03 0. -1.
     -623    1    1    2    0    0 -0.71993509306E-01  0.14566619098E+00  0.39544068013E+00  0.17130053349E+03  0.17130000000E+03 0.  1.
      622    1    1    2    0    0 -0.86738804627E-01 -0.19625274947E+00  0.36315538422E+01  0.38306947242E+01  0.12000000000E+01 0. -1.
</event>
<event>
 5   0  0.5136900E+01  0.9118800E+02  0.7818608E-02  0.1180000E+00
       11   -1    0    0    0    0  0.00000000000E+00  0.00000000000E+00  0.39999999673E+01  0.40000000000E+01  0.51109989000E-03 0.  1.
     -623   -1    0    0    0    0  0.00000000000E+00  0.00000000000E+00  0.12525980253E-10  0.17130000000E+03  0.17130000000E+03 0. -1.
       11    1    1    2    0    0 -0.80079743559E-01 -0.10262521939E-01  0.57626152775E+00  0.58188976127E+00  0.51109989000E-03 0.  1.
     -623    1    1    2    0    0  0.84115742740E-01 -0.34170045609E-01  0.22368778532E+00  0.17130017011E+03  0.17130000000E+03 0. -1.
      622    1    1    2    0    0 -0.40359991817E-02  0.44432567548E-01  0.32000506543E+01  0.34179401300E+01  0.12000000000E+01 0.  1.
</event>
<event>
 5   0  0.5136900E+01  0.9118800E+02  0.7818608E-02  0.1180000E+00
       11   -1    0    0    0    0  0.00000000000E+00  0.00000000000E+00  0.39999999673E+01  0.40000000000E+01  0.51109989000E-03 0.  1.
     -623   -1    0    0    0    0  0.00000000000E+00  0.00000000000E+00  0.12525980253E-10  0.17130000000E+03  0.17130000000E+03 0.  1.
       11    1    1    2    0    0 -0.35441568385E-01 -0.53864816519E-01  0.78065347054E-01  0.10125207583E+00  0.51109989000E-03 0.  1.
     -623    1    1    2    0    0 -0.18111703883E+00  0.16321380681E+00  0.22072956434E+00  0.17130031571E+03  0.17130000000E+03 0.  1.
      622    1    1    2    0    0  0.21655860722E+00 -0.10934899030E+00  0.37012050560E+01  0.38984322103E+01  0.12000000000E+01 0.  1.
</event>
<event>
 5   0  0.5136900E+01  0.9118800E+02  0.7818608E-02  0.1180000E+00
       11   -1    0    0    0    0  0.00000000000E+00  0.00000000000E+00  0.39999999673E+01  0.40000000000E+01  0.51109989000E-03 0. -1.
     -623   -1    0    0    0    0  0.00000000000E+00  0.00000000000E+00  0.12525980253E-10  0.17130000000E+03  0.17130000000E+03 0.  1.
       11    1    1    2    0    0 -0.68437873102E-01  0.45442111985E-01  0.23369420742E+00  0.24771348736E+00  0.51109989000E-03 0. -1.
     -623    1    1    2    0    0  0.90317186162E-01 -0.18179671738E+00  0.21402806706E+00  0.17130025398E+03  0.17130000000E+03 0.  1.
      622    1    1    2    0    0 -0.21879313060E-01  0.13635460540E+00  0.35522776929E+01  0.37520325278E+01  0.12000000000E+01 0. -1.
</event>
<event>
 5   0  0.5136900E+01  0.9118800E+02  0.7818608E-02  0.1180000E+00
       11   -1    0    0    0    0  0.00000000000E+00  0.00000000000E+00  0.39999999673E+01  0.40000000000E+01  0.51109989000E-03 0. -1.
     -623   -1    0    0    0    0  0.00000000000E+00  0.00000000000E+00  0.12525980253E-10  0.17130000000E+03  0.17130000000E+03 0.  1.
       11    1    1    2    0    0  0.51405169767E-01 -0.17779255039E+00  0.22027790788E+00  0.28770696963E+00  0.51109989000E-03 0. -1.
     -623    1    1    2    0    0 -0.19075870428E+00  0.26577643599E+00  0.27115447617E+00  0.17130052700E+03  0.17130000000E+03 0.  1.
      622    1    1    2    0    0  0.13935353451E+00 -0.87983885608E-01  0.35085675833E+01  0.37117660296E+01  0.12000000000E+01 0. -1.
</event>
<event>
 5   0  0.5136900E+01  0.9118800E+02  0.7818608E-02  0.1180000E+00
       11   -1    0    0    0    0  0.00000000000E+00  0.00000000000E+00  0.39999999673E+01  0.40000000000E+01  0.51109989000E-03 0. -1.
     -623   -1    0    0    0    0  0.00000000000E+00  0.00000000000E+00  0.12525980253E-10  0.17130000000E+03  0.17130000000E+03 0.  1.
       11    1    1    2    0    0  0.22187971032E+00  0.12826497687E+00  0.23081059277E+00  0.34490042200E+00  0.51109989000E-03 0. -1.
     -623    1    1    2    0    0 -0.25308658318E+00  0.16215233307E+00  0.32968501765E+00  0.17130058096E+03  0.17130000000E+03 0.  1.
      622    1    1    2    0    0  0.31206872855E-01 -0.29041730994E+00  0.34395043569E+01  0.36545186146E+01  0.12000000000E+01 0. -1.
</event>
<event>
 5   0  0.5136900E+01  0.9118800E+02  0.7818608E-02  0.1180000E+00
       11   -1    0    0    0    0  0.00000000000E+00  0.00000000000E+00  0.39999999673E+01  0.40000000000E+01  0.51109989000E-03 0.  1.
     -623   -1    0    0    0    0  0.00000000000E+00  0.00000000000E+00  0.12525980253E-10  0.17130000000E+03  0.17130000000E+03 0.  1.
       11    1    1    2    0    0  0.27693581401E-01 -0.76571280207E-01  0.92316447334E-01  0.12309623501E+00  0.51109989000E-03 0.  1.
     -623    1    1    2    0    0  0.88200972275E-01  0.55166671708E-02  0.22385512485E+00  0.17130016906E+03  0.17130000000E+03 0.  1.
      622    1    1    2    0    0 -0.11589455368E+00  0.71054613036E-01  0.36838283952E+01  0.38767347021E+01  0.12000000000E+01 0.  1.
</event>
<event>
 5   0  0.5136900E+01  0.9118800E+02  0.7818608E-02  0.1180000E+00
       11   -1    0    0    0    0  0.00000000000E+00  0.00000000000E+00  0.39999999673E+01  0.40000000000E+01  0.51109989000E-03 0. -1.
     -623   -1    0    0    0    0  0.00000000000E+00  0.00000000000E+00  0.12525980253E-10  0.17130000000E+03  0.17130000000E+03 0.  1.
       11    1    1    2    0    0 -0.12004733240E-01 -0.17021992866E-01  0.63170072614E-01  0.66517525198E-01  0.51109989000E-03 0. -1.
     -623    1    1    2    0    0  0.16987352383E-01 -0.39260688628E-02  0.19103548558E+00  0.17130010741E+03  0.17130000000E+03 0.  1.
      622    1    1    2    0    0 -0.49826191427E-02  0.20948061729E-01  0.37457944092E+01  0.39333750652E+01  0.12000000000E+01 0. -1.
</event>
<event>
 5   0  0.5136900E+01  0.9118800E+02  0.7818608E-02  0.1180000E+00
       11   -1    0    0    0    0  0.00000000000E+00  0.00000000000E+00  0.39999999673E+01  0.40000000000E+01  0.51109989000E-03 0.  1.
     -623   -1    0    0    0    0  0.00000000000E+00  0.00000000000E+00  0.12525980253E-10  0.17130000000E+03  0.17130000000E+03 0. -1.
       11    1    1    2    0    0  0.42049085128E-01  0.42267983486E-01  0.61584150947E-01  0.85718007788E-01  0.51109989000E-03 0.  1.
     -623    1    1    2    0    0 -0.55479742758E-01 -0.16956433386E+00  0.21505245575E+00  0.17130022790E+03  0.17130000000E+03 0. -1.
      622    1    1    2    0    0  0.13430657630E-01  0.12729635037E+00  0.37233633607E+01  0.39140540950E+01  0.12000000000E+01 0.  1.
</event>
<event>
 5   0  0.5136900E+01  0.9118800E+02  0.7818608E-02  0.1180000E+00
       11   -1    0    0    0    0  0.00000000000E+00  0.00000000000E+00  0.39999999673E+01  0.40000000000E+01  0.51109989000E-03 0.  1.
     -623   -1    0    0    0    0  0.00000000000E+00  0.00000000000E+00  0.12525980253E-10  0.17130000000E+03  0.17130000000E+03 0. -1.
       11    1    1    2    0    0  0.32617101204E+00 -0.11654578190E+00  0.53746286132E+00  0.63940365725E+00  0.51109989000E-03 0.  1.
     -623    1    1    2    0    0  0.23531890051E+00  0.36978795955E+00  0.38560353109E+00  0.17130099477E+03  0.17130000000E+03 0. -1.
      622    1    1    2    0    0 -0.56148991255E+00 -0.25324217765E+00  0.30769335749E+01  0.33596015756E+01  0.12000000000E+01 0.  1.
</event>
<event>
 5   0  0.5136900E+01  0.9118800E+02  0.7818608E-02  0.1180000E+00
       11   -1    0    0    0    0  0.00000000000E+00  0.00000000000E+00  0.39999999673E+01  0.40000000000E+01  0.51109989000E-03 0.  1.
     -623   -1    0    0    0    0  0.00000000000E+00  0.00000000000E+00  0.12525980253E-10  0.17130000000E+03  0.17130000000E+03 0. -1.
       11    1    1    2    0    0 -0.72702289009E-01 -0.24152186726E-01  0.40345322078E+00  0.41066252998E+00  0.51109989000E-03 0.  1.
     -623    1    1    2    0    0  0.14408354034E+00  0.79791229243E-01  0.21518401840E+00  0.17130021433E+03  0.17130000000E+03 0. -1.
      622    1    1    2    0    0 -0.71381251333E-01 -0.55639042516E-01  0.33813627282E+01  0.35891231360E+01  0.12000000000E+01 0.  1.
</event>
<event>
 5   0  0.5136900E+01  0.9118800E+02  0.7818608E-02  0.1180000E+00
       11   -1    0    0    0    0  0.00000000000E+00  0.00000000000E+00  0.39999999673E+01  0.40000000000E+01  0.51109989000E-03 0. -1.
     -623   -1    0    0    0    0  0.00000000000E+00  0.00000000000E+00  0.12525980253E-10  0.17130000000E+03  0.17130000000E+03 0. -1.
       11    1    1    2    0    0  0.72261225131E-01 -0.47880179213E-01 -0.30196317385E-01  0.91794743980E-01  0.51109989000E-03 0. -1.
     -623    1    1    2    0    0 -0.54377051389E-01 -0.69698759666E-01  0.31300510822E+00  0.17130030878E+03  0.17130000000E+03 0. -1.
      622    1    1    2    0    0 -0.17884173742E-01  0.11757893888E+00  0.37171911765E+01  0.39078964794E+01  0.12000000000E+01 0. -1.
</event>
<event>
 5   0  0.5136900E+01  0.9118800E+02  0.7818608E-02  0.1180000E+00
       11   -1    0    0    0    0  0.00000000000E+00  0.00000000000E+00  0.39999999673E+01  0.40000000000E+01  0.51109989000E-03 0. -1.
     -623   -1    0    0    0    0  0.00000000000E+00  0.00000000000E+00  0.12525980253E-10  0.17130000000E+03  0.17130000000E+03 0. -1.
       11    1    1    2    0    0 -0.18501330303E+00  0.11828018548E+00  0.10779648902E+01  0.11001039452E+01  0.51109989000E-03 0. -1.
     -623    1    1    2    0    0  0.31355705371E-01 -0.35773217846E+00  0.29815213531E+00  0.17130063587E+03  0.17130000000E+03 0. -1.
      622    1    1    2    0    0  0.15365759766E+00  0.23945199298E+00  0.26238829419E+01  0.28992601827E+01  0.12000000000E+01 0. -1.
</event>
<event>
 5   0  0.5136900E+01  0.9118800E+02  0.7818608E-02  0.1180000E+00
       11   -1    0    0    0    0  0.00000000000E+00  0.00000000000E+00  0.39999999673E+01  0.40000000000E+01  0.51109989000E-03 0. -1.
     -623   -1    0    0    0    0  0.00000000000E+00  0.00000000000E+00  0.12525980253E-10  0.17130000000E+03  0.17130000000E+03 0.  1.
       11    1    1    2    0    0 -0.10280867330E+00  0.48149466709E-02  0.88637767350E-01  0.13582975389E+00  0.51109989000E-03 0. -1.
     -623    1    1    2    0    0  0.25828435302E-01  0.98101789916E-01  0.24070083733E+00  0.17130019915E+03  0.17130000000E+03 0.  1.
      622    1    1    2    0    0  0.76980237996E-01 -0.10291673659E+00  0.36706613627E+01  0.38639710986E+01  0.12000000000E+01 0. -1.
</event>
<event>
 5   0  0.5136900E+01  0.9118800E+02  0.7818608E-02  0.1180000E+00
       11   -1    0    0    0    0  0.00000000000E+00  0.00000000000E+00  0.39999999673E+01  0.40000000000E+01  0.51109989000E-03 0.  1.
     -623   -1    0    0    0    0  0.00000000000E+00  0.00000000000E+00  0.12525980253E-10  0.17130000000E+03  0.17130000000E+03 0.  1.
       11    1    1    2    0    0 -0.33107103879E+00 -0.14715688489E+00  0.26757499060E+00  0.45039962069E+00  0.51109989000E-03 0.  1.
     -623    1    1    2    0    0 -0.97031518463E-01 -0.69473095037E-01  0.42706744679E+00  0.17130057393E+03  0.17130000000E+03 0.  1.
      622    1    1    2    0    0  0.42810255725E+00  0.21662997993E+00  0.33053575300E+01  0.35490264508E+01  0.12000000000E+01 0.  1.
</event>
<event>
 5   0  0.5136900E+01  0.9118800E+02  0.7818608E-02  0.1180000E+00
       11   -1    0    0    0    0  0.00000000000E+00  0.00000000000E+00  0.39999999673E+01  0.40000000000E+01  0.51109989000E-03 0.  1.
     -623   -1    0    0    0    0  0.00000000000E+00  0.00000000000E+00  0.12525980253E-10  0.17130000000E+03  0.17130000000E+03 0.  1.
       11    1    1    2    0    0  0.53613132684E-01 -0.27001838421E-01  0.15922706799E+00  0.17016752827E+00  0.51109989000E-03 0.  1.
     -623    1    1    2    0    0 -0.25068029621E+00 -0.44401973546E-01  0.21017429064E+00  0.17130031811E+03  0.17130000000E+03 0.  1.
      622    1    1    2    0    0  0.19706716353E+00  0.71403811968E-01  0.36305986087E+01  0.38295143594E+01  0.12000000000E+01 0.  1.
</event>
<event>
 5   0  0.5136900E+01  0.9118800E+02  0.7818608E-02  0.1180000E+00
       11   -1    0    0    0    0  0.00000000000E+00  0.00000000000E+00  0.39999999673E+01  0.40000000000E+01  0.51109989000E-03 0.  1.
     -623   -1    0    0    0    0  0.00000000000E+00  0.00000000000E+00  0.12525980253E-10  0.17130000000E+03  0.17130000000E+03 0.  1.
       11    1    1    2    0    0 -0.53177958131E-01 -0.69464915438E-01  0.64339992992E-01  0.10859634261E+00  0.51109989000E-03 0.  1.
     -623    1    1    2    0    0 -0.13577075655E+00  0.32055611009E+00  0.24782510247E+00  0.17130053300E+03  0.17130000000E+03 0.  1.
      622    1    1    2    0    0  0.18894871468E+00 -0.25109119465E+00  0.36878348719E+01  0.38908706541E+01  0.12000000000E+01 0.  1.
</event>
<event>
 5   0  0.5136900E+01  0.9118800E+02  0.7818608E-02  0.1180000E+00
       11   -1    0    0    0    0  0.00000000000E+00  0.00000000000E+00  0.39999999673E+01  0.40000000000E+01  0.51109989000E-03 0.  1.
     -623   -1    0    0    0    0  0.00000000000E+00  0.00000000000E+00  0.12525980253E-10  0.17130000000E+03  0.17130000000E+03 0.  1.
       11    1    1    2    0    0  0.29035759291E-01 -0.65189730146E-01  0.31850990820E-01  0.78150643461E-01  0.51109989000E-03 0.  1.
     -623    1    1    2    0    0 -0.36494478660E-01  0.97801458387E-01  0.23474943819E+00  0.17130019266E+03  0.17130000000E+03 0.  1.
      622    1    1    2    0    0  0.74587193696E-02 -0.32611728241E-01  0.37333995384E+01  0.39216566997E+01  0.12000000000E+01 0.  1.
</event>
<event>
 5   0  0.5136900E+01  0.9118800E+02  0.7818608E-02  0.1180000E+00
       11   -1    0    0    0    0  0.00000000000E+00  0.00000000000E+00  0.39999999673E+01  0.40000000000E+01  0.51109989000E-03 0.  1.
     -623   -1    0    0    0    0  0.00000000000E+00  0.00000000000E+00  0.12525980253E-10  0.17130000000E+03  0.17130000000E+03 0.  1.
       11    1    1    2    0    0  0.20563541078E-01 -0.11601280511E+00  0.38289197742E+00  0.40060998211E+00  0.51109989000E-03 0.  1.
     -623    1    1    2    0    0 -0.21337247243E+00 -0.65052932874E-01  0.23429118428E+00  0.17130030546E+03  0.17130000000E+03 0.  1.
      622    1    1    2    0    0  0.19280893135E+00  0.18106573798E+00  0.33828168057E+01  0.35990845539E+01  0.12000000000E+01 0. -1.
</event>
<event>
 5   0  0.5136900E+01  0.9118800E+02  0.7818608E-02  0.1180000E+00
       11   -1    0    0    0    0  0.00000000000E+00  0.00000000000E+00  0.39999999673E+01  0.40000000000E+01  0.51109989000E-03 0. -1.
     -623   -1    0    0    0    0  0.00000000000E+00  0.00000000000E+00  0.12525980253E-10  0.17130000000E+03  0.17130000000E+03 0. -1.
       11    1    1    2    0    0 -0.71779978310E-01  0.57933219558E-01  0.50885752918E+00  0.51715072216E+00  0.51109989000E-03 0. -1.
     -623    1    1    2    0    0  0.21058517873E-01 -0.46866050750E+00  0.24873012884E+00  0.17130082298E+03  0.17130000000E+03 0. -1.
      622    1    1    2    0    0  0.50721460437E-01  0.41072728794E+00  0.32424123093E+01  0.34820263002E+01  0.12000000000E+01 0. -1.
</event>
<event>
 5   0  0.5136900E+01  0.9118800E+02  0.7818608E-02  0.1180000E+00
       11   -1    0    0    0    0  0.00000000000E+00  0.00000000000E+00  0.39999999673E+01  0.40000000000E+01  0.51109989000E-03 0. -1.
     -623   -1    0    0    0    0  0.00000000000E+00  0.00000000000E+00  0.12525980253E-10  0.17130000000E+03  0.17130000000E+03 0.  1.
       11    1    1    2    0    0  0.13136674462E+00  0.11059004345E+00  0.20439273850E-01  0.17293179130E+00  0.51109989000E-03 0. -1.
     -623    1    1    2    0    0 -0.30823963898E-01  0.51816764399E-01  0.35090609728E+00  0.17130037002E+03  0.17130000000E+03 0.  1.
      622    1    1    2    0    0 -0.10054278072E+00 -0.16240680785E+00  0.36286545962E+01  0.38266981852E+01  0.12000000000E+01 0. -1.
</event>
<event>
 5   0  0.5136900E+01  0.9118800E+02  0.7818608E-02  0.1180000E+00
       11   -1    0    0    0    0  0.00000000000E+00  0.00000000000E+00  0.39999999673E+01  0.40000000000E+01  0.51109989000E-03 0.  1.
     -623   -1    0    0    0    0  0.00000000000E+00  0.00000000000E+00  0.12525980253E-10  0.17130000000E+03  0.17130000000E+03 0. -1.
       11    1    1    2    0    0  0.81559655845E-01 -0.84211556414E-01  0.24778198519E+00  0.27411628390E+00  0.51109989000E-03 0.  1.
     -623    1    1    2    0    0 -0.84270637041E-01  0.33185900659E+00  0.23410325745E+00  0.17130050215E+03  0.17130000000E+03 0. -1.
      622    1    1    2    0    0  0.27109811961E-02 -0.24764745017E+00  0.35181147247E+01  0.37253815678E+01  0.12000000000E+01 0.  1.
</event>
<event>
 5   0  0.5136900E+01  0.9118800E+02  0.7818608E-02  0.1180000E+00
       11   -1    0    0    0    0  0.00000000000E+00  0.00000000000E+00  0.39999999673E+01  0.40000000000E+01  0.51109989000E-03 0.  1.
     -623   -1    0    0    0    0  0.00000000000E+00  0.00000000000E+00  0.12525980253E-10  0.17130000000E+03  0.17130000000E+03 0.  1.
       11    1    1    2    0    0  0.24309876082E+00  0.61305524178E-01  0.30345864603E+00  0.39362772499E+00  0.51109989000E-03 0.  1.
     -623    1    1    2    0    0 -0.81371471696E+00 -0.12412196188E+00  0.34697728449E+00  0.17130232903E+03  0.17130000000E+03 0.  1.
      622    1    1    2    0    0  0.57061595614E+00  0.62816437705E-01  0.33495640368E+01  0.36040432449E+01  0.12000000000E+01 0.  1.
</event>
<event>
 5   0  0.5136900E+01  0.9118800E+02  0.7818608E-02  0.1180000E+00
       11   -1    0    0    0    0  0.00000000000E+00  0.00000000000E+00  0.39999999673E+01  0.40000000000E+01  0.51109989000E-03 0. -1.
     -623   -1    0    0    0    0  0.00000000000E+00  0.00000000000E+00  0.12525980253E-10  0.17130000000E+03  0.17130000000E+03 0. -1.
       11    1    1    2    0    0  0.87892442458E-01  0.10498689716E+00  0.44970123778E+00  0.47008381646E+00  0.51109989000E-03 0. -1.
     -623    1    1    2    0    0 -0.65678107628E-01 -0.35620749221E+00  0.24079651022E+00  0.17130055219E+03  0.17130000000E+03 0. -1.
      622    1    1    2    0    0 -0.22214334830E-01  0.25122059505E+00  0.33095022194E+01  0.35293639943E+01  0.12000000000E+01 0. -1.
</event>
<event>
 5   0  0.5136900E+01  0.9118800E+02  0.7818608E-02  0.1180000E+00
       11   -1    0    0    0    0  0.00000000000E+00  0.00000000000E+00  0.39999999673E+01  0.40000000000E+01  0.51109989000E-03 0.  1.
     -623   -1    0    0    0    0  0.00000000000E+00  0.00000000000E+00  0.12525980253E-10  0.17130000000E+03  0.17130000000E+03 0. -1.
       11    1    1    2    0    0 -0.53004742405E+00 -0.37303264440E+00  0.38587201635E+00  0.75432161559E+00  0.51109989000E-03 0.  1.
     -623    1    1    2    0    0  0.45327328606E+00  0.13884641237E+00  0.61040091447E+00  0.17130174349E+03  0.17130000000E+03 0. -1.
      622    1    1    2    0    0  0.76774137989E-01  0.23418623202E+00  0.30037270365E+01  0.32439348899E+01  0.12000000000E+01 0.  0.
</event>
<event>
 5   0  0.5136900E+01  0.9118800E+02  0.7818608E-02  0.1180000E+00
       11   -1    0    0    0    0  0.00000000000E+00  0.00000000000E+00  0.39999999673E+01  0.40000000000E+01  0.51109989000E-03 0. -1.
     -623   -1    0    0    0    0  0.00000000000E+00  0.00000000000E+00  0.12525980253E-10  0.17130000000E+03  0.17130000000E+03 0. -1.
       11    1    1    2    0    0 -0.23001965344E-02 -0.63483329709E-02 -0.18077894970E-01  0.19304500648E-01  0.51109989000E-03 0. -1.
     -623    1    1    2    0    0 -0.38480682857E-01 -0.17531301313E+00  0.22738892456E+00  0.17130024495E+03  0.17130000000E+03 0. -1.
      622    1    1    2    0    0  0.40780879391E-01  0.18166134610E+00  0.37906889378E+01  0.39804505458E+01  0.12000000000E+01 0. -1.
</event>
<event>
 5   0  0.5136900E+01  0.9118800E+02  0.7818608E-02  0.1180000E+00
       11   -1    0    0    0    0  0.00000000000E+00  0.00000000000E+00  0.39999999673E+01  0.40000000000E+01  0.51109989000E-03 0. -1.
     -623   -1    0    0    0    0  0.00000000000E+00  0.00000000000E+00  0.12525980253E-10  0.17130000000E+03  0.17130000000E+03 0.  1.
       11    1    1    2    0    0  0.21485423799E-01  0.18084770107E+00  0.48021752927E-01  0.18834506734E+00  0.51109989000E-03 0. -1.
     -623    1    1    2    0    0  0.32759250598E+00 -0.72166422209E+00  0.39431823278E+00  0.17130228721E+03  0.17130000000E+03 0.  1.
      622    1    1    2    0    0 -0.34907792978E+00  0.54081652102E+00  0.35576599817E+01  0.38093677239E+01  0.12000000000E+01 0. -1.
</event>
<event>
 5   0  0.5136900E+01  0.9118800E+02  0.7818608E-02  0.1180000E+00
       11   -1    0    0    0    0  0.00000000000E+00  0.00000000000E+00  0.39999999673E+01  0.40000000000E+01  0.51109989000E-03 0. -1.
     -623   -1    0    0    0    0  0.00000000000E+00  0.00000000000E+00  0.12525980253E-10  0.17130000000E+03  0.17130000000E+03 0. -1.
       11    1    1    2    0    0 -0.40211387121E+00 -0.10585228685E-01  0.12532356312E+00  0.42132394803E+00  0.51109989000E-03 0. -1.
     -623    1    1    2    0    0  0.45047433761E+00  0.23532487639E+00  0.51265452024E+00  0.17130152107E+03  0.17130000000E+03 0. -1.
      622    1    1    2    0    0 -0.48360466403E-01 -0.22473964770E+00  0.33620218840E+01  0.35771549858E+01  0.12000000000E+01 0. -1.
</event>
<event>
 5   0  0.5136900E+01  0.9118800E+02  0.7818608E-02  0.1180000E+00
       11   -1    0    0    0    0  0.00000000000E+00  0.00000000000E+00  0.39999999673E+01  0.40000000000E+01  0.51109989000E-03 0. -1.
     -623   -1    0    0    0    0  0.00000000000E+00  0.00000000000E+00  0.12525980253E-10  0.17130000000E+03  0.17130000000E+03 0.  1.
       11    1    1    2    0    0  0.22219388968E-01 -0.36673889161E-01 -0.24065105983E-01  0.49173833909E-01  0.51109989000E-03 0. -1.
     -623    1    1    2    0    0  0.81854218140E-01  0.20773027474E+00  0.26558674981E+00  0.17130035140E+03  0.17130000000E+03 0.  1.
      622    1    1    2    0    0 -0.10407360711E+00 -0.17105638558E+00  0.37584783235E+01  0.39504747704E+01  0.12000000000E+01 0. -1.
</event>
<event>
 5   0  0.5136900E+01  0.9118800E+02  0.7818608E-02  0.1180000E+00
       11   -1    0    0    0    0  0.00000000000E+00  0.00000000000E+00  0.39999999673E+01  0.40000000000E+01  0.51109989000E-03 0. -1.
     -623   -1    0    0    0    0  0.00000000000E+00  0.00000000000E+00  0.12525980253E-10  0.17130000000E+03  0.17130000000E+03 0. -1.
       11    1    1    2    0    0 -0.83186388182E-01  0.24942781265E-01  0.59595611214E-01  0.10532813307E+00  0.51109989000E-03 0. -1.
     -623    1    1    2    0    0 -0.71421980142E-01  0.27140949352E-01  0.23899636259E+00  0.17130018376E+03  0.17130000000E+03 0. -1.
      622    1    1    2    0    0  0.15460836832E+00 -0.52083730617E-01  0.37014079936E+01  0.38944881047E+01  0.12000000000E+01 0. -1.
</event>
<event>
 5   0  0.5136900E+01  0.9118800E+02  0.7818608E-02  0.1180000E+00
       11   -1    0    0    0    0  0.00000000000E+00  0.00000000000E+00  0.39999999673E+01  0.40000000000E+01  0.51109989000E-03 0. -1.
     -623   -1    0    0    0    0  0.00000000000E+00  0.00000000000E+00  0.12525980253E-10  0.17130000000E+03  0.17130000000E+03 0.  1.
       11    1    1    2    0    0  0.18229768560E+00  0.37715790742E-01  0.93474146804E-01  0.20830891577E+00  0.51109989000E-03 0. -1.
     -623    1    1    2    0    0 -0.41279718656E+00  0.11129866500E-01  0.31829660248E+00  0.17130079345E+03  0.17130000000E+03 0.  1.
      622    1    1    2    0    0  0.23049950096E+00 -0.48845657242E-01  0.35882292181E+01  0.37908976298E+01  0.12000000000E+01 0. -1.
</event>
<event>
 5   0  0.5136900E+01  0.9118800E+02  0.7818608E-02  0.1180000E+00
       11   -1    0    0    0    0  0.00000000000E+00  0.00000000000E+00  0.39999999673E+01  0.40000000000E+01  0.51109989000E-03 0. -1.
     -623   -1    0    0    0    0  0.00000000000E+00  0.00000000000E+00  0.12525980253E-10  0.17130000000E+03  0.17130000000E+03 0. -1.
       11    1    1    2    0    0 -0.12033197096E-01  0.56134470056E-01  0.74116315488E-01  0.93751618682E-01  0.51109989000E-03 0. -1.
     -623    1    1    2    0    0  0.44638910580E-01 -0.37047234216E-01  0.20885829386E+00  0.17130013715E+03  0.17130000000E+03 0. -1.
      622    1    1    2    0    0 -0.32605713484E-01 -0.19087235841E-01  0.37170253580E+01  0.39061112333E+01  0.12000000000E+01 0. -1.
</event>
<event>
 5   0  0.5136900E+01  0.9118800E+02  0.7818608E-02  0.1180000E+00
       11   -1    0    0    0    0  0.00000000000E+00  0.00000000000E+00  0.39999999673E+01  0.40000000000E+01  0.51109989000E-03 0.  1.
     -623   -1    0    0    0    0  0.00000000000E+00  0.00000000000E+00  0.12525980253E-10  0.17130000000E+03  0.17130000000E+03 0. -1.
       11    1    1    2    0    0 -0.46401686595E-01  0.30114019339E+00  0.86779402173E+00  0.91973107916E+00  0.51109989000E-03 0.  1.
     -623    1    1    2    0    0  0.18327928482E+00 -0.51039904050E+00  0.30757434315E+00  0.17130113456E+03  0.17130000000E+03 0. -1.
      622    1    1    2    0    0 -0.13687759822E+00  0.20925884711E+00  0.28246316025E+01  0.30791343640E+01  0.12000000000E+01 0.  1.
</event>
<event>
 5   0  0.5136900E+01  0.9118800E+02  0.7818608E-02  0.1180000E+00
       11   -1    0    0    0    0  0.00000000000E+00  0.00000000000E+00  0.39999999673E+01  0.40000000000E+01  0.51109989000E-03 0. -1.
     -623   -1    0    0    0    0  0.00000000000E+00  0.00000000000E+00  0.12525980253E-10  0.17130000000E+03  0.17130000000E+03 0.  1.
       11    1    1    2    0    0  0.19013396709E-02 -0.99187765423E-01  0.16474435355E+00  0.19230910314E+00  0.51109989000E-03 0. -1.
     -623    1    1    2    0    0  0.15969359028E+00  0.31602297416E-01  0.22608617416E+00  0.17130022655E+03  0.17130000000E+03 0.  1.
      622    1    1    2    0    0 -0.16159492995E+00  0.67585468007E-01  0.36091694396E+01  0.38074643480E+01  0.12000000000E+01 0. -1.
</event>
<event>
 5   0  0.5136900E+01  0.9118800E+02  0.7818608E-02  0.1180000E+00
       11   -1    0    0    0    0  0.00000000000E+00  0.00000000000E+00  0.39999999673E+01  0.40000000000E+01  0.51109989000E-03 0.  1.
     -623   -1    0    0    0    0  0.00000000000E+00  0.00000000000E+00  0.12525980253E-10  0.17130000000E+03  0.17130000000E+03 0.  1.
       11    1    1    2    0    0 -0.23567654548E+00 -0.53018937972E-01  0.70482724998E-01  0.25163965828E+00  0.51109989000E-03 0.  1.
     -623    1    1    2    0    0  0.36613251638E-01  0.20463846958E-01  0.38462743329E+00  0.17130043695E+03  0.17130000000E+03 0.  1.
      622    1    1    2    0    0  0.19906329384E+00  0.32555091014E-01  0.35448898091E+01  0.37479233967E+01  0.12000000000E+01 0.  1.
</event>
<event>
 5   0  0.5136900E+01  0.9118800E+02  0.7818608E-02  0.1180000E+00
       11   -1    0    0    0    0  0.00000000000E+00  0.00000000000E+00  0.39999999673E+01  0.40000000000E+01  0.51109989000E-03 0.  1.
     -623   -1    0    0    0    0  0.00000000000E+00  0.00000000000E+00  0.12525980253E-10  0.17130000000E+03  0.17130000000E+03 0.  1.
       11    1    1    2    0    0 -0.67944894862E-01  0.45479954332E-01  0.59928277378E+00  0.60483472053E+00  0.51109989000E-03 0.  1.
     -623    1    1    2    0    0 -0.10564609068E+00 -0.24367822084E+00  0.23603257657E+00  0.17130036851E+03  0.17130000000E+03 0.  1.
      622    1    1    2    0    0  0.17359098554E+00  0.19819826651E+00  0.31646846170E+01  0.33947967698E+01  0.12000000000E+01 0.  1.
</event>
<event>
 5   0  0.5136900E+01  0.9118800E+02  0.7818608E-02  0.1180000E+00
       11   -1    0    0    0    0  0.00000000000E+00  0.00000000000E+00  0.39999999673E+01  0.40000000000E+01  0.51109989000E-03 0. -1.
     -623   -1    0    0    0    0  0.00000000000E+00  0.00000000000E+00  0.12525980253E-10  0.17130000000E+03  0.17130000000E+03 0. -1.
       11    1    1    2    0    0 -0.74322748647E-02  0.18253419064E+00  0.14251419888E+00  0.23169921788E+00  0.51109989000E-03 0. -1.
     -623    1    1    2    0    0 -0.22057507544E+00 -0.58611412400E-01  0.29522756133E+00  0.17130040644E+03  0.17130000000E+03 0. -1.
      622    1    1    2    0    0  0.22800735031E+00 -0.12392277824E+00  0.35622582071E+01  0.37678943378E+01  0.12000000000E+01 0. -1.
</event>
<event>
 5   0  0.5136900E+01  0.9118800E+02  0.7818608E-02  0.1180000E+00
       11   -1    0    0    0    0  0.00000000000E+00  0.00000000000E+00  0.39999999673E+01  0.40000000000E+01  0.51109989000E-03 0. -1.
     -623   -1    0    0    0    0  0.00000000000E+00  0.00000000000E+00  0.12525980253E-10  0.17130000000E+03  0.17130000000E+03 0. -1.
       11    1    1    2    0    0  0.83445923491E-01 -0.12102465948E+00  0.27818893265E+00  0.31464191365E+00  0.51109989000E-03 0. -1.
     -623    1    1    2    0    0 -0.25342104201E+00  0.86299570376E-01  0.24201722446E+00  0.17130038016E+03  0.17130000000E+03 0. -1.
      622    1    1    2    0    0  0.16997511852E+00  0.34725089108E-01  0.34797938102E+01  0.36849779286E+01  0.12000000000E+01 0. -1.
</event>
<event>
 5   0  0.5136900E+01  0.9118800E+02  0.7818608E-02  0.1180000E+00
       11   -1    0    0    0    0  0.00000000000E+00  0.00000000000E+00  0.39999999673E+01  0.40000000000E+01  0.51109989000E-03 0. -1.
     -623   -1    0    0    0    0  0.00000000000E+00  0.00000000000E+00  0.12525980253E-10  0.17130000000E+03  0.17130000000E+03 0.  1.
       11    1    1    2    0    0 -0.21734665671E+00 -0.10151024218E+00  0.22519420584E+00  0.32902369218E+00  0.51109989000E-03 0. -1.
     -623    1    1    2    0    0  0.86312868766E-01 -0.22786699361E+00  0.32417050394E+00  0.17130048003E+03  0.17130000000E+03 0.  1.
      622    1    1    2    0    0  0.13103378795E+00  0.32937723579E+00  0.34506352576E+01  0.36704962741E+01  0.12000000000E+01 0. -1.
</event>
<event>
 5   0  0.5136900E+01  0.9118800E+02  0.7818608E-02  0.1180000E+00
       11   -1    0    0    0    0  0.00000000000E+00  0.00000000000E+00  0.39999999673E+01  0.40000000000E+01  0.51109989000E-03 0. -1.
     -623   -1    0    0    0    0  0.00000000000E+00  0.00000000000E+00  0.12525980253E-10  0.17130000000E+03  0.17130000000E+03 0.  1.
       11    1    1    2    0    0 -0.23300720025E+00  0.67617036806E-01  0.50468934050E+00  0.55997858055E+00  0.51109989000E-03 0. -1.
     -623    1    1    2    0    0  0.69097732057E-02 -0.33085309928E+00  0.29071423808E+00  0.17130056633E+03  0.17130000000E+03 0.  1.
      622    1    1    2    0    0  0.22609742704E+00  0.26323606247E+00  0.32045963888E+01  0.34394550856E+01  0.12000000000E+01 0. -1.
</event>
<event>
 5   0  0.5136900E+01  0.9118800E+02  0.7818608E-02  0.1180000E+00
       11   -1    0    0    0    0  0.00000000000E+00  0.00000000000E+00  0.39999999673E+01  0.40000000000E+01  0.51109989000E-03 0. -1.
     -623   -1    0    0    0    0  0.00000000000E+00  0.00000000000E+00  0.12525980253E-10  0.17130000000E+03  0.17130000000E+03 0.  1.
       11    1    1    2    0    0  0.38353183055E-01  0.38171364317E-01 -0.90064637754E-02  0.54857974034E-01  0.51109989000E-03 0. -1.
     -623    1    1    2    0    0  0.10287058941E+00 -0.69286548784E-01  0.25382397365E+00  0.17130023295E+03  0.17130000000E+03 0.  1.
      622    1    1    2    0    0 -0.14122377247E+00  0.31115184466E-01  0.37551824575E+01  0.39449090734E+01  0.12000000000E+01 0. -1.
</event>
<event>
 5   0  0.5136900E+01  0.9118800E+02  0.7818608E-02  0.1180000E+00
       11   -1    0    0    0    0  0.00000000000E+00  0.00000000000E+00  0.39999999673E+01  0.40000000000E+01  0.51109989000E-03 0. -1.
     -623   -1    0    0    0    0  0.00000000000E+00  0.00000000000E+00  0.12525980253E-10  0.17130000000E+03  0.17130000000E+03 0.  1.
       11    1    1    2    0    0  0.12908709907E+00 -0.14187128218E+00  0.91623863312E-01  0.21257030226E+00  0.51109989000E-03 0. -1.
     -623    1    1    2    0    0  0.59853759586E-01 -0.14879978632E+00  0.33326615610E+00  0.17130039927E+03  0.17130000000E+03 0.  1.
      622    1    1    2    0    0 -0.18894085865E+00  0.29067106850E+00  0.35751099479E+01  0.37870304274E+01  0.12000000000E+01 0. -1.
</event>
<event>
 5   0  0.5136900E+01  0.9118800E+02  0.7818608E-02  0.1180000E+00
       11   -1    0    0    0    0  0.00000000000E+00  0.00000000000E+00  0.39999999673E+01  0.40000000000E+01  0.51109989000E-03 0.  1.
     -623   -1    0    0    0    0  0.00000000000E+00  0.00000000000E+00  0.12525980253E-10  0.17130000000E+03  0.17130000000E+03 0.  1.
       11    1    1    2    0    0 -0.28927483532E+00 -0.29980243007E+00  0.57877833199E+00  0.71312414504E+00  0.51109989000E-03 0.  1.
     -623    1    1    2    0    0  0.11689337757E+00  0.42399811739E+00  0.36965148820E+00  0.17130096346E+03  0.17130000000E+03 0.  1.
      622    1    1    2    0    0  0.17238145775E+00 -0.12419568732E+00  0.30515701472E+01  0.32859123997E+01  0.12000000000E+01 0.  1.
</event>
<event>
 5   0  0.5136900E+01  0.9118800E+02  0.7818608E-02  0.1180000E+00
       11   -1    0    0    0    0  0.00000000000E+00  0.00000000000E+00  0.39999999673E+01  0.40000000000E+01  0.51109989000E-03 0.  1.
     -623   -1    0    0    0    0  0.00000000000E+00  0.00000000000E+00  0.12525980253E-10  0.17130000000E+03  0.17130000000E+03 0.  1.
       11    1    1    2    0    0 -0.57271617208E-01 -0.33240752233E-01  0.42128748714E-01  0.78486167175E-01  0.51109989000E-03 0.  1.
     -623    1    1    2    0    0  0.17161766389E+00 -0.20748853062E+00  0.23438793098E+00  0.17130037198E+03  0.17130000000E+03 0.  1.
      622    1    1    2    0    0 -0.11434604668E+00  0.24072928285E+00  0.37234832877E+01  0.39211418489E+01  0.12000000000E+01 0.  1.
</event>
<event>
 5   0  0.5136900E+01  0.9118800E+02  0.7818608E-02  0.1180000E+00
       11   -1    0    0    0    0  0.00000000000E+00  0.00000000000E+00  0.39999999673E+01  0.40000000000E+01  0.51109989000E-03 0.  1.
     -623   -1    0    0    0    0  0.00000000000E+00  0.00000000000E+00  0.12525980253E-10  0.17130000000E+03  0.17130000000E+03 0. -1.
       11    1    1    2    0    0 -0.25053009811E-01  0.74466447111E-01  0.51976567178E-01  0.94205784348E-01  0.51109989000E-03 0.  1.
     -623    1    1    2    0    0  0.10061392073E+00  0.14369510329E-01  0.23316780864E+00  0.17130018884E+03  0.17130000000E+03 0. -1.
      622    1    1    2    0    0 -0.75560910920E-01 -0.88835957441E-01  0.37148555915E+01  0.39056053749E+01  0.12000000000E+01 0.  1.
</event>
<event>
 5   0  0.5136900E+01  0.9118800E+02  0.7818608E-02  0.1180000E+00
       11   -1    0    0    0    0  0.00000000000E+00  0.00000000000E+00  0.39999999673E+01  0.40000000000E+01  0.51109989000E-03 0. -1.
     -623   -1    0    0    0    0  0.00000000000E+00  0.00000000000E+00  0.12525980253E-10  0.17130000000E+03  0.17130000000E+03 0.  1.
       11    1    1    2    0    0 -0.80387129092E-02 -0.10673468496E-01 -0.21966451314E-02  0.13551026061E-01  0.51109989000E-03 0. -1.
     -623    1    1    2    0    0  0.12464183038E+00  0.34668719313E-02  0.20261636936E+00  0.17130016521E+03  0.17130000000E+03 0.  1.
      622    1    1    2    0    0 -0.11660311747E+00  0.72065965643E-02  0.37995802431E+01  0.39862837639E+01  0.12000000000E+01 0. -1.
</event>
<event>
 5   0  0.5136900E+01  0.9118800E+02  0.7818608E-02  0.1180000E+00
       11   -1    0    0    0    0  0.00000000000E+00  0.00000000000E+00  0.39999999673E+01  0.40000000000E+01  0.51109989000E-03 0. -1.
     -623   -1    0    0    0    0  0.00000000000E+00  0.00000000000E+00  0.12525980253E-10  0.17130000000E+03  0.17130000000E+03 0.  1.
       11    1    1    2    0    0  0.35882778817E-01 -0.68875239441E-02  0.17893949442E+00  0.18263246066E+00  0.51109989000E-03 0. -1.
     -623    1    1    2    0    0 -0.81127044981E-01 -0.19108202954E+00  0.20316386627E+00  0.17130024626E+03  0.17130000000E+03 0.  1.
      622    1    1    2    0    0  0.45244266164E-01  0.19796955348E+00  0.36178966067E+01  0.38171212771E+01  0.12000000000E+01 0. -1.
</event>
<event>
 5   0  0.5136900E+01  0.9118800E+02  0.7818608E-02  0.1180000E+00
       11   -1    0    0    0    0  0.00000000000E+00  0.00000000000E+00  0.39999999673E+01  0.40000000000E+01  0.51109989000E-03 0. -1.
     -623   -1    0    0    0    0  0.00000000000E+00  0.00000000000E+00  0.12525980253E-10  0.17130000000E+03  0.17130000000E+03 0.  1.
       11    1    1    2    0    0  0.15516460696E+00  0.17461704102E-01  0.48248900185E+00  0.50712608343E+00  0.51109989000E-03 0. -1.
     -623    1    1    2    0    0 -0.84778957176E-01 -0.38758641535E+00  0.25965310880E+00  0.17130065625E+03  0.17130000000E+03 0.  1.
      622    1    1    2    0    0 -0.70385649785E-01  0.37012471125E+00  0.32578578567E+01  0.34922176702E+01  0.12000000000E+01 0. -1.
</event>
<event>
 5   0  0.5136900E+01  0.9118800E+02  0.7818608E-02  0.1180000E+00
       11   -1    0    0    0    0  0.00000000000E+00  0.00000000000E+00  0.39999999673E+01  0.40000000000E+01  0.51109989000E-03 0. -1.
     -623   -1    0    0    0    0  0.00000000000E+00  0.00000000000E+00  0.12525980253E-10  0.17130000000E+03  0.17130000000E+03 0.  1.
       11    1    1    2    0    0 -0.11708855283E+00 -0.15308773882E+00  0.74705386096E+00  0.77151494955E+00  0.51109989000E-03 0. -1.
     -623    1    1    2    0    0 -0.23239238073E-01  0.31088237470E+00  0.26373512261E+00  0.17130048670E+03  0.17130000000E+03 0.  1.
      622    1    1    2    0    0  0.14032779091E+00 -0.15779463588E+00  0.29892109838E+01  0.32279983491E+01  0.12000000000E+01 0. -1.
</event>
<event>
 5   0  0.5136900E+01  0.9118800E+02  0.7818608E-02  0.1180000E+00
       11   -1    0    0    0    0  0.00000000000E+00  0.00000000000E+00  0.39999999673E+01  0.40000000000E+01  0.51109989000E-03 0. -1.
     -623   -1    0    0    0    0  0.00000000000E+00  0.00000000000E+00  0.12525980253E-10  0.17130000000E+03  0.17130000000E+03 0. -1.
       11    1    1    2    0    0 -0.60098776493E-01  0.15382127372E-01 -0.11389439928E-01  0.63074981913E-01  0.51109989000E-03 0. -1.
     -623    1    1    2    0    0 -0.38011616333E+00 -0.78631816478E-01  0.28899675632E+00  0.17130068357E+03  0.17130000000E+03 0. -1.
      622    1    1    2    0    0  0.44021493983E+00  0.63249689106E-01  0.37223926510E+01  0.39362414515E+01  0.12000000000E+01 0. -1.
</event>
<event>
 5   0  0.5136900E+01  0.9118800E+02  0.7818608E-02  0.1180000E+00
       11   -1    0    0    0    0  0.00000000000E+00  0.00000000000E+00  0.39999999673E+01  0.40000000000E+01  0.51109989000E-03 0.  1.
     -623   -1    0    0    0    0  0.00000000000E+00  0.00000000000E+00  0.12525980253E-10  0.17130000000E+03  0.17130000000E+03 0. -1.
       11    1    1    2    0    0  0.49927990990E-01  0.27308096244E-01 -0.12404680491E-01  0.58246662782E-01  0.51109989000E-03 0.  1.
     -623    1    1    2    0    0 -0.21396689233E+00  0.96140657779E-02  0.26186950036E+00  0.17130033406E+03  0.17130000000E+03 0. -1.
      622    1    1    2    0    0  0.16403890134E+00 -0.36922162022E-01  0.37505351475E+01  0.39414192748E+01  0.12000000000E+01 0.  1.
</event>
<event>
 5   0  0.5136900E+01  0.9118800E+02  0.7818608E-02  0.1180000E+00
       11   -1    0    0    0    0  0.00000000000E+00  0.00000000000E+00  0.39999999673E+01  0.40000000000E+01  0.51109989000E-03 0.  1.
     -623   -1    0    0    0    0  0.00000000000E+00  0.00000000000E+00  0.12525980253E-10  0.17130000000E+03  0.17130000000E+03 0. -1.
       11    1    1    2    0    0 -0.17181412100E+00  0.72124029494E-01  0.12066634343E+00  0.22199683660E+00  0.51109989000E-03 0.  1.
     -623    1    1    2    0    0  0.24529208997E+00  0.13952507456E+00  0.30451722471E+00  0.17130050311E+03  0.17130000000E+03 0. -1.
      622    1    1    2    0    0 -0.73477968974E-01 -0.21164910405E+00  0.35748163992E+01  0.37775000521E+01  0.12000000000E+01 0.  1.
</event>
<event>
 5   0  0.5136900E+01  0.9118800E+02  0.7818608E-02  0.1180000E+00
       11   -1    0    0    0    0  0.00000000000E+00  0.00000000000E+00  0.39999999673E+01  0.40000000000E+01  0.51109989000E-03 0. -1.
     -623   -1    0    0    0    0  0.00000000000E+00  0.00000000000E+00  0.12525980253E-10  0.17130000000E+03  0.17130000000E+03 0. -1.
       11    1    1    2    0    0 -0.57826564641E-01 -0.31924683767E-02  0.33177181170E+00  0.33678910270E+00  0.51109989000E-03 0. -1.
     -623    1    1    2    0    0 -0.28483998318E+00  0.27397853260E-01  0.22464314668E+00  0.17130038631E+03  0.17130000000E+03 0. -1.
      622    1    1    2    0    0  0.34266654782E+00 -0.24205384884E-01  0.34435850090E+01  0.36628245901E+01  0.12000000000E+01 0.  0.
</event>
<event>
 5   0  0.5136900E+01  0.9118800E+02  0.7818608E-02  0.1180000E+00
       11   -1    0    0    0    0  0.00000000000E+00  0.00000000000E+00  0.39999999673E+01  0.40000000000E+01  0.51109989000E-03 0. -1.
     -623   -1    0    0    0    0  0.00000000000E+00  0.00000000000E+00  0.12525980253E-10  0.17130000000E+03  0.17130000000E+03 0.  1.
       11    1    1    2    0    0 -0.57188158622E-01  0.48566975140E-01  0.53139942720E-01  0.91942108381E-01  0.51109989000E-03 0. -1.
     -623    1    1    2    0    0  0.15208586403E+00  0.80363063652E-01  0.23129917276E+00  0.17130024252E+03  0.17130000000E+03 0.  1.
      622    1    1    2    0    0 -0.94897705409E-01 -0.12893003879E+00  0.37155608519E+01  0.39078153710E+01  0.12000000000E+01 0. -1.
</event>
<event>
 5   0  0.5136900E+01  0.9118800E+02  0.7818608E-02  0.1180000E+00
       11   -1    0    0    0    0  0.00000000000E+00  0.00000000000E+00  0.39999999673E+01  0.40000000000E+01  0.51109989000E-03 0. -1.
     -623   -1    0    0    0    0  0.00000000000E+00  0.00000000000E+00  0.12525980253E-10  0.17130000000E+03  0.17130000000E+03 0. -1.
       11    1    1    2    0    0  0.14893134977E+00  0.25224607347E+00  0.52464200787E+00  0.60088112483E+00  0.51109989000E-03 0. -1.
     -623    1    1    2    0    0 -0.24582391332E-01 -0.29870870085E+00  0.29843521189E+00  0.17130052217E+03  0.17130000000E+03 0. -1.
      622    1    1    2    0    0 -0.12434895844E+00  0.46462627375E-01  0.31769227476E+01  0.33985967080E+01  0.12000000000E+01 0. -1.
</event>
<event>
 5   0  0.5136900E+01  0.9118800E+02  0.7818608E-02  0.1180000E+00
       11   -1    0    0    0    0  0.00000000000E+00  0.00000000000E+00  0.39999999673E+01  0.40000000000E+01  0.51109989000E-03 0.  1.
     -623   -1    0    0    0    0  0.00000000000E+00  0.00000000000E+00  0.12525980253E-10  0.17130000000E+03  0.17130000000E+03 0.  1.
       11    1    1    2    0    0  0.11139439848E+00  0.28528790446E-01  0.22331352690E+00  0.25118080424E+00  0.51109989000E-03 0.  1.
     -623    1    1    2    0    0 -0.13069461647E+00 -0.82508054185E-01  0.22581042736E+00  0.17130021856E+03  0.17130000000E+03 0.  1.
      622    1    1    2    0    0  0.19300217988E-01  0.53979263739E-01  0.35508760131E+01  0.37486006349E+01  0.12000000000E+01 0.  1.
</event>
<event>
 5   0  0.5136900E+01  0.9118800E+02  0.7818608E-02  0.1180000E+00
       11   -1    0    0    0    0  0.00000000000E+00  0.00000000000E+00  0.39999999673E+01  0.40000000000E+01  0.51109989000E-03 0.  1.
     -623   -1    0    0    0    0  0.00000000000E+00  0.00000000000E+00  0.12525980253E-10  0.17130000000E+03  0.17130000000E+03 0.  1.
       11    1    1    2    0    0 -0.44806428584E-02 -0.44671260304E-01 -0.19280268012E-01  0.48862947264E-01  0.51109989000E-03 0.  1.
     -623    1    1    2    0    0 -0.95882353807E-01  0.31934820540E-01  0.25636945467E+00  0.17130022165E+03  0.17130000000E+03 0.  1.
      622    1    1    2    0    0  0.10036299667E+00  0.12736439765E-01  0.37629107807E+01  0.39509153992E+01  0.12000000000E+01 0.  1.
</event>
<event>
 5   0  0.5136900E+01  0.9118800E+02  0.7818608E-02  0.1180000E+00
       11   -1    0    0    0    0  0.00000000000E+00  0.00000000000E+00  0.39999999673E+01  0.40000000000E+01  0.51109989000E-03 0.  1.
     -623   -1    0    0    0    0  0.00000000000E+00  0.00000000000E+00  0.12525980253E-10  0.17130000000E+03  0.17130000000E+03 0.  1.
       11    1    1    2    0    0  0.12573927524E-01 -0.97606288985E-02 -0.18939290752E-01  0.24745332634E-01  0.51109989000E-03 0.  1.
     -623    1    1    2    0    0 -0.12057527432E+00  0.36674724768E-01  0.23097748682E+00  0.17130020208E+03  0.17130000000E+03 0.  1.
      622    1    1    2    0    0  0.10800134680E+00 -0.26914095870E-01  0.37879617713E+01  0.39750525833E+01  0.12000000000E+01 0.  1.
</event>
<event>
 5   0  0.5136900E+01  0.9118800E+02  0.7818608E-02  0.1180000E+00
       11   -1    0    0    0    0  0.00000000000E+00  0.00000000000E+00  0.39999999673E+01  0.40000000000E+01  0.51109989000E-03 0.  1.
     -623   -1    0    0    0    0  0.00000000000E+00  0.00000000000E+00  0.12525980253E-10  0.17130000000E+03  0.17130000000E+03 0.  1.
       11    1    1    2    0    0  0.74612421247E-01 -0.51939509114E-01  0.18235337073E+00  0.20375902201E+00  0.51109989000E-03 0.  1.
     -623    1    1    2    0    0 -0.11929953583E-01  0.34894337758E-01  0.21679193982E+00  0.17130014115E+03  0.17130000000E+03 0.  1.
      622    1    1    2    0    0 -0.62682467664E-01  0.17045171356E-01  0.36008546568E+01  0.37960998260E+01  0.12000000000E+01 0.  1.
</event>
<event>
 5   0  0.5136900E+01  0.9118800E+02  0.7818608E-02  0.1180000E+00
       11   -1    0    0    0    0  0.00000000000E+00  0.00000000000E+00  0.39999999673E+01  0.40000000000E+01  0.51109989000E-03 0. -1.
     -623   -1    0    0    0    0  0.00000000000E+00  0.00000000000E+00  0.12525980253E-10  0.17130000000E+03  0.17130000000E+03 0. -1.
       11    1    1    2    0    0 -0.22500044400E-01 -0.67265043685E-01  0.88147552236E-01  0.11314190333E+00  0.51109989000E-03 0. -1.
     -623    1    1    2    0    0 -0.67071166541E-01 -0.62848718169E-01  0.21842052893E+00  0.17130016391E+03  0.17130000000E+03 0. -1.
      622    1    1    2    0    0  0.89571210941E-01  0.13011376185E+00  0.36934318862E+01  0.38866941854E+01  0.12000000000E+01 0. -1.
</event>
<event>
 5   0  0.5136900E+01  0.9118800E+02  0.7818608E-02  0.1180000E+00
       11   -1    0    0    0    0  0.00000000000E+00  0.00000000000E+00  0.39999999673E+01  0.40000000000E+01  0.51109989000E-03 0.  1.
     -623   -1    0    0    0    0  0.00000000000E+00  0.00000000000E+00  0.12525980253E-10  0.17130000000E+03  0.17130000000E+03 0. -1.
       11    1    1    2    0    0  0.13453165796E+00  0.34016855040E+00  0.56715467200E+00  0.67489117113E+00  0.51109989000E-03 0.  1.
     -623    1    1    2    0    0 -0.17737677865E+00 -0.86116354950E-01  0.34303431458E+00  0.17130045695E+03  0.17130000000E+03 0. -1.
      622    1    1    2    0    0  0.42845120690E-01 -0.25405219545E+00  0.30898109808E+01  0.33246518794E+01  0.12000000000E+01 0.  1.
</event>
<event>
 5   0  0.5136900E+01  0.9118800E+02  0.7818608E-02  0.1180000E+00
       11   -1    0    0    0    0  0.00000000000E+00  0.00000000000E+00  0.39999999673E+01  0.40000000000E+01  0.51109989000E-03 0. -1.
     -623   -1    0    0    0    0  0.00000000000E+00  0.00000000000E+00  0.12525980253E-10  0.17130000000E+03  0.17130000000E+03 0. -1.
       11    1    1    2    0    0 -0.19414371044E+00 -0.20092407590E-01  0.25604258637E+00  0.32195271766E+00  0.51109989000E-03 0. -1.
     -623    1    1    2    0    0 -0.10423595762E-01 -0.23579673457E+00  0.28306321871E+00  0.17130039648E+03  0.17130000000E+03 0. -1.
      622    1    1    2    0    0  0.20456730620E+00  0.25588914216E+00  0.34608941623E+01  0.36776508043E+01  0.12000000000E+01 0. -1.
</event>
<event>
 5   0  0.5136900E+01  0.9118800E+02  0.7818608E-02  0.1180000E+00
       11   -1    0    0    0    0  0.00000000000E+00  0.00000000000E+00  0.39999999673E+01  0.40000000000E+01  0.51109989000E-03 0.  1.
     -623   -1    0    0    0    0  0.00000000000E+00  0.00000000000E+00  0.12525980253E-10  0.17130000000E+03  0.17130000000E+03 0.  1.
       11    1    1    2    0    0  0.38245284864E-01  0.59270046468E-01  0.50561638709E-01  0.86789289401E-01  0.51109989000E-03 0.  1.
     -623    1    1    2    0    0  0.59489588088E-01  0.33717512307E-01  0.22737822428E+00  0.17130016456E+03  0.17130000000E+03 0.  1.
      622    1    1    2    0    0 -0.97734872953E-01 -0.92987558775E-01  0.37220601044E+01  0.39130461551E+01  0.12000000000E+01 0.  1.
</event>
<event>
 5   0  0.5136900E+01  0.9118800E+02  0.7818608E-02  0.1180000E+00
       11   -1    0    0    0    0  0.00000000000E+00  0.00000000000E+00  0.39999999673E+01  0.40000000000E+01  0.51109989000E-03 0. -1.
     -623   -1    0    0    0    0  0.00000000000E+00  0.00000000000E+00  0.12525980253E-10  0.17130000000E+03  0.17130000000E+03 0. -1.
       11    1    1    2    0    0 -0.38347884935E-01 -0.14511153457E-01  0.51753841454E-01  0.66029199461E-01  0.51109989000E-03 0. -1.
     -623    1    1    2    0    0 -0.51667322320E-01  0.55653973044E-01  0.20321608937E+00  0.17130013737E+03  0.17130000000E+03 0. -1.
      622    1    1    2    0    0  0.90015207255E-01 -0.41142819587E-01  0.37450300365E+01  0.39338334286E+01  0.12000000000E+01 0. -1.
</event>
<event>
 5   0  0.5136900E+01  0.9118800E+02  0.7818608E-02  0.1180000E+00
       11   -1    0    0    0    0  0.00000000000E+00  0.00000000000E+00  0.39999999673E+01  0.40000000000E+01  0.51109989000E-03 0.  1.
     -623   -1    0    0    0    0  0.00000000000E+00  0.00000000000E+00  0.12525980253E-10  0.17130000000E+03  0.17130000000E+03 0.  1.
       11    1    1    2    0    0 -0.16982927618E+00  0.39659837171E-01  0.37819692203E+00  0.41647095792E+00  0.51109989000E-03 0.  1.
     -623    1    1    2    0    0  0.10937653428E+00  0.29114940794E-01  0.24663558012E+00  0.17130021494E+03  0.17130000000E+03 0.  1.
      622    1    1    2    0    0  0.60452741905E-01 -0.68774777965E-01  0.33751674652E+01  0.35833140976E+01  0.12000000000E+01 0.  1.
</event>
<event>
 5   0  0.5136900E+01  0.9118800E+02  0.7818608E-02  0.1180000E+00
       11   -1    0    0    0    0  0.00000000000E+00  0.00000000000E+00  0.39999999673E+01  0.40000000000E+01  0.51109989000E-03 0.  1.
     -623   -1    0    0    0    0  0.00000000000E+00  0.00000000000E+00  0.12525980253E-10  0.17130000000E+03  0.17130000000E+03 0.  1.
       11    1    1    2    0    0  0.57698078421E+00 -0.12492192758E+00  0.24854628209E+00  0.64053714093E+00  0.51109989000E-03 0.  1.
     -623    1    1    2    0    0 -0.46201870825E+00  0.45126323393E+00  0.63533665001E+00  0.17130239564E+03  0.17130000000E+03 0.  1.
      622    1    1    2    0    0 -0.11496207596E+00 -0.32634130635E+00  0.31161170353E+01  0.33570672178E+01  0.12000000000E+01 0.  1.
</event>
<event>
 5   0  0.5136900E+01  0.9118800E+02  0.7818608E-02  0.1180000E+00
       11   -1    0    0    0    0  0.00000000000E+00  0.00000000000E+00  0.39999999673E+01  0.40000000000E+01  0.51109989000E-03 0.  1.
     -623   -1    0    0    0    0  0.00000000000E+00  0.00000000000E+00  0.12525980253E-10  0.17130000000E+03  0.17130000000E+03 0. -1.
       11    1    1    2    0    0 -0.26445040006E-01  0.82094077483E-01  0.13580452453E+00  0.16087854986E+00  0.51109989000E-03 0.  1.
     -623    1    1    2    0    0 -0.16875290213E-01 -0.17770011626E+00  0.21919262569E+00  0.17130023324E+03  0.17130000000E+03 0. -1.
      622    1    1    2    0    0  0.43320330219E-01  0.95606038778E-01  0.36450028171E+01  0.38388882118E+01  0.12000000000E+01 0.  1.
</event>
<event>
 5   0  0.5136900E+01  0.9118800E+02  0.7818608E-02  0.1180000E+00
       11   -1    0    0    0    0  0.00000000000E+00  0.00000000000E+00  0.39999999673E+01  0.40000000000E+01  0.51109989000E-03 0.  1.
     -623   -1    0    0    0    0  0.00000000000E+00  0.00000000000E+00  0.12525980253E-10  0.17130000000E+03  0.17130000000E+03 0.  1.
       11    1    1    2    0    0  0.21830603349E+00 -0.74571699361E-02  0.88805010044E+00  0.91451975143E+00  0.51109989000E-03 0.  1.
     -623    1    1    2    0    0 -0.96517074426E-01  0.22897583954E+00  0.28109308906E+00  0.17130041085E+03  0.17130000000E+03 0.  1.
      622    1    1    2    0    0 -0.12178895906E+00 -0.22151866961E+00  0.28308567779E+01  0.30850693944E+01  0.12000000000E+01 0.  1.
</event>
<event>
 5   0  0.5136900E+01  0.9118800E+02  0.7818608E-02  0.1180000E+00
       11   -1    0    0    0    0  0.00000000000E+00  0.00000000000E+00  0.39999999673E+01  0.40000000000E+01  0.51109989000E-03 0.  1.
     -623   -1    0    0    0    0  0.00000000000E+00  0.00000000000E+00  0.12525980253E-10  0.17130000000E+03  0.17130000000E+03 0.  1.
       11    1    1    2    0    0  0.12958145508E+00  0.12407233182E+00  0.15379486726E+00  0.23630154346E+00  0.51109989000E-03 0.  1.
     -623    1    1    2    0    0  0.99546012233E-02 -0.29966058876E+00  0.28652169870E+00  0.17130050201E+03  0.17130000000E+03 0.  1.
      622    1    1    2    0    0 -0.13953605631E+00  0.17558825694E+00  0.35596834014E+01  0.37631964425E+01  0.12000000000E+01 0.  1.
</event>
<event>
 5   0  0.5136900E+01  0.9118800E+02  0.7818608E-02  0.1180000E+00
       11   -1    0    0    0    0  0.00000000000E+00  0.00000000000E+00  0.39999999673E+01  0.40000000000E+01  0.51109989000E-03 0.  1.
     -623   -1    0    0    0    0  0.00000000000E+00  0.00000000000E+00  0.12525980253E-10  0.17130000000E+03  0.17130000000E+03 0. -1.
       11    1    1    2    0    0  0.45681146319E-01  0.24664197749E-01  0.18996490959E+00  0.19693150555E+00  0.51109989000E-03 0.  1.
     -623    1    1    2    0    0 -0.19614676201E-01 -0.66977636352E-01  0.20173234487E+00  0.17130013300E+03  0.17130000000E+03 0. -1.
      622    1    1    2    0    0 -0.26066470118E-01  0.42313438603E-01  0.36083027129E+01  0.38029354919E+01  0.12000000000E+01 0.  1.
</event>
<event>
 5   0  0.5136900E+01  0.9118800E+02  0.7818608E-02  0.1180000E+00
       11   -1    0    0    0    0  0.00000000000E+00  0.00000000000E+00  0.39999999673E+01  0.40000000000E+01  0.51109989000E-03 0. -1.
     -623   -1    0    0    0    0  0.00000000000E+00  0.00000000000E+00  0.12525980253E-10  0.17130000000E+03  0.17130000000E+03 0.  1.
       11    1    1    2    0    0  0.13487169463E-01 -0.30944934747E-01  0.48836883547E-01  0.59369985194E-01  0.51109989000E-03 0. -1.
     -623    1    1    2    0    0 -0.67762483902E-01  0.99586921189E-01  0.19887527757E+00  0.17130015780E+03  0.17130000000E+03 0.  1.
      622    1    1    2    0    0  0.54275314439E-01 -0.68641986441E-01  0.37522878062E+01  0.39404722195E+01  0.12000000000E+01 0. -1.
</event>
<event>
 5   0  0.5136900E+01  0.9118800E+02  0.7818608E-02  0.1180000E+00
       11   -1    0    0    0    0  0.00000000000E+00  0.00000000000E+00  0.39999999673E+01  0.40000000000E+01  0.51109989000E-03 0. -1.
     -623   -1    0    0    0    0  0.00000000000E+00  0.00000000000E+00  0.12525980253E-10  0.17130000000E+03  0.17130000000E+03 0. -1.
       11    1    1    2    0    0  0.10843337681E+00 -0.23498037371E+00  0.48527748286E+00  0.54997097180E+00  0.51109989000E-03 0. -1.
     -623    1    1    2    0    0  0.93233947010E-01  0.72894358938E+00  0.32646099996E+00  0.17130188740E+03  0.17130000000E+03 0. -1.
      622    1    1    2    0    0 -0.20166732382E+00 -0.49396321567E+00  0.31882614846E+01  0.34481416244E+01  0.12000000000E+01 0.  0.
</event>
<event>
 5   0  0.5136900E+01  0.9118800E+02  0.7818608E-02  0.1180000E+00
       11   -1    0    0    0    0  0.00000000000E+00  0.00000000000E+00  0.39999999673E+01  0.40000000000E+01  0.51109989000E-03 0. -1.
     -623   -1    0    0    0    0  0.00000000000E+00  0.00000000000E+00  0.12525980253E-10  0.17130000000E+03  0.17130000000E+03 0.  1.
       11    1    1    2    0    0  0.31204732904E+00  0.12857018427E+00  0.51756423986E+00  0.61788092013E+00  0.51109989000E-03 0. -1.
     -623    1    1    2    0    0 -0.14238853586E+00 -0.69438122369E-01  0.32587799898E+00  0.17130038322E+03  0.17130000000E+03 0.  1.
      622    1    1    2    0    0 -0.16965879318E+00 -0.59132061898E-01  0.31565577285E+01  0.33817358561E+01  0.12000000000E+01 0. -1.
</event>
<event>
 5   0  0.5136900E+01  0.9118800E+02  0.7818608E-02  0.1180000E+00
       11   -1    0    0    0    0  0.00000000000E+00  0.00000000000E+00  0.39999999673E+01  0.40000000000E+01  0.51109989000E-03 0.  1.
     -623   -1    0    0    0    0  0.00000000000E+00  0.00000000000E+00  0.12525980253E-10  0.17130000000E+03  0.17130000000E+03 0.  1.
       11    1    1    2    0    0 -0.14963962266E+00  0.68912912485E-01  0.66989544649E+00  0.68985591005E+00  0.51109989000E-03 0.  1.
     -623    1    1    2    0    0  0.30630791001E+00 -0.25439952854E+00  0.25540454559E+00  0.17130065317E+03  0.17130000000E+03 0.  1.
      622    1    1    2    0    0 -0.15666828735E+00  0.18548661605E+00  0.30746999753E+01  0.33094909238E+01  0.12000000000E+01 0.  1.
</event>
<event>
 5   0  0.5136900E+01  0.9118800E+02  0.7818608E-02  0.1180000E+00
       11   -1    0    0    0    0  0.00000000000E+00  0.00000000000E+00  0.39999999673E+01  0.40000000000E+01  0.51109989000E-03 0.  1.
     -623   -1    0    0    0    0  0.00000000000E+00  0.00000000000E+00  0.12525980253E-10  0.17130000000E+03  0.17130000000E+03 0. -1.
       11    1    1    2    0    0  0.45512567667E+00 -0.54138614708E-01  0.82738139866E+00  0.94584914825E+00  0.51109989000E-03 0.  1.
     -623    1    1    2    0    0 -0.18358489916E+00 -0.20901412988E+00  0.39039698190E+00  0.17130067075E+03  0.17130000000E+03 0. -1.
      622    1    1    2    0    0 -0.27154077751E+00  0.26315274459E+00  0.27822215868E+01  0.30534800996E+01  0.12000000000E+01 0. -1.
</event>
<event>
 5   0  0.5136900E+01  0.9118800E+02  0.7818608E-02  0.1180000E+00
       11   -1    0    0    0    0  0.00000000000E+00  0.00000000000E+00  0.39999999673E+01  0.40000000000E+01  0.51109989000E-03 0. -1.
     -623   -1    0    0    0    0  0.00000000000E+00  0.00000000000E+00  0.12525980253E-10  0.17130000000E+03  0.17130000000E+03 0.  1.
       11    1    1    2    0    0 -0.23615678761E-01  0.94256965490E-01  0.37901875358E+00  0.39127682350E+00  0.51109989000E-03 0. -1.
     -623    1    1    2    0    0  0.22955275546E+00  0.11875074110E+00  0.23091185296E+00  0.17130035060E+03  0.17130000000E+03 0.  1.
      622    1    1    2    0    0 -0.20593707670E+00 -0.21300770659E+00  0.33900693608E+01  0.36083725741E+01  0.12000000000E+01 0. -1.
</event>
<event>
 5   0  0.5136900E+01  0.9118800E+02  0.7818608E-02  0.1180000E+00
       11   -1    0    0    0    0  0.00000000000E+00  0.00000000000E+00  0.39999999673E+01  0.40000000000E+01  0.51109989000E-03 0.  1.
     -623   -1    0    0    0    0  0.00000000000E+00  0.00000000000E+00  0.12525980253E-10  0.17130000000E+03  0.17130000000E+03 0. -1.
       11    1    1    2    0    0  0.11954714016E+00  0.68411537945E-01  0.14826993041E+00  0.20237561792E+00  0.51109989000E-03 0.  1.
     -623    1    1    2    0    0 -0.46471331067E-01 -0.29278296649E-01  0.24983764145E+00  0.17130019100E+03  0.17130000000E+03 0. -1.
      622    1    1    2    0    0 -0.73075809095E-01 -0.39133241295E-01  0.36018923955E+01  0.37974333850E+01  0.12000000000E+01 0.  0.
</event>
<event>
 5   0  0.5136900E+01  0.9118800E+02  0.7818608E-02  0.1180000E+00
       11   -1    0    0    0    0  0.00000000000E+00  0.00000000000E+00  0.39999999673E+01  0.40000000000E+01  0.51109989000E-03 0.  1.
     -623   -1    0    0    0    0  0.00000000000E+00  0.00000000000E+00  0.12525980253E-10  0.17130000000E+03  0.17130000000E+03 0.  1.
       11    1    1    2    0    0  0.31864608262E-01  0.35918316676E+00  0.73483579699E+00  0.81854249144E+00  0.51109989000E-03 0.  1.
     -623    1    1    2    0    0 -0.38822218589E+00 -0.23724984200E+00  0.34390190255E+00  0.17130094942E+03  0.17130000000E+03 0.  1.
      622    1    1    2    0    0  0.35635757763E+00 -0.12193332476E+00  0.29212622678E+01  0.31805080877E+01  0.12000000000E+01 0.  1.
</event>
<event>
 5   0  0.5136900E+01  0.9118800E+02  0.7818608E-02  0.1180000E+00
       11   -1    0    0    0    0  0.00000000000E+00  0.00000000000E+00  0.39999999673E+01  0.40000000000E+01  0.51109989000E-03 0. -1.
     -623   -1    0    0    0    0  0.00000000000E+00  0.00000000000E+00  0.12525980253E-10  0.17130000000E+03  0.17130000000E+03 0.  1.
       11    1    1    2    0    0  0.84145401593E-01 -0.47683903194E-01 -0.24925858845E-01  0.99878740958E-01  0.51109989000E-03 0. -1.
     -623    1    1    2    0    0  0.45150575214E-02  0.18126309694E-01  0.31548684880E+00  0.17130029154E+03  0.17130000000E+03 0.  1.
      622    1    1    2    0    0 -0.88660459115E-01  0.29557593500E-01  0.37094389774E+01  0.38998297213E+01  0.12000000000E+01 0. -1.
</event>
<event>
 5   0  0.5136900E+01  0.9118800E+02  0.7818608E-02  0.1180000E+00
       11   -1    0    0    0    0  0.00000000000E+00  0.00000000000E+00  0.39999999673E+01  0.40000000000E+01  0.51109989000E-03 0. -1.
     -623   -1    0    0    0    0  0.00000000000E+00  0.00000000000E+00  0.12525980253E-10  0.17130000000E+03  0.17130000000E+03 0. -1.
       11    1    1    2    0    0  0.53504986026E-01 -0.50915196120E-01  0.10082397968E-01  0.74545668535E-01  0.51109989000E-03 0. -1.
     -623    1    1    2    0    0 -0.62277125604E-01  0.31805093482E+00  0.26248309707E+00  0.17130050768E+03  0.17130000000E+03 0. -1.
      622    1    1    2    0    0  0.87721395780E-02 -0.26713573870E+00  0.37274344723E+01  0.39249466492E+01  0.12000000000E+01 0. -1.
</event>
<event>
 5   0  0.5136900E+01  0.9118800E+02  0.7818608E-02  0.1180000E+00
       11   -1    0    0    0    0  0.00000000000E+00  0.00000000000E+00  0.39999999673E+01  0.40000000000E+01  0.51109989000E-03 0.  1.
     -623   -1    0    0    0    0  0.00000000000E+00  0.00000000000E+00  0.12525980253E-10  0.17130000000E+03  0.17130000000E+03 0. -1.
       11    1    1    2    0    0  0.31685770780E-01  0.15093447224E+00  0.67728190208E-01  0.16844159805E+00  0.51109989000E-03 0.  1.
     -623    1    1    2    0    0  0.19482121464E+00 -0.85678767222E-01  0.30153778860E+00  0.17130039761E+03  0.17130000000E+03 0. -1.
      622    1    1    2    0    0 -0.22650698542E+00 -0.65255705020E-01  0.36307339886E+01  0.38311607924E+01  0.12000000000E+01 0.  1.
</event>
<event>
 5   0  0.5136900E+01  0.9118800E+02  0.7818608E-02  0.1180000E+00
       11   -1    0    0    0    0  0.00000000000E+00  0.00000000000E+00  0.39999999673E+01  0.40000000000E+01  0.51109989000E-03 0.  1.
     -623   -1    0    0    0    0  0.00000000000E+00  0.00000000000E+00  0.12525980253E-10  0.17130000000E+03  0.17130000000E+03 0. -1.
       11    1    1    2    0    0 -0.17166343799E+00  0.58863750573E-01  0.25649934745E+00  0.31420606859E+00  0.51109989000E-03 0.  1.
     -623    1    1    2    0    0  0.18449184079E+00  0.35554854452E+00  0.28402274174E+00  0.17130070380E+03  0.17130000000E+03 0. -1.
      622    1    1    2    0    0 -0.12828402801E-01 -0.41441229509E+00  0.34594778782E+01  0.36850901356E+01  0.12000000000E+01 0.  1.
</event>
<event>
 5   0  0.5136900E+01  0.9118800E+02  0.7818608E-02  0.1180000E+00
       11   -1    0    0    0    0  0.00000000000E+00  0.00000000000E+00  0.39999999673E+01  0.40000000000E+01  0.51109989000E-03 0. -1.
     -623   -1    0    0    0    0  0.00000000000E+00  0.00000000000E+00  0.12525980253E-10  0.17130000000E+03  0.17130000000E+03 0. -1.
       11    1    1    2    0    0 -0.39180968536E-01  0.96963900009E-01  0.54410951786E-01  0.11788960554E+00  0.51109989000E-03 0. -1.
     -623    1    1    2    0    0 -0.85831578060E-01 -0.28810922530E+00  0.26115922760E+00  0.17130046287E+03  0.17130000000E+03 0. -1.
      622    1    1    2    0    0  0.12501254660E+00  0.19114532529E+00  0.36844297880E+01  0.38816475284E+01  0.12000000000E+01 0. -1.
</event>
<event>
 5   0  0.5136900E+01  0.9118800E+02  0.7818608E-02  0.1180000E+00
       11   -1    0    0    0    0  0.00000000000E+00  0.00000000000E+00  0.39999999673E+01  0.40000000000E+01  0.51109989000E-03 0. -1.
     -623   -1    0    0    0    0  0.00000000000E+00  0.00000000000E+00  0.12525980253E-10  0.17130000000E+03  0.17130000000E+03 0. -1.
       11    1    1    2    0    0 -0.72143792447E-02 -0.41819641975E-01  0.85022267839E-02  0.43283701373E-01  0.51109989000E-03 0. -1.
     -623    1    1    2    0    0 -0.14600161070E+00  0.56810664428E-02  0.22464706920E+00  0.17130020962E+03  0.17130000000E+03 0. -1.
      622    1    1    2    0    0  0.15321598994E+00  0.36138575532E-01  0.37668506714E+01  0.39565066810E+01  0.12000000000E+01 0. -1.
</event>
<event>
 5   0  0.5136900E+01  0.9118800E+02  0.7818608E-02  0.1180000E+00
       11   -1    0    0    0    0  0.00000000000E+00  0.00000000000E+00  0.39999999673E+01  0.40000000000E+01  0.51109989000E-03 0. -1.
     -623   -1    0    0    0    0  0.00000000000E+00  0.00000000000E+00  0.12525980253E-10  0.17130000000E+03  0.17130000000E+03 0. -1.
       11    1    1    2    0    0 -0.39151721174E-01 -0.86313827068E-01  0.17378003853E+00  0.19794619730E+00  0.51109989000E-03 0. -1.
     -623    1    1    2    0    0  0.23615839476E+00 -0.11298312349E+00  0.22977873039E+00  0.17130035416E+03  0.17130000000E+03 0. -1.
      622    1    1    2    0    0 -0.19700667359E+00  0.19929695055E+00  0.35964411984E+01  0.38016996459E+01  0.12000000000E+01 0. -1.
</event>
<event>
 5   0  0.5136900E+01  0.9118800E+02  0.7818608E-02  0.1180000E+00
       11   -1    0    0    0    0  0.00000000000E+00  0.00000000000E+00  0.39999999673E+01  0.40000000000E+01  0.51109989000E-03 0.  1.
     -623   -1    0    0    0    0  0.00000000000E+00  0.00000000000E+00  0.12525980253E-10  0.17130000000E+03  0.17130000000E+03 0. -1.
       11    1    1    2    0    0 -0.11733444206E+00 -0.30888888976E-01  0.28080899121E-01  0.12454032630E+00  0.51109989000E-03 0.  1.
     -623    1    1    2    0    0  0.10387864527E+00  0.87563148652E-01  0.28769532261E+00  0.17130029547E+03  0.17130000000E+03 0. -1.
      622    1    1    2    0    0  0.13455796798E-01 -0.56674259676E-01  0.36842237456E+01  0.38751642079E+01  0.12000000000E+01 0.  1.
</event>
<event>
 5   0  0.5136900E+01  0.9118800E+02  0.7818608E-02  0.1180000E+00
       11   -1    0    0    0    0  0.00000000000E+00  0.00000000000E+00  0.39999999673E+01  0.40000000000E+01  0.51109989000E-03 0.  1.
     -623   -1    0    0    0    0  0.00000000000E+00  0.00000000000E+00  0.12525980253E-10  0.17130000000E+03  0.17130000000E+03 0.  1.
       11    1    1    2    0    0 -0.30713421977E-01  0.74580539492E-01  0.11117111724E+00  0.13734937091E+00  0.51109989000E-03 0.  1.
     -623    1    1    2    0    0  0.29933619450E+00 -0.17674232689E+00  0.22910666160E+00  0.17130050592E+03  0.17130000000E+03 0.  1.
      622    1    1    2    0    0 -0.26862277252E+00  0.10216178740E+00  0.36597221885E+01  0.38621447049E+01  0.12000000000E+01 0.  1.
</event>
<event>
 5   0  0.5136900E+01  0.9118800E+02  0.7818608E-02  0.1180000E+00
       11   -1    0    0    0    0  0.00000000000E+00  0.00000000000E+00  0.39999999673E+01  0.40000000000E+01  0.51109989000E-03 0.  1.
     -623   -1    0    0    0    0  0.00000000000E+00  0.00000000000E+00  0.12525980253E-10  0.17130000000E+03  0.17130000000E+03 0.  1.
       11    1    1    2    0    0  0.30989308600E-01 -0.43042950112E-01 -0.73170513470E-01  0.90372662159E-01  0.51109989000E-03 0.  1.
     -623    1    1    2    0    0 -0.17717502672E+00 -0.13243626509E+00  0.35982276711E+00  0.17130052073E+03  0.17130000000E+03 0.  1.
      622    1    1    2    0    0  0.14618571812E+00  0.17547921520E+00  0.37133477137E+01  0.39091066066E+01  0.12000000000E+01 0.  1.
</event>
<event>
 5   0  0.5136900E+01  0.9118800E+02  0.7818608E-02  0.1180000E+00
       11   -1    0    0    0    0  0.00000000000E+00  0.00000000000E+00  0.39999999673E+01  0.40000000000E+01  0.51109989000E-03 0. -1.
     -623   -1    0    0    0    0  0.00000000000E+00  0.00000000000E+00  0.12525980253E-10  0.17130000000E+03  0.17130000000E+03 0.  1.
       11    1    1    2    0    0 -0.44226358265E+00 -0.57981546113E+00  0.44879888380E+00  0.85627317185E+00  0.51109989000E-03 0. -1.
     -623    1    1    2    0    0  0.31237407896E+00  0.29352481045E+00  0.66455749156E+00  0.17130182536E+03  0.17130000000E+03 0.  1.
      622    1    1    2    0    0  0.12988950369E+00  0.28629065068E+00  0.28866435920E+01  0.31419014700E+01  0.12000000000E+01 0.  0.
</event>
<event>
 5   0  0.5136900E+01  0.9118800E+02  0.7818608E-02  0.1180000E+00
       11   -1    0    0    0    0  0.00000000000E+00  0.00000000000E+00  0.39999999673E+01  0.40000000000E+01  0.51109989000E-03 0. -1.
     -623   -1    0    0    0    0  0.00000000000E+00  0.00000000000E+00  0.12525980253E-10  0.17130000000E+03  0.17130000000E+03 0. -1.
       11    1    1    2    0    0  0.27917907997E+00  0.20491185400E+00  0.48659045939E+00  0.59724397276E+00  0.51109989000E-03 0. -1.
     -623    1    1    2    0    0  0.88390490542E-01 -0.18049231084E+00  0.35116454808E+00  0.17130047784E+03  0.17130000000E+03 0. -1.
      622    1    1    2    0    0 -0.36756957051E+00 -0.24419543158E-01  0.31622449599E+01  0.34022781911E+01  0.12000000000E+01 0.  0.
</event>
<event>
 5   0  0.5136900E+01  0.9118800E+02  0.7818608E-02  0.1180000E+00
       11   -1    0    0    0    0  0.00000000000E+00  0.00000000000E+00  0.39999999673E+01  0.40000000000E+01  0.51109989000E-03 0. -1.
     -623   -1    0    0    0    0  0.00000000000E+00  0.00000000000E+00  0.12525980253E-10  0.17130000000E+03  0.17130000000E+03 0. -1.
       11    1    1    2    0    0  0.92115331162E-03 -0.46928249301E-01 -0.12503815114E-01  0.48576905214E-01  0.51109989000E-03 0. -1.
     -623    1    1    2    0    0  0.10065972520E+00  0.50156322763E+00  0.27767867749E+00  0.17130098892E+03  0.17130000000E+03 0. -1.
      622    1    1    2    0    0 -0.10158087851E+00 -0.45463497833E+00  0.37348251050E+01  0.39504341791E+01  0.12000000000E+01 0. -1.
</event>
<event>
 5   0  0.5136900E+01  0.9118800E+02  0.7818608E-02  0.1180000E+00
       11   -1    0    0    0    0  0.00000000000E+00  0.00000000000E+00  0.39999999673E+01  0.40000000000E+01  0.51109989000E-03 0. -1.
     -623   -1    0    0    0    0  0.00000000000E+00  0.00000000000E+00  0.12525980253E-10  0.17130000000E+03  0.17130000000E+03 0. -1.
       11    1    1    2    0    0  0.25811812365E+00  0.25433759654E-01  0.28860095495E+00  0.38802398677E+00  0.51109989000E-03 0. -1.
     -623    1    1    2    0    0 -0.18084526676E+00 -0.16941566434E+00  0.30899382652E+00  0.17130045792E+03  0.17130000000E+03 0. -1.
      622    1    1    2    0    0 -0.77272856892E-01  0.14398190468E+00  0.34024051859E+01  0.36115180925E+01  0.12000000000E+01 0. -1.
</event>
<event>
 5   0  0.5136900E+01  0.9118800E+02  0.7818608E-02  0.1180000E+00
       11   -1    0    0    0    0  0.00000000000E+00  0.00000000000E+00  0.39999999673E+01  0.40000000000E+01  0.51109989000E-03 0. -1.
     -623   -1    0    0    0    0  0.00000000000E+00  0.00000000000E+00  0.12525980253E-10  0.17130000000E+03  0.17130000000E+03 0.  1.
       11    1    1    2    0    0  0.18639967483E+00 -0.22529336044E-01  0.14751882391E+00  0.23877703907E+00  0.51109989000E-03 0. -1.
     -623    1    1    2    0    0 -0.21220758977E+00  0.17083924730E+00  0.29149233837E+00  0.17130046464E+03  0.17130000000E+03 0.  1.
      622    1    1    2    0    0  0.25807914944E-01 -0.14830991125E+00  0.35609888051E+01  0.37607583209E+01  0.12000000000E+01 0. -1.
</event>
<event>
 5   0  0.5136900E+01  0.9118800E+02  0.7818608E-02  0.1180000E+00
       11   -1    0    0    0    0  0.00000000000E+00  0.00000000000E+00  0.39999999673E+01  0.40000000000E+01  0.51109989000E-03 0. -1.
     -623   -1    0    0    0    0  0.00000000000E+00  0.00000000000E+00  0.12525980253E-10  0.17130000000E+03  0.17130000000E+03 0.  1.
       11    1    1    2    0    0  0.13444890884E-01 -0.73340312413E-02  0.35288535364E-02  0.15724730062E-01  0.51109989000E-03 0. -1.
     -623    1    1    2    0    0 -0.10569883202E+00 -0.55511977311E-01  0.19900664817E+00  0.17130015720E+03  0.17130000000E+03 0.  1.
      622    1    1    2    0    0  0.92253941139E-01  0.62846008552E-01  0.37974644657E+01  0.39841180678E+01  0.12000000000E+01 0. -1.
</event>
<event>
 5   0  0.5136900E+01  0.9118800E+02  0.7818608E-02  0.1180000E+00
       11   -1    0    0    0    0  0.00000000000E+00  0.00000000000E+00  0.39999999673E+01  0.40000000000E+01  0.51109989000E-03 0.  1.
     -623   -1    0    0    0    0  0.00000000000E+00  0.00000000000E+00  0.12525980253E-10  0.17130000000E+03  0.17130000000E+03 0.  1.
       11    1    1    2    0    0 -0.16047724936E-01  0.16657898903E-02 -0.15624694091E-01  0.22465453926E-01  0.51109989000E-03 0.  1.
     -623    1    1    2    0    0  0.11201482979E+00  0.22252377126E+00  0.23162893683E+00  0.17130033776E+03  0.17130000000E+03 0.  1.
      622    1    1    2    0    0 -0.95967104851E-01 -0.22418956115E+00  0.37839957246E+01  0.39771967878E+01  0.12000000000E+01 0.  1.
</event>
<event>
 5   0  0.5136900E+01  0.9118800E+02  0.7818608E-02  0.1180000E+00
       11   -1    0    0    0    0  0.00000000000E+00  0.00000000000E+00  0.39999999673E+01  0.40000000000E+01  0.51109989000E-03 0. -1.
     -623   -1    0    0    0    0  0.00000000000E+00  0.00000000000E+00  0.12525980253E-10  0.17130000000E+03  0.17130000000E+03 0.  1.
       11    1    1    2    0    0  0.58744328309E-01  0.11369887659E+00  0.94381677703E-01  0.15901727251E+00  0.51109989000E-03 0. -1.
     -623    1    1    2    0    0 -0.25905974340E-01 -0.31856199449E+00  0.26333110522E+00  0.17130050057E+03  0.17130000000E+03 0.  1.
      622    1    1    2    0    0 -0.32838353969E-01  0.20486311790E+00  0.36422871844E+01  0.38404821557E+01  0.12000000000E+01 0. -1.
</event>
<event>
 5   0  0.5136900E+01  0.9118800E+02  0.7818608E-02  0.1180000E+00
       11   -1    0    0    0    0  0.00000000000E+00  0.00000000000E+00  0.39999999673E+01  0.40000000000E+01  0.51109989000E-03 0. -1.
     -623   -1    0    0    0    0  0.00000000000E+00  0.00000000000E+00  0.12525980253E-10  0.17130000000E+03  0.17130000000E+03 0.  1.
       11    1    1    2    0    0 -0.17473971302E-01  0.42414353664E-01 -0.60580058588E-01  0.75990274321E-01  0.51109989000E-03 0. -1.
     -623    1    1    2    0    0 -0.60491136545E-01  0.16123393697E+00  0.33135667062E+00  0.17130040704E+03  0.17130000000E+03 0.  1.
      622    1    1    2    0    0  0.77965107848E-01 -0.20364829064E+00  0.37292233553E+01  0.39236026835E+01  0.12000000000E+01 0. -1.
</event>
<event>
 5   0  0.5136900E+01  0.9118800E+02  0.7818608E-02  0.1180000E+00
       11   -1    0    0    0    0  0.00000000000E+00  0.00000000000E+00  0.39999999673E+01  0.40000000000E+01  0.51109989000E-03 0.  1.
     -623   -1    0    0    0    0  0.00000000000E+00  0.00000000000E+00  0.12525980253E-10  0.17130000000E+03  0.17130000000E+03 0. -1.
       11    1    1    2    0    0  0.40884784431E-01 -0.37941974286E-01 -0.13476240563E-01  0.57384922179E-01  0.51109989000E-03 0.  1.
     -623    1    1    2    0    0 -0.32952628101E+00 -0.10830397252E+00  0.27248247162E+00  0.17130056790E+03  0.17130000000E+03 0. -1.
      622    1    1    2    0    0  0.28864149657E+00  0.14624594681E+00  0.37409937363E+01  0.39420471744E+01  0.12000000000E+01 0.  1.
</event>
<event>
 5   0  0.5136900E+01  0.9118800E+02  0.7818608E-02  0.1180000E+00
       11   -1    0    0    0    0  0.00000000000E+00  0.00000000000E+00  0.39999999673E+01  0.40000000000E+01  0.51109989000E-03 0. -1.
     -623   -1    0    0    0    0  0.00000000000E+00  0.00000000000E+00  0.12525980253E-10  0.17130000000E+03  0.17130000000E+03 0.  1.
       11    1    1    2    0    0 -0.37588473385E-01 -0.65222923768E-01  0.22236109607E-01  0.78496043901E-01  0.51109989000E-03 0. -1.
     -623    1    1    2    0    0  0.16141196119E+00  0.13757442077E+00  0.24745625125E+00  0.17130031003E+03  0.17130000000E+03 0.  1.
      622    1    1    2    0    0 -0.12382348780E+00 -0.72351496999E-01  0.37303076065E+01  0.39211939297E+01  0.12000000000E+01 0. -1.
</event>
<event>
 5   0  0.5136900E+01  0.9118800E+02  0.7818608E-02  0.1180000E+00
       11   -1    0    0    0    0  0.00000000000E+00  0.00000000000E+00  0.39999999673E+01  0.40000000000E+01  0.51109989000E-03 0. -1.
     -623   -1    0    0    0    0  0.00000000000E+00  0.00000000000E+00  0.12525980253E-10  0.17130000000E+03  0.17130000000E+03 0. -1.
       11    1    1    2    0    0  0.44961370677E-01  0.18300406780E+00  0.62405702720E-01  0.19851132623E+00  0.51109989000E-03 0. -1.
     -623    1    1    2    0    0 -0.10962604470E+00  0.18150520259E+00  0.35003925782E+00  0.17130048888E+03  0.17130000000E+03 0. -1.
      622    1    1    2    0    0  0.64664674025E-01 -0.36450927039E+00  0.35875550068E+01  0.38009997968E+01  0.12000000000E+01 0. -1.
</event>
<event>
 5   0  0.5136900E+01  0.9118800E+02  0.7818608E-02  0.1180000E+00
       11   -1    0    0    0    0  0.00000000000E+00  0.00000000000E+00  0.39999999673E+01  0.40000000000E+01  0.51109989000E-03 0. -1.
     -623   -1    0    0    0    0  0.00000000000E+00  0.00000000000E+00  0.12525980253E-10  0.17130000000E+03  0.17130000000E+03 0. -1.
       11    1    1    2    0    0 -0.67590725225E-01 -0.70617465266E-01  0.33245862035E+00  0.34653185713E+00  0.51109989000E-03 0. -1.
     -623    1    1    2    0    0  0.89455641156E-01  0.44591617471E-01  0.21711301949E+00  0.17130016675E+03  0.17130000000E+03 0. -1.
      622    1    1    2    0    0 -0.21864915931E-01  0.26025847796E-01  0.34504283275E+01  0.36533013923E+01  0.12000000000E+01 0. -1.
</event>
<event>
 5   0  0.5136900E+01  0.9118800E+02  0.7818608E-02  0.1180000E+00
       11   -1    0    0    0    0  0.00000000000E+00  0.00000000000E+00  0.39999999673E+01  0.40000000000E+01  0.51109989000E-03 0. -1.
     -623   -1    0    0    0    0  0.00000000000E+00  0.00000000000E+00  0.12525980253E-10  0.17130000000E+03  0.17130000000E+03 0.  1.
       11    1    1    2    0    0 -0.13887116766E-01 -0.66673724253E-01  0.10990489236E+00  0.12929649688E+00  0.51109989000E-03 0. -1.
     -623    1    1    2    0    0  0.86752025279E-01  0.42588069266E-01  0.21106822924E+00  0.17130015730E+03  0.17130000000E+03 0.  1.
      622    1    1    2    0    0 -0.72864908512E-01  0.24085654988E-01  0.36790268458E+01  0.38705462076E+01  0.12000000000E+01 0. -1.
</event>
<event>
 5   0  0.5136900E+01  0.9118800E+02  0.7818608E-02  0.1180000E+00
       11   -1    0    0    0    0  0.00000000000E+00  0.00000000000E+00  0.39999999673E+01  0.40000000000E+01  0.51109989000E-03 0.  1.
     -623   -1    0    0    0    0  0.00000000000E+00  0.00000000000E+00  0.12525980253E-10  0.17130000000E+03  0.17130000000E+03 0.  1.
       11    1    1    2    0    0  0.10150545629E-02 -0.96673083080E-02  0.42748376531E-01  0.43842583218E-01  0.51109989000E-03 0.  1.
     -623    1    1    2    0    0 -0.51976223315E-01 -0.43011787464E-01  0.18831470178E+00  0.17130011679E+03  0.17130000000E+03 0.  1.
      622    1    1    2    0    0  0.50961168752E-01  0.52679095772E-01  0.37689368890E+01  0.39560406218E+01  0.12000000000E+01 0.  1.
</event>
<event>
 5   0  0.5136900E+01  0.9118800E+02  0.7818608E-02  0.1180000E+00
       11   -1    0    0    0    0  0.00000000000E+00  0.00000000000E+00  0.39999999673E+01  0.40000000000E+01  0.51109989000E-03 0. -1.
     -623   -1    0    0    0    0  0.00000000000E+00  0.00000000000E+00  0.12525980253E-10  0.17130000000E+03  0.17130000000E+03 0. -1.
       11    1    1    2    0    0  0.21474484416E-01  0.19412362493E+00 -0.57885476600E-02  0.19539422649E+00  0.51109989000E-03 0. -1.
     -623    1    1    2    0    0 -0.12739019591E+00  0.22318554219E-01  0.40398845513E+00  0.17130052520E+03  0.17130000000E+03 0. -1.
      622    1    1    2    0    0  0.10591571149E+00 -0.21644217915E+00  0.36018000599E+01  0.38040805757E+01  0.12000000000E+01 0. -1.
</event>
<event>
 5   0  0.5136900E+01  0.9118800E+02  0.7818608E-02  0.1180000E+00
       11   -1    0    0    0    0  0.00000000000E+00  0.00000000000E+00  0.39999999673E+01  0.40000000000E+01  0.51109989000E-03 0.  1.
     -623   -1    0    0    0    0  0.00000000000E+00  0.00000000000E+00  0.12525980253E-10  0.17130000000E+03  0.17130000000E+03 0.  1.
       11    1    1    2    0    0  0.14364992395E+00  0.14658690995E+00  0.84729367145E-01  0.22204132430E+00  0.51109989000E-03 0.  1.
     -623    1    1    2    0    0 -0.25804871694E+00 -0.15607209999E+00  0.33542313019E+00  0.17130059386E+03  0.17130000000E+03 0.  1.
      622    1    1    2    0    0  0.11439879299E+00  0.94851900397E-02  0.35798474700E+01  0.37773648171E+01  0.12000000000E+01 0.  1.
</event>
<event>
 5   0  0.5136900E+01  0.9118800E+02  0.7818608E-02  0.1180000E+00
       11   -1    0    0    0    0  0.00000000000E+00  0.00000000000E+00  0.39999999673E+01  0.40000000000E+01  0.51109989000E-03 0.  1.
     -623   -1    0    0    0    0  0.00000000000E+00  0.00000000000E+00  0.12525980253E-10  0.17130000000E+03  0.17130000000E+03 0.  1.
       11    1    1    2    0    0  0.10905273683E-01 -0.12977533373E+00  0.22102426190E+00  0.25653956383E+00  0.51109989000E-03 0.  1.
     -623    1    1    2    0    0 -0.10014712307E+00  0.11165649198E+00  0.23447141813E+00  0.17130022613E+03  0.17130000000E+03 0.  1.
      622    1    1    2    0    0  0.89241849389E-01  0.18118841744E-01  0.35445042873E+01  0.37432343025E+01  0.12000000000E+01 0.  1.
</event>
<event>
 5   0  0.5136900E+01  0.9118800E+02  0.7818608E-02  0.1180000E+00
       11   -1    0    0    0    0  0.00000000000E+00  0.00000000000E+00  0.39999999673E+01  0.40000000000E+01  0.51109989000E-03 0. -1.
     -623   -1    0    0    0    0  0.00000000000E+00  0.00000000000E+00  0.12525980253E-10  0.17130000000E+03  0.17130000000E+03 0.  1.
       11    1    1    2    0    0  0.21655116875E-01 -0.16444319836E+00  0.43748185350E+00  0.46786872405E+00  0.51109989000E-03 0. -1.
     -623    1    1    2    0    0  0.10599401475E+00 -0.34517671584E-01  0.24913077299E+00  0.17130021743E+03  0.17130000000E+03 0.  1.
      622    1    1    2    0    0 -0.12764913162E+00  0.19896086994E+00  0.33133873409E+01  0.35319138437E+01  0.12000000000E+01 0. -1.
</event>
<event>
 5   0  0.5136900E+01  0.9118800E+02  0.7818608E-02  0.1180000E+00
       11   -1    0    0    0    0  0.00000000000E+00  0.00000000000E+00  0.39999999673E+01  0.40000000000E+01  0.51109989000E-03 0.  1.
     -623   -1    0    0    0    0  0.00000000000E+00  0.00000000000E+00  0.12525980253E-10  0.17130000000E+03  0.17130000000E+03 0.  1.
       11    1    1    2    0    0 -0.35940165951E-01  0.13366373757E-01 -0.69121066419E-01  0.79046432687E-01  0.51109989000E-03 0.  1.
     -623    1    1    2    0    0  0.17265210420E-01 -0.88060482362E-02  0.33670843446E+00  0.17130033201E+03  0.17130000000E+03 0.  1.
      622    1    1    2    0    0  0.18674955531E-01 -0.45603255205E-02  0.37324125993E+01  0.39206215530E+01  0.12000000000E+01 0.  1.
</event>
<event>
 5   0  0.5136900E+01  0.9118800E+02  0.7818608E-02  0.1180000E+00
       11   -1    0    0    0    0  0.00000000000E+00  0.00000000000E+00  0.39999999673E+01  0.40000000000E+01  0.51109989000E-03 0.  1.
     -623   -1    0    0    0    0  0.00000000000E+00  0.00000000000E+00  0.12525980253E-10  0.17130000000E+03  0.17130000000E+03 0.  1.
       11    1    1    2    0    0  0.26962113612E-01 -0.33741508288E-01  0.12781360095E-02  0.43212727370E-01  0.51109989000E-03 0.  1.
     -623    1    1    2    0    0 -0.26419849443E-01  0.59448557916E-02  0.22855352424E+00  0.17130015461E+03  0.17130000000E+03 0.  1.
      622    1    1    2    0    0 -0.54226416873E-03  0.27796652496E-01  0.37701683071E+01  0.39566326607E+01  0.12000000000E+01 0.  1.
</event>
<event>
 5   0  0.5136900E+01  0.9118800E+02  0.7818608E-02  0.1180000E+00
       11   -1    0    0    0    0  0.00000000000E+00  0.00000000000E+00  0.39999999673E+01  0.40000000000E+01  0.51109989000E-03 0.  1.
     -623   -1    0    0    0    0  0.00000000000E+00  0.00000000000E+00  0.12525980253E-10  0.17130000000E+03  0.17130000000E+03 0.  1.
       11    1    1    2    0    0  0.21375769451E+00  0.28061018782E+00  0.98015486005E+00  0.10416996882E+01  0.51109989000E-03 0.  1.
     -623    1    1    2    0    0 -0.84744659017E-01 -0.35475535771E+00  0.32071087144E+00  0.17130068852E+03  0.17130000000E+03 0.  1.
      622    1    1    2    0    0 -0.12901303549E+00  0.74145169889E-01  0.26991342359E+01  0.29576117887E+01  0.12000000000E+01 0.  1.
</event>
<event>
 5   0  0.5136900E+01  0.9118800E+02  0.7818608E-02  0.1180000E+00
       11   -1    0    0    0    0  0.00000000000E+00  0.00000000000E+00  0.39999999673E+01  0.40000000000E+01  0.51109989000E-03 0.  1.
     -623   -1    0    0    0    0  0.00000000000E+00  0.00000000000E+00  0.12525980253E-10  0.17130000000E+03  0.17130000000E+03 0.  1.
       11    1    1    2    0    0  0.14643035572E+00  0.22170105574E+00  0.56400742039E+00  0.62345636469E+00  0.51109989000E-03 0.  1.
     -623    1    1    2    0    0 -0.21886377911E+00  0.61168819366E-01  0.29384914588E+00  0.17130040277E+03  0.17130000000E+03 0.  1.
      622    1    1    2    0    0  0.72433423384E-01 -0.28286987510E+00  0.31421434011E+01  0.33761408620E+01  0.12000000000E+01 0.  1.
</event>
<event>
 5   0  0.5136900E+01  0.9118800E+02  0.7818608E-02  0.1180000E+00
       11   -1    0    0    0    0  0.00000000000E+00  0.00000000000E+00  0.39999999673E+01  0.40000000000E+01  0.51109989000E-03 0. -1.
     -623   -1    0    0    0    0  0.00000000000E+00  0.00000000000E+00  0.12525980253E-10  0.17130000000E+03  0.17130000000E+03 0. -1.
       11    1    1    2    0    0 -0.10206563125E+00 -0.11843527901E+00  0.38960116076E+00  0.41980189862E+00  0.51109989000E-03 0. -1.
     -623    1    1    2    0    0 -0.31961008212E-01  0.31407213229E+00  0.24614071018E+00  0.17130046774E+03  0.17130000000E+03 0. -1.
      622    1    1    2    0    0  0.13402663946E+00 -0.19563685328E+00  0.33642580964E+01  0.35797303610E+01  0.12000000000E+01 0. -1.
</event>
<event>
 5   0  0.5136900E+01  0.9118800E+02  0.7818608E-02  0.1180000E+00
       11   -1    0    0    0    0  0.00000000000E+00  0.00000000000E+00  0.39999999673E+01  0.40000000000E+01  0.51109989000E-03 0. -1.
     -623   -1    0    0    0    0  0.00000000000E+00  0.00000000000E+00  0.12525980253E-10  0.17130000000E+03  0.17130000000E+03 0.  1.
       11    1    1    2    0    0  0.31797971553E-02  0.74008590839E-01  0.35645374319E-01  0.82208494460E-01  0.51109989000E-03 0. -1.
     -623    1    1    2    0    0  0.15669029185E+00  0.59406231845E-01  0.24094723386E+00  0.17130025142E+03  0.17130000000E+03 0.  1.
      622    1    1    2    0    0 -0.15987008900E+00 -0.13341482268E+00  0.37234073592E+01  0.39175400856E+01  0.12000000000E+01 0. -1.
</event>
<event>
 5   0  0.5136900E+01  0.9118800E+02  0.7818608E-02  0.1180000E+00
       11   -1    0    0    0    0  0.00000000000E+00  0.00000000000E+00  0.39999999673E+01  0.40000000000E+01  0.51109989000E-03 0.  1.
     -623   -1    0    0    0    0  0.00000000000E+00  0.00000000000E+00  0.12525980253E-10  0.17130000000E+03  0.17130000000E+03 0. -1.
       11    1    1    2    0    0 -0.26301329161E+00  0.54486831419E-01 -0.76968706388E-01  0.27940874959E+00  0.51109989000E-03 0.  1.
     -623    1    1    2    0    0  0.16414807290E+00 -0.18104138231E+00  0.56002382412E+00  0.17130108974E+03  0.17130000000E+03 0. -1.
      622    1    1    2    0    0  0.98865218703E-01  0.12655455089E+00  0.35169448496E+01  0.37195015071E+01  0.12000000000E+01 0.  1.
</event>
<event>
 5   0  0.5136900E+01  0.9118800E+02  0.7818608E-02  0.1180000E+00
       11   -1    0    0    0    0  0.00000000000E+00  0.00000000000E+00  0.39999999673E+01  0.40000000000E+01  0.51109989000E-03 0. -1.
     -623   -1    0    0    0    0  0.00000000000E+00  0.00000000000E+00  0.12525980253E-10  0.17130000000E+03  0.17130000000E+03 0.  1.
       11    1    1    2    0    0  0.56448471858E-02 -0.39133913321E-01  0.38754008665E-01  0.55366613426E-01  0.51109989000E-03 0. -1.
     -623    1    1    2    0    0 -0.13033452835E-01 -0.12749556454E-01  0.20406356843E+00  0.17130012252E+03  0.17130000000E+03 0.  1.
      622    1    1    2    0    0  0.73886056488E-02  0.51883469775E-01  0.37571823903E+01  0.39445108695E+01  0.12000000000E+01 0. -1.
</event>
<event>
 5   0  0.5136900E+01  0.9118800E+02  0.7818608E-02  0.1180000E+00
       11   -1    0    0    0    0  0.00000000000E+00  0.00000000000E+00  0.39999999673E+01  0.40000000000E+01  0.51109989000E-03 0.  1.
     -623   -1    0    0    0    0  0.00000000000E+00  0.00000000000E+00  0.12525980253E-10  0.17130000000E+03  0.17130000000E+03 0. -1.
       11    1    1    2    0    0  0.22013515693E-02  0.38168382257E-02 -0.58383719686E-02  0.73322583911E-02  0.51109989000E-03 0.  1.
     -623    1    1    2    0    0 -0.10839331468E+00  0.77885490620E-01  0.20030377429E+00  0.17130016911E+03  0.17130000000E+03 0. -1.
      622    1    1    2    0    0  0.10619196311E+00 -0.81702328846E-01  0.38055345650E+01  0.39924986323E+01  0.12000000000E+01 0.  1.
</event>
<event>
 5   0  0.5136900E+01  0.9118800E+02  0.7818608E-02  0.1180000E+00
       11   -1    0    0    0    0  0.00000000000E+00  0.00000000000E+00  0.39999999673E+01  0.40000000000E+01  0.51109989000E-03 0.  1.
     -623   -1    0    0    0    0  0.00000000000E+00  0.00000000000E+00  0.12525980253E-10  0.17130000000E+03  0.17130000000E+03 0. -1.
       11    1    1    2    0    0  0.53551932587E-01  0.42054743277E-01  0.13287771994E+00  0.14930894345E+00  0.51109989000E-03 0.  1.
     -623    1    1    2    0    0 -0.76368069056E-01  0.54867099356E-01  0.20970240285E+00  0.17130015417E+03  0.17130000000E+03 0. -1.
      622    1    1    2    0    0  0.22816136470E-01 -0.96921842633E-01  0.36574198446E+01  0.38505368897E+01  0.12000000000E+01 0.  1.
</event>
<event>
 5   0  0.5136900E+01  0.9118800E+02  0.7818608E-02  0.1180000E+00
       11   -1    0    0    0    0  0.00000000000E+00  0.00000000000E+00  0.39999999673E+01  0.40000000000E+01  0.51109989000E-03 0. -1.
     -623   -1    0    0    0    0  0.00000000000E+00  0.00000000000E+00  0.12525980253E-10  0.17130000000E+03  0.17130000000E+03 0.  1.
       11    1    1    2    0    0  0.14125132069E+00  0.18565068718E+00  0.13439587426E+00  0.26922226039E+00  0.51109989000E-03 0. -1.
     -623    1    1    2    0    0 -0.55425233647E-01  0.69533714314E-02  0.33974840760E+00  0.17130034603E+03  0.17130000000E+03 0.  1.
      622    1    1    2    0    0 -0.85826087048E-01 -0.19260405861E+00  0.35258556855E+01  0.37304317117E+01  0.12000000000E+01 0. -1.
</event>
<event>
 5   0  0.5136900E+01  0.9118800E+02  0.7818608E-02  0.1180000E+00
       11   -1    0    0    0    0  0.00000000000E+00  0.00000000000E+00  0.39999999673E+01  0.40000000000E+01  0.51109989000E-03 0. -1.
     -623   -1    0    0    0    0  0.00000000000E+00  0.00000000000E+00  0.12525980253E-10  0.17130000000E+03  0.17130000000E+03 0. -1.
       11    1    1    2    0    0 -0.26400947254E-01 -0.98178355147E-01  0.44099768957E-01  0.11081990020E+00  0.51109989000E-03 0. -1.
     -623    1    1    2    0    0 -0.41081181657E-01 -0.20870052675E-01  0.25922308265E+00  0.17130020233E+03  0.17130000000E+03 0. -1.
      622    1    1    2    0    0  0.67482128911E-01  0.11904840782E+00  0.36966771158E+01  0.38889777653E+01  0.12000000000E+01 0. -1.
</event>
<event>
 5   0  0.5136900E+01  0.9118800E+02  0.7818608E-02  0.1180000E+00
       11   -1    0    0    0    0  0.00000000000E+00  0.00000000000E+00  0.39999999673E+01  0.40000000000E+01  0.51109989000E-03 0. -1.
     -623   -1    0    0    0    0  0.00000000000E+00  0.00000000000E+00  0.12525980253E-10  0.17130000000E+03  0.17130000000E+03 0.  1.
       11    1    1    2    0    0 -0.26574698113E+00 -0.79099627586E-02  0.49675461782E+00  0.56342651432E+00  0.51109989000E-03 0. -1.
     -623    1    1    2    0    0  0.65895279805E-01 -0.10167795369E+00  0.29137838329E+00  0.17130029067E+03  0.17130000000E+03 0.  1.
      622    1    1    2    0    0  0.19985170133E+00  0.10958791645E+00  0.32118669662E+01  0.34362828206E+01  0.12000000000E+01 0. -1.
</event>
<event>
 5   0  0.5136900E+01  0.9118800E+02  0.7818608E-02  0.1180000E+00
       11   -1    0    0    0    0  0.00000000000E+00  0.00000000000E+00  0.39999999673E+01  0.40000000000E+01  0.51109989000E-03 0.  1.
     -623   -1    0    0    0    0  0.00000000000E+00  0.00000000000E+00  0.12525980253E-10  0.17130000000E+03  0.17130000000E+03 0.  1.
       11    1    1    2    0    0  0.83745027447E-01 -0.95147128764E-01  0.32880948129E-01  0.13094893549E+00  0.51109989000E-03 0.  1.
     -623    1    1    2    0    0 -0.92097829928E-01  0.13249969350E+00  0.28940077585E+00  0.17130032046E+03  0.17130000000E+03 0.  1.
      622    1    1    2    0    0  0.83528024811E-02 -0.37352564732E-01  0.36777182434E+01  0.38687306007E+01  0.12000000000E+01 0.  1.
</event>
<event>
 5   0  0.5136900E+01  0.9118800E+02  0.7818608E-02  0.1180000E+00
       11   -1    0    0    0    0  0.00000000000E+00  0.00000000000E+00  0.39999999673E+01  0.40000000000E+01  0.51109989000E-03 0.  1.
     -623   -1    0    0    0    0  0.00000000000E+00  0.00000000000E+00  0.12525980253E-10  0.17130000000E+03  0.17130000000E+03 0.  1.
       11    1    1    2    0    0 -0.34891181836E+00 -0.30890058924E-01  0.30798796780E+00  0.46642309362E+00  0.51109989000E-03 0.  1.
     -623    1    1    2    0    0  0.22487778932E+00 -0.14311426078E+00  0.37597178869E+00  0.17130061998E+03  0.17130000000E+03 0.  1.
      622    1    1    2    0    0  0.12403402904E+00  0.17400431971E+00  0.33160402109E+01  0.35329569236E+01  0.12000000000E+01 0.  1.
</event>
<event>
 5   0  0.5136900E+01  0.9118800E+02  0.7818608E-02  0.1180000E+00
       11   -1    0    0    0    0  0.00000000000E+00  0.00000000000E+00  0.39999999673E+01  0.40000000000E+01  0.51109989000E-03 0.  1.
     -623   -1    0    0    0    0  0.00000000000E+00  0.00000000000E+00  0.12525980253E-10  0.17130000000E+03  0.17130000000E+03 0.  1.
       11    1    1    2    0    0  0.59766291313E-01 -0.32104722752E-01  0.13092241833E+00  0.14745732822E+00  0.51109989000E-03 0.  1.
     -623    1    1    2    0    0  0.36014130630E+00  0.14275610288E+00  0.23467176362E+00  0.17130059881E+03  0.17130000000E+03 0.  1.
      622    1    1    2    0    0 -0.41990759761E+00 -0.11065138013E+00  0.36344057854E+01  0.38519438640E+01  0.12000000000E+01 0.  1.
</event>
<event>
 5   0  0.5136900E+01  0.9118800E+02  0.7818608E-02  0.1180000E+00
       11   -1    0    0    0    0  0.00000000000E+00  0.00000000000E+00  0.39999999673E+01  0.40000000000E+01  0.51109989000E-03 0.  1.
     -623   -1    0    0    0    0  0.00000000000E+00  0.00000000000E+00  0.12525980253E-10  0.17130000000E+03  0.17130000000E+03 0. -1.
       11    1    1    2    0    0  0.66041334692E-01 -0.41302640893E-01  0.29914108614E-03  0.77895550191E-01  0.51109989000E-03 0.  1.
     -623    1    1    2    0    0 -0.27914900790E+00 -0.88965665691E-02  0.27257302962E+00  0.17130044454E+03  0.17130000000E+03 0. -1.
      622    1    1    2    0    0  0.21310767321E+00  0.50199207462E-01  0.37271277967E+01  0.39216599105E+01  0.12000000000E+01 0.  1.
</event>
<event>
 5   0  0.5136900E+01  0.9118800E+02  0.7818608E-02  0.1180000E+00
       11   -1    0    0    0    0  0.00000000000E+00  0.00000000000E+00  0.39999999673E+01  0.40000000000E+01  0.51109989000E-03 0. -1.
     -623   -1    0    0    0    0  0.00000000000E+00  0.00000000000E+00  0.12525980253E-10  0.17130000000E+03  0.17130000000E+03 0. -1.
       11    1    1    2    0    0 -0.21239211025E+00  0.83043913509E-01  0.14859583195E+00  0.27219052622E+00  0.51109989000E-03 0. -1.
     -623    1    1    2    0    0  0.27732022897E+00 -0.22358615267E+00  0.32613535759E+00  0.17130068086E+03  0.17130000000E+03 0. -1.
      622    1    1    2    0    0 -0.64928118720E-01  0.14054223917E+00  0.35252687778E+01  0.37271286183E+01  0.12000000000E+01 0. -1.
</event>
<event>
 5   0  0.5136900E+01  0.9118800E+02  0.7818608E-02  0.1180000E+00
       11   -1    0    0    0    0  0.00000000000E+00  0.00000000000E+00  0.39999999673E+01  0.40000000000E+01  0.51109989000E-03 0. -1.
     -623   -1    0    0    0    0  0.00000000000E+00  0.00000000000E+00  0.12525980253E-10  0.17130000000E+03  0.17130000000E+03 0. -1.
       11    1    1    2    0    0 -0.15287731563E+00  0.20609830963E-01  0.12765404751E+00  0.20023000732E+00  0.51109989000E-03 0. -1.
     -623    1    1    2    0    0  0.33166038224E+00 -0.14310381620E+00  0.27419051577E+00  0.17130060028E+03  0.17130000000E+03 0. -1.
      622    1    1    2    0    0 -0.17878306661E+00  0.12249398524E+00  0.35981554041E+01  0.37991697084E+01  0.12000000000E+01 0. -1.
</event>
<event>
 5   0  0.5136900E+01  0.9118800E+02  0.7818608E-02  0.1180000E+00
       11   -1    0    0    0    0  0.00000000000E+00  0.00000000000E+00  0.39999999673E+01  0.40000000000E+01  0.51109989000E-03 0.  1.
     -623   -1    0    0    0    0  0.00000000000E+00  0.00000000000E+00  0.12525980253E-10  0.17130000000E+03  0.17130000000E+03 0. -1.
       11    1    1    2    0    0  0.13093010570E+00 -0.15683035597E+00  0.32066117118E+00  0.38021349405E+00  0.51109989000E-03 0.  1.
     -623    1    1    2    0    0 -0.76508196868E-01  0.98110484838E-01  0.26545119551E+00  0.17130025086E+03  0.17130000000E+03 0. -1.
      622    1    1    2    0    0 -0.54421908832E-01  0.58719871137E-01  0.34138876007E+01  0.36195356494E+01  0.12000000000E+01 0.  1.
</event>
<event>
 5   0  0.5136900E+01  0.9118800E+02  0.7818608E-02  0.1180000E+00
       11   -1    0    0    0    0  0.00000000000E+00  0.00000000000E+00  0.39999999673E+01  0.40000000000E+01  0.51109989000E-03 0.  1.
     -623   -1    0    0    0    0  0.00000000000E+00  0.00000000000E+00  0.12525980253E-10  0.17130000000E+03  0.17130000000E+03 0.  1.
       11    1    1    2    0    0 -0.13926412784E+00  0.13966950032E+00  0.35331129291E+00  0.40463711835E+00  0.51109989000E-03 0.  1.
     -623    1    1    2    0    0 -0.93571460408E-01 -0.40262264421E+00  0.27651255195E+00  0.17130072189E+03  0.17130000000E+03 0.  1.
      622    1    1    2    0    0  0.23283558825E+00  0.26295314389E+00  0.33701761225E+01  0.35946409923E+01  0.12000000000E+01 0.  1.
</event>
<event>
 5   0  0.5136900E+01  0.9118800E+02  0.7818608E-02  0.1180000E+00
       11   -1    0    0    0    0  0.00000000000E+00  0.00000000000E+00  0.39999999673E+01  0.40000000000E+01  0.51109989000E-03 0. -1.
     -623   -1    0    0    0    0  0.00000000000E+00  0.00000000000E+00  0.12525980253E-10  0.17130000000E+03  0.17130000000E+03 0. -1.
       11    1    1    2    0    0  0.35393448615E-01 -0.42327189411E-02  0.19564544966E-02  0.35702955769E-01  0.51109989000E-03 0. -1.
     -623    1    1    2    0    0 -0.37642982482E+00 -0.16185190491E+00  0.23951341805E+00  0.17130065751E+03  0.17130000000E+03 0. -1.
      622    1    1    2    0    0  0.34103637621E+00  0.16608462385E+00  0.37585300948E+01  0.39636395378E+01  0.12000000000E+01 0. -1.
</event>
<event>
 5   0  0.5136900E+01  0.9118800E+02  0.7818608E-02  0.1180000E+00
       11   -1    0    0    0    0  0.00000000000E+00  0.00000000000E+00  0.39999999673E+01  0.40000000000E+01  0.51109989000E-03 0.  1.
     -623   -1    0    0    0    0  0.00000000000E+00  0.00000000000E+00  0.12525980253E-10  0.17130000000E+03  0.17130000000E+03 0.  1.
       11    1    1    2    0    0 -0.19439254772E-01  0.36423540406E-01  0.66109152659E-02  0.41815360163E-01  0.51109989000E-03 0.  1.
     -623    1    1    2    0    0 -0.32037057939E-01 -0.84989926357E-01  0.22233026692E+00  0.17130016836E+03  0.17130000000E+03 0.  1.
      622    1    1    2    0    0  0.51476312711E-01  0.48566385950E-01  0.37710587852E+01  0.39580162791E+01  0.12000000000E+01 0.  1.
</event>
<event>
 5   0  0.5136900E+01  0.9118800E+02  0.7818608E-02  0.1180000E+00
       11   -1    0    0    0    0  0.00000000000E+00  0.00000000000E+00  0.39999999673E+01  0.40000000000E+01  0.51109989000E-03 0. -1.
     -623   -1    0    0    0    0  0.00000000000E+00  0.00000000000E+00  0.12525980253E-10  0.17130000000E+03  0.17130000000E+03 0.  1.
       11    1    1    2    0    0  0.14010257109E+00 -0.46991169421E-01  0.17120407642E+00  0.22615923027E+00  0.51109989000E-03 0. -1.
     -623    1    1    2    0    0 -0.31371639327E+00  0.45670622328E-01  0.25555114771E+00  0.17130048398E+03  0.17130000000E+03 0.  1.
      622    1    1    2    0    0  0.17361382219E+00  0.13205470929E-02  0.35732447432E+01  0.37733567944E+01  0.12000000000E+01 0. -1.
</event>
<event>
 5   0  0.5136900E+01  0.9118800E+02  0.7818608E-02  0.1180000E+00
       11   -1    0    0    0    0  0.00000000000E+00  0.00000000000E+00  0.39999999673E+01  0.40000000000E+01  0.51109989000E-03 0. -1.
     -623   -1    0    0    0    0  0.00000000000E+00  0.00000000000E+00  0.12525980253E-10  0.17130000000E+03  0.17130000000E+03 0.  1.
       11    1    1    2    0    0 -0.16100358135E+00  0.20922530246E+00  0.40352127069E+00  0.48221059457E+00  0.51109989000E-03 0. -1.
     -623    1    1    2    0    0 -0.10727177629E+00 -0.20533132567E+00  0.30104360805E+00  0.17130042118E+03  0.17130000000E+03 0.  1.
      622    1    1    2    0    0  0.26827535764E+00 -0.38939767888E-02  0.32954350886E+01  0.35173682284E+01  0.12000000000E+01 0. -1.
</event>
<event>
 5   0  0.5136900E+01  0.9118800E+02  0.7818608E-02  0.1180000E+00
       11   -1    0    0    0    0  0.00000000000E+00  0.00000000000E+00  0.39999999673E+01  0.40000000000E+01  0.51109989000E-03 0. -1.
     -623   -1    0    0    0    0  0.00000000000E+00  0.00000000000E+00  0.12525980253E-10  0.17130000000E+03  0.17130000000E+03 0. -1.
       11    1    1    2    0    0 -0.18750090273E+00  0.44212615044E+00  0.32247083789E+00  0.57846332981E+00  0.51109989000E-03 0. -1.
     -623    1    1    2    0    0  0.47824083434E-01 -0.12220467087E+00  0.49321577544E+00  0.17130076031E+03  0.17130000000E+03 0. -1.
      622    1    1    2    0    0  0.13967681930E+00 -0.31992147957E+00  0.31843133540E+01  0.34207763598E+01  0.12000000000E+01 0.  0.
</event>
<event>
 5   0  0.5136900E+01  0.9118800E+02  0.7818608E-02  0.1180000E+00
       11   -1    0    0    0    0  0.00000000000E+00  0.00000000000E+00  0.39999999673E+01  0.40000000000E+01  0.51109989000E-03 0.  1.
     -623   -1    0    0    0    0  0.00000000000E+00  0.00000000000E+00  0.12525980253E-10  0.17130000000E+03  0.17130000000E+03 0. -1.
       11    1    1    2    0    0  0.21512882608E-01  0.47900720991E-01  0.34337805644E-01  0.62742563766E-01  0.51109989000E-03 0.  1.
     -623    1    1    2    0    0 -0.15023035852E+00 -0.64673726092E-01  0.21820470446E+00  0.17130021706E+03  0.17130000000E+03 0. -1.
      622    1    1    2    0    0  0.12871747591E+00  0.16773005101E-01  0.37474574573E+01  0.39370403752E+01  0.12000000000E+01 0.  1.
</event>
<event>
 5   0  0.5136900E+01  0.9118800E+02  0.7818608E-02  0.1180000E+00
       11   -1    0    0    0    0  0.00000000000E+00  0.00000000000E+00  0.39999999673E+01  0.40000000000E+01  0.51109989000E-03 0.  1.
     -623   -1    0    0    0    0  0.00000000000E+00  0.00000000000E+00  0.12525980253E-10  0.17130000000E+03  0.17130000000E+03 0.  1.
       11    1    1    2    0    0  0.11510794478E-01 -0.17066995871E+00  0.23262454264E+00  0.28874759264E+00  0.51109989000E-03 0.  1.
     -623    1    1    2    0    0  0.96458473714E-01  0.13887413566E+00  0.25757922918E+00  0.17130027711E+03  0.17130000000E+03 0.  1.
      622    1    1    2    0    0 -0.10796926819E+00  0.31795823051E-01  0.35097961955E+01  0.37109752992E+01  0.12000000000E+01 0.  1.
</event>
<event>
 5   0  0.5136900E+01  0.9118800E+02  0.7818608E-02  0.1180000E+00
       11   -1    0    0    0    0  0.00000000000E+00  0.00000000000E+00  0.39999999673E+01  0.40000000000E+01  0.51109989000E-03 0. -1.
     -623   -1    0    0    0    0  0.00000000000E+00  0.00000000000E+00  0.12525980253E-10  0.17130000000E+03  0.17130000000E+03 0. -1.
       11    1    1    2    0    0 -0.31355893724E+00 -0.36626873068E-01  0.43214404714E+00  0.53517237751E+00  0.51109989000E-03 0. -1.
     -623    1    1    2    0    0 -0.14552466683E-02 -0.20173194337E+00  0.34205492293E+00  0.17130046030E+03  0.17130000000E+03 0. -1.
      622    1    1    2    0    0  0.31501418391E+00  0.23835881644E+00  0.32258009973E+01  0.34643673211E+01  0.12000000000E+01 0. -1.
</event>
<event>
 5   0  0.5136900E+01  0.9118800E+02  0.7818608E-02  0.1180000E+00
       11   -1    0    0    0    0  0.00000000000E+00  0.00000000000E+00  0.39999999673E+01  0.40000000000E+01  0.51109989000E-03 0. -1.
     -623   -1    0    0    0    0  0.00000000000E+00  0.00000000000E+00  0.12525980253E-10  0.17130000000E+03  0.17130000000E+03 0.  1.
       11    1    1    2    0    0  0.75518777621E-01 -0.12214264351E+00  0.37988611915E+00  0.40612268575E+00  0.51109989000E-03 0. -1.
     -623    1    1    2    0    0 -0.15617314715E+00  0.48803300156E+00  0.25429911506E+00  0.17130095515E+03  0.17130000000E+03 0.  1.
      622    1    1    2    0    0  0.80654369528E-01 -0.36589035806E+00  0.33658147331E+01  0.35929221672E+01  0.12000000000E+01 0. -1.
</event>
<event>
 5   0  0.5136900E+01  0.9118800E+02  0.7818608E-02  0.1180000E+00
       11   -1    0    0    0    0  0.00000000000E+00  0.00000000000E+00  0.39999999673E+01  0.40000000000E+01  0.51109989000E-03 0. -1.
     -623   -1    0    0    0    0  0.00000000000E+00  0.00000000000E+00  0.12525980253E-10  0.17130000000E+03  0.17130000000E+03 0.  1.
       11    1    1    2    0    0 -0.12323320104E+00  0.36065931310E-01  0.31707540143E+00  0.34208806564E+00  0.51109989000E-03 0. -1.
     -623    1    1    2    0    0  0.14261598765E-01 -0.16674629599E+00  0.23189265472E+00  0.17130023871E+03  0.17130000000E+03 0.  1.
      622    1    1    2    0    0  0.10897160227E+00  0.13068036468E+00  0.34510319112E+01  0.36576732249E+01  0.12000000000E+01 0. -1.
</event>
<event>
 5   0  0.5136900E+01  0.9118800E+02  0.7818608E-02  0.1180000E+00
       11   -1    0    0    0    0  0.00000000000E+00  0.00000000000E+00  0.39999999673E+01  0.40000000000E+01  0.51109989000E-03 0. -1.
     -623   -1    0    0    0    0  0.00000000000E+00  0.00000000000E+00  0.12525980253E-10  0.17130000000E+03  0.17130000000E+03 0. -1.
       11    1    1    2    0    0 -0.37931341458E-01 -0.22816602133E+00  0.12564798474E+00  0.26322271416E+00  0.51109989000E-03 0. -1.
     -623    1    1    2    0    0 -0.24816395275E+00  0.21160798002E+00  0.34782097581E+00  0.17130066358E+03  0.17130000000E+03 0. -1.
      622    1    1    2    0    0  0.28609529421E+00  0.16558041306E-01  0.35265310068E+01  0.37361137065E+01  0.12000000000E+01 0. -1.
</event>
<event>
 5   0  0.5136900E+01  0.9118800E+02  0.7818608E-02  0.1180000E+00
       11   -1    0    0    0    0  0.00000000000E+00  0.00000000000E+00  0.39999999673E+01  0.40000000000E+01  0.51109989000E-03 0.  1.
     -623   -1    0    0    0    0  0.00000000000E+00  0.00000000000E+00  0.12525980253E-10  0.17130000000E+03  0.17130000000E+03 0. -1.
       11    1    1    2    0    0 -0.18319652922E-01 -0.48565544830E-01 -0.97603851205E-02  0.52818066669E-01  0.51109989000E-03 0.  1.
     -623    1    1    2    0    0  0.42312922090E-01  0.88533620843E-01  0.24991846063E+00  0.17130021041E+03  0.17130000000E+03 0. -1.
      622    1    1    2    0    0 -0.23993269168E-01 -0.39968076013E-01  0.37598418918E+01  0.39469715195E+01  0.12000000000E+01 0.  1.
</event>
<event>
 5   0  0.5136900E+01  0.9118800E+02  0.7818608E-02  0.1180000E+00
       11   -1    0    0    0    0  0.00000000000E+00  0.00000000000E+00  0.39999999673E+01  0.40000000000E+01  0.51109989000E-03 0. -1.
     -623   -1    0    0    0    0  0.00000000000E+00  0.00000000000E+00  0.12525980253E-10  0.17130000000E+03  0.17130000000E+03 0. -1.
       11    1    1    2    0    0 -0.21909361337E-01 -0.23818226527E-01  0.77338897228E+00  0.77406594790E+00  0.51109989000E-03 0. -1.
     -623    1    1    2    0    0 -0.44121807648E+00  0.16845834706E+00  0.27269112434E+00  0.17130086810E+03  0.17130000000E+03 0. -1.
      622    1    1    2    0    0  0.46312743782E+00 -0.14464012053E+00  0.29539198707E+01  0.32250659514E+01  0.12000000000E+01 0. -1.
</event>
<event>
 5   0  0.5136900E+01  0.9118800E+02  0.7818608E-02  0.1180000E+00
       11   -1    0    0    0    0  0.00000000000E+00  0.00000000000E+00  0.39999999673E+01  0.40000000000E+01  0.51109989000E-03 0.  1.
     -623   -1    0    0    0    0  0.00000000000E+00  0.00000000000E+00  0.12525980253E-10  0.17130000000E+03  0.17130000000E+03 0. -1.
       11    1    1    2    0    0  0.53972588590E-01  0.12915860659E+00  0.79697821254E-01  0.16108069379E+00  0.51109989000E-03 0.  1.
     -623    1    1    2    0    0 -0.10941337654E+00 -0.14283123641E+00  0.27453386064E+00  0.17130031448E+03  0.17130000000E+03 0. -1.
      622    1    1    2    0    0  0.55440787946E-01  0.13672629820E-01  0.36457682855E+01  0.38386048264E+01  0.12000000000E+01 0.  1.
</event>
<event>
 5   0  0.5136900E+01  0.9118800E+02  0.7818608E-02  0.1180000E+00
       11   -1    0    0    0    0  0.00000000000E+00  0.00000000000E+00  0.39999999673E+01  0.40000000000E+01  0.51109989000E-03 0. -1.
     -623   -1    0    0    0    0  0.00000000000E+00  0.00000000000E+00  0.12525980253E-10  0.17130000000E+03  0.17130000000E+03 0. -1.
       11    1    1    2    0    0 -0.18015598052E+00  0.10304016855E+00  0.22802923152E+00  0.30833592931E+00  0.51109989000E-03 0. -1.
     -623    1    1    2    0    0 -0.13028963804E-01 -0.59576597597E-01  0.28666974751E+00  0.17130025073E+03  0.17130000000E+03 0. -1.
      622    1    1    2    0    0  0.19318494433E+00 -0.43463570954E-01  0.34853009883E+01  0.36914133450E+01  0.12000000000E+01 0. -1.
</event>
<event>
 5   0  0.5136900E+01  0.9118800E+02  0.7818608E-02  0.1180000E+00
       11   -1    0    0    0    0  0.00000000000E+00  0.00000000000E+00  0.39999999673E+01  0.40000000000E+01  0.51109989000E-03 0.  1.
     -623   -1    0    0    0    0  0.00000000000E+00  0.00000000000E+00  0.12525980253E-10  0.17130000000E+03  0.17130000000E+03 0.  1.
       11    1    1    2    0    0  0.10643302794E+00 -0.17486310920E+00  0.28954414896E+00  0.35460001666E+00  0.51109989000E-03 0.  1.
     -623    1    1    2    0    0 -0.15157742543E+00  0.35732429573E-01  0.27163925134E+00  0.17130028617E+03  0.17130000000E+03 0.  1.
      622    1    1    2    0    0  0.45144397493E-01  0.13913067963E+00  0.34388165671E+01  0.36451138178E+01  0.12000000000E+01 0.  1.
</event>
<event>
 5   0  0.5136900E+01  0.9118800E+02  0.7818608E-02  0.1180000E+00
       11   -1    0    0    0    0  0.00000000000E+00  0.00000000000E+00  0.39999999673E+01  0.40000000000E+01  0.51109989000E-03 0. -1.
     -623   -1    0    0    0    0  0.00000000000E+00  0.00000000000E+00  0.12525980253E-10  0.17130000000E+03  0.17130000000E+03 0. -1.
       11    1    1    2    0    0  0.18153443715E+00  0.15019320944E+00  0.21243476146E+00  0.31724050992E+00  0.51109989000E-03 0. -1.
     -623    1    1    2    0    0  0.25798038258E+00 -0.15497369256E+00  0.33428095001E+00  0.17130059053E+03  0.17130000000E+03 0. -1.
      622    1    1    2    0    0 -0.43951481973E+00  0.47804831255E-02  0.34532842559E+01  0.36821689643E+01  0.12000000000E+01 0. -1.
</event>
<event>
 5   0  0.5136900E+01  0.9118800E+02  0.7818608E-02  0.1180000E+00
       11   -1    0    0    0    0  0.00000000000E+00  0.00000000000E+00  0.39999999673E+01  0.40000000000E+01  0.51109989000E-03 0.  1.
     -623   -1    0    0    0    0  0.00000000000E+00  0.00000000000E+00  0.12525980253E-10  0.17130000000E+03  0.17130000000E+03 0.  1.
       11    1    1    2    0    0  0.78809865151E-01 -0.52472070426E-02 -0.87012897305E-01  0.11751609910E+00  0.51109989000E-03 0.  1.
     -623    1    1    2    0    0  0.12010367211E-01 -0.13231623443E+00  0.39885563231E+00  0.17130051587E+03  0.17130000000E+03 0.  1.
      622    1    1    2    0    0 -0.90820232362E-01  0.13756344147E+00  0.36881572324E+01  0.38819680300E+01  0.12000000000E+01 0.  1.
</event>
<event>
 5   0  0.5136900E+01  0.9118800E+02  0.7818608E-02  0.1180000E+00
       11   -1    0    0    0    0  0.00000000000E+00  0.00000000000E+00  0.39999999673E+01  0.40000000000E+01  0.51109989000E-03 0.  1.
     -623   -1    0    0    0    0  0.00000000000E+00  0.00000000000E+00  0.12525980253E-10  0.17130000000E+03  0.17130000000E+03 0.  1.
       11    1    1    2    0    0  0.14395929927E+00 -0.13350108744E+00  0.24795582289E+00  0.31627388687E+00  0.51109989000E-03 0.  1.
     -623    1    1    2    0    0 -0.22898921082E+00 -0.68016414542E-01  0.27654026794E+00  0.17130038977E+03  0.17130000000E+03 0.  1.
      622    1    1    2    0    0  0.85029911558E-01  0.20151750198E+00  0.34755038765E+01  0.36833363389E+01  0.12000000000E+01 0.  1.
</event>
<event>
 5   0  0.5136900E+01  0.9118800E+02  0.7818608E-02  0.1180000E+00
       11   -1    0    0    0    0  0.00000000000E+00  0.00000000000E+00  0.39999999673E+01  0.40000000000E+01  0.51109989000E-03 0. -1.
     -623   -1    0    0    0    0  0.00000000000E+00  0.00000000000E+00  0.12525980253E-10  0.17130000000E+03  0.17130000000E+03 0. -1.
       11    1    1    2    0    0  0.90359731619E-01  0.43561203308E+00  0.65701178405E+00  0.79346548133E+00  0.51109989000E-03 0. -1.
     -623    1    1    2    0    0 -0.12367080568E+00  0.18863347651E-01  0.40515893705E+00  0.17130052482E+03  0.17130000000E+03 0. -1.
      622    1    1    2    0    0  0.33311074059E-01 -0.45447538073E+00  0.29378292463E+01  0.32060096973E+01  0.12000000000E+01 0.  0.
</event>
<event>
 5   0  0.5136900E+01  0.9118800E+02  0.7818608E-02  0.1180000E+00
       11   -1    0    0    0    0  0.00000000000E+00  0.00000000000E+00  0.39999999673E+01  0.40000000000E+01  0.51109989000E-03 0.  1.
     -623   -1    0    0    0    0  0.00000000000E+00  0.00000000000E+00  0.12525980253E-10  0.17130000000E+03  0.17130000000E+03 0. -1.
       11    1    1    2    0    0  0.18948078638E+00  0.56010818363E-01  0.49079846736E+00  0.52907804430E+00  0.51109989000E-03 0.  1.
     -623    1    1    2    0    0 -0.25801356934E+00 -0.31541363706E+00  0.26412292678E+00  0.17130068832E+03  0.17130000000E+03 0. -1.
      622    1    1    2    0    0  0.68532782964E-01  0.25940281869E+00  0.32450785732E+01  0.34702336393E+01  0.12000000000E+01 0.  1.
</event>
<event>
 5   0  0.5136900E+01  0.9118800E+02  0.7818608E-02  0.1180000E+00
       11   -1    0    0    0    0  0.00000000000E+00  0.00000000000E+00  0.39999999673E+01  0.40000000000E+01  0.51109989000E-03 0.  1.
     -623   -1    0    0    0    0  0.00000000000E+00  0.00000000000E+00  0.12525980253E-10  0.17130000000E+03  0.17130000000E+03 0.  1.
       11    1    1    2    0    0 -0.16311627547E+00  0.17504450111E+00  0.32446896751E+00  0.40314745292E+00  0.51109989000E-03 0.  1.
     -623    1    1    2    0    0  0.22996246831E+00 -0.25994031766E+00  0.28710763673E+00  0.17130059218E+03  0.17130000000E+03 0.  1.
      622    1    1    2    0    0 -0.66846192834E-01  0.84895816551E-01  0.33884233631E+01  0.35962603633E+01  0.12000000000E+01 0.  1.
</event>
<event>
 5   0  0.5136900E+01  0.9118800E+02  0.7818608E-02  0.1180000E+00
       11   -1    0    0    0    0  0.00000000000E+00  0.00000000000E+00  0.39999999673E+01  0.40000000000E+01  0.51109989000E-03 0.  1.
     -623   -1    0    0    0    0  0.00000000000E+00  0.00000000000E+00  0.12525980253E-10  0.17130000000E+03  0.17130000000E+03 0.  1.
       11    1    1    2    0    0 -0.14597302667E-01 -0.44392831182E-01  0.19863048455E+00  0.20405424602E+00  0.51109989000E-03 0.  1.
     -623    1    1    2    0    0  0.89890696500E-01  0.17499386991E+00  0.20349466347E+00  0.17130023384E+03  0.17130000000E+03 0.  1.
      622    1    1    2    0    0 -0.75293393833E-01 -0.13060103873E+00  0.35978748193E+01  0.37957119151E+01  0.12000000000E+01 0.  1.
</event>
<event>
 5   0  0.5136900E+01  0.9118800E+02  0.7818608E-02  0.1180000E+00
       11   -1    0    0    0    0  0.00000000000E+00  0.00000000000E+00  0.39999999673E+01  0.40000000000E+01  0.51109989000E-03 0. -1.
     -623   -1    0    0    0    0  0.00000000000E+00  0.00000000000E+00  0.12525980253E-10  0.17130000000E+03  0.17130000000E+03 0.  1.
       11    1    1    2    0    0 -0.18767011587E-01 -0.38056225550E+00  0.95447658276E+00  0.10277186577E+01  0.51109989000E-03 0. -1.
     -623    1    1    2    0    0 -0.14032139010E+00 -0.38498883386E+00  0.44229997742E+00  0.17130106111E+03  0.17130000000E+03 0.  1.
      622    1    1    2    0    0  0.15908840168E+00  0.76555108936E+00  0.26032234072E+01  0.29712202371E+01  0.12000000000E+01 0. -1.
</event>
<event>
 5   0  0.5136900E+01  0.9118800E+02  0.7818608E-02  0.1180000E+00
       11   -1    0    0    0    0  0.00000000000E+00  0.00000000000E+00  0.39999999673E+01  0.40000000000E+01  0.51109989000E-03 0. -1.
     -623   -1    0    0    0    0  0.00000000000E+00  0.00000000000E+00  0.12525980253E-10  0.17130000000E+03  0.17130000000E+03 0. -1.
       11    1    1    2    0    0 -0.13044554144E+00 -0.55286507169E-02 -0.12151028974E-02  0.13056930326E+00  0.51109989000E-03 0. -1.
     -623    1    1    2    0    0  0.88799495858E-01 -0.21063192707E-01  0.32323950982E+00  0.17130032928E+03  0.17130000000E+03 0. -1.
      622    1    1    2    0    0  0.41646045577E-01  0.26591843424E-01  0.36779755604E+01  0.38691014128E+01  0.12000000000E+01 0. -1.
</event>
<event>
 5   0  0.5136900E+01  0.9118800E+02  0.7818608E-02  0.1180000E+00
       11   -1    0    0    0    0  0.00000000000E+00  0.00000000000E+00  0.39999999673E+01  0.40000000000E+01  0.51109989000E-03 0. -1.
     -623   -1    0    0    0    0  0.00000000000E+00  0.00000000000E+00  0.12525980253E-10  0.17130000000E+03  0.17130000000E+03 0.  1.
       11    1    1    2    0    0  0.44290035574E-01  0.92794596797E-01  0.50558074055E-01  0.11458108273E+00  0.51109989000E-03 0. -1.
     -623    1    1    2    0    0 -0.32218927822E+00 -0.24150400136E+00  0.26816091105E+00  0.17130068313E+03  0.17130000000E+03 0.  1.
      622    1    1    2    0    0  0.27789924265E+00  0.14870940457E+00  0.36812809822E+01  0.38847357885E+01  0.12000000000E+01 0. -1.
</event>
<event>
 5   0  0.5136900E+01  0.9118800E+02  0.7818608E-02  0.1180000E+00
       11   -1    0    0    0    0  0.00000000000E+00  0.00000000000E+00  0.39999999673E+01  0.40000000000E+01  0.51109989000E-03 0. -1.
     -623   -1    0    0    0    0  0.00000000000E+00  0.00000000000E+00  0.12525980253E-10  0.17130000000E+03  0.17130000000E+03 0.  1.
       11    1    1    2    0    0 -0.26356702845E-01  0.11025271412E+00  0.30874089500E+00  0.32889441806E+00  0.51109989000E-03 0. -1.
     -623    1    1    2    0    0  0.94677016915E-02 -0.85144898506E-01  0.22212576584E+00  0.17130016544E+03  0.17130000000E+03 0.  1.
      622    1    1    2    0    0  0.16889001154E-01 -0.25107815619E-01  0.34691333065E+01  0.36709401438E+01  0.12000000000E+01 0. -1.
</event>
<event>
 5   0  0.5136900E+01  0.9118800E+02  0.7818608E-02  0.1180000E+00
       11   -1    0    0    0    0  0.00000000000E+00  0.00000000000E+00  0.39999999673E+01  0.40000000000E+01  0.51109989000E-03 0.  1.
     -623   -1    0    0    0    0  0.00000000000E+00  0.00000000000E+00  0.12525980253E-10  0.17130000000E+03  0.17130000000E+03 0. -1.
       11    1    1    2    0    0 -0.17015458644E+00  0.37011421485E-02  0.76140753631E+00  0.78019739766E+00  0.51109989000E-03 0.  1.
     -623    1    1    2    0    0 -0.14456812038E+00  0.11103267254E+00  0.26993608536E+00  0.17130030967E+03  0.17130000000E+03 0. -1.
      622    1    1    2    0    0  0.31472270682E+00 -0.11473381469E+00  0.29686563457E+01  0.32194929305E+01  0.12000000000E+01 0.  0.
</event>
<event>
 5   0  0.5136900E+01  0.9118800E+02  0.7818608E-02  0.1180000E+00
       11   -1    0    0    0    0  0.00000000000E+00  0.00000000000E+00  0.39999999673E+01  0.40000000000E+01  0.51109989000E-03 0. -1.
     -623   -1    0    0    0    0  0.00000000000E+00  0.00000000000E+00  0.12525980253E-10  0.17130000000E+03  0.17130000000E+03 0.  1.
       11    1    1    2    0    0 -0.31728309211E-02 -0.63623852669E-01  0.26153767035E-01  0.68864666105E-01  0.51109989000E-03 0. -1.
     -623    1    1    2    0    0 -0.55610111571E-01  0.62599991294E-01  0.23098857398E+00  0.17130017620E+03  0.17130000000E+03 0.  1.
      622    1    1    2    0    0  0.58782942492E-01  0.10238613758E-02  0.37428576263E+01  0.39309591315E+01  0.12000000000E+01 0. -1.
</event>
<event>
 5   0  0.5136900E+01  0.9118800E+02  0.7818608E-02  0.1180000E+00
       11   -1    0    0    0    0  0.00000000000E+00  0.00000000000E+00  0.39999999673E+01  0.40000000000E+01  0.51109989000E-03 0. -1.
     -623   -1    0    0    0    0  0.00000000000E+00  0.00000000000E+00  0.12525980253E-10  0.17130000000E+03  0.17130000000E+03 0.  1.
       11    1    1    2    0    0 -0.40289556772E-01 -0.12706083277E+00  0.39369952902E+00  0.41565284070E+00  0.51109989000E-03 0. -1.
     -623    1    1    2    0    0  0.49703231867E-01  0.27237914662E+00  0.23234059068E+00  0.17130038133E+03  0.17130000000E+03 0.  1.
      622    1    1    2    0    0 -0.94136750945E-02 -0.14531831385E+00  0.33739598477E+01  0.35839658318E+01  0.12000000000E+01 0. -1.
</event>
<event>
 5   0  0.5136900E+01  0.9118800E+02  0.7818608E-02  0.1180000E+00
       11   -1    0    0    0    0  0.00000000000E+00  0.00000000000E+00  0.39999999673E+01  0.40000000000E+01  0.51109989000E-03 0. -1.
     -623   -1    0    0    0    0  0.00000000000E+00  0.00000000000E+00  0.12525980253E-10  0.17130000000E+03  0.17130000000E+03 0. -1.
       11    1    1    2    0    0  0.21994938966E-01  0.11114265005E+00  0.40123631516E-01  0.12019414723E+00  0.51109989000E-03 0. -1.
     -623    1    1    2    0    0  0.64822278389E-01  0.12908468686E-01  0.27366250153E+00  0.17130023135E+03  0.17130000000E+03 0. -1.
      622    1    1    2    0    0 -0.86817217356E-01 -0.12405111873E+00  0.36862138343E+01  0.38795745052E+01  0.12000000000E+01 0. -1.
</event>
<event>
 5   0  0.5136900E+01  0.9118800E+02  0.7818608E-02  0.1180000E+00
       11   -1    0    0    0    0  0.00000000000E+00  0.00000000000E+00  0.39999999673E+01  0.40000000000E+01  0.51109989000E-03 0. -1.
     -623   -1    0    0    0    0  0.00000000000E+00  0.00000000000E+00  0.12525980253E-10  0.17130000000E+03  0.17130000000E+03 0.  1.
       11    1    1    2    0    0 -0.95228332318E-02 -0.87988057938E-01  0.14318575350E+00  0.16833004462E+00  0.51109989000E-03 0. -1.
     -623    1    1    2    0    0 -0.51859083117E-01  0.17793572554E+00  0.21978417151E+00  0.17130024126E+03  0.17130000000E+03 0.  1.
      622    1    1    2    0    0  0.61381916349E-01 -0.89947667602E-01  0.36370300424E+01  0.38314286959E+01  0.12000000000E+01 0. -1.
</event>
<event>
 5   0  0.5136900E+01  0.9118800E+02  0.7818608E-02  0.1180000E+00
       11   -1    0    0    0    0  0.00000000000E+00  0.00000000000E+00  0.39999999673E+01  0.40000000000E+01  0.51109989000E-03 0. -1.
     -623   -1    0    0    0    0  0.00000000000E+00  0.00000000000E+00  0.12525980253E-10  0.17130000000E+03  0.17130000000E+03 0. -1.
       11    1    1    2    0    0 -0.14140426933E+00  0.16761444620E+00  0.33393428484E+00  0.39950236267E+00  0.51109989000E-03 0. -1.
     -623    1    1    2    0    0  0.76267743586E-01 -0.21319952424E+00  0.27274557062E+00  0.17130036679E+03  0.17130000000E+03 0. -1.
      622    1    1    2    0    0  0.65136525743E-01  0.45585078045E-01  0.33933201119E+01  0.36001308515E+01  0.12000000000E+01 0. -1.
</event>
<event>
 5   0  0.5136900E+01  0.9118800E+02  0.7818608E-02  0.1180000E+00
       11   -1    0    0    0    0  0.00000000000E+00  0.00000000000E+00  0.39999999673E+01  0.40000000000E+01  0.51109989000E-03 0.  1.
     -623   -1    0    0    0    0  0.00000000000E+00  0.00000000000E+00  0.12525980253E-10  0.17130000000E+03  0.17130000000E+03 0. -1.
       11    1    1    2    0    0 -0.99908560073E-01 -0.16067649767E+00  0.31165391113E+00  0.36459166038E+00  0.51109989000E-03 0.  1.
     -623    1    1    2    0    0  0.84485204613E-01  0.28715603142E+00  0.25955211340E+00  0.17130045815E+03  0.17130000000E+03 0. -1.
      622    1    1    2    0    0  0.15423355460E-01 -0.12647953376E+00  0.34287939428E+01  0.36349501860E+01  0.12000000000E+01 0.  1.
</event>
<event>
 5   0  0.5136900E+01  0.9118800E+02  0.7818608E-02  0.1180000E+00
       11   -1    0    0    0    0  0.00000000000E+00  0.00000000000E+00  0.39999999673E+01  0.40000000000E+01  0.51109989000E-03 0.  1.
     -623   -1    0    0    0    0  0.00000000000E+00  0.00000000000E+00  0.12525980253E-10  0.17130000000E+03  0.17130000000E+03 0. -1.
       11    1    1    2    0    0  0.14550465484E+00 -0.10235133721E+00  0.37214883282E+00  0.41248323093E+00  0.51109989000E-03 0.  1.
     -623    1    1    2    0    0 -0.50315122865E-01 -0.98200451828E-01  0.25451703952E+00  0.17130022462E+03  0.17130000000E+03 0. -1.
      622    1    1    2    0    0 -0.95189531972E-01  0.20055178903E+00  0.33733340950E+01  0.35872921520E+01  0.12000000000E+01 0.  1.
</event>
<event>
 5   0  0.5136900E+01  0.9118800E+02  0.7818608E-02  0.1180000E+00
       11   -1    0    0    0    0  0.00000000000E+00  0.00000000000E+00  0.39999999673E+01  0.40000000000E+01  0.51109989000E-03 0.  1.
     -623   -1    0    0    0    0  0.00000000000E+00  0.00000000000E+00  0.12525980253E-10  0.17130000000E+03  0.17130000000E+03 0.  1.
       11    1    1    2    0    0 -0.13779256494E+00 -0.39379762127E-01  0.14094110813E+00  0.20100301939E+00  0.51109989000E-03 0.  1.
     -623    1    1    2    0    0  0.44255852418E-01  0.21867036447E+00  0.26060448567E+00  0.17130034352E+03  0.17130000000E+03 0.  1.
      622    1    1    2    0    0  0.93536712520E-01 -0.17929060234E+00  0.35984543736E+01  0.37986534608E+01  0.12000000000E+01 0.  1.
</event>
<event>
 5   0  0.5136900E+01  0.9118800E+02  0.7818608E-02  0.1180000E+00
       11   -1    0    0    0    0  0.00000000000E+00  0.00000000000E+00  0.39999999673E+01  0.40000000000E+01  0.51109989000E-03 0. -1.
     -623   -1    0    0    0    0  0.00000000000E+00  0.00000000000E+00  0.12525980253E-10  0.17130000000E+03  0.17130000000E+03 0. -1.
       11    1    1    2    0    0  0.24594570185E+00 -0.38585732865E+00  0.82488618438E+00  0.94329880988E+00  0.51109989000E-03 0. -1.
     -623    1    1    2    0    0  0.11496211402E+00  0.31459632317E+00  0.38882763453E+00  0.17130076875E+03  0.17130000000E+03 0. -1.
      622    1    1    2    0    0 -0.36090781586E+00  0.71261005475E-01  0.27862861485E+01  0.30559324409E+01  0.12000000000E+01 0. -1.
</event>
<event>
 5   0  0.5136900E+01  0.9118800E+02  0.7818608E-02  0.1180000E+00
       11   -1    0    0    0    0  0.00000000000E+00  0.00000000000E+00  0.39999999673E+01  0.40000000000E+01  0.51109989000E-03 0.  1.
     -623   -1    0    0    0    0  0.00000000000E+00  0.00000000000E+00  0.12525980253E-10  0.17130000000E+03  0.17130000000E+03 0.  1.
       11    1    1    2    0    0  0.79262314488E-01 -0.12152834877E-01 -0.76618995510E-02  0.80555395979E-01  0.51109989000E-03 0.  1.
     -623    1    1    2    0    0 -0.77341026121E-01  0.14543905507E+00  0.27914024190E+00  0.17130030664E+03  0.17130000000E+03 0.  1.
      622    1    1    2    0    0 -0.19212883671E-02 -0.13328622020E+00  0.37285216250E+01  0.39191379685E+01  0.12000000000E+01 0.  1.
</event>
<event>
 5   0  0.5136900E+01  0.9118800E+02  0.7818608E-02  0.1180000E+00
       11   -1    0    0    0    0  0.00000000000E+00  0.00000000000E+00  0.39999999673E+01  0.40000000000E+01  0.51109989000E-03 0.  1.
     -623   -1    0    0    0    0  0.00000000000E+00  0.00000000000E+00  0.12525980253E-10  0.17130000000E+03  0.17130000000E+03 0.  1.
       11    1    1    2    0    0 -0.17019914121E+00 -0.70957426925E-01  0.26940216949E+00  0.32646668169E+00  0.51109989000E-03 0.  1.
     -623    1    1    2    0    0  0.19829895523E+00  0.91786551971E-01  0.25911974405E+00  0.17130033535E+03  0.17130000000E+03 0.  1.
      622    1    1    2    0    0 -0.28099814013E-01 -0.20829125046E-01  0.34714780538E+01  0.36731979705E+01  0.12000000000E+01 0.  1.
</event>
<event>
 5   0  0.5136900E+01  0.9118800E+02  0.7818608E-02  0.1180000E+00
       11   -1    0    0    0    0  0.00000000000E+00  0.00000000000E+00  0.39999999673E+01  0.40000000000E+01  0.51109989000E-03 0. -1.
     -623   -1    0    0    0    0  0.00000000000E+00  0.00000000000E+00  0.12525980253E-10  0.17130000000E+03  0.17130000000E+03 0. -1.
       11    1    1    2    0    0 -0.57637144565E-01 -0.65276317866E-01  0.49130334203E-02  0.87220623855E-01  0.51109989000E-03 0. -1.
     -623    1    1    2    0    0  0.94860102853E-01  0.21752740676E+00  0.27456703450E+00  0.17130038442E+03  0.17130000000E+03 0. -1.
      622    1    1    2    0    0 -0.37222958288E-01 -0.15225108889E+00  0.37205198994E+01  0.39123949526E+01  0.12000000000E+01 0. -1.
</event>
<event>
 5   0  0.5136900E+01  0.9118800E+02  0.7818608E-02  0.1180000E+00
       11   -1    0    0    0    0  0.00000000000E+00  0.00000000000E+00  0.39999999673E+01  0.40000000000E+01  0.51109989000E-03 0. -1.
     -623   -1    0    0    0    0  0.00000000000E+00  0.00000000000E+00  0.12525980253E-10  0.17130000000E+03  0.17130000000E+03 0. -1.
       11    1    1    2    0    0  0.26970599778E+00 -0.18529368897E+00  0.33367544283E+00  0.46734851961E+00  0.51109989000E-03 0. -1.
     -623    1    1    2    0    0 -0.24759105348E+00  0.47437242975E-01  0.34723787997E+00  0.17130053744E+03  0.17130000000E+03 0. -1.
      622    1    1    2    0    0 -0.22114944297E-01  0.13785644600E+00  0.33190866446E+01  0.35321140447E+01  0.12000000000E+01 0. -1.
</event>
<event>
 5   0  0.5136900E+01  0.9118800E+02  0.7818608E-02  0.1180000E+00
       11   -1    0    0    0    0  0.00000000000E+00  0.00000000000E+00  0.39999999673E+01  0.40000000000E+01  0.51109989000E-03 0. -1.
     -623   -1    0    0    0    0  0.00000000000E+00  0.00000000000E+00  0.12525980253E-10  0.17130000000E+03  0.17130000000E+03 0.  1.
       11    1    1    2    0    0 -0.54945327827E-01  0.17771479910E+00  0.12434711587E+00  0.22374987222E+00  0.51109989000E-03 0. -1.
     -623    1    1    2    0    0 -0.11486440638E+00 -0.10217972593E+00  0.30031860187E+00  0.17130033224E+03  0.17130000000E+03 0.  1.
      622    1    1    2    0    0  0.16980973421E+00 -0.75535073169E-01  0.35753342496E+01  0.37759178870E+01  0.12000000000E+01 0. -1.
</event>
<event>
 5   0  0.5136900E+01  0.9118800E+02  0.7818608E-02  0.1180000E+00
       11   -1    0    0    0    0  0.00000000000E+00  0.00000000000E+00  0.39999999673E+01  0.40000000000E+01  0.51109989000E-03 0.  1.
     -623   -1    0    0    0    0  0.00000000000E+00  0.00000000000E+00  0.12525980253E-10  0.17130000000E+03  0.17130000000E+03 0. -1.
       11    1    1    2    0    0 -0.12800777733E+00  0.20224433491E+00 -0.40182845612E-01  0.24270081245E+00  0.51109989000E-03 0.  1.
     -623    1    1    2    0    0  0.24478173764E+00 -0.32608523331E+00  0.48497248303E+00  0.17130117176E+03  0.17130000000E+03 0. -1.
      622    1    1    2    0    0 -0.11677396031E+00  0.12384089841E+00  0.35552103299E+01  0.37561274228E+01  0.12000000000E+01 0.  1.
</event>
<event>
 5   0  0.5136900E+01  0.9118800E+02  0.7818608E-02  0.1180000E+00
       11   -1    0    0    0    0  0.00000000000E+00  0.00000000000E+00  0.39999999673E+01  0.40000000000E+01  0.51109989000E-03 0.  1.
     -623   -1    0    0    0    0  0.00000000000E+00  0.00000000000E+00  0.12525980253E-10  0.17130000000E+03  0.17130000000E+03 0.  1.
       11    1    1    2    0    0 -0.32090525192E+00  0.31053925930E-01  0.10208937003E+01  0.10705927030E+01  0.51109989000E-03 0.  1.
     -623    1    1    2    0    0 -0.17418057101E+00 -0.34772093425E+00  0.37313766384E+00  0.17130084787E+03  0.17130000000E+03 0.  1.
      622    1    1    2    0    0  0.49508582293E+00  0.31666700832E+00  0.26059686032E+01  0.29285594286E+01  0.12000000000E+01 0.  1.
</event>
<event>
 5   0  0.5136900E+01  0.9118800E+02  0.7818608E-02  0.1180000E+00
       11   -1    0    0    0    0  0.00000000000E+00  0.00000000000E+00  0.39999999673E+01  0.40000000000E+01  0.51109989000E-03 0. -1.
     -623   -1    0    0    0    0  0.00000000000E+00  0.00000000000E+00  0.12525980253E-10  0.17130000000E+03  0.17130000000E+03 0.  1.
       11    1    1    2    0    0 -0.76030238322E-01 -0.57510888195E-01 -0.67246308880E-01  0.11666373336E+00  0.51109989000E-03 0. -1.
     -623    1    1    2    0    0  0.11710389700E+00  0.12690651072E+00  0.37537307309E+00  0.17130049832E+03  0.17130000000E+03 0.  1.
      622    1    1    2    0    0 -0.41073658677E-01 -0.69395622527E-01  0.36918732031E+01  0.38828379500E+01  0.12000000000E+01 0. -1.
</event>
<event>
 5   0  0.5136900E+01  0.9118800E+02  0.7818608E-02  0.1180000E+00
       11   -1    0    0    0    0  0.00000000000E+00  0.00000000000E+00  0.39999999673E+01  0.40000000000E+01  0.51109989000E-03 0.  1.
     -623   -1    0    0    0    0  0.00000000000E+00  0.00000000000E+00  0.12525980253E-10  0.17130000000E+03  0.17130000000E+03 0. -1.
       11    1    1    2    0    0  0.82199961774E-02  0.23680529239E-01  0.21652828127E+00  0.21797498392E+00  0.51109989000E-03 0.  1.
     -623    1    1    2    0    0  0.81383756802E-01  0.91686746450E-01  0.20001529527E+00  0.17130016064E+03  0.17130000000E+03 0. -1.
      622    1    1    2    0    0 -0.89603752980E-01 -0.11536727569E+00  0.35834563908E+01  0.37818643743E+01  0.12000000000E+01 0.  1.
</event>
<event>
 5   0  0.5136900E+01  0.9118800E+02  0.7818608E-02  0.1180000E+00
       11   -1    0    0    0    0  0.00000000000E+00  0.00000000000E+00  0.39999999673E+01  0.40000000000E+01  0.51109989000E-03 0. -1.
     -623   -1    0    0    0    0  0.00000000000E+00  0.00000000000E+00  0.12525980253E-10  0.17130000000E+03  0.17130000000E+03 0.  1.
       11    1    1    2    0    0  0.10602366342E+00  0.57398672890E-01  0.16259559669E+00  0.20241841353E+00  0.51109989000E-03 0. -1.
     -623    1    1    2    0    0  0.19753422170E+00 -0.37291308943E+00  0.26186784083E+00  0.17130071996E+03  0.17130000000E+03 0.  1.
      622    1    1    2    0    0 -0.30355788512E+00  0.31551441654E+00  0.35755365298E+01  0.37968616268E+01  0.12000000000E+01 0. -1.
</event>
<event>
 5   0  0.5136900E+01  0.9118800E+02  0.7818608E-02  0.1180000E+00
       11   -1    0    0    0    0  0.00000000000E+00  0.00000000000E+00  0.39999999673E+01  0.40000000000E+01  0.51109989000E-03 0.  1.
     -623   -1    0    0    0    0  0.00000000000E+00  0.00000000000E+00  0.12525980253E-10  0.17130000000E+03  0.17130000000E+03 0.  1.
       11    1    1    2    0    0  0.11156508908E-03  0.81416891922E-01 -0.38795770120E-01  0.90189221858E-01  0.51109989000E-03 0.  1.
     -623    1    1    2    0    0  0.90912615478E-01  0.14774552722E+00  0.32628946742E+00  0.17130039859E+03  0.17130000000E+03 0.  1.
      622    1    1    2    0    0 -0.91024180567E-01 -0.22916241914E+00  0.37125062701E+01  0.39094121836E+01  0.12000000000E+01 0.  1.
</event>
<event>
 5   0  0.5136900E+01  0.9118800E+02  0.7818608E-02  0.1180000E+00
       11   -1    0    0    0    0  0.00000000000E+00  0.00000000000E+00  0.39999999673E+01  0.40000000000E+01  0.51109989000E-03 0.  1.
     -623   -1    0    0    0    0  0.00000000000E+00  0.00000000000E+00  0.12525980253E-10  0.17130000000E+03  0.17130000000E+03 0. -1.
       11    1    1    2    0    0 -0.58334782752E-01  0.40607822132E+00  0.64355999889E-01  0.41526428290E+00  0.51109989000E-03 0.  1.
     -623    1    1    2    0    0  0.39388012517E+00 -0.27831409681E+00  0.57862973374E+00  0.17130165619E+03  0.17130000000E+03 0. -1.
      622    1    1    2    0    0 -0.33554534242E+00 -0.12776412451E+00  0.33570142337E+01  0.35830795294E+01  0.12000000000E+01 0.  1.
</event>
<event>
 5   0  0.5136900E+01  0.9118800E+02  0.7818608E-02  0.1180000E+00
       11   -1    0    0    0    0  0.00000000000E+00  0.00000000000E+00  0.39999999673E+01  0.40000000000E+01  0.51109989000E-03 0. -1.
     -623   -1    0    0    0    0  0.00000000000E+00  0.00000000000E+00  0.12525980253E-10  0.17130000000E+03  0.17130000000E+03 0.  1.
       11    1    1    2    0    0 -0.40399655731E-01 -0.17522737595E+00  0.78261275622E+00  0.80300669542E+00  0.51109989000E-03 0. -1.
     -623    1    1    2    0    0 -0.11318796549E+00  0.11189442531E+00  0.25910387003E+00  0.17130026990E+03  0.17130000000E+03 0.  1.
      622    1    1    2    0    0  0.15358762122E+00  0.63332950631E-01  0.29582833411E+01  0.31967234079E+01  0.12000000000E+01 0. -1.
</event>
<event>
 5   0  0.5136900E+01  0.9118800E+02  0.7818608E-02  0.1180000E+00
       11   -1    0    0    0    0  0.00000000000E+00  0.00000000000E+00  0.39999999673E+01  0.40000000000E+01  0.51109989000E-03 0. -1.
     -623   -1    0    0    0    0  0.00000000000E+00  0.00000000000E+00  0.12525980253E-10  0.17130000000E+03  0.17130000000E+03 0.  1.
       11    1    1    2    0    0  0.49836678452E-01  0.33066889718E-01 -0.11885398617E-01  0.60980633304E-01  0.51109989000E-03 0. -1.
     -623    1    1    2    0    0  0.36556631902E+00 -0.24632727012E+00  0.29013434240E+00  0.17130081288E+03  0.17130000000E+03 0.  1.
      622    1    1    2    0    0 -0.41540299747E+00  0.21326038040E+00  0.37217510236E+01  0.39382064854E+01  0.12000000000E+01 0. -1.
</event>
<event>
 5   0  0.5136900E+01  0.9118800E+02  0.7818608E-02  0.1180000E+00
       11   -1    0    0    0    0  0.00000000000E+00  0.00000000000E+00  0.39999999673E+01  0.40000000000E+01  0.51109989000E-03 0. -1.
     -623   -1    0    0    0    0  0.00000000000E+00  0.00000000000E+00  0.12525980253E-10  0.17130000000E+03  0.17130000000E+03 0. -1.
       11    1    1    2    0    0  0.57205931632E-01  0.15941757009E+00  0.47406721167E-01  0.17588103566E+00  0.51109989000E-03 0. -1.
     -623    1    1    2    0    0 -0.70347972801E-01 -0.12813075704E+00  0.32217450092E+00  0.17130036533E+03  0.17130000000E+03 0. -1.
      622    1    1    2    0    0  0.13142041169E-01 -0.31286813051E-01  0.36304187453E+01  0.38237536327E+01  0.12000000000E+01 0. -1.
</event>
<event>
 5   0  0.5136900E+01  0.9118800E+02  0.7818608E-02  0.1180000E+00
       11   -1    0    0    0    0  0.00000000000E+00  0.00000000000E+00  0.39999999673E+01  0.40000000000E+01  0.51109989000E-03 0. -1.
     -623   -1    0    0    0    0  0.00000000000E+00  0.00000000000E+00  0.12525980253E-10  0.17130000000E+03  0.17130000000E+03 0. -1.
       11    1    1    2    0    0  0.80874744763E-01  0.33932865850E+00  0.98012247132E+00  0.10403484910E+01  0.51109989000E-03 0. -1.
     -623    1    1    2    0    0  0.62614513537E-01 -0.17160687496E+00  0.32387516360E+00  0.17130040357E+03  0.17130000000E+03 0. -1.
      622    1    1    2    0    0 -0.14348925830E+00 -0.16772178354E+00  0.26960023324E+01  0.29592479349E+01  0.12000000000E+01 0. -1.
</event>
<event>
 5   0  0.5136900E+01  0.9118800E+02  0.7818608E-02  0.1180000E+00
       11   -1    0    0    0    0  0.00000000000E+00  0.00000000000E+00  0.39999999673E+01  0.40000000000E+01  0.51109989000E-03 0. -1.
     -623   -1    0    0    0    0  0.00000000000E+00  0.00000000000E+00  0.12525980253E-10  0.17130000000E+03  0.17130000000E+03 0. -1.
       11    1    1    2    0    0 -0.42418722258E-01 -0.31851400961E-01  0.45306935907E-01  0.69762736512E-01  0.51109989000E-03 0. -1.
     -623    1    1    2    0    0  0.13951746375E+00  0.84981554086E-01  0.21399108104E+00  0.17130021156E+03  0.17130000000E+03 0. -1.
      622    1    1    2    0    0 -0.97098741493E-01 -0.53130153125E-01  0.37407019504E+01  0.39300257074E+01  0.12000000000E+01 0. -1.
</event>
<event>
 5   0  0.5136900E+01  0.9118800E+02  0.7818608E-02  0.1180000E+00
       11   -1    0    0    0    0  0.00000000000E+00  0.00000000000E+00  0.39999999673E+01  0.40000000000E+01  0.51109989000E-03 0.  1.
     -623   -1    0    0    0    0  0.00000000000E+00  0.00000000000E+00  0.12525980253E-10  0.17130000000E+03  0.17130000000E+03 0.  1.
       11    1    1    2    0    0  0.83445179238E-02 -0.43049651646E-01 -0.54710702786E-01  0.70117228326E-01  0.51109989000E-03 0.  1.
     -623    1    1    2    0    0  0.19855074490E-02  0.57207482148E-02  0.31302257479E+00  0.17130028611E+03  0.17130000000E+03 0.  1.
      622    1    1    2    0    0 -0.10330025373E-01  0.37328903432E-01  0.37416880954E+01  0.39295966662E+01  0.12000000000E+01 0.  1.
</event>
<event>
 5   0  0.5136900E+01  0.9118800E+02  0.7818608E-02  0.1180000E+00
       11   -1    0    0    0    0  0.00000000000E+00  0.00000000000E+00  0.39999999673E+01  0.40000000000E+01  0.51109989000E-03 0.  1.
     -623   -1    0    0    0    0  0.00000000000E+00  0.00000000000E+00  0.12525980253E-10  0.17130000000E+03  0.17130000000E+03 0.  1.
       11    1    1    2    0    0  0.20823396745E+00 -0.35054738322E+00  0.52239084030E+00  0.66267435769E+00  0.51109989000E-03 0.  1.
     -623    1    1    2    0    0 -0.17172240991E+00 -0.20196428078E+00  0.41388030938E+00  0.17130070512E+03  0.17130000000E+03 0.  1.
      622    1    1    2    0    0 -0.36511557542E-01  0.55251166401E+00  0.30637288177E+01  0.33366205210E+01  0.12000000000E+01 0.  1.
</event>
<event>
 5   0  0.5136900E+01  0.9118800E+02  0.7818608E-02  0.1180000E+00
       11   -1    0    0    0    0  0.00000000000E+00  0.00000000000E+00  0.39999999673E+01  0.40000000000E+01  0.51109989000E-03 0.  1.
     -623   -1    0    0    0    0  0.00000000000E+00  0.00000000000E+00  0.12525980253E-10  0.17130000000E+03  0.17130000000E+03 0.  1.
       11    1    1    2    0    0  0.25096827624E-01  0.60010076394E-01  0.20700430981E+00  0.21698411354E+00  0.51109989000E-03 0.  1.
     -623    1    1    2    0    0 -0.38550323970E-01 -0.11257011598E+00  0.20593328794E+00  0.17130016511E+03  0.17130000000E+03 0.  1.
      622    1    1    2    0    0  0.13453496346E-01  0.52560039584E-01  0.35870623696E+01  0.37828507766E+01  0.12000000000E+01 0.  1.
</event>
<event>
 5   0  0.5136900E+01  0.9118800E+02  0.7818608E-02  0.1180000E+00
       11   -1    0    0    0    0  0.00000000000E+00  0.00000000000E+00  0.39999999673E+01  0.40000000000E+01  0.51109989000E-03 0. -1.
     -623   -1    0    0    0    0  0.00000000000E+00  0.00000000000E+00  0.12525980253E-10  0.17130000000E+03  0.17130000000E+03 0.  1.
       11    1    1    2    0    0 -0.43311177332E-01  0.47333765326E-01  0.56639260747E-01  0.85583938347E-01  0.51109989000E-03 0. -1.
     -623    1    1    2    0    0  0.55018404186E-01 -0.10691862931E-01  0.21777109532E+00  0.17130014759E+03  0.17130000000E+03 0.  1.
      622    1    1    2    0    0 -0.11707226853E-01 -0.36641902395E-01  0.37255896113E+01  0.39142684680E+01  0.12000000000E+01 0. -1.
</event>
<event>
 5   0  0.5136900E+01  0.9118800E+02  0.7818608E-02  0.1180000E+00
       11   -1    0    0    0    0  0.00000000000E+00  0.00000000000E+00  0.39999999673E+01  0.40000000000E+01  0.51109989000E-03 0. -1.
     -623   -1    0    0    0    0  0.00000000000E+00  0.00000000000E+00  0.12525980253E-10  0.17130000000E+03  0.17130000000E+03 0. -1.
       11    1    1    2    0    0 -0.35952578085E+00  0.84524763661E-01  0.58930423630E+00  0.69547319640E+00  0.51109989000E-03 0. -1.
     -623    1    1    2    0    0 -0.30756177648E+00 -0.74078898295E-01  0.40575372880E+00  0.17130077267E+03  0.17130000000E+03 0. -1.
      622    1    1    2    0    0  0.66708755733E+00 -0.10445865366E-01  0.30049420023E+01  0.33037541316E+01  0.12000000000E+01 0. -1.
</event>
<event>
 5   0  0.5136900E+01  0.9118800E+02  0.7818608E-02  0.1180000E+00
       11   -1    0    0    0    0  0.00000000000E+00  0.00000000000E+00  0.39999999673E+01  0.40000000000E+01  0.51109989000E-03 0.  1.
     -623   -1    0    0    0    0  0.00000000000E+00  0.00000000000E+00  0.12525980253E-10  0.17130000000E+03  0.17130000000E+03 0.  1.
       11    1    1    2    0    0 -0.59719591160E-01  0.73353790941E-01  0.68523051172E-01  0.11680273104E+00  0.51109989000E-03 0.  1.
     -623    1    1    2    0    0  0.87720785317E-01  0.83529794124E-02  0.23955545380E+00  0.17130019017E+03  0.17130000000E+03 0.  1.
      622    1    1    2    0    0 -0.28001194157E-01 -0.81706770353E-01  0.36919214624E+01  0.38830071012E+01  0.12000000000E+01 0.  1.
</event>
<event>
 5   0  0.5136900E+01  0.9118800E+02  0.7818608E-02  0.1180000E+00
       11   -1    0    0    0    0  0.00000000000E+00  0.00000000000E+00  0.39999999673E+01  0.40000000000E+01  0.51109989000E-03 0.  1.
     -623   -1    0    0    0    0  0.00000000000E+00  0.00000000000E+00  0.12525980253E-10  0.17130000000E+03  0.17130000000E+03 0. -1.
       11    1    1    2    0    0  0.51655972302E-01  0.58344106109E-01  0.53115422116E+00  0.53684023887E+00  0.51109989000E-03 0.  1.
     -623    1    1    2    0    0  0.37897519895E+00 -0.17377445501E+00  0.25171759092E+00  0.17130069230E+03  0.17130000000E+03 0. -1.
      622    1    1    2    0    0 -0.43063117125E+00  0.11543034890E+00  0.32171281553E+01  0.34624674639E+01  0.12000000000E+01 0.  0.
</event>
<event>
 5   0  0.5136900E+01  0.9118800E+02  0.7818608E-02  0.1180000E+00
       11   -1    0    0    0    0  0.00000000000E+00  0.00000000000E+00  0.39999999673E+01  0.40000000000E+01  0.51109989000E-03 0.  1.
     -623   -1    0    0    0    0  0.00000000000E+00  0.00000000000E+00  0.12525980253E-10  0.17130000000E+03  0.17130000000E+03 0.  1.
       11    1    1    2    0    0 -0.44269438924E-01 -0.19504956302E+00  0.89369232148E-01  0.21906902139E+00  0.51109989000E-03 0.  1.
     -623    1    1    2    0    0 -0.34868055920E-02  0.50104747212E+00  0.33971541912E+00  0.17130106966E+03  0.17130000000E+03 0.  1.
      622    1    1    2    0    0  0.47756244517E-01 -0.30599790910E+00  0.35709153161E+01  0.37798613168E+01  0.12000000000E+01 0.  1.
</event>
<event>
 5   0  0.5136900E+01  0.9118800E+02  0.7818608E-02  0.1180000E+00
       11   -1    0    0    0    0  0.00000000000E+00  0.00000000000E+00  0.39999999673E+01  0.40000000000E+01  0.51109989000E-03 0. -1.
     -623   -1    0    0    0    0  0.00000000000E+00  0.00000000000E+00  0.12525980253E-10  0.17130000000E+03  0.17130000000E+03 0. -1.
       11    1    1    2    0    0 -0.32479501747E-01  0.10129261742E+00  0.94191168305E-02  0.10678994973E+00  0.51109989000E-03 0. -1.
     -623    1    1    2    0    0  0.17892962796E+00 -0.80443301791E-01  0.29025480461E+00  0.17130035824E+03  0.17130000000E+03 0. -1.
      622    1    1    2    0    0 -0.14645012621E+00 -0.20849315630E-01  0.37003260459E+01  0.38928518055E+01  0.12000000000E+01 0. -1.
</event>
<event>
 5   0  0.5136900E+01  0.9118800E+02  0.7818608E-02  0.1180000E+00
       11   -1    0    0    0    0  0.00000000000E+00  0.00000000000E+00  0.39999999673E+01  0.40000000000E+01  0.51109989000E-03 0. -1.
     -623   -1    0    0    0    0  0.00000000000E+00  0.00000000000E+00  0.12525980253E-10  0.17130000000E+03  0.17130000000E+03 0.  1.
       11    1    1    2    0    0  0.20396077615E+00  0.12658044857E+00  0.26369487410E+00  0.35659200218E+00  0.51109989000E-03 0. -1.
     -623    1    1    2    0    0  0.17260112984E+00 -0.32321264067E+00  0.32325936480E+00  0.17130069689E+03  0.17130000000E+03 0.  1.
      622    1    1    2    0    0 -0.37656190599E+00  0.19663219210E+00  0.34130457285E+01  0.36427111102E+01  0.12000000000E+01 0.  0.
</event>
<event>
 5   0  0.5136900E+01  0.9118800E+02  0.7818608E-02  0.1180000E+00
       11   -1    0    0    0    0  0.00000000000E+00  0.00000000000E+00  0.39999999673E+01  0.40000000000E+01  0.51109989000E-03 0. -1.
     -623   -1    0    0    0    0  0.00000000000E+00  0.00000000000E+00  0.12525980253E-10  0.17130000000E+03  0.17130000000E+03 0. -1.
       11    1    1    2    0    0  0.37049996231E-01 -0.85591624869E-01  0.33838613061E-01  0.99216638854E-01  0.51109989000E-03 0. -1.
     -623    1    1    2    0    0  0.12328595917E+00 -0.34286513000E+00  0.28350265400E+00  0.17130062209E+03  0.17130000000E+03 0. -1.
      622    1    1    2    0    0 -0.16033595540E+00  0.42845675487E+00  0.36826587003E+01  0.39001612675E+01  0.12000000000E+01 0. -1.
</event>
<event>
 5   0  0.5136900E+01  0.9118800E+02  0.7818608E-02  0.1180000E+00
       11   -1    0    0    0    0  0.00000000000E+00  0.00000000000E+00  0.39999999673E+01  0.40000000000E+01  0.51109989000E-03 0.  1.
     -623   -1    0    0    0    0  0.00000000000E+00  0.00000000000E+00  0.12525980253E-10  0.17130000000E+03  0.17130000000E+03 0.  1.
       11    1    1    2    0    0  0.26711001929E-01 -0.16531178566E+00  0.10187304210E+01  0.10324017609E+01  0.51109989000E-03 0.  1.
     -623    1    1    2    0    0 -0.46282615861E+00  0.10949707438E+00  0.30399315215E+00  0.17130092997E+03  0.17130000000E+03 0.  1.
      622    1    1    2    0    0  0.43611515668E+00  0.55814711278E-01  0.26772763942E+01  0.29666682664E+01  0.12000000000E+01 0.  1.
</event>
<event>
 5   0  0.5136900E+01  0.9118800E+02  0.7818608E-02  0.1180000E+00
       11   -1    0    0    0    0  0.00000000000E+00  0.00000000000E+00  0.39999999673E+01  0.40000000000E+01  0.51109989000E-03 0. -1.
     -623   -1    0    0    0    0  0.00000000000E+00  0.00000000000E+00  0.12525980253E-10  0.17130000000E+03  0.17130000000E+03 0.  1.
       11    1    1    2    0    0  0.26673599450E+00 -0.31196896065E+00  0.33250846010E+00  0.52823750381E+00  0.51109989000E-03 0. -1.
     -623    1    1    2    0    0 -0.45362842270E+00 -0.34919208256E+00  0.48477724258E+00  0.17130164250E+03  0.17130000000E+03 0.  1.
      622    1    1    2    0    0  0.18689242819E+00  0.66116104321E+00  0.31827142647E+01  0.34701199973E+01  0.12000000000E+01 0. -1.
</event>
<event>
 5   0  0.5136900E+01  0.9118800E+02  0.7818608E-02  0.1180000E+00
       11   -1    0    0    0    0  0.00000000000E+00  0.00000000000E+00  0.39999999673E+01  0.40000000000E+01  0.51109989000E-03 0.  1.
     -623   -1    0    0    0    0  0.00000000000E+00  0.00000000000E+00  0.12525980253E-10  0.17130000000E+03  0.17130000000E+03 0. -1.
       11    1    1    2    0    0 -0.10227344706E+00  0.19067106285E+00  0.70871248609E+00  0.74100537201E+00  0.51109989000E-03 0.  1.
     -623    1    1    2    0    0 -0.49353540429E-01 -0.16715013140E+00  0.26546801346E+00  0.17130029436E+03  0.17130000000E+03 0. -1.
      622    1    1    2    0    0  0.15162698749E+00 -0.23520931454E-01  0.30258194678E+01  0.32587002669E+01  0.12000000000E+01 0.  1.
</event>
<event>
 5   0  0.5136900E+01  0.9118800E+02  0.7818608E-02  0.1180000E+00
       11   -1    0    0    0    0  0.00000000000E+00  0.00000000000E+00  0.39999999673E+01  0.40000000000E+01  0.51109989000E-03 0. -1.
     -623   -1    0    0    0    0  0.00000000000E+00  0.00000000000E+00  0.12525980253E-10  0.17130000000E+03  0.17130000000E+03 0. -1.
       11    1    1    2    0    0  0.24903730567E-01  0.52981127830E-02  0.31313576218E+00  0.31416959206E+00  0.51109989000E-03 0. -1.
     -623    1    1    2    0    0  0.49879174035E-01 -0.35035360147E+00  0.22031675849E+00  0.17130050722E+03  0.17130000000E+03 0. -1.
      622    1    1    2    0    0 -0.74782904602E-01  0.34505548869E+00  0.34665474467E+01  0.36853231844E+01  0.12000000000E+01 0. -1.
</event>
<event>
 5   0  0.5136900E+01  0.9118800E+02  0.7818608E-02  0.1180000E+00
       11   -1    0    0    0    0  0.00000000000E+00  0.00000000000E+00  0.39999999673E+01  0.40000000000E+01  0.51109989000E-03 0.  1.
     -623   -1    0    0    0    0  0.00000000000E+00  0.00000000000E+00  0.12525980253E-10  0.17130000000E+03  0.17130000000E+03 0.  1.
       11    1    1    2    0    0 -0.12214192185E+00 -0.52663585917E+00  0.69965342691E+00  0.88418276179E+00  0.51109989000E-03 0.  1.
     -623    1    1    2    0    0  0.40194904566E+00  0.80336982737E-01  0.47480464282E+00  0.17130114844E+03  0.17130000000E+03 0.  1.
      622    1    1    2    0    0 -0.27980712382E+00  0.44629887643E+00  0.28255418976E+01  0.31146687992E+01  0.12000000000E+01 0.  1.
</event>
<event>
 5   0  0.5136900E+01  0.9118800E+02  0.7818608E-02  0.1180000E+00
       11   -1    0    0    0    0  0.00000000000E+00  0.00000000000E+00  0.39999999673E+01  0.40000000000E+01  0.51109989000E-03 0. -1.
     -623   -1    0    0    0    0  0.00000000000E+00  0.00000000000E+00  0.12525980253E-10  0.17130000000E+03  0.17130000000E+03 0.  1.
       11    1    1    2    0    0 -0.29416390907E-01  0.59433593767E-02 -0.82265002047E-02  0.31122083834E-01  0.51109989000E-03 0. -1.
     -623    1    1    2    0    0  0.19143903714E-01  0.45828034005E-01  0.22563881134E+00  0.17130015581E+03  0.17130000000E+03 0.  1.
      622    1    1    2    0    0  0.10272487193E-01 -0.51771393382E-01  0.37825876562E+01  0.39687221090E+01  0.12000000000E+01 0. -1.
</event>
<event>
 5   0  0.5136900E+01  0.9118800E+02  0.7818608E-02  0.1180000E+00
       11   -1    0    0    0    0  0.00000000000E+00  0.00000000000E+00  0.39999999673E+01  0.40000000000E+01  0.51109989000E-03 0. -1.
     -623   -1    0    0    0    0  0.00000000000E+00  0.00000000000E+00  0.12525980253E-10  0.17130000000E+03  0.17130000000E+03 0.  1.
       11    1    1    2    0    0 -0.56594533459E-01  0.36922584961E-01  0.56612241951E-01  0.88155689887E-01  0.51109989000E-03 0. -1.
     -623    1    1    2    0    0  0.70610404271E-02  0.90322611828E-01  0.22282866657E+00  0.17130016889E+03  0.17130000000E+03 0.  1.
      622    1    1    2    0    0  0.49533493032E-01 -0.12724519679E+00  0.37205590588E+01  0.39116754233E+01  0.12000000000E+01 0. -1.
</event>
<event>
 5   0  0.5136900E+01  0.9118800E+02  0.7818608E-02  0.1180000E+00
       11   -1    0    0    0    0  0.00000000000E+00  0.00000000000E+00  0.39999999673E+01  0.40000000000E+01  0.51109989000E-03 0.  1.
     -623   -1    0    0    0    0  0.00000000000E+00  0.00000000000E+00  0.12525980253E-10  0.17130000000E+03  0.17130000000E+03 0. -1.
       11    1    1    2    0    0  0.10898350784E+00  0.42320227702E-01  0.48469954986E-01  0.12656225509E+00  0.51109989000E-03 0.  1.
     -623    1    1    2    0    0 -0.74542612183E-01 -0.46236430713E-01  0.26907058490E+00  0.17130023378E+03  0.17130000000E+03 0. -1.
      622    1    1    2    0    0 -0.34440895660E-01  0.39162030115E-02  0.36824594275E+01  0.38732039640E+01  0.12000000000E+01 0.  1.
</event>
<event>
 5   0  0.5136900E+01  0.9118800E+02  0.7818608E-02  0.1180000E+00
       11   -1    0    0    0    0  0.00000000000E+00  0.00000000000E+00  0.39999999673E+01  0.40000000000E+01  0.51109989000E-03 0.  1.
     -623   -1    0    0    0    0  0.00000000000E+00  0.00000000000E+00  0.12525980253E-10  0.17130000000E+03  0.17130000000E+03 0.  1.
       11    1    1    2    0    0 -0.29354116822E+00 -0.19781208578E+00  0.84361980279E-01  0.36388630594E+00  0.51109989000E-03 0.  1.
     -623    1    1    2    0    0  0.57094978646E+00  0.68149990143E-01  0.49873001511E+00  0.17130169106E+03  0.17130000000E+03 0.  1.
      622    1    1    2    0    0 -0.27740861825E+00  0.12966209563E+00  0.34169079720E+01  0.36344226350E+01  0.12000000000E+01 0.  1.
</event>
<event>
 5   0  0.5136900E+01  0.9118800E+02  0.7818608E-02  0.1180000E+00
       11   -1    0    0    0    0  0.00000000000E+00  0.00000000000E+00  0.39999999673E+01  0.40000000000E+01  0.51109989000E-03 0.  1.
     -623   -1    0    0    0    0  0.00000000000E+00  0.00000000000E+00  0.12525980253E-10  0.17130000000E+03  0.17130000000E+03 0.  1.
       11    1    1    2    0    0 -0.16634144537E+00 -0.11856521939E+00  0.30640660163E+00  0.36825596322E+00  0.51109989000E-03 0.  1.
     -623    1    1    2    0    0  0.67131598418E-01 -0.96142478750E-01  0.27427524342E+00  0.17130025971E+03  0.17130000000E+03 0.  1.
      622    1    1    2    0    0  0.99209846953E-01  0.21470769814E+00  0.34193181223E+01  0.36314843261E+01  0.12000000000E+01 0.  1.
</event>
<event>
 5   0  0.5136900E+01  0.9118800E+02  0.7818608E-02  0.1180000E+00
       11   -1    0    0    0    0  0.00000000000E+00  0.00000000000E+00  0.39999999673E+01  0.40000000000E+01  0.51109989000E-03 0. -1.
     -623   -1    0    0    0    0  0.00000000000E+00  0.00000000000E+00  0.12525980253E-10  0.17130000000E+03  0.17130000000E+03 0.  1.
       11    1    1    2    0    0  0.96309495269E-02 -0.43395236835E-01 -0.83691077939E-01  0.94764758833E-01  0.51109989000E-03 0. -1.
     -623    1    1    2    0    0 -0.60005016817E-01  0.15986108847E+00  0.37007100527E+00  0.17130048485E+03  0.17130000000E+03 0.  1.
      622    1    1    2    0    0  0.50374067290E-01 -0.11646585164E+00  0.37136200400E+01  0.39047503945E+01  0.12000000000E+01 0. -1.
</event>
<event>
 5   0  0.5136900E+01  0.9118800E+02  0.7818608E-02  0.1180000E+00
       11   -1    0    0    0    0  0.00000000000E+00  0.00000000000E+00  0.39999999673E+01  0.40000000000E+01  0.51109989000E-03 0.  1.
     -623   -1    0    0    0    0  0.00000000000E+00  0.00000000000E+00  0.12525980253E-10  0.17130000000E+03  0.17130000000E+03 0.  1.
       11    1    1    2    0    0  0.67835654169E-01  0.53970798259E-01  0.68306446859E-01  0.11036555145E+00  0.51109989000E-03 0.  1.
     -623    1    1    2    0    0 -0.26998520352E-01 -0.35129814879E-01  0.23223893014E+00  0.17130016316E+03  0.17130000000E+03 0.  1.
      622    1    1    2    0    0 -0.40837133817E-01 -0.18840983380E-01  0.36994545904E+01  0.38894712906E+01  0.12000000000E+01 0.  1.
</event>
<event>
 5   0  0.5136900E+01  0.9118800E+02  0.7818608E-02  0.1180000E+00
       11   -1    0    0    0    0  0.00000000000E+00  0.00000000000E+00  0.39999999673E+01  0.40000000000E+01  0.51109989000E-03 0. -1.
     -623   -1    0    0    0    0  0.00000000000E+00  0.00000000000E+00  0.12525980253E-10  0.17130000000E+03  0.17130000000E+03 0.  1.
       11    1    1    2    0    0  0.17568270467E+00  0.18766591027E+00  0.63731299891E+00  0.68720522874E+00  0.51109989000E-03 0. -1.
     -623    1    1    2    0    0 -0.12023402327E+00 -0.85552663523E-01  0.27736710139E+00  0.17130028811E+03  0.17130000000E+03 0.  1.
      622    1    1    2    0    0 -0.55448681399E-01 -0.10211324675E+00  0.30853198671E+01  0.33125066571E+01  0.12000000000E+01 0. -1.
</event>
<event>
 5   0  0.5136900E+01  0.9118800E+02  0.7818608E-02  0.1180000E+00
       11   -1    0    0    0    0  0.00000000000E+00  0.00000000000E+00  0.39999999673E+01  0.40000000000E+01  0.51109989000E-03 0.  1.
     -623   -1    0    0    0    0  0.00000000000E+00  0.00000000000E+00  0.12525980253E-10  0.17130000000E+03  0.17130000000E+03 0. -1.
       11    1    1    2    0    0 -0.46725648488E-01  0.41364161674E-02  0.33590165384E-01  0.57697110837E-01  0.51109989000E-03 0.  1.
     -623    1    1    2    0    0 -0.62848837698E-01  0.80183180092E-01  0.21389812072E+00  0.17130016384E+03  0.17130000000E+03 0. -1.
      622    1    1    2    0    0  0.10957448619E+00 -0.84319596259E-01  0.37525116813E+01  0.39421390488E+01  0.12000000000E+01 0.  1.
</event>
<event>
 5   0  0.5136900E+01  0.9118800E+02  0.7818608E-02  0.1180000E+00
       11   -1    0    0    0    0  0.00000000000E+00  0.00000000000E+00  0.39999999673E+01  0.40000000000E+01  0.51109989000E-03 0. -1.
     -623   -1    0    0    0    0  0.00000000000E+00  0.00000000000E+00  0.12525980253E-10  0.17130000000E+03  0.17130000000E+03 0.  1.
       11    1    1    2    0    0  0.12331591706E+00 -0.23724650899E+00  0.10063052052E+00  0.28569123947E+00  0.51109989000E-03 0. -1.
     -623    1    1    2    0    0 -0.48163732311E-01  0.25347025605E+00  0.38575179540E+00  0.17130062864E+03  0.17130000000E+03 0.  1.
      622    1    1    2    0    0 -0.75152184745E-01 -0.16223747055E-01  0.35136176514E+01  0.37136801237E+01  0.12000000000E+01 0. -1.
</event>
<event>
 5   0  0.5136900E+01  0.9118800E+02  0.7818608E-02  0.1180000E+00
       11   -1    0    0    0    0  0.00000000000E+00  0.00000000000E+00  0.39999999673E+01  0.40000000000E+01  0.51109989000E-03 0.  1.
     -623   -1    0    0    0    0  0.00000000000E+00  0.00000000000E+00  0.12525980253E-10  0.17130000000E+03  0.17130000000E+03 0.  1.
       11    1    1    2    0    0  0.10235687499E+00  0.17119789833E+00  0.18047053376E+00  0.26898982328E+00  0.51109989000E-03 0.  1.
     -623    1    1    2    0    0 -0.20725416315E+00 -0.17311263665E+00  0.28880357424E+00  0.17130045630E+03  0.17130000000E+03 0.  1.
      622    1    1    2    0    0  0.10489728816E+00  0.19147383208E-02  0.35307258594E+01  0.37305538732E+01  0.12000000000E+01 0.  1.
</event>
<event>
 5   0  0.5136900E+01  0.9118800E+02  0.7818608E-02  0.1180000E+00
       11   -1    0    0    0    0  0.00000000000E+00  0.00000000000E+00  0.39999999673E+01  0.40000000000E+01  0.51109989000E-03 0.  1.
     -623   -1    0    0    0    0  0.00000000000E+00  0.00000000000E+00  0.12525980253E-10  0.17130000000E+03  0.17130000000E+03 0. -1.
       11    1    1    2    0    0 -0.87035244954E-01  0.34014570819E-01  0.23565775331E-01  0.96372879392E-01  0.51109989000E-03 0.  1.
     -623    1    1    2    0    0 -0.34590620545E-01  0.69614434272E-01  0.26550049977E+00  0.17130022339E+03  0.17130000000E+03 0. -1.
      622    1    1    2    0    0  0.12162586550E+00 -0.10362900509E+00  0.37109336923E+01  0.39034037314E+01  0.12000000000E+01 0.  1.
</event>
<event>
 5   0  0.5136900E+01  0.9118800E+02  0.7818608E-02  0.1180000E+00
       11   -1    0    0    0    0  0.00000000000E+00  0.00000000000E+00  0.39999999673E+01  0.40000000000E+01  0.51109989000E-03 0. -1.
     -623   -1    0    0    0    0  0.00000000000E+00  0.00000000000E+00  0.12525980253E-10  0.17130000000E+03  0.17130000000E+03 0.  1.
       11    1    1    2    0    0 -0.75321257657E-01 -0.18336169878E-01  0.17242625274E-01  0.79417103512E-01  0.51109989000E-03 0. -1.
     -623    1    1    2    0    0  0.22853147344E-01  0.87857386295E-01  0.25157159497E+00  0.17130020878E+03  0.17130000000E+03 0.  1.
      622    1    1    2    0    0  0.52468110313E-01 -0.69521216417E-01  0.37311857471E+01  0.39203741125E+01  0.12000000000E+01 0. -1.
</event>
<event>
 5   0  0.5136900E+01  0.9118800E+02  0.7818608E-02  0.1180000E+00
       11   -1    0    0    0    0  0.00000000000E+00  0.00000000000E+00  0.39999999673E+01  0.40000000000E+01  0.51109989000E-03 0.  1.
     -623   -1    0    0    0    0  0.00000000000E+00  0.00000000000E+00  0.12525980253E-10  0.17130000000E+03  0.17130000000E+03 0.  1.
       11    1    1    2    0    0  0.18731667372E+00  0.20786643864E+00  0.70489862754E+00  0.75840512188E+00  0.51109989000E-03 0.  1.
     -623    1    1    2    0    0 -0.21403751777E+00 -0.30485076133E+00  0.28617420522E+00  0.17130064402E+03  0.17130000000E+03 0.  1.
      622    1    1    2    0    0  0.26720844057E-01  0.96984322690E-01  0.30089271346E+01  0.32409508580E+01  0.12000000000E+01 0.  1.
</event>
<event>
 5   0  0.5136900E+01  0.9118800E+02  0.7818608E-02  0.1180000E+00
       11   -1    0    0    0    0  0.00000000000E+00  0.00000000000E+00  0.39999999673E+01  0.40000000000E+01  0.51109989000E-03 0. -1.
     -623   -1    0    0    0    0  0.00000000000E+00  0.00000000000E+00  0.12525980253E-10  0.17130000000E+03  0.17130000000E+03 0. -1.
       11    1    1    2    0    0 -0.72145254277E-01  0.11248299830E-01  0.58509378095E-01  0.93568533768E-01  0.51109989000E-03 0. -1.
     -623    1    1    2    0    0  0.25192474271E+00  0.10579983034E+00  0.23052419785E+00  0.17130037303E+03  0.17130000000E+03 0. -1.
      622    1    1    2    0    0 -0.17977948843E+00 -0.11704813017E+00  0.37109663914E+01  0.39060584337E+01  0.12000000000E+01 0. -1.
</event>
<event>
 5   0  0.5136900E+01  0.9118800E+02  0.7818608E-02  0.1180000E+00
       11   -1    0    0    0    0  0.00000000000E+00  0.00000000000E+00  0.39999999673E+01  0.40000000000E+01  0.51109989000E-03 0. -1.
     -623   -1    0    0    0    0  0.00000000000E+00  0.00000000000E+00  0.12525980253E-10  0.17130000000E+03  0.17130000000E+03 0. -1.
       11    1    1    2    0    0 -0.16128636335E+00 -0.19410974471E+00  0.11029574681E+01  0.11314624703E+01  0.51109989000E-03 0. -1.
     -623    1    1    2    0    0 -0.23172573945E-01  0.18115692236E+00  0.29853064062E+00  0.17130035749E+03  0.17130000000E+03 0. -1.
      622    1    1    2    0    0  0.18445893730E+00  0.12952822351E-01  0.25985118586E+01  0.28681800422E+01  0.12000000000E+01 0.  1.
</event>
<event>
 5   0  0.5136900E+01  0.9118800E+02  0.7818608E-02  0.1180000E+00
       11   -1    0    0    0    0  0.00000000000E+00  0.00000000000E+00  0.39999999673E+01  0.40000000000E+01  0.51109989000E-03 0. -1.
     -623   -1    0    0    0    0  0.00000000000E+00  0.00000000000E+00  0.12525980253E-10  0.17130000000E+03  0.17130000000E+03 0. -1.
       11    1    1    2    0    0 -0.31866093357E-01 -0.92330925511E-01 -0.58617967227E-01  0.11391564869E+00  0.51109989000E-03 0. -1.
     -623    1    1    2    0    0  0.21739467176E+00  0.96854862097E-01  0.36770227679E+00  0.17130055997E+03  0.17130000000E+03 0. -1.
      622    1    1    2    0    0 -0.18552857840E+00 -0.45239365860E-02  0.36909156578E+01  0.38855243806E+01  0.12000000000E+01 0. -1.
</event>
<event>
 5   0  0.5136900E+01  0.9118800E+02  0.7818608E-02  0.1180000E+00
       11   -1    0    0    0    0  0.00000000000E+00  0.00000000000E+00  0.39999999673E+01  0.40000000000E+01  0.51109989000E-03 0.  1.
     -623   -1    0    0    0    0  0.00000000000E+00  0.00000000000E+00  0.12525980253E-10  0.17130000000E+03  0.17130000000E+03 0. -1.
       11    1    1    2    0    0  0.21542585925E+00  0.49112406519E+00  0.85816954889E+00  0.10119616515E+01  0.51109989000E-03 0.  1.
     -623    1    1    2    0    0 -0.17088578774E+00 -0.44774641165E+00  0.40730872709E+00  0.17130115463E+03  0.17130000000E+03 0. -1.
      622    1    1    2    0    0 -0.44540071514E-01 -0.43377653539E-01  0.27345216914E+01  0.29868837137E+01  0.12000000000E+01 0.  0.
</event>
<event>
 5   0  0.5136900E+01  0.9118800E+02  0.7818608E-02  0.1180000E+00
       11   -1    0    0    0    0  0.00000000000E+00  0.00000000000E+00  0.39999999673E+01  0.40000000000E+01  0.51109989000E-03 0. -1.
     -623   -1    0    0    0    0  0.00000000000E+00  0.00000000000E+00  0.12525980253E-10  0.17130000000E+03  0.17130000000E+03 0.  1.
       11    1    1    2    0    0  0.62941836468E-01  0.24956579787E-01  0.34756896310E+00  0.35410302313E+00  0.51109989000E-03 0. -1.
     -623    1    1    2    0    0  0.67938110429E-01 -0.38306496319E+00  0.23149077875E+00  0.17130059820E+03  0.17130000000E+03 0.  1.
      622    1    1    2    0    0 -0.13087994690E+00  0.35810838340E+00  0.34209402255E+01  0.36452987808E+01  0.12000000000E+01 0. -1.
</event>
<event>
 5   0  0.5136900E+01  0.9118800E+02  0.7818608E-02  0.1180000E+00
       11   -1    0    0    0    0  0.00000000000E+00  0.00000000000E+00  0.39999999673E+01  0.40000000000E+01  0.51109989000E-03 0.  1.
     -623   -1    0    0    0    0  0.00000000000E+00  0.00000000000E+00  0.12525980253E-10  0.17130000000E+03  0.17130000000E+03 0. -1.
       11    1    1    2    0    0 -0.98641942508E-01  0.25334188528E-01  0.36446612021E-01  0.10816963844E+00  0.51109989000E-03 0.  1.
     -623    1    1    2    0    0  0.25355378134E-02 -0.79139877293E-01  0.26321612496E+00  0.17130022053E+03  0.17130000000E+03 0. -1.
      622    1    1    2    0    0  0.96106404694E-01  0.53805688766E-01  0.37003372304E+01  0.38916098355E+01  0.12000000000E+01 0.  1.
</event>
<event>
 5   0  0.5136900E+01  0.9118800E+02  0.7818608E-02  0.1180000E+00
       11   -1    0    0    0    0  0.00000000000E+00  0.00000000000E+00  0.39999999673E+01  0.40000000000E+01  0.51109989000E-03 0.  1.
     -623   -1    0    0    0    0  0.00000000000E+00  0.00000000000E+00  0.12525980253E-10  0.17130000000E+03  0.17130000000E+03 0. -1.
       11    1    1    2    0    0 -0.60225484255E-01 -0.68346651396E-01  0.23352359016E+00  0.25066292525E+00  0.51109989000E-03 0.  1.
     -623    1    1    2    0    0 -0.24538996048E+00  0.38544908755E+00  0.24259834879E+00  0.17130078120E+03  0.17130000000E+03 0. -1.
      622    1    1    2    0    0  0.30561544474E+00 -0.31710243615E+00  0.35238780284E+01  0.37485558705E+01  0.12000000000E+01 0.  1.
</event>
<event>
 5   0  0.5136900E+01  0.9118800E+02  0.7818608E-02  0.1180000E+00
       11   -1    0    0    0    0  0.00000000000E+00  0.00000000000E+00  0.39999999673E+01  0.40000000000E+01  0.51109989000E-03 0. -1.
     -623   -1    0    0    0    0  0.00000000000E+00  0.00000000000E+00  0.12525980253E-10  0.17130000000E+03  0.17130000000E+03 0.  1.
       11    1    1    2    0    0  0.99013121082E-01  0.16507656311E-01  0.28875545314E+00  0.30570586158E+00  0.51109989000E-03 0. -1.
     -623    1    1    2    0    0  0.23714849069E+00 -0.22916154314E+00  0.24051113574E+00  0.17130048628E+03  0.17130000000E+03 0.  1.
      622    1    1    2    0    0 -0.33616161177E+00  0.21265388683E+00  0.34707333785E+01  0.36938078577E+01  0.12000000000E+01 0.  0.
</event>
<event>
 5   0  0.5136900E+01  0.9118800E+02  0.7818608E-02  0.1180000E+00
       11   -1    0    0    0    0  0.00000000000E+00  0.00000000000E+00  0.39999999673E+01  0.40000000000E+01  0.51109989000E-03 0. -1.
     -623   -1    0    0    0    0  0.00000000000E+00  0.00000000000E+00  0.12525980253E-10  0.17130000000E+03  0.17130000000E+03 0. -1.
       11    1    1    2    0    0  0.77071232285E-01  0.15173670773E+00  0.55222638942E+00  0.57785659961E+00  0.51109989000E-03 0. -1.
     -623    1    1    2    0    0 -0.17148221689E+00  0.84848029757E-01  0.25337755864E+00  0.17130029424E+03  0.17130000000E+03 0. -1.
      622    1    1    2    0    0  0.94410984607E-01 -0.23658473749E+00  0.31943960193E+01  0.34218491638E+01  0.12000000000E+01 0. -1.
</event>
<event>
 5   0  0.5136900E+01  0.9118800E+02  0.7818608E-02  0.1180000E+00
       11   -1    0    0    0    0  0.00000000000E+00  0.00000000000E+00  0.39999999673E+01  0.40000000000E+01  0.51109989000E-03 0. -1.
     -623   -1    0    0    0    0  0.00000000000E+00  0.00000000000E+00  0.12525980253E-10  0.17130000000E+03  0.17130000000E+03 0.  1.
       11    1    1    2    0    0 -0.15838597732E-01  0.34954819450E-01  0.15198260870E-01  0.41278916379E-01  0.51109989000E-03 0. -1.
     -623    1    1    2    0    0 -0.81950844789E-01 -0.20934741939E+00  0.21794208182E+00  0.17130028617E+03  0.17130000000E+03 0.  1.
      622    1    1    2    0    0  0.97789442521E-01  0.17439259994E+00  0.37668596247E+01  0.39584349162E+01  0.12000000000E+01 0. -1.
</event>
<event>
 5   0  0.5136900E+01  0.9118800E+02  0.7818608E-02  0.1180000E+00
       11   -1    0    0    0    0  0.00000000000E+00  0.00000000000E+00  0.39999999673E+01  0.40000000000E+01  0.51109989000E-03 0.  1.
     -623   -1    0    0    0    0  0.00000000000E+00  0.00000000000E+00  0.12525980253E-10  0.17130000000E+03  0.17130000000E+03 0. -1.
       11    1    1    2    0    0 -0.44320177553E+00  0.99936950005E-02  0.18492450203E+00  0.48033844365E+00  0.51109989000E-03 0.  1.
     -623    1    1    2    0    0  0.13047339281E+00 -0.36787608756E+00  0.54200750710E+00  0.17130130218E+03  0.17130000000E+03 0. -1.
      622    1    1    2    0    0  0.31272838272E+00  0.35788239256E+00  0.32730679582E+01  0.35183593772E+01  0.12000000000E+01 0. -1.
</event>
<event>
 5   0  0.5136900E+01  0.9118800E+02  0.7818608E-02  0.1180000E+00
       11   -1    0    0    0    0  0.00000000000E+00  0.00000000000E+00  0.39999999673E+01  0.40000000000E+01  0.51109989000E-03 0. -1.
     -623   -1    0    0    0    0  0.00000000000E+00  0.00000000000E+00  0.12525980253E-10  0.17130000000E+03  0.17130000000E+03 0. -1.
       11    1    1    2    0    0  0.21993942892E+00  0.10596818634E+00  0.44389488706E+00  0.50660195508E+00  0.51109989000E-03 0. -1.
     -623    1    1    2    0    0 -0.12635073771E+00 -0.15770395450E+00  0.27738693492E+00  0.17130034378E+03  0.17130000000E+03 0. -1.
      622    1    1    2    0    0 -0.93588691205E-01  0.51735768166E-01  0.32787181454E+01  0.34930542666E+01  0.12000000000E+01 0. -1.
</event>
<event>
 5   0  0.5136900E+01  0.9118800E+02  0.7818608E-02  0.1180000E+00
       11   -1    0    0    0    0  0.00000000000E+00  0.00000000000E+00  0.39999999673E+01  0.40000000000E+01  0.51109989000E-03 0. -1.
     -623   -1    0    0    0    0  0.00000000000E+00  0.00000000000E+00  0.12525980253E-10  0.17130000000E+03  0.17130000000E+03 0.  1.
       11    1    1    2    0    0 -0.29199290656E+00  0.11566945710E+00  0.52694474851E+00  0.61344136638E+00  0.51109989000E-03 0. -1.
     -623    1    1    2    0    0 -0.11777062475E-01 -0.37696059976E+00  0.33247672037E+00  0.17130073782E+03  0.17130000000E+03 0.  1.
      622    1    1    2    0    0  0.30376996903E+00  0.26129114265E+00  0.31405784985E+01  0.33858208105E+01  0.12000000000E+01 0. -1.
</event>
<event>
 5   0  0.5136900E+01  0.9118800E+02  0.7818608E-02  0.1180000E+00
       11   -1    0    0    0    0  0.00000000000E+00  0.00000000000E+00  0.39999999673E+01  0.40000000000E+01  0.51109989000E-03 0. -1.
     -623   -1    0    0    0    0  0.00000000000E+00  0.00000000000E+00  0.12525980253E-10  0.17130000000E+03  0.17130000000E+03 0. -1.
       11    1    1    2    0    0 -0.30828054408E-01 -0.53490156575E-02 -0.34733953239E-01  0.46751359742E-01  0.51109989000E-03 0. -1.
     -623    1    1    2    0    0  0.20142096449E+00 -0.83791388320E-01  0.27331068106E+00  0.17130035695E+03  0.17130000000E+03 0. -1.
      622    1    1    2    0    0 -0.17059291008E+00  0.89140403978E-01  0.37614232395E+01  0.39528916934E+01  0.12000000000E+01 0. -1.
</event>
<event>
 5   0  0.5136900E+01  0.9118800E+02  0.7818608E-02  0.1180000E+00
       11   -1    0    0    0    0  0.00000000000E+00  0.00000000000E+00  0.39999999673E+01  0.40000000000E+01  0.51109989000E-03 0. -1.
     -623   -1    0    0    0    0  0.00000000000E+00  0.00000000000E+00  0.12525980253E-10  0.17130000000E+03  0.17130000000E+03 0.  1.
       11    1    1    2    0    0 -0.10694794551E+00  0.18697799950E+00  0.20532425089E+00  0.29758518877E+00  0.51109989000E-03 0. -1.
     -623    1    1    2    0    0  0.14022978178E+00 -0.37793706866E+00  0.29826786317E+00  0.17130073399E+03  0.17130000000E+03 0.  1.
      622    1    1    2    0    0 -0.33281836269E-01  0.19095906917E+00  0.34964078533E+01  0.37016808241E+01  0.12000000000E+01 0. -1.
</event>
<event>
 5   0  0.5136900E+01  0.9118800E+02  0.7818608E-02  0.1180000E+00
       11   -1    0    0    0    0  0.00000000000E+00  0.00000000000E+00  0.39999999673E+01  0.40000000000E+01  0.51109989000E-03 0. -1.
     -623   -1    0    0    0    0  0.00000000000E+00  0.00000000000E+00  0.12525980253E-10  0.17130000000E+03  0.17130000000E+03 0. -1.
       11    1    1    2    0    0 -0.28128794047E-02  0.43025289677E-01  0.21709682752E-01  0.48276903273E-01  0.51109989000E-03 0. -1.
     -623    1    1    2    0    0  0.15917935584E+00 -0.32689703960E-01  0.21665950611E+00  0.17130021409E+03  0.17130000000E+03 0. -1.
      622    1    1    2    0    0 -0.15636647643E+00 -0.10335585717E-01  0.37616307785E+01  0.39515090046E+01  0.12000000000E+01 0. -1.
</event>
<event>
 5   0  0.5136900E+01  0.9118800E+02  0.7818608E-02  0.1180000E+00
       11   -1    0    0    0    0  0.00000000000E+00  0.00000000000E+00  0.39999999673E+01  0.40000000000E+01  0.51109989000E-03 0. -1.
     -623   -1    0    0    0    0  0.00000000000E+00  0.00000000000E+00  0.12525980253E-10  0.17130000000E+03  0.17130000000E+03 0. -1.
       11    1    1    2    0    0 -0.12568843968E+00 -0.31855527330E+00  0.17648612819E+00  0.38525661667E+00  0.51109989000E-03 0. -1.
     -623    1    1    2    0    0 -0.82135843608E-01  0.25334103229E+00  0.42150256923E+00  0.17130072560E+03  0.17130000000E+03 0. -1.
      622    1    1    2    0    0  0.20782428329E+00  0.65214241011E-01  0.34020112699E+01  0.36140177795E+01  0.12000000000E+01 0. -1.
</event>
</LesHouchesEvents>
