<LesHouchesEvents version="1.0">
<header>
<!--
#*********************************************************************
#                                                                    *
#                       MadGraph/MadEvent                            *
#                                                                    *
#                      The new web generation                        *
#                                                                    *
#                   http://madgraph.hep.uiuc.edu                     *
#                   http://madgraph.phys.ucl.ac.be                   *
#                   http://madgraph.roma2.infn.it                    *
#                                                                    *
#            CP3 team                      Tim Stelzer               *
#      Universite de Louvain          University of Illinois         *
#                                                                    *
#....................................................................*
#                                                                    *
# This file contains all the information necessary to reproduce      *
# the events generated:                                              *
#                                                                    *
# 1. software version                                                *
# 2. proc_card.dat      : code generation info including model       *
# 3. param_card.dat     : model primary parameters in the LH format  *
# 4. run_card.dat       : running parameters (collider and cuts)     *
# 5. pythia_card.dat    : present only in the pythia event file      *
# 6. pgs_card.dat       : present only in the pgs event file         *
#                                                                    *
#                                                                    *
#*********************************************************************
-->
<MGVersion>
# MG/ME version    : 4.4.17
# madgraph version : 4.4.2
# template version : 2.4.8
# helas version    : 3.5
# model version    : usrmod_1.0.4
</MGVersion>
<MGProcCard>
#*********************************************************************
#                        MadGraph/MadEvent                           *
#                   http://madgraph.hep.uiuc.edu                     *
#                                                                    *
#                          proc_card.dat                             *
#                                                                    *
# This file is used to generate the code for a specific process.     *
# Some notation/conventions:                                         *
#                                                                    *
# 0. Do not modify the TAGS and their order.                         *
# 1. hash/pound is a comment.                                        *
# 2. The number after the @ is used as an identifier for the class   *
#    of processes. It can be any positive integer.                   *
# 3. The number of lines for the max couplings depends on how many   *
#    different classes of couplings are present in the model         *
#    In the SM these are just two: QED (which include EW) and QCD    *
# 4. Write "end_coup" after  the couplings list,                     *
#    to tell MG that the couplings input is over.                    *
# 5. Write "done" after the proc list to                             *
#    to tell MG that the proc input is over.                         *
# 6. Some model names available at present are:                      *
#    sm     =  Standard Model                                        *
#    smckm =  Standard Model with Cabibbo matrix                     *
#    mssm   =  Minimal Supersymmetric Standard Model                 *
#    2hdm   =  Generic Two Higgs Doublet model                       *
#    heft   =  Higgs EFT (+Standard Model)                           *
#    usrmod =  User Model                                            *
# 7. Don't leave spaces between the particles name in the            *
#    definition of the multiparticles.                               *
#*********************************************************************
#*********************************************************************
# Process(es) requested : mg2 input                                  *
#*********************************************************************
# Begin PROCESS # This is TAG. Do not modify this line
e- N+ > e- N+ x      # Radiative
QCD=0             # Max QCD couplings
QED=1             # Max QED couplings
QFD=0 
QND=1
QWD=9
QDS=2
end_coup           # End the couplings input
done               # this tells MG there are no more procs
# End PROCESS  # This is TAG. Do not modify this line
#*********************************************************************
# Model information                                                  *
#*********************************************************************
# Begin MODEL  # This is TAG. Do not modify this line
fixedAP2     
# End   MODEL  # This is TAG. Do not modify this line
#*********************************************************************
# Start multiparticle definitions                                    *
#*********************************************************************
# Begin MULTIPARTICLES # This is TAG. Do not modify this line
P uu~cc~dd~ss~gf+f-
J uu~cc~dd~ss~gf+f-
L+ e+mu+
L- e-mu-
vl vevm
vl~ ve~vm~
# End  MULTIPARTICLES # This is TAG. Do not modify this line
</MGProcCard>
<slha>
#*********************************************************************
#                        MadGraph/MadEvent                           *
#                   http://madgraph.hep.uiuc.edu                     *
#                                                                    *
#                         param_card.dat                             *
#                                                                    *
#   Les Houches friendly file for the SM parameters of MadGraph      *
#        Spectrum and decay widths produced by SMCalc                *
#                                                                    *
#  Please note the following IMPORTANT issues:                       *
#                                                                    *
# 0. REFRAIN from editing this file by hand! Some of the parame-     *
#    ters are not independent                                        *
#    (such as G_Fermi, alpha_em, sin(theta_W),MZ,MW) and serious     *
#    problems might be encountered (such as violation of unitarity   *
#    or gauge invariance).  Always use a calculator.                 *
#                                                                    *
# 1. alpha_S(MZ) has been used in the calculation of the parameters  *
#    but, for consistency, it will be reset by madgraph to the       *
#    value expected IF the pdfs for collisions with hadrons are      *
#    used. This value is KEPT by madgraph when no pdf are used       *
#    lpp(i)=0 .                                                      *
#                                                                    *
#  2. Values of the charm and bottom kinematic (pole) masses are     *
#     those used in the matrix elements and phase space UNLESS they  *
#     are set to ZERO from the start in the model (particles.dat)    *
#     This happens, for example,  when using 5-flavor QCD where      *
#     charm and bottom are treated as partons in the initial state   *
#     and a zero mass might be hardwired in the model definition.    *
#                                                                    *
##********************************************************************
Block MODSEL # Select Model
     0   1   #  0 1 = SM
Block SMINPUTS      # Standard Model inputs
     1         1.27900000E+02   # alpha_em(MZ)(-1) SM MSbar
     2         1.16600000E-05   # G_Fermi
     3         1.18000000E-01   # alpha_s(MZ) SM MSbar
     4         9.15445065E+01   # Z mass (as input parameter)
Block MGYUKAWA     # Yukawa masses m/v=y/sqrt(2)
#    PDG          YMASS
     5         4.20000000E+00   # mbottom for the Yukawa  y_b
     4         1.25000000E+00   # mcharm  for the Yukawa  y_c
     6         1.74300000E+02   # mtop    for the Yukawa  y_t
    15         1.77700000E+00   # mtau    for the Yukawa  y_ta
Block MGCKM     # CKM elements for MadGraph
     1   1     9.75000000E-01   # Vud for Cabibbo matrix
#===========================================================
# QUANTUM NUMBERS OF NEW STATE(S) (NON SM PDG CODE) IF ANY
# (see below for masses and decay tables)
# These blocks are automatically created by the MadGraph
# qnumbers.pl script from the particles.dat model file
#===========================================================
BLOCK QNUMBERS 611 # f-
         1  -3 # 3 times electric charge
         2  2 # number of spin states (2S+1)
         3  1 # colour rep (1: singlet, 3: triplet, 8: octet)
         4  1 # Particle/Antiparticle distinction (0=own anti)
BLOCK QNUMBERS 622 # x
         1  0 # 3 times electric charge
         2  3 # number of spin states (2S+1)
         3  1 # colour rep (1: singlet, 3: triplet, 8: octet)
         4  0 # Particle/Antiparticle distinction (0=own anti)
BLOCK QNUMBERS 623 # N-
         1  0 # 3 times electric charge
         2  2 # number of spin states (2S+1)
         3  1 # colour rep (1: singlet, 3: triplet, 8: octet)
         4  1 # Particle/Antiparticle distinction (0=own anti)
# END of QNUMBERS blocks
#===========================================================
Block MASS      #  Mass spectrum (kinematic masses)
#       PDG       Mass
         4     1.40000000E+00   # charm    pole mass
         5     4.20000000E+00   # bottom   pole mass
         6     1.74300000E+02   # top      pole mass
        11     0.51109989E-03   # electron mass
        13     0.10565837E+00   # muon     mass
        15     1.77700000E+00   # tau      mass
        23     9.15445065E+01   # Z        mass
        24     8.02673592E+01   # W        mass
        25     1.20000000E+02   # H        mass
       611 0.025 # FMASS
       622 0.075 # APMASS
       623     1.71300000e+02   # HPMASS (tungsten)
#            PDG       Width
DECAY       611     0.00000000e+00   # ELWIDTH
DECAY 622 0.00227747664375 # APWIDTH
DECAY       623     0.00000000e+00   # HPWIDTH
DECAY         6     1.51013490E+00   # top width
DECAY        23     2.44639985E+00   # Z   width
DECAY        24     2.03535570E+00   # W   width
DECAY        25     6.79485838E-03   # H   width
#        BR           NDA        ID1       ID2
     7.00588389E-02    2           4        -4   # BR( H -> c  cbar  )
     7.61074375E-01    2           5        -5   # BR( H -> b  bbar  )
     0.00000000E+00    2           6        -6   # BR( H -> t  tbar  )
     3.65529942E-02    2          15       -15   # BR( H -> tau- tau+)
     5.84716539E-03    2          23        23   # BR( H -> Z   Z^(*))
     6.31545979E-02    2          24       -24   # BR( H -> W   W^(*))
     2.55499652E-02    2          21        21   # BR( H -> g   g    )
     1.20906932E-03    2          22        22   # BR( H -> A   A    )
BLOCK MGUSER
         1     1.00000000e-00   # epsilon ,mixing coefficient
         2     74.0000000e+00   # Znuc    ,nuclear charge
</slha>
<MGRunCard>
#*********************************************************************
#                       MadGraph/MadEvent                            *
#                  http://madgraph.hep.uiuc.edu                      *
#                                                                    *
#                        run_card.dat                                *
#                                                                    *
#  This file is used to set the parameters of the run.               *
#                                                                    *
#  Some notation/conventions:                                        *
#                                                                    *
#   Lines starting with a '# ' are info or comments                  *
#                                                                    *
#   mind the format:   value    = variable     ! comment             *
#*********************************************************************
#
#*******************                                                 
# Running parameters
#*******************                                                 
#                                                                    
#*********************************************************************
# Tag name for the run (one word)                                    *
#*********************************************************************
  'HPS'     = run_tag ! name of the run 
#*********************************************************************
# Run to generate the grid pack                                      *
#*********************************************************************
  .false.     = gridpack  !True = setting up the grid pack
#*********************************************************************
# Number of events and rnd seed                                      *
#*********************************************************************
   1000      = nevents ! Number of unweighted events requested 
188710 = iseed ! rnd seed (0=assigned automatically=default))
#*********************************************************************
# Collider type and energy                                           *
#*********************************************************************
        0     = lpp1  ! beam 1 type (0=NO PDF)
        0     = lpp2  ! beam 2 type (0=NO PDF)
4 = ebeam1  ! beam 1 energy in GeV
    171.3    = ebeam2  ! beam 2 energy in GeV
    0.000511  = mbeam1  ! beam 1 energy in GeV
    171.3    = mbeam2  ! beam 2 energy in GeV
#*********************************************************************
# Beam polarization from -100 (left-handed) to 100 (right-handed)    *
#*********************************************************************
        0     = polbeam1 ! beam polarization for beam 1
        0     = polbeam2 ! beam polarization for beam 2
#*********************************************************************
# PDF CHOICE: this automatically fixes also alpha_s and its evol.    *
#*********************************************************************
 'cteq6l1'    = pdlabel     ! PDF set                                     
#*********************************************************************
# Renormalization and factorization scales                           *
#*********************************************************************
 F        = fixed_ren_scale  ! if .true. use fixed ren scale
 F        = fixed_fac_scale  ! if .true. use fixed fac scale
 91.1880  = scale            ! fixed ren scale
 91.1880  = dsqrt_q2fact1    ! fixed fact scale for pdf1
 91.1880  = dsqrt_q2fact2    ! fixed fact scale for pdf2
 1        = scalefact        ! scale factor for event-by-event scales
 F        = fixed_couplings  ! if .false. calc. coupl. for every event
#*********************************************************************
# Matching - Warning! ickkw > 0 is still beta
#*********************************************************************
 0        = ickkw            ! 0 no matching, 1 MLM, 2 CKKW matching
#*********************************************************************
#                                                                    
#**********************************
32.9311829414 = bwcutoff*Gamma)
#**********************************
32.9311829414 = bwcutoff
#*******************                                                 
# Fixed-Target Cuts
#*******************                                                 
#
 0.0 = ef        ! minimum E for all f's
 100.0 = efmax     ! maximum E for all f's
 0.0 = thetafmin ! min angle for both f's
 100.0 = thetafmax ! max angle for both f's
 0.0 = thetaxfmin ! min angle (x direction) for both f's
 100.0 = thetaxfmax ! max angle (x direction) for both f's 
 0.0 = thetayfmin ! min angle (y direction) for both f's
 100.0 = thetayfmax ! max angle (y direction) for both f's 
 0.0 = xthetaxfmin ! min angle (x direction) for >=1 f's
 100.0 = xthetaxfmax ! max angle (x direction) for >=1 f's 
 0.0 = xthetayfmin ! min angle (y direction) for >=1 f's
 100.0 = xthetayfmax ! max angle (y direction) for >=1 f's 
 0.0 = mmff      ! min invariant mass of f+f- lepton pair
 100.0 = mmffmax  ! max invariant mass of f+f- lepton pair
 0.0 = xef       ! min. energy for at least one f
 0.0 = xthetaf   ! minimum angle for at least one f
 0.0 = eftot     ! minimum energy for the two f's
 0d0 = efrat     ! min. ratio Emin/Emax for the two f's
 0.0  = el     !!! 0.2 = el  !!! was 0.05 with normal cuts! minimum E for the charged leptons 
 0.0  = drll  !!! was 0.1  ! min distance between leptons 
 0.0  = mmll    ! min invariant mass of l+l- (same flavour) lepton pair
#
#*******************                                                 
# Standard Cuts
#*******************                                                 
#                                                                    
#*********************************************************************
# Minimum and maximum pt's                                           *
#*********************************************************************
  0  = ptj       ! minimum pt for the jets 
  0  = ptb       ! minimum pt for the b 
  0  = pta       ! minimum pt for the photons 
  0  = ptl       ! minimum pt for the charged leptons 
  0  = misset    ! minimum missing Et (sum of neutrino's momenta)
  0  = ptheavy   ! minimum pt for one heavy final state
 1.0 = ptonium   ! minimum pt for the quarkonium states
 1d5 = ptjmax    ! maximum pt for the jets
 1d5 = ptbmax    ! maximum pt for the b
 1d5 = ptamax    ! maximum pt for the photons
 1d9 = ptlmax    ! maximum pt for the charged leptons
 1d9 = missetmax ! maximum missing Et (sum of neutrino's momenta)
#*********************************************************************
# Minimum and maximum E's (in the lab frame)                         *
#*********************************************************************
  0  = ej     ! minimum E for the jets 
  0  = eb     ! minimum E for the b 
  0  = ea     ! minimum E for the photons 
 1d5  = ejmax ! maximum E for the jets
 1d5  = ebmax ! maximum E for the b
 1d5  = eamax ! maximum E for the photons
 1.2  = elmax ! maximum E for the charged leptons
#*********************************************************************
# Maximum and minimum rapidity                                       *
#*********************************************************************
 1d5  = etaj    ! max rap for the jets 
 1d5  = etab    ! max rap for the b 
 1d5  = etaa    ! max rap for the photons 
 1d5  = etal     !!! 1(2) wth cuts ! max rap for the charged leptons 
 1d5  = etafl     !!! 0(1) wth cuts ! max rap for the charged leptons 
 0.0  = etaonium ! max rap for the quarkonium states
 0d0  = etajmin ! min rap for the jets
 0d0  = etabmin ! min rap for the b
 0d0  = etaamin ! min rap for the photons
 0d0  = etalmin ! main rap for the charged lepton
#*********************************************************************
# Minimum and maximum DeltaR distance                                *
#*********************************************************************
 0   = drjj    ! min distance between jets 
 0   = drbb    ! min distance between b's 
 0   = draa    ! min distance between gammas 
 0   = drbj    ! min distance between b and jet 
 0   = draj    ! min distance between gamma and jet 
 0   = drjl    ! min distance between jet and lepton 
 0   = drab    ! min distance between gamma and b 
 0   = drbl    ! min distance between b and lepton 
 0   = dral    ! min distance between gamma and lepton 
 1d2 = drjjmax ! max distance between jets
 1d2 = drbbmax ! max distance between b's
 1d9 = drllmax ! max distance between leptons
 1d2 = draamax ! max distance between gammas
 1d2 = drbjmax ! max distance between b and jet
 1d2 = drajmax ! max distance between gamma and jet
 1d2 = drjlmax ! max distance between jet and lepton
 1d2 = drabmax ! max distance between gamma and b
 1d2 = drblmax ! max distance between b and lepton
 1d2 = dralmax ! maxdistance between gamma and lepton
#*********************************************************************
# Minimum and maximum invariant mass for pairs                       *
#*********************************************************************
 0   = mmjj    ! min invariant mass of a jet pair 
 0   = mmbb    ! min invariant mass of a b pair 
 0   = mmaa    ! min invariant mass of gamma gamma pair
 1d5 = mmjjmax ! max invariant mass of a jet pair
 1d5 = mmbbmax ! max invariant mass of a b pair
 1d5 = mmaamax ! max invariant mass of gamma gamma pair
 1d5 = mmllmax ! max invariant mass of l+l- (same flavour) lepton pair
#*********************************************************************
# Minimum and maximum invariant mass for all letpons                 *
#*********************************************************************
 0   = mmnl    ! min invariant mass for all letpons (l+- and vl) 
 1d9 = mmnlmax ! max invariant mass for all letpons (l+- and vl) 
#*********************************************************************
# Inclusive cuts                                                     *
#*********************************************************************
 0  = xptj ! minimum pt for at least one jet  
 0  = xptb ! minimum pt for at least one b 
 0  = xpta ! minimum pt for at least one photon 
 0  = xptl ! minimum pt for at least one charged lepton 
#*********************************************************************
# Control the pt's of the jets sorted by pt                          *
#*********************************************************************
 0   = ptj1min ! minimum pt for the leading jet in pt
 0   = ptj2min ! minimum pt for the second jet in pt
 0   = ptj3min ! minimum pt for the third jet in pt
 0   = ptj4min ! minimum pt for the fourth jet in pt
 1d5 = ptj1max ! maximum pt for the leading jet in pt 
 1d5 = ptj2max ! maximum pt for the second jet in pt
 1d5 = ptj3max ! maximum pt for the third jet in pt
 1d5 = ptj4max ! maximum pt for the fourth jet in pt
 0   = cutuse  ! reject event if fails any (0) / all (1) jet pt cuts
#*********************************************************************
# Control the Ht(k)=Sum of k leading jets                            *
#*********************************************************************
 0   = htjmin ! minimum jet HT=Sum(jet pt)
 1d5 = htjmax ! maximum jet HT=Sum(jet pt)
 0   = ht2min ! minimum Ht for the two leading jets
 0   = ht3min ! minimum Ht for the three leading jets
 0   = ht4min ! minimum Ht for the four leading jets
 1d5 = ht2max ! maximum Ht for the two leading jets
 1d5 = ht3max ! maximum Ht for the three leading jets
 1d5 = ht4max ! maximum Ht for the four leading jets
#*********************************************************************
# WBF cuts                                                           *
#*********************************************************************
 0   = xetamin ! minimum rapidity for two jets in the WBF case  
 0   = deltaeta ! minimum rapidity for two jets in the WBF case 
#*********************************************************************
# maximal pdg code for quark to be considered as a jet               *
# otherwise b cuts are applied                                       *
#*********************************************************************
 4 = maxjetflavor
#*********************************************************************
# Jet measure cuts                                                   *
#*********************************************************************
 0   = xqcut   ! minimum kt jet measure between partons
#*********************************************************************
</MGRunCard>
<MGGenerationInfo>
#  Number of Events        :        1000
#  Integrated weight (pb)  :  .52372E+10
#  Truncated wgt (pb)      :  .13511E+08
#  Unit wgt                :  .52372E+07
</MGGenerationInfo>
</header>
<init>
       11     -623  0.40000000000E+01  0.17130000000E+03 0 0     0     0 3  1
  0.52367451970E+10  0.53702336037E+08  0.52372000000E+07   0
</init>
<event>
 5   0  0.5237200E+07  0.9118800E+02  0.7818608E-02  0.1180000E+00
       11   -1    0    0    0    0  0.00000000000E+00  0.00000000000E+00  0.39999999673E+01  0.40000000000E+01  0.51109989000E-03 0.  1.
     -623   -1    0    0    0    0  0.00000000000E+00  0.00000000000E+00  0.12525980253E-10  0.17130000000E+03  0.17130000000E+03 0. -1.
       11    1    1    2    0    0  0.19577727020E-01  0.15113547932E-02  0.24178088575E+00  0.24257747118E+00  0.51109989000E-03 0.  1.
     -623    1    1    2    0    0  0.14356674665E-02 -0.18800851776E-02  0.16039586324E-02  0.17130000002E+03  0.17130000000E+03 0. -1.
      622    1    1    2    0    0 -0.21013394487E-01  0.36873038441E-03  0.37566151230E+01  0.37574225050E+01  0.75000000000E-01 0.  1.
</event>
<event>
 5   0  0.5237200E+07  0.9118800E+02  0.7818608E-02  0.1180000E+00
       11   -1    0    0    0    0  0.00000000000E+00  0.00000000000E+00  0.39999999673E+01  0.40000000000E+01  0.51109989000E-03 0.  1.
     -623   -1    0    0    0    0  0.00000000000E+00  0.00000000000E+00  0.12525980253E-10  0.17130000000E+03  0.17130000000E+03 0. -1.
       11    1    1    2    0    0  0.42482048894E-02 -0.43101958096E-02  0.41724304314E-02  0.73685433519E-02  0.51109989000E-03 0.  1.
     -623    1    1    2    0    0  0.16854754503E-05  0.44525948605E-02  0.39029322256E-02  0.17130000010E+03  0.17130000000E+03 0. -1.
      622    1    1    2    0    0 -0.42498903649E-02 -0.14239905084E-03  0.39919246047E+01  0.39926313543E+01  0.75000000000E-01 0.  1.
</event>
<event>
 5   0  0.5237200E+07  0.9118800E+02  0.7818608E-02  0.1180000E+00
       11   -1    0    0    0    0  0.00000000000E+00  0.00000000000E+00  0.39999999673E+01  0.40000000000E+01  0.51109989000E-03 0.  1.
     -623   -1    0    0    0    0  0.00000000000E+00  0.00000000000E+00  0.12525980253E-10  0.17130000000E+03  0.17130000000E+03 0.  1.
       11    1    1    2    0    0 -0.23663118191E-01  0.85769199035E-01  0.11674276740E+01  0.11708133642E+01  0.51109989000E-03 0.  1.
     -623    1    1    2    0    0  0.15518487210E-01 -0.29187331681E-01  0.49609828525E-02  0.17130000326E+03  0.17130000000E+03 0.  1.
      622    1    1    2    0    0  0.81446309808E-02 -0.56581867354E-01  0.28276113105E+01  0.28291833744E+01  0.75000000000E-01 0.  0.
</event>
<event>
 5   0  0.5237200E+07  0.9118800E+02  0.7818608E-02  0.1180000E+00
       11   -1    0    0    0    0  0.00000000000E+00  0.00000000000E+00  0.39999999673E+01  0.40000000000E+01  0.51109989000E-03 0.  1.
     -623   -1    0    0    0    0  0.00000000000E+00  0.00000000000E+00  0.12525980253E-10  0.17130000000E+03  0.17130000000E+03 0.  1.
       11    1    1    2    0    0  0.11401724751E-03 -0.35748922194E-02  0.12413410396E+00  0.12418667336E+00  0.51109989000E-03 0.  1.
     -623    1    1    2    0    0  0.52543282739E-02  0.35122808876E-04  0.78367649973E-03  0.17130000008E+03  0.17130000000E+03 0.  1.
      622    1    1    2    0    0 -0.53683455214E-02  0.35397694105E-02  0.38750821869E+01  0.38758132443E+01  0.75000000000E-01 0.  1.
</event>
<event>
 5   0  0.5237200E+07  0.9118800E+02  0.7818608E-02  0.1180000E+00
       11   -1    0    0    0    0  0.00000000000E+00  0.00000000000E+00  0.39999999673E+01  0.40000000000E+01  0.51109989000E-03 0.  1.
     -623   -1    0    0    0    0  0.00000000000E+00  0.00000000000E+00  0.12525980253E-10  0.17130000000E+03  0.17130000000E+03 0.  1.
       11    1    1    2    0    0  0.23387919696E-02  0.75230622015E-02  0.41391841560E+00  0.41399369852E+00  0.51109989000E-03 0.  1.
     -623    1    1    2    0    0 -0.22155526621E-02 -0.28724922251E-02  0.86269369221E-03  0.17130000004E+03  0.17130000000E+03 0.  1.
      622    1    1    2    0    0 -0.12323930742E-03 -0.46505699763E-02  0.35852188582E+01  0.35860062610E+01  0.75000000000E-01 0.  0.
</event>
<event>
 5   0  0.5237200E+07  0.9118800E+02  0.7818608E-02  0.1180000E+00
       11   -1    0    0    0    0  0.00000000000E+00  0.00000000000E+00  0.39999999673E+01  0.40000000000E+01  0.51109989000E-03 0.  1.
     -623   -1    0    0    0    0  0.00000000000E+00  0.00000000000E+00  0.12525980253E-10  0.17130000000E+03  0.17130000000E+03 0. -1.
       11    1    1    2    0    0  0.44075673947E-03 -0.14123553048E-03  0.16144976946E-02  0.17555739465E-02  0.51109989000E-03 0.  1.
     -623    1    1    2    0    0 -0.12846436396E-02 -0.32229023282E-03  0.84466238501E-03  0.17130000001E+03  0.17130000000E+03 0. -1.
      622    1    1    2    0    0  0.84388690019E-03  0.46352576333E-03  0.39975408076E+01  0.39982444192E+01  0.75000000000E-01 0.  1.
</event>
<event>
 5   0  0.5237200E+07  0.9118800E+02  0.7818608E-02  0.1180000E+00
       11   -1    0    0    0    0  0.00000000000E+00  0.00000000000E+00  0.39999999673E+01  0.40000000000E+01  0.51109989000E-03 0. -1.
     -623   -1    0    0    0    0  0.00000000000E+00  0.00000000000E+00  0.12525980253E-10  0.17130000000E+03  0.17130000000E+03 0.  1.
       11    1    1    2    0    0 -0.37793626415E-02 -0.29730386646E-02  0.52421543453E-01  0.52644106783E-01  0.51109989000E-03 0. -1.
     -623    1    1    2    0    0  0.20656397898E-02  0.31945923811E-02  0.93552035921E-03  0.17130000004E+03  0.17130000000E+03 0.  1.
      622    1    1    2    0    0  0.17137228517E-02 -0.22155371655E-03  0.39466429035E+01  0.39473558484E+01  0.75000000000E-01 0. -1.
</event>
<event>
 5   0  0.5237200E+07  0.9118800E+02  0.7818608E-02  0.1180000E+00
       11   -1    0    0    0    0  0.00000000000E+00  0.00000000000E+00  0.39999999673E+01  0.40000000000E+01  0.51109989000E-03 0.  1.
     -623   -1    0    0    0    0  0.00000000000E+00  0.00000000000E+00  0.12525980253E-10  0.17130000000E+03  0.17130000000E+03 0.  1.
       11    1    1    2    0    0  0.24249909280E-02  0.80431049514E-02  0.51213875933E+00  0.51220790910E+00  0.51109989000E-03 0.  1.
     -623    1    1    2    0    0 -0.13424321977E-01  0.20673544615E-01  0.10129684510E-02  0.17130000178E+03  0.17130000000E+03 0.  1.
      622    1    1    2    0    0  0.10999331049E-01 -0.28716649566E-01  0.34868482396E+01  0.34877903144E+01  0.75000000000E-01 0.  1.
</event>
<event>
 5   0  0.5237200E+07  0.9118800E+02  0.7818608E-02  0.1180000E+00
       11   -1    0    0    0    0  0.00000000000E+00  0.00000000000E+00  0.39999999673E+01  0.40000000000E+01  0.51109989000E-03 0. -1.
     -623   -1    0    0    0    0  0.00000000000E+00  0.00000000000E+00  0.12525980253E-10  0.17130000000E+03  0.17130000000E+03 0. -1.
       11    1    1    2    0    0  0.57764992959E-02  0.28833192629E-01  0.30934166289E+00  0.31073661928E+00  0.51109989000E-03 0. -1.
     -623    1    1    2    0    0 -0.11473413929E-01  0.17886504809E-01  0.24589807092E-02  0.17130000134E+03  0.17130000000E+03 0. -1.
      622    1    1    2    0    0  0.56969146333E-02 -0.46719697439E-01  0.36881993239E+01  0.36892620452E+01  0.75000000000E-01 0. -1.
</event>
<event>
 5   0  0.5237200E+07  0.9118800E+02  0.7818608E-02  0.1180000E+00
       11   -1    0    0    0    0  0.00000000000E+00  0.00000000000E+00  0.39999999673E+01  0.40000000000E+01  0.51109989000E-03 0. -1.
     -623   -1    0    0    0    0  0.00000000000E+00  0.00000000000E+00  0.12525980253E-10  0.17130000000E+03  0.17130000000E+03 0. -1.
       11    1    1    2    0    0 -0.71239695334E-02  0.21025820980E-01  0.24628089013E+00  0.24727995098E+00  0.51109989000E-03 0. -1.
     -623    1    1    2    0    0 -0.24994694991E-02 -0.37176392691E-02  0.18008915644E-02  0.17130000007E+03  0.17130000000E+03 0. -1.
      622    1    1    2    0    0  0.96234390326E-02 -0.17308181711E-01  0.37519181857E+01  0.37527199810E+01  0.75000000000E-01 0. -1.
</event>
<event>
 5   0  0.5237200E+07  0.9118800E+02  0.7818608E-02  0.1180000E+00
       11   -1    0    0    0    0  0.00000000000E+00  0.00000000000E+00  0.39999999673E+01  0.40000000000E+01  0.51109989000E-03 0. -1.
     -623   -1    0    0    0    0  0.00000000000E+00  0.00000000000E+00  0.12525980253E-10  0.17130000000E+03  0.17130000000E+03 0.  1.
       11    1    1    2    0    0 -0.28787809689E-03  0.70046701542E-02  0.12072169648E-01  0.13969494585E-01  0.51109989000E-03 0. -1.
     -623    1    1    2    0    0 -0.66220646563E-03 -0.72232617815E-03  0.26080314980E-02  0.17130000002E+03  0.17130000000E+03 0.  1.
      622    1    1    2    0    0  0.95008456253E-03 -0.62823439760E-02  0.39853197662E+01  0.39860304828E+01  0.75000000000E-01 0. -1.
</event>
<event>
 5   0  0.5237200E+07  0.9118800E+02  0.7818608E-02  0.1180000E+00
       11   -1    0    0    0    0  0.00000000000E+00  0.00000000000E+00  0.39999999673E+01  0.40000000000E+01  0.51109989000E-03 0.  1.
     -623   -1    0    0    0    0  0.00000000000E+00  0.00000000000E+00  0.12525980253E-10  0.17130000000E+03  0.17130000000E+03 0. -1.
       11    1    1    2    0    0  0.12815368271E-02 -0.18060303974E-02  0.76395205814E-01  0.76429004815E-01  0.51109989000E-03 0.  1.
     -623    1    1    2    0    0  0.99394532846E-03  0.10812115194E-02  0.75138820332E-03  0.17130000001E+03  0.17130000000E+03 0. -1.
      622    1    1    2    0    0 -0.22754821555E-02  0.72481887805E-03  0.39228533732E+01  0.39235709871E+01  0.75000000000E-01 0.  1.
</event>
<event>
 5   0  0.5237200E+07  0.9118800E+02  0.7818608E-02  0.1180000E+00
       11   -1    0    0    0    0  0.00000000000E+00  0.00000000000E+00  0.39999999673E+01  0.40000000000E+01  0.51109989000E-03 0.  1.
     -623   -1    0    0    0    0  0.00000000000E+00  0.00000000000E+00  0.12525980253E-10  0.17130000000E+03  0.17130000000E+03 0.  1.
       11    1    1    2    0    0  0.76066216682E-02  0.25272889026E-02  0.17707362976E+00  0.17725568951E+00  0.51109989000E-03 0.  1.
     -623    1    1    2    0    0 -0.97461021277E-03  0.16250289566E-02  0.92584847834E-03  0.17130000001E+03  0.17130000000E+03 0.  1.
      622    1    1    2    0    0 -0.66320114554E-02 -0.41523178591E-02  0.38220004890E+01  0.38227442974E+01  0.75000000000E-01 0.  1.
</event>
<event>
 5   0  0.5237200E+07  0.9118800E+02  0.7818608E-02  0.1180000E+00
       11   -1    0    0    0    0  0.00000000000E+00  0.00000000000E+00  0.39999999673E+01  0.40000000000E+01  0.51109989000E-03 0.  1.
     -623   -1    0    0    0    0  0.00000000000E+00  0.00000000000E+00  0.12525980253E-10  0.17130000000E+03  0.17130000000E+03 0. -1.
       11    1    1    2    0    0 -0.41178181355E-01  0.93551267232E-02  0.61258558986E+00  0.61403951595E+00  0.51109989000E-03 0.  1.
     -623    1    1    2    0    0  0.77335991075E-01 -0.73834130394E-01  0.31253378311E-02  0.17130003340E+03  0.17130000000E+03 0. -1.
      622    1    1    2    0    0 -0.36157809721E-01  0.64479003671E-01  0.33842890397E+01  0.33859270862E+01  0.75000000000E-01 0.  1.
</event>
<event>
 5   0  0.5237200E+07  0.9118800E+02  0.7818608E-02  0.1180000E+00
       11   -1    0    0    0    0  0.00000000000E+00  0.00000000000E+00  0.39999999673E+01  0.40000000000E+01  0.51109989000E-03 0. -1.
     -623   -1    0    0    0    0  0.00000000000E+00  0.00000000000E+00  0.12525980253E-10  0.17130000000E+03  0.17130000000E+03 0. -1.
       11    1    1    2    0    0  0.99455988275E-02  0.12065448622E-01  0.11500830844E+00  0.11606748993E+00  0.51109989000E-03 0. -1.
     -623    1    1    2    0    0 -0.15312189038E-01  0.18198464701E-02  0.18125907490E-02  0.17130000070E+03  0.17130000000E+03 0. -1.
      622    1    1    2    0    0  0.53665902105E-02 -0.13885295092E-01  0.38831790682E+01  0.38839318065E+01  0.75000000000E-01 0. -1.
</event>
<event>
 5   0  0.5237200E+07  0.9118800E+02  0.7818608E-02  0.1180000E+00
       11   -1    0    0    0    0  0.00000000000E+00  0.00000000000E+00  0.39999999673E+01  0.40000000000E+01  0.51109989000E-03 0. -1.
     -623   -1    0    0    0    0  0.00000000000E+00  0.00000000000E+00  0.12525980253E-10  0.17130000000E+03  0.17130000000E+03 0. -1.
       11    1    1    2    0    0 -0.98762653360E-02 -0.81897008457E-02  0.66231414457E+00  0.66243860028E+00  0.51109989000E-03 0. -1.
     -623    1    1    2    0    0  0.96534997987E-03 -0.18181921886E-02  0.99413299269E-03  0.17130000002E+03  0.17130000000E+03 0. -1.
      622    1    1    2    0    0  0.89109153560E-02  0.10007893035E-01  0.33366916902E+01  0.33375613849E+01  0.75000000000E-01 0. -1.
</event>
<event>
 5   0  0.5237200E+07  0.9118800E+02  0.7818608E-02  0.1180000E+00
       11   -1    0    0    0    0  0.00000000000E+00  0.00000000000E+00  0.39999999673E+01  0.40000000000E+01  0.51109989000E-03 0. -1.
     -623   -1    0    0    0    0  0.00000000000E+00  0.00000000000E+00  0.12525980253E-10  0.17130000000E+03  0.17130000000E+03 0.  1.
       11    1    1    2    0    0  0.49757303687E-03 -0.95328719883E-03  0.13783384717E-02  0.18213661448E-02  0.51109989000E-03 0. -1.
     -623    1    1    2    0    0  0.45640734288E-03  0.44739381924E-02  0.11482293098E-02  0.17130000006E+03  0.17130000000E+03 0.  1.
      622    1    1    2    0    0 -0.95398037975E-03 -0.35206509936E-02  0.39974733996E+01  0.39981785710E+01  0.75000000000E-01 0. -1.
</event>
<event>
 5   0  0.5237200E+07  0.9118800E+02  0.7818608E-02  0.1180000E+00
       11   -1    0    0    0    0  0.00000000000E+00  0.00000000000E+00  0.39999999673E+01  0.40000000000E+01  0.51109989000E-03 0.  1.
     -623   -1    0    0    0    0  0.00000000000E+00  0.00000000000E+00  0.12525980253E-10  0.17130000000E+03  0.17130000000E+03 0. -1.
       11    1    1    2    0    0  0.75797795188E-02  0.82820375689E-02  0.19381486405E-01  0.22404205905E-01  0.51109989000E-03 0.  1.
     -623    1    1    2    0    0 -0.19277825715E-01  0.35553512660E-03  0.37575468635E-02  0.17130000113E+03  0.17130000000E+03 0. -1.
      622    1    1    2    0    0  0.11698046196E-01 -0.86375726955E-02  0.39768609341E+01  0.39775946677E+01  0.75000000000E-01 0.  1.
</event>
<event>
 5   0  0.5237200E+07  0.9118800E+02  0.7818608E-02  0.1180000E+00
       11   -1    0    0    0    0  0.00000000000E+00  0.00000000000E+00  0.39999999673E+01  0.40000000000E+01  0.51109989000E-03 0. -1.
     -623   -1    0    0    0    0  0.00000000000E+00  0.00000000000E+00  0.12525980253E-10  0.17130000000E+03  0.17130000000E+03 0.  1.
       11    1    1    2    0    0  0.57079973412E-03  0.24203480211E-03  0.12466328334E-02  0.14831418344E-02  0.51109989000E-03 0. -1.
     -623    1    1    2    0    0 -0.22291502954E-02 -0.99642291742E-03  0.94035916115E-03  0.17130000002E+03  0.17130000000E+03 0.  1.
      622    1    1    2    0    0  0.16583505611E-02  0.75438811521E-03  0.39978129750E+01  0.39985168378E+01  0.75000000000E-01 0. -1.
</event>
<event>
 5   0  0.5237200E+07  0.9118800E+02  0.7818608E-02  0.1180000E+00
       11   -1    0    0    0    0  0.00000000000E+00  0.00000000000E+00  0.39999999673E+01  0.40000000000E+01  0.51109989000E-03 0. -1.
     -623   -1    0    0    0    0  0.00000000000E+00  0.00000000000E+00  0.12525980253E-10  0.17130000000E+03  0.17130000000E+03 0.  1.
       11    1    1    2    0    0  0.16813467005E-02  0.66844915344E-03  0.28902713005E-02  0.34479910508E-02  0.51109989000E-03 0. -1.
     -623    1    1    2    0    0 -0.30117784092E-02 -0.34556388292E-03  0.12617467029E-02  0.17130000003E+03  0.17130000000E+03 0.  1.
      622    1    1    2    0    0  0.13304317088E-02 -0.32288527049E-03  0.39958479496E+01  0.39965519778E+01  0.75000000000E-01 0. -1.
</event>
<event>
 5   0  0.5237200E+07  0.9118800E+02  0.7818608E-02  0.1180000E+00
       11   -1    0    0    0    0  0.00000000000E+00  0.00000000000E+00  0.39999999673E+01  0.40000000000E+01  0.51109989000E-03 0.  1.
     -623   -1    0    0    0    0  0.00000000000E+00  0.00000000000E+00  0.12525980253E-10  0.17130000000E+03  0.17130000000E+03 0.  1.
       11    1    1    2    0    0  0.15507661190E-01  0.19445735313E-01  0.15220060467E+00  0.15422032765E+00  0.51109989000E-03 0.  1.
     -623    1    1    2    0    0 -0.40711033645E-01 -0.27783358367E-01  0.28498388598E-02  0.17130000711E+03  0.17130000000E+03 0.  1.
      622    1    1    2    0    0  0.25203372455E-01  0.83376230539E-02  0.38449495238E+01  0.38457725579E+01  0.75000000000E-01 0.  1.
</event>
<event>
 5   0  0.5237200E+07  0.9118800E+02  0.7818608E-02  0.1180000E+00
       11   -1    0    0    0    0  0.00000000000E+00  0.00000000000E+00  0.39999999673E+01  0.40000000000E+01  0.51109989000E-03 0. -1.
     -623   -1    0    0    0    0  0.00000000000E+00  0.00000000000E+00  0.12525980253E-10  0.17130000000E+03  0.17130000000E+03 0.  1.
       11    1    1    2    0    0 -0.24265906536E-03  0.29235423481E-02  0.17410895787E-02  0.34494342146E-02  0.51109989000E-03 0. -1.
     -623    1    1    2    0    0 -0.20736448814E-02  0.12723214044E-02  0.24150144427E-02  0.17130000003E+03  0.17130000000E+03 0.  1.
      622    1    1    2    0    0  0.23163039468E-02 -0.41958637525E-02  0.39958438633E+01  0.39965505315E+01  0.75000000000E-01 0. -1.
</event>
<event>
 5   0  0.5237200E+07  0.9118800E+02  0.7818608E-02  0.1180000E+00
       11   -1    0    0    0    0  0.00000000000E+00  0.00000000000E+00  0.39999999673E+01  0.40000000000E+01  0.51109989000E-03 0. -1.
     -623   -1    0    0    0    0  0.00000000000E+00  0.00000000000E+00  0.12525980253E-10  0.17130000000E+03  0.17130000000E+03 0. -1.
       11    1    1    2    0    0  0.16133422997E-02 -0.15395594721E-02  0.14339118449E-01  0.14520490884E-01  0.51109989000E-03 0. -1.
     -623    1    1    2    0    0  0.38752166178E-03  0.44683666957E-02  0.88872872581E-03  0.17130000006E+03  0.17130000000E+03 0. -1.
      622    1    1    2    0    0 -0.20008639615E-02 -0.29288072236E-02  0.39847721202E+01  0.39854794481E+01  0.75000000000E-01 0. -1.
</event>
<event>
 5   0  0.5237200E+07  0.9118800E+02  0.7818608E-02  0.1180000E+00
       11   -1    0    0    0    0  0.00000000000E+00  0.00000000000E+00  0.39999999673E+01  0.40000000000E+01  0.51109989000E-03 0.  1.
     -623   -1    0    0    0    0  0.00000000000E+00  0.00000000000E+00  0.12525980253E-10  0.17130000000E+03  0.17130000000E+03 0.  1.
       11    1    1    2    0    0 -0.35953749815E-01 -0.16001442786E-01  0.22316676817E+00  0.22661064833E+00  0.51109989000E-03 0.  1.
     -623    1    1    2    0    0  0.29165384949E-01  0.30838958299E-01  0.42298693160E-02  0.17130000531E+03  0.17130000000E+03 0.  1.
      622    1    1    2    0    0  0.67883648660E-02 -0.14837515512E-01  0.37726033299E+01  0.37733840407E+01  0.75000000000E-01 0.  1.
</event>
<event>
 5   0  0.5237200E+07  0.9118800E+02  0.7818608E-02  0.1180000E+00
       11   -1    0    0    0    0  0.00000000000E+00  0.00000000000E+00  0.39999999673E+01  0.40000000000E+01  0.51109989000E-03 0. -1.
     -623   -1    0    0    0    0  0.00000000000E+00  0.00000000000E+00  0.12525980253E-10  0.17130000000E+03  0.17130000000E+03 0.  1.
       11    1    1    2    0    0  0.61658952430E-02  0.51786728352E-02  0.94508673483E-01  0.94852451224E-01  0.51109989000E-03 0. -1.
     -623    1    1    2    0    0  0.81096939244E-03 -0.18964813669E-02  0.10716436437E-02  0.17130000002E+03  0.17130000000E+03 0.  1.
      622    1    1    2    0    0 -0.69768646354E-02 -0.32821914684E-02  0.39044196501E+01  0.39051475329E+01  0.75000000000E-01 0. -1.
</event>
<event>
 5   0  0.5237200E+07  0.9118800E+02  0.7818608E-02  0.1180000E+00
       11   -1    0    0    0    0  0.00000000000E+00  0.00000000000E+00  0.39999999673E+01  0.40000000000E+01  0.51109989000E-03 0. -1.
     -623   -1    0    0    0    0  0.00000000000E+00  0.00000000000E+00  0.12525980253E-10  0.17130000000E+03  0.17130000000E+03 0.  1.
       11    1    1    2    0    0 -0.14346123875E-01  0.32218260333E-02  0.25469523389E-01  0.29413420032E-01  0.51109989000E-03 0. -1.
     -623    1    1    2    0    0  0.20056714152E-01 -0.94979635097E-02  0.46628304369E-02  0.17130000150E+03  0.17130000000E+03 0.  1.
      622    1    1    2    0    0 -0.57105902772E-02  0.62761374762E-02  0.39698676135E+01  0.39705850789E+01  0.75000000000E-01 0. -1.
</event>
<event>
 5   0  0.5237200E+07  0.9118800E+02  0.7818608E-02  0.1180000E+00
       11   -1    0    0    0    0  0.00000000000E+00  0.00000000000E+00  0.39999999673E+01  0.40000000000E+01  0.51109989000E-03 0. -1.
     -623   -1    0    0    0    0  0.00000000000E+00  0.00000000000E+00  0.12525980253E-10  0.17130000000E+03  0.17130000000E+03 0. -1.
       11    1    1    2    0    0  0.50243438305E-02 -0.14336153168E-02  0.32657779665E-01  0.33077047578E-01  0.51109989000E-03 0. -1.
     -623    1    1    2    0    0 -0.69444514640E-02 -0.16945910055E-02  0.11301377549E-02  0.17130000015E+03  0.17130000000E+03 0. -1.
      622    1    1    2    0    0  0.19201076335E-02  0.31282063223E-02  0.39662120499E+01  0.39669227995E+01  0.75000000000E-01 0. -1.
</event>
<event>
 5   0  0.5237200E+07  0.9118800E+02  0.7818608E-02  0.1180000E+00
       11   -1    0    0    0    0  0.00000000000E+00  0.00000000000E+00  0.39999999673E+01  0.40000000000E+01  0.51109989000E-03 0. -1.
     -623   -1    0    0    0    0  0.00000000000E+00  0.00000000000E+00  0.12525980253E-10  0.17130000000E+03  0.17130000000E+03 0.  1.
       11    1    1    2    0    0 -0.16758239111E-02 -0.36871821659E-02  0.64353543580E+00  0.64354838362E+00  0.51109989000E-03 0. -1.
     -623    1    1    2    0    0 -0.14280596092E-04 -0.12032591322E-02  0.85495391535E-03  0.17130000001E+03  0.17130000000E+03 0.  1.
      622    1    1    2    0    0  0.16901045072E-02  0.48904412981E-02  0.33556095777E+01  0.33564516101E+01  0.75000000000E-01 0. -1.
</event>
<event>
 5   0  0.5237200E+07  0.9118800E+02  0.7818608E-02  0.1180000E+00
       11   -1    0    0    0    0  0.00000000000E+00  0.00000000000E+00  0.39999999673E+01  0.40000000000E+01  0.51109989000E-03 0.  1.
     -623   -1    0    0    0    0  0.00000000000E+00  0.00000000000E+00  0.12525980253E-10  0.17130000000E+03  0.17130000000E+03 0. -1.
       11    1    1    2    0    0 -0.48081926535E-02 -0.54011667113E-02  0.72097444335E-01  0.72460982751E-01  0.51109989000E-03 0.  1.
     -623    1    1    2    0    0 -0.53311356211E-03  0.32627446787E-03  0.10865849005E-02  0.17130000000E+03  0.17130000000E+03 0. -1.
      622    1    1    2    0    0  0.53413062157E-02  0.50748922434E-02  0.39268159385E+01  0.39275390131E+01  0.75000000000E-01 0.  1.
</event>
<event>
 5   0  0.5237200E+07  0.9118800E+02  0.7818608E-02  0.1180000E+00
       11   -1    0    0    0    0  0.00000000000E+00  0.00000000000E+00  0.39999999673E+01  0.40000000000E+01  0.51109989000E-03 0.  1.
     -623   -1    0    0    0    0  0.00000000000E+00  0.00000000000E+00  0.12525980253E-10  0.17130000000E+03  0.17130000000E+03 0. -1.
       11    1    1    2    0    0  0.40754286589E-03  0.19714656044E-02  0.38076107849E-01  0.38132715348E-01  0.51109989000E-03 0.  1.
     -623    1    1    2    0    0  0.32482250002E-02 -0.15960745146E-02  0.76827571469E-03  0.17130000004E+03  0.17130000000E+03 0. -1.
      622    1    1    2    0    0 -0.36557678659E-02 -0.37539108991E-03  0.39611555835E+01  0.39618672444E+01  0.75000000000E-01 0.  1.
</event>
<event>
 5   0  0.5237200E+07  0.9118800E+02  0.7818608E-02  0.1180000E+00
       11   -1    0    0    0    0  0.00000000000E+00  0.00000000000E+00  0.39999999673E+01  0.40000000000E+01  0.51109989000E-03 0. -1.
     -623   -1    0    0    0    0  0.00000000000E+00  0.00000000000E+00  0.12525980253E-10  0.17130000000E+03  0.17130000000E+03 0.  1.
       11    1    1    2    0    0 -0.21570639988E-01 -0.14795288686E-01  0.33957416902E+00  0.34058049058E+00  0.51109989000E-03 0. -1.
     -623    1    1    2    0    0  0.14800160985E-01  0.12428130682E-01  0.17830641854E-02  0.17130000110E+03  0.17130000000E+03 0.  1.
      622    1    1    2    0    0  0.67704790029E-02  0.23671580042E-02  0.36586427342E+01  0.36594184099E+01  0.75000000000E-01 0.  0.
</event>
<event>
 5   0  0.5237200E+07  0.9118800E+02  0.7818608E-02  0.1180000E+00
       11   -1    0    0    0    0  0.00000000000E+00  0.00000000000E+00  0.39999999673E+01  0.40000000000E+01  0.51109989000E-03 0.  1.
     -623   -1    0    0    0    0  0.00000000000E+00  0.00000000000E+00  0.12525980253E-10  0.17130000000E+03  0.17130000000E+03 0.  1.
       11    1    1    2    0    0 -0.32763077542E-03 -0.57206193459E-05  0.52112296813E-04  0.60935493723E-03  0.51109989000E-03 0. -1.
     -623    1    1    2    0    0 -0.50588035485E-03  0.32914219725E-03  0.12606096202E-02  0.17130000001E+03  0.17130000000E+03 0.  1.
      622    1    1    2    0    0  0.83351113027E-03 -0.32342157791E-03  0.39986872455E+01  0.39993906394E+01  0.75000000000E-01 0.  1.
</event>
<event>
 5   0  0.5237200E+07  0.9118800E+02  0.7818608E-02  0.1180000E+00
       11   -1    0    0    0    0  0.00000000000E+00  0.00000000000E+00  0.39999999673E+01  0.40000000000E+01  0.51109989000E-03 0. -1.
     -623   -1    0    0    0    0  0.00000000000E+00  0.00000000000E+00  0.12525980253E-10  0.17130000000E+03  0.17130000000E+03 0.  1.
       11    1    1    2    0    0  0.17788243025E-02  0.60790821375E-02  0.19980298303E-01  0.20966473185E-01  0.51109989000E-03 0. -1.
     -623    1    1    2    0    0  0.13581680618E-02  0.51812078418E-03  0.16997563902E-02  0.17130000001E+03  0.17130000000E+03 0.  1.
      622    1    1    2    0    0 -0.31369923643E-02 -0.65972029217E-02  0.39783199127E+01  0.39790335122E+01  0.75000000000E-01 0. -1.
</event>
<event>
 5   0  0.5237200E+07  0.9118800E+02  0.7818608E-02  0.1180000E+00
       11   -1    0    0    0    0  0.00000000000E+00  0.00000000000E+00  0.39999999673E+01  0.40000000000E+01  0.51109989000E-03 0.  1.
     -623   -1    0    0    0    0  0.00000000000E+00  0.00000000000E+00  0.12525980253E-10  0.17130000000E+03  0.17130000000E+03 0.  1.
       11    1    1    2    0    0 -0.23687666884E-01  0.13537383835E-01  0.43157364309E+00  0.43243547143E+00  0.51109989000E-03 0.  1.
     -623    1    1    2    0    0  0.48685821485E-02 -0.17679703819E-01  0.17032785489E-02  0.17130000099E+03  0.17130000000E+03 0.  1.
      622    1    1    2    0    0  0.18819084735E-01  0.41423199843E-02  0.35667230459E+01  0.35675635387E+01  0.75000000000E-01 0.  1.
</event>
<event>
 5   0  0.5237200E+07  0.9118800E+02  0.7818608E-02  0.1180000E+00
       11   -1    0    0    0    0  0.00000000000E+00  0.00000000000E+00  0.39999999673E+01  0.40000000000E+01  0.51109989000E-03 0.  1.
     -623   -1    0    0    0    0  0.00000000000E+00  0.00000000000E+00  0.12525980253E-10  0.17130000000E+03  0.17130000000E+03 0. -1.
       11    1    1    2    0    0 -0.70330825308E-02  0.22918369213E-01  0.10540272449E-01  0.26193023187E-01  0.51109989000E-03 0.  1.
     -623    1    1    2    0    0  0.16172306464E-02 -0.38934671656E-01  0.16401733046E-01  0.17130000522E+03  0.17130000000E+03 0. -1.
      622    1    1    2    0    0  0.54158518843E-02  0.16016302443E-01  0.39730579619E+01  0.39738017592E+01  0.75000000000E-01 0.  1.
</event>
<event>
 5   0  0.5237200E+07  0.9118800E+02  0.7818608E-02  0.1180000E+00
       11   -1    0    0    0    0  0.00000000000E+00  0.00000000000E+00  0.39999999673E+01  0.40000000000E+01  0.51109989000E-03 0. -1.
     -623   -1    0    0    0    0  0.00000000000E+00  0.00000000000E+00  0.12525980253E-10  0.17130000000E+03  0.17130000000E+03 0.  1.
       11    1    1    2    0    0  0.14654362845E-02  0.77312740286E-03  0.40487762781E-02  0.44044343487E-02  0.51109989000E-03 0. -1.
     -623    1    1    2    0    0 -0.14885986191E-02  0.15144081886E-02  0.10602589668E-02  0.17130000002E+03  0.17130000000E+03 0.  1.
      622    1    1    2    0    0  0.23162334674E-04 -0.22875355916E-02  0.39948909324E+01  0.39955955495E+01  0.75000000000E-01 0. -1.
</event>
<event>
 5   0  0.5237200E+07  0.9118800E+02  0.7818608E-02  0.1180000E+00
       11   -1    0    0    0    0  0.00000000000E+00  0.00000000000E+00  0.39999999673E+01  0.40000000000E+01  0.51109989000E-03 0. -1.
     -623   -1    0    0    0    0  0.00000000000E+00  0.00000000000E+00  0.12525980253E-10  0.17130000000E+03  0.17130000000E+03 0. -1.
       11    1    1    2    0    0 -0.10054932877E-01 -0.13650036947E-02  0.30110533283E-02  0.10596819121E-01  0.51109989000E-03 0. -1.
     -623    1    1    2    0    0  0.10083599544E-01  0.79212957028E-02  0.82968575619E-02  0.17130000068E+03  0.17130000000E+03 0. -1.
      622    1    1    2    0    0 -0.28666666993E-04 -0.65562920082E-02  0.39886920565E+01  0.39894025001E+01  0.75000000000E-01 0. -1.
</event>
<event>
 5   0  0.5237200E+07  0.9118800E+02  0.7818608E-02  0.1180000E+00
       11   -1    0    0    0    0  0.00000000000E+00  0.00000000000E+00  0.39999999673E+01  0.40000000000E+01  0.51109989000E-03 0.  1.
     -623   -1    0    0    0    0  0.00000000000E+00  0.00000000000E+00  0.12525980253E-10  0.17130000000E+03  0.17130000000E+03 0.  1.
       11    1    1    2    0    0 -0.26676377575E-01  0.77789449227E-02  0.63598774363E-01  0.69406097915E-01  0.51109989000E-03 0.  1.
     -623    1    1    2    0    0  0.38924058774E-01 -0.18498688977E-01  0.65621505135E-02  0.17130000555E+03  0.17130000000E+03 0.  1.
      622    1    1    2    0    0 -0.12247681198E-01  0.10719744055E-01  0.39298390425E+01  0.39305883553E+01  0.75000000000E-01 0.  1.
</event>
<event>
 5   0  0.5237200E+07  0.9118800E+02  0.7818608E-02  0.1180000E+00
       11   -1    0    0    0    0  0.00000000000E+00  0.00000000000E+00  0.39999999673E+01  0.40000000000E+01  0.51109989000E-03 0.  1.
     -623   -1    0    0    0    0  0.00000000000E+00  0.00000000000E+00  0.12525980253E-10  0.17130000000E+03  0.17130000000E+03 0. -1.
       11    1    1    2    0    0  0.13562142177E-02 -0.19786387487E-03  0.88757905784E-02  0.89955182267E-02  0.51109989000E-03 0.  1.
     -623    1    1    2    0    0 -0.43526638836E-03 -0.17626709560E-02  0.82506656058E-03  0.17130000001E+03  0.17130000000E+03 0. -1.
      622    1    1    2    0    0 -0.92094782936E-03  0.19605348309E-02  0.39902991102E+01  0.39910044702E+01  0.75000000000E-01 0.  1.
</event>
<event>
 5   0  0.5237200E+07  0.9118800E+02  0.7818608E-02  0.1180000E+00
       11   -1    0    0    0    0  0.00000000000E+00  0.00000000000E+00  0.39999999673E+01  0.40000000000E+01  0.51109989000E-03 0.  1.
     -623   -1    0    0    0    0  0.00000000000E+00  0.00000000000E+00  0.12525980253E-10  0.17130000000E+03  0.17130000000E+03 0. -1.
       11    1    1    2    0    0  0.10292096538E-01 -0.41680171938E-01  0.15094097814E+00  0.15692865923E+00  0.51109989000E-03 0.  1.
     -623    1    1    2    0    0 -0.39690106151E-01 -0.46062464360E-02  0.71156396536E-02  0.17130000481E+03  0.17130000000E+03 0. -1.
      622    1    1    2    0    0  0.29398009613E-01  0.46286418374E-01  0.38419433496E+01  0.38430665330E+01  0.75000000000E-01 0.  1.
</event>
<event>
 5   0  0.5237200E+07  0.9118800E+02  0.7818608E-02  0.1180000E+00
       11   -1    0    0    0    0  0.00000000000E+00  0.00000000000E+00  0.39999999673E+01  0.40000000000E+01  0.51109989000E-03 0. -1.
     -623   -1    0    0    0    0  0.00000000000E+00  0.00000000000E+00  0.12525980253E-10  0.17130000000E+03  0.17130000000E+03 0. -1.
       11    1    1    2    0    0 -0.55760442247E-02 -0.60187935414E-02  0.57365100372E-01  0.57951135509E-01  0.51109989000E-03 0. -1.
     -623    1    1    2    0    0  0.74756202380E-02  0.17650088579E-01  0.13182266271E-02  0.17130000108E+03  0.17130000000E+03 0. -1.
      622    1    1    2    0    0 -0.18995760133E-02 -0.11631295038E-01  0.39413166404E+01  0.39420477870E+01  0.75000000000E-01 0. -1.
</event>
<event>
 5   0  0.5237200E+07  0.9118800E+02  0.7818608E-02  0.1180000E+00
       11   -1    0    0    0    0  0.00000000000E+00  0.00000000000E+00  0.39999999673E+01  0.40000000000E+01  0.51109989000E-03 0. -1.
     -623   -1    0    0    0    0  0.00000000000E+00  0.00000000000E+00  0.12525980253E-10  0.17130000000E+03  0.17130000000E+03 0.  1.
       11    1    1    2    0    0  0.67362385282E-03  0.50124116874E-02  0.32041951766E+00  0.32045983611E+00  0.51109989000E-03 0. -1.
     -623    1    1    2    0    0  0.60599277231E-03  0.33071443319E-02  0.81439187762E-03  0.17130000003E+03  0.17130000000E+03 0.  1.
      622    1    1    2    0    0 -0.12796166251E-02 -0.83195560193E-02  0.36787660578E+01  0.36795401290E+01  0.75000000000E-01 0. -1.
</event>
<event>
 5   0  0.5237200E+07  0.9118800E+02  0.7818608E-02  0.1180000E+00
       11   -1    0    0    0    0  0.00000000000E+00  0.00000000000E+00  0.39999999673E+01  0.40000000000E+01  0.51109989000E-03 0.  1.
     -623   -1    0    0    0    0  0.00000000000E+00  0.00000000000E+00  0.12525980253E-10  0.17130000000E+03  0.17130000000E+03 0. -1.
       11    1    1    2    0    0 -0.15929594904E-01  0.15211890684E-01  0.31121027644E+00  0.31198918410E+00  0.51109989000E-03 0.  1.
     -623    1    1    2    0    0  0.16191501709E-01 -0.75467817861E-02  0.15504752664E-02  0.17130000094E+03  0.17130000000E+03 0. -1.
      622    1    1    2    0    0 -0.26190680486E-03 -0.76651088981E-02  0.36872392156E+01  0.36880098774E+01  0.75000000000E-01 0.  1.
</event>
<event>
 5   0  0.5237200E+07  0.9118800E+02  0.7818608E-02  0.1180000E+00
       11   -1    0    0    0    0  0.00000000000E+00  0.00000000000E+00  0.39999999673E+01  0.40000000000E+01  0.51109989000E-03 0. -1.
     -623   -1    0    0    0    0  0.00000000000E+00  0.00000000000E+00  0.12525980253E-10  0.17130000000E+03  0.17130000000E+03 0. -1.
       11    1    1    2    0    0  0.28480074923E-02  0.20907758949E-02  0.57897694678E-02  0.68018485801E-02  0.51109989000E-03 0. -1.
     -623    1    1    2    0    0 -0.38335294344E-02 -0.70709277683E-02  0.17198564768E-02  0.17130000020E+03  0.17130000000E+03 0. -1.
      622    1    1    2    0    0  0.98552194189E-03  0.49801518732E-02  0.39924903412E+01  0.39931979538E+01  0.75000000000E-01 0. -1.
</event>
<event>
 5   0  0.5237200E+07  0.9118800E+02  0.7818608E-02  0.1180000E+00
       11   -1    0    0    0    0  0.00000000000E+00  0.00000000000E+00  0.39999999673E+01  0.40000000000E+01  0.51109989000E-03 0. -1.
     -623   -1    0    0    0    0  0.00000000000E+00  0.00000000000E+00  0.12525980253E-10  0.17130000000E+03  0.17130000000E+03 0. -1.
       11    1    1    2    0    0  0.39029690798E-02 -0.34277391786E-02  0.44601288405E-01  0.44905664609E-01  0.51109989000E-03 0. -1.
     -623    1    1    2    0    0 -0.42829860713E-02  0.44178648472E-03  0.10167184454E-02  0.17130000006E+03  0.17130000000E+03 0. -1.
      622    1    1    2    0    0  0.38001699191E-03  0.29859526938E-02  0.39543819608E+01  0.39550942786E+01  0.75000000000E-01 0. -1.
</event>
<event>
 5   0  0.5237200E+07  0.9118800E+02  0.7818608E-02  0.1180000E+00
       11   -1    0    0    0    0  0.00000000000E+00  0.00000000000E+00  0.39999999673E+01  0.40000000000E+01  0.51109989000E-03 0. -1.
     -623   -1    0    0    0    0  0.00000000000E+00  0.00000000000E+00  0.12525980253E-10  0.17130000000E+03  0.17130000000E+03 0. -1.
       11    1    1    2    0    0  0.70869490563E-02 -0.52699475243E-02  0.16672625359E+00  0.16696077998E+00  0.51109989000E-03 0. -1.
     -623    1    1    2    0    0 -0.15187279464E-01  0.12934607153E-01  0.98570615261E-03  0.17130000116E+03  0.17130000000E+03 0. -1.
      622    1    1    2    0    0  0.81003304077E-02 -0.76646596284E-02  0.38322880076E+01  0.38330380556E+01  0.75000000000E-01 0. -1.
</event>
<event>
 5   0  0.5237200E+07  0.9118800E+02  0.7818608E-02  0.1180000E+00
       11   -1    0    0    0    0  0.00000000000E+00  0.00000000000E+00  0.39999999673E+01  0.40000000000E+01  0.51109989000E-03 0.  1.
     -623   -1    0    0    0    0  0.00000000000E+00  0.00000000000E+00  0.12525980253E-10  0.17130000000E+03  0.17130000000E+03 0.  1.
       11    1    1    2    0    0  0.11211877613E-02 -0.36879972465E-03  0.38520084684E-02  0.40610672945E-02  0.51109989000E-03 0.  1.
     -623    1    1    2    0    0  0.13740734257E-02  0.26845528125E-02  0.91440711908E-03  0.17130000003E+03  0.17130000000E+03 0.  1.
      622    1    1    2    0    0 -0.24952611871E-02 -0.23157530879E-02  0.39952335520E+01  0.39959389039E+01  0.75000000000E-01 0.  1.
</event>
<event>
 5   0  0.5237200E+07  0.9118800E+02  0.7818608E-02  0.1180000E+00
       11   -1    0    0    0    0  0.00000000000E+00  0.00000000000E+00  0.39999999673E+01  0.40000000000E+01  0.51109989000E-03 0. -1.
     -623   -1    0    0    0    0  0.00000000000E+00  0.00000000000E+00  0.12525980253E-10  0.17130000000E+03  0.17130000000E+03 0. -1.
       11    1    1    2    0    0 -0.60910153081E-02  0.65942625768E-02  0.19880258048E-01  0.21819043251E-01  0.51109989000E-03 0. -1.
     -623    1    1    2    0    0  0.94603312312E-02 -0.77172628528E-02  0.26478380294E-02  0.17130000046E+03  0.17130000000E+03 0. -1.
      622    1    1    2    0    0 -0.33693159231E-02  0.11230002759E-02  0.39774718713E+01  0.39781805012E+01  0.75000000000E-01 0. -1.
</event>
<event>
 5   0  0.5237200E+07  0.9118800E+02  0.7818608E-02  0.1180000E+00
       11   -1    0    0    0    0  0.00000000000E+00  0.00000000000E+00  0.39999999673E+01  0.40000000000E+01  0.51109989000E-03 0. -1.
     -623   -1    0    0    0    0  0.00000000000E+00  0.00000000000E+00  0.12525980253E-10  0.17130000000E+03  0.17130000000E+03 0.  1.
       11    1    1    2    0    0 -0.20532506240E-01 -0.20733860762E-01  0.40616770712E+00  0.40721486260E+00  0.51109989000E-03 0. -1.
     -623    1    1    2    0    0 -0.22711921472E-02  0.20579849427E-02  0.19510025041E-02  0.17130000004E+03  0.17130000000E+03 0.  1.
      622    1    1    2    0    0  0.22803698387E-01  0.18675875820E-01  0.35918812577E+01  0.35927850989E+01  0.75000000000E-01 0. -1.
</event>
<event>
 5   0  0.5237200E+07  0.9118800E+02  0.7818608E-02  0.1180000E+00
       11   -1    0    0    0    0  0.00000000000E+00  0.00000000000E+00  0.39999999673E+01  0.40000000000E+01  0.51109989000E-03 0. -1.
     -623   -1    0    0    0    0  0.00000000000E+00  0.00000000000E+00  0.12525980253E-10  0.17130000000E+03  0.17130000000E+03 0.  1.
       11    1    1    2    0    0  0.14874500080E-02 -0.78413750790E-02  0.46754325546E-01  0.47433404355E-01  0.51109989000E-03 0. -1.
     -623    1    1    2    0    0  0.14742315827E-02  0.12284254838E-02  0.13973324359E-02  0.17130000002E+03  0.17130000000E+03 0.  1.
      622    1    1    2    0    0 -0.29616815907E-02  0.66129495953E-02  0.39518483094E+01  0.39525665792E+01  0.75000000000E-01 0. -1.
</event>
<event>
 5   0  0.5237200E+07  0.9118800E+02  0.7818608E-02  0.1180000E+00
       11   -1    0    0    0    0  0.00000000000E+00  0.00000000000E+00  0.39999999673E+01  0.40000000000E+01  0.51109989000E-03 0.  1.
     -623   -1    0    0    0    0  0.00000000000E+00  0.00000000000E+00  0.12525980253E-10  0.17130000000E+03  0.17130000000E+03 0.  1.
       11    1    1    2    0    0 -0.21690800312E-01 -0.12475800288E-01  0.62121772465E+00  0.62172168939E+00  0.51109989000E-03 0.  1.
     -623    1    1    2    0    0  0.40766820162E-02  0.12710705619E-02  0.14011356228E-02  0.17130000006E+03  0.17130000000E+03 0.  1.
      622    1    1    2    0    0  0.17614118295E-01  0.11204729726E-01  0.33773811071E+01  0.33782782517E+01  0.75000000000E-01 0.  0.
</event>
<event>
 5   0  0.5237200E+07  0.9118800E+02  0.7818608E-02  0.1180000E+00
       11   -1    0    0    0    0  0.00000000000E+00  0.00000000000E+00  0.39999999673E+01  0.40000000000E+01  0.51109989000E-03 0.  1.
     -623   -1    0    0    0    0  0.00000000000E+00  0.00000000000E+00  0.12525980253E-10  0.17130000000E+03  0.17130000000E+03 0. -1.
       11    1    1    2    0    0  0.75905776221E-02 -0.82256277941E-02  0.90501479196E-01  0.91192416247E-01  0.51109989000E-03 0.  1.
     -623    1    1    2    0    0  0.25156345002E-02  0.52305577389E-02  0.14248187174E-02  0.17130000010E+03  0.17130000000E+03 0. -1.
      622    1    1    2    0    0 -0.10106212122E-01  0.29950700554E-02  0.39080736694E+01  0.39088074794E+01  0.75000000000E-01 0.  1.
</event>
<event>
 5   0  0.5237200E+07  0.9118800E+02  0.7818608E-02  0.1180000E+00
       11   -1    0    0    0    0  0.00000000000E+00  0.00000000000E+00  0.39999999673E+01  0.40000000000E+01  0.51109989000E-03 0. -1.
     -623   -1    0    0    0    0  0.00000000000E+00  0.00000000000E+00  0.12525980253E-10  0.17130000000E+03  0.17130000000E+03 0. -1.
       11    1    1    2    0    0  0.21934359043E-02 -0.92620373135E-02  0.52289113527E-01  0.53150814777E-01  0.51109989000E-03 0. -1.
     -623    1    1    2    0    0  0.54875713369E-02 -0.14314347677E-02  0.15963923769E-02  0.17130000010E+03  0.17130000000E+03 0. -1.
      622    1    1    2    0    0 -0.76810072412E-02  0.10693472081E-01  0.39461144615E+01  0.39468490839E+01  0.75000000000E-01 0. -1.
</event>
<event>
 5   0  0.5237200E+07  0.9118800E+02  0.7818608E-02  0.1180000E+00
       11   -1    0    0    0    0  0.00000000000E+00  0.00000000000E+00  0.39999999673E+01  0.40000000000E+01  0.51109989000E-03 0. -1.
     -623   -1    0    0    0    0  0.00000000000E+00  0.00000000000E+00  0.12525980253E-10  0.17130000000E+03  0.17130000000E+03 0.  1.
       11    1    1    2    0    0  0.14075747617E-02  0.31142223900E-02  0.23758148905E-01  0.24008134253E-01  0.51109989000E-03 0. -1.
     -623    1    1    2    0    0  0.60261507408E-02 -0.34253016517E-02  0.96449194751E-03  0.17130000014E+03  0.17130000000E+03 0.  1.
      622    1    1    2    0    0 -0.74337255025E-02  0.31107926167E-03  0.39752773265E+01  0.39759917228E+01  0.75000000000E-01 0. -1.
</event>
<event>
 5   0  0.5237200E+07  0.9118800E+02  0.7818608E-02  0.1180000E+00
       11   -1    0    0    0    0  0.00000000000E+00  0.00000000000E+00  0.39999999673E+01  0.40000000000E+01  0.51109989000E-03 0.  1.
     -623   -1    0    0    0    0  0.00000000000E+00  0.00000000000E+00  0.12525980253E-10  0.17130000000E+03  0.17130000000E+03 0. -1.
       11    1    1    2    0    0 -0.47797869140E-03 -0.28521348724E-02  0.10270612225E-01  0.10682220479E-01  0.51109989000E-03 0.  1.
     -623    1    1    2    0    0  0.20607692987E-02  0.12297435212E-03  0.11179095176E-02  0.17130000002E+03  0.17130000000E+03 0. -1.
      622    1    1    2    0    0 -0.15827906073E-02  0.27291605203E-02  0.39886114456E+01  0.39893177634E+01  0.75000000000E-01 0.  1.
</event>
<event>
 5   0  0.5237200E+07  0.9118800E+02  0.7818608E-02  0.1180000E+00
       11   -1    0    0    0    0  0.00000000000E+00  0.00000000000E+00  0.39999999673E+01  0.40000000000E+01  0.51109989000E-03 0. -1.
     -623   -1    0    0    0    0  0.00000000000E+00  0.00000000000E+00  0.12525980253E-10  0.17130000000E+03  0.17130000000E+03 0. -1.
       11    1    1    2    0    0 -0.12164990089E-01 -0.18645009150E-01  0.43705833194E-01  0.49051854470E-01  0.51109989000E-03 0. -1.
     -623    1    1    2    0    0 -0.78613517359E-02  0.22390748240E-01  0.61121999523E-02  0.17130000175E+03  0.17130000000E+03 0. -1.
      622    1    1    2    0    0  0.20026341824E-01 -0.37457390906E-02  0.39501819342E+01  0.39509463927E+01  0.75000000000E-01 0. -1.
</event>
<event>
 5   0  0.5237200E+07  0.9118800E+02  0.7818608E-02  0.1180000E+00
       11   -1    0    0    0    0  0.00000000000E+00  0.00000000000E+00  0.39999999673E+01  0.40000000000E+01  0.51109989000E-03 0. -1.
     -623   -1    0    0    0    0  0.00000000000E+00  0.00000000000E+00  0.12525980253E-10  0.17130000000E+03  0.17130000000E+03 0.  1.
       11    1    1    2    0    0  0.28195656972E-01 -0.14086776215E-01  0.80845859126E+00  0.80907291843E+00  0.51109989000E-03 0. -1.
     -623    1    1    2    0    0 -0.73354093298E-02  0.62354935898E-02  0.15739664597E-02  0.17130000028E+03  0.17130000000E+03 0.  1.
      622    1    1    2    0    0 -0.20860247642E-01  0.78512826243E-02  0.31899674099E+01  0.31909268040E+01  0.75000000000E-01 0. -1.
</event>
<event>
 5   0  0.5237200E+07  0.9118800E+02  0.7818608E-02  0.1180000E+00
       11   -1    0    0    0    0  0.00000000000E+00  0.00000000000E+00  0.39999999673E+01  0.40000000000E+01  0.51109989000E-03 0.  1.
     -623   -1    0    0    0    0  0.00000000000E+00  0.00000000000E+00  0.12525980253E-10  0.17130000000E+03  0.17130000000E+03 0.  1.
       11    1    1    2    0    0 -0.62962558475E-02 -0.27378062111E-02  0.17894196548E+00  0.17907436068E+00  0.51109989000E-03 0.  1.
     -623    1    1    2    0    0 -0.23168862588E-02  0.12650103005E-02  0.87852792667E-03  0.17130000002E+03  0.17130000000E+03 0.  1.
      622    1    1    2    0    0  0.86131421066E-02  0.14727959104E-02  0.38201794744E+01  0.38209256172E+01  0.75000000000E-01 0.  1.
</event>
<event>
 5   0  0.5237200E+07  0.9118800E+02  0.7818608E-02  0.1180000E+00
       11   -1    0    0    0    0  0.00000000000E+00  0.00000000000E+00  0.39999999673E+01  0.40000000000E+01  0.51109989000E-03 0. -1.
     -623   -1    0    0    0    0  0.00000000000E+00  0.00000000000E+00  0.12525980253E-10  0.17130000000E+03  0.17130000000E+03 0. -1.
       11    1    1    2    0    0 -0.87814490897E-03 -0.73547377775E-03  0.19661980438E-02  0.23322131129E-02  0.51109989000E-03 0.  1.
     -623    1    1    2    0    0  0.96719963368E-03 -0.15888342620E-02  0.10702697955E-02  0.17130000001E+03  0.17130000000E+03 0. -1.
      622    1    1    2    0    0 -0.89054724701E-04  0.23243080397E-02  0.39969634995E+01  0.39976677734E+01  0.75000000000E-01 0. -1.
</event>
<event>
 5   0  0.5237200E+07  0.9118800E+02  0.7818608E-02  0.1180000E+00
       11   -1    0    0    0    0  0.00000000000E+00  0.00000000000E+00  0.39999999673E+01  0.40000000000E+01  0.51109989000E-03 0. -1.
     -623   -1    0    0    0    0  0.00000000000E+00  0.00000000000E+00  0.12525980253E-10  0.17130000000E+03  0.17130000000E+03 0. -1.
       11    1    1    2    0    0 -0.30338620286E-01 -0.90382755801E-01  0.28550243588E+00  0.30100062549E+00  0.51109989000E-03 0. -1.
     -623    1    1    2    0    0  0.53070213050E-01 -0.28783171015E-01  0.18260496089E-01  0.17130001161E+03  0.17130000000E+03 0. -1.
      622    1    1    2    0    0 -0.22731592763E-01  0.11916592682E+00  0.36962370354E+01  0.36989877622E+01  0.75000000000E-01 0. -1.
</event>
<event>
 5   0  0.5237200E+07  0.9118800E+02  0.7818608E-02  0.1180000E+00
       11   -1    0    0    0    0  0.00000000000E+00  0.00000000000E+00  0.39999999673E+01  0.40000000000E+01  0.51109989000E-03 0. -1.
     -623   -1    0    0    0    0  0.00000000000E+00  0.00000000000E+00  0.12525980253E-10  0.17130000000E+03  0.17130000000E+03 0. -1.
       11    1    1    2    0    0 -0.15585978943E-01 -0.12819604251E-02  0.45104798645E+00  0.45131930323E+00  0.51109989000E-03 0. -1.
     -623    1    1    2    0    0  0.38332899492E-02 -0.97714132474E-02  0.11009302917E-02  0.17130000033E+03  0.17130000000E+03 0. -1.
      622    1    1    2    0    0  0.11752688994E-01  0.11053373674E-01  0.35478510511E+01  0.35486803721E+01  0.75000000000E-01 0.  1.
</event>
<event>
 5   0  0.5237200E+07  0.9118800E+02  0.7818608E-02  0.1180000E+00
       11   -1    0    0    0    0  0.00000000000E+00  0.00000000000E+00  0.39999999673E+01  0.40000000000E+01  0.51109989000E-03 0.  1.
     -623   -1    0    0    0    0  0.00000000000E+00  0.00000000000E+00  0.12525980253E-10  0.17130000000E+03  0.17130000000E+03 0. -1.
       11    1    1    2    0    0 -0.27529259787E-01 -0.84296839270E-02  0.19876571138E+00  0.20084070543E+00  0.51109989000E-03 0.  1.
     -623    1    1    2    0    0 -0.24118389828E-03  0.47147007871E-02  0.29187525458E-02  0.17130000009E+03  0.17130000000E+03 0. -1.
      622    1    1    2    0    0  0.27770443685E-01  0.37149831399E-02  0.37983155034E+01  0.37991592046E+01  0.75000000000E-01 0.  1.
</event>
<event>
 5   0  0.5237200E+07  0.9118800E+02  0.7818608E-02  0.1180000E+00
       11   -1    0    0    0    0  0.00000000000E+00  0.00000000000E+00  0.39999999673E+01  0.40000000000E+01  0.51109989000E-03 0.  1.
     -623   -1    0    0    0    0  0.00000000000E+00  0.00000000000E+00  0.12525980253E-10  0.17130000000E+03  0.17130000000E+03 0.  1.
       11    1    1    2    0    0 -0.26081854395E-02 -0.15741441139E-02  0.57628003118E-01  0.57710731475E-01  0.51109989000E-03 0.  1.
     -623    1    1    2    0    0  0.17429317824E-02  0.23179484042E-03  0.79651267315E-03  0.17130000001E+03  0.17130000000E+03 0.  1.
      622    1    1    2    0    0  0.86525365690E-03  0.13423492735E-02  0.39415754519E+01  0.39422892580E+01  0.75000000000E-01 0.  1.
</event>
<event>
 5   0  0.5237200E+07  0.9118800E+02  0.7818608E-02  0.1180000E+00
       11   -1    0    0    0    0  0.00000000000E+00  0.00000000000E+00  0.39999999673E+01  0.40000000000E+01  0.51109989000E-03 0. -1.
     -623   -1    0    0    0    0  0.00000000000E+00  0.00000000000E+00  0.12525980253E-10  0.17130000000E+03  0.17130000000E+03 0. -1.
       11    1    1    2    0    0  0.21398950110E-02  0.12102258469E-01  0.89289204919E+00  0.89297677268E+00  0.51109989000E-03 0. -1.
     -623    1    1    2    0    0 -0.15849291332E-02  0.60539242964E-02  0.10432617093E-02  0.17130000012E+03  0.17130000000E+03 0. -1.
      622    1    1    2    0    0 -0.55496587780E-03 -0.18156182766E-01  0.31060646565E+01  0.31070231098E+01  0.75000000000E-01 0.  0.
</event>
<event>
 5   0  0.5237200E+07  0.9118800E+02  0.7818608E-02  0.1180000E+00
       11   -1    0    0    0    0  0.00000000000E+00  0.00000000000E+00  0.39999999673E+01  0.40000000000E+01  0.51109989000E-03 0.  1.
     -623   -1    0    0    0    0  0.00000000000E+00  0.00000000000E+00  0.12525980253E-10  0.17130000000E+03  0.17130000000E+03 0. -1.
       11    1    1    2    0    0  0.16460140245E-01 -0.15758494237E-01  0.26687644183E+00  0.26784802181E+00  0.51109989000E-03 0.  1.
     -623    1    1    2    0    0  0.20696062313E-02 -0.70307829361E-02  0.18409790640E-02  0.17130000017E+03  0.17130000000E+03 0. -1.
      622    1    1    2    0    0 -0.18529746477E-01  0.22789277173E-01  0.37312825465E+01  0.37321518115E+01  0.75000000000E-01 0.  1.
</event>
<event>
 5   0  0.5237200E+07  0.9118800E+02  0.7818608E-02  0.1180000E+00
       11   -1    0    0    0    0  0.00000000000E+00  0.00000000000E+00  0.39999999673E+01  0.40000000000E+01  0.51109989000E-03 0. -1.
     -623   -1    0    0    0    0  0.00000000000E+00  0.00000000000E+00  0.12525980253E-10  0.17130000000E+03  0.17130000000E+03 0.  1.
       11    1    1    2    0    0  0.15942031490E-02 -0.26869093503E-01  0.66205168725E+00  0.66259881338E+00  0.51109989000E-03 0. -1.
     -623    1    1    2    0    0  0.59110447199E-02  0.94942038073E-02  0.14439735897E-02  0.17130000037E+03  0.17130000000E+03 0.  1.
      622    1    1    2    0    0 -0.75052478694E-02  0.17374889695E-01  0.33365043068E+01  0.33374008157E+01  0.75000000000E-01 0. -1.
</event>
<event>
 5   0  0.5237200E+07  0.9118800E+02  0.7818608E-02  0.1180000E+00
       11   -1    0    0    0    0  0.00000000000E+00  0.00000000000E+00  0.39999999673E+01  0.40000000000E+01  0.51109989000E-03 0. -1.
     -623   -1    0    0    0    0  0.00000000000E+00  0.00000000000E+00  0.12525980253E-10  0.17130000000E+03  0.17130000000E+03 0.  1.
       11    1    1    2    0    0 -0.13243337542E-01 -0.67189767010E-02  0.11465881911E+00  0.11561763127E+00  0.51109989000E-03 0. -1.
     -623    1    1    2    0    0  0.23891551780E-02 -0.80995380337E-02  0.17265561158E-02  0.17130000022E+03  0.17130000000E+03 0.  1.
      622    1    1    2    0    0  0.10854182364E-01  0.14818514735E-01  0.38836145923E+01  0.38843821520E+01  0.75000000000E-01 0. -1.
</event>
<event>
 5   0  0.5237200E+07  0.9118800E+02  0.7818608E-02  0.1180000E+00
       11   -1    0    0    0    0  0.00000000000E+00  0.00000000000E+00  0.39999999673E+01  0.40000000000E+01  0.51109989000E-03 0.  1.
     -623   -1    0    0    0    0  0.00000000000E+00  0.00000000000E+00  0.12525980253E-10  0.17130000000E+03  0.17130000000E+03 0. -1.
       11    1    1    2    0    0 -0.13026254136E-01 -0.16079408555E-01  0.69167766909E+00  0.69198734801E+00  0.51109989000E-03 0.  1.
     -623    1    1    2    0    0  0.73997408759E-02  0.88528361268E-02  0.11730383748E-02  0.17130000039E+03  0.17130000000E+03 0. -1.
      622    1    1    2    0    0  0.56265132599E-02  0.72265724282E-02  0.33071492599E+01  0.33080122594E+01  0.75000000000E-01 0.  1.
</event>
<event>
 5   0  0.5237200E+07  0.9118800E+02  0.7818608E-02  0.1180000E+00
       11   -1    0    0    0    0  0.00000000000E+00  0.00000000000E+00  0.39999999673E+01  0.40000000000E+01  0.51109989000E-03 0.  1.
     -623   -1    0    0    0    0  0.00000000000E+00  0.00000000000E+00  0.12525980253E-10  0.17130000000E+03  0.17130000000E+03 0. -1.
       11    1    1    2    0    0 -0.25652219452E-02 -0.77773356082E-03 -0.42723764392E-03  0.27620623131E-02  0.51109989000E-03 0.  1.
     -623    1    1    2    0    0  0.12179119821E-02  0.27442252979E-02  0.38937215924E-02  0.17130000007E+03  0.17130000000E+03 0. -1.
      622    1    1    2    0    0  0.13473099631E-02 -0.19664917371E-02  0.39965334834E+01  0.39972378671E+01  0.75000000000E-01 0.  1.
</event>
<event>
 5   0  0.5237200E+07  0.9118800E+02  0.7818608E-02  0.1180000E+00
       11   -1    0    0    0    0  0.00000000000E+00  0.00000000000E+00  0.39999999673E+01  0.40000000000E+01  0.51109989000E-03 0. -1.
     -623   -1    0    0    0    0  0.00000000000E+00  0.00000000000E+00  0.12525980253E-10  0.17130000000E+03  0.17130000000E+03 0. -1.
       11    1    1    2    0    0 -0.42559668821E-03 -0.16599242223E-02  0.58594252054E-01  0.58621532545E-01  0.51109989000E-03 0. -1.
     -623    1    1    2    0    0 -0.86003944480E-03 -0.57690183048E-03  0.74174458485E-03  0.17130000000E+03  0.17130000000E+03 0. -1.
      622    1    1    2    0    0  0.12856361331E-02  0.22368260528E-02  0.39406639711E+01  0.39413784631E+01  0.75000000000E-01 0. -1.
</event>
<event>
 5   0  0.5237200E+07  0.9118800E+02  0.7818608E-02  0.1180000E+00
       11   -1    0    0    0    0  0.00000000000E+00  0.00000000000E+00  0.39999999673E+01  0.40000000000E+01  0.51109989000E-03 0.  1.
     -623   -1    0    0    0    0  0.00000000000E+00  0.00000000000E+00  0.12525980253E-10  0.17130000000E+03  0.17130000000E+03 0. -1.
       11    1    1    2    0    0  0.92942830688E-02  0.16059090410E-01  0.24414071570E+00  0.24484531519E+00  0.51109989000E-03 0.  1.
     -623    1    1    2    0    0 -0.24230034953E-01 -0.21454375993E-01  0.14902617812E-02  0.17130000306E+03  0.17130000000E+03 0. -1.
      622    1    1    2    0    0  0.14935751885E-01  0.53952855838E-02  0.37543689900E+01  0.37551516212E+01  0.75000000000E-01 0.  1.
</event>
<event>
 5   0  0.5237200E+07  0.9118800E+02  0.7818608E-02  0.1180000E+00
       11   -1    0    0    0    0  0.00000000000E+00  0.00000000000E+00  0.39999999673E+01  0.40000000000E+01  0.51109989000E-03 0. -1.
     -623   -1    0    0    0    0  0.00000000000E+00  0.00000000000E+00  0.12525980253E-10  0.17130000000E+03  0.17130000000E+03 0. -1.
       11    1    1    2    0    0 -0.32316200536E-02 -0.80387900352E-02  0.71705815311E-01  0.72229153984E-01  0.51109989000E-03 0. -1.
     -623    1    1    2    0    0  0.49624924681E-02  0.10580423097E-02  0.12460919763E-02  0.17130000008E+03  0.17130000000E+03 0. -1.
      622    1    1    2    0    0 -0.17308724145E-02  0.69807477255E-02  0.39270480601E+01  0.39277707663E+01  0.75000000000E-01 0. -1.
</event>
<event>
 5   0  0.5237200E+07  0.9118800E+02  0.7818608E-02  0.1180000E+00
       11   -1    0    0    0    0  0.00000000000E+00  0.00000000000E+00  0.39999999673E+01  0.40000000000E+01  0.51109989000E-03 0. -1.
     -623   -1    0    0    0    0  0.00000000000E+00  0.00000000000E+00  0.12525980253E-10  0.17130000000E+03  0.17130000000E+03 0. -1.
       11    1    1    2    0    0 -0.10155316315E-01 -0.46513586031E-02  0.87379507403E-01  0.88092026429E-01  0.51109989000E-03 0. -1.
     -623    1    1    2    0    0  0.27273267379E-02 -0.12099870901E-02  0.14429886018E-02  0.17130000003E+03  0.17130000000E+03 0. -1.
      622    1    1    2    0    0  0.74279895770E-02  0.58613456932E-02  0.39111774714E+01  0.39119079415E+01  0.75000000000E-01 0. -1.
</event>
<event>
 5   0  0.5237200E+07  0.9118800E+02  0.7818608E-02  0.1180000E+00
       11   -1    0    0    0    0  0.00000000000E+00  0.00000000000E+00  0.39999999673E+01  0.40000000000E+01  0.51109989000E-03 0. -1.
     -623   -1    0    0    0    0  0.00000000000E+00  0.00000000000E+00  0.12525980253E-10  0.17130000000E+03  0.17130000000E+03 0. -1.
       11    1    1    2    0    0  0.72150000677E-02 -0.99923405430E-04  0.84691941338E-01  0.85000308008E-01  0.51109989000E-03 0. -1.
     -623    1    1    2    0    0 -0.53850346707E-02  0.19162053249E-02  0.10277384290E-02  0.17130000010E+03  0.17130000000E+03 0. -1.
      622    1    1    2    0    0 -0.18299653965E-02 -0.18162819197E-02  0.39142802880E+01  0.39149995939E+01  0.75000000000E-01 0. -1.
</event>
<event>
 5   0  0.5237200E+07  0.9118800E+02  0.7818608E-02  0.1180000E+00
       11   -1    0    0    0    0  0.00000000000E+00  0.00000000000E+00  0.39999999673E+01  0.40000000000E+01  0.51109989000E-03 0.  1.
     -623   -1    0    0    0    0  0.00000000000E+00  0.00000000000E+00  0.12525980253E-10  0.17130000000E+03  0.17130000000E+03 0.  1.
       11    1    1    2    0    0  0.22113919125E-01  0.41363390178E-01  0.63725251575E+00  0.63897651406E+00  0.51109989000E-03 0.  1.
     -623    1    1    2    0    0 -0.14190938137E-01  0.90652710266E-02  0.29494941159E-02  0.17130000085E+03  0.17130000000E+03 0.  1.
      622    1    1    2    0    0 -0.79229809877E-02 -0.50428661204E-01  0.33597979575E+01  0.33610226329E+01  0.75000000000E-01 0.  1.
</event>
<event>
 5   0  0.5237200E+07  0.9118800E+02  0.7818608E-02  0.1180000E+00
       11   -1    0    0    0    0  0.00000000000E+00  0.00000000000E+00  0.39999999673E+01  0.40000000000E+01  0.51109989000E-03 0.  1.
     -623   -1    0    0    0    0  0.00000000000E+00  0.00000000000E+00  0.12525980253E-10  0.17130000000E+03  0.17130000000E+03 0. -1.
       11    1    1    2    0    0  0.40361964603E-02  0.14296205344E-01  0.89059054884E-01  0.90290912321E-01  0.51109989000E-03 0.  1.
     -623    1    1    2    0    0  0.15103156323E-01 -0.19012045179E-01  0.20026872381E-02  0.17130000173E+03  0.17130000000E+03 0. -1.
      622    1    1    2    0    0 -0.19139352783E-01  0.47158398348E-02  0.39089382252E+01  0.39097073551E+01  0.75000000000E-01 0.  1.
</event>
<event>
 5   0  0.5237200E+07  0.9118800E+02  0.7818608E-02  0.1180000E+00
       11   -1    0    0    0    0  0.00000000000E+00  0.00000000000E+00  0.39999999673E+01  0.40000000000E+01  0.51109989000E-03 0. -1.
     -623   -1    0    0    0    0  0.00000000000E+00  0.00000000000E+00  0.12525980253E-10  0.17130000000E+03  0.17130000000E+03 0.  1.
       11    1    1    2    0    0  0.16113367335E-01  0.25681962316E-01  0.75348375148E+00  0.75409364721E+00  0.51109989000E-03 0. -1.
     -623    1    1    2    0    0  0.62519699392E-02 -0.72397894714E-02  0.16062099919E-02  0.17130000027E+03  0.17130000000E+03 0.  1.
      622    1    1    2    0    0 -0.22365337274E-01 -0.18442172844E-01  0.32449100059E+01  0.32459060782E+01  0.75000000000E-01 0. -1.
</event>
<event>
 5   0  0.5237200E+07  0.9118800E+02  0.7818608E-02  0.1180000E+00
       11   -1    0    0    0    0  0.00000000000E+00  0.00000000000E+00  0.39999999673E+01  0.40000000000E+01  0.51109989000E-03 0. -1.
     -623   -1    0    0    0    0  0.00000000000E+00  0.00000000000E+00  0.12525980253E-10  0.17130000000E+03  0.17130000000E+03 0. -1.
       11    1    1    2    0    0 -0.15703249135E-01 -0.47953185209E-02  0.12217278227E-01  0.20472181698E-01  0.51109989000E-03 0. -1.
     -623    1    1    2    0    0  0.18823950292E-02  0.68704131039E-02  0.89866049418E-02  0.17130000038E+03  0.17130000000E+03 0. -1.
      622    1    1    2    0    0  0.13820854106E-01 -0.20750945830E-02  0.39787960842E+01  0.39795274345E+01  0.75000000000E-01 0. -1.
</event>
<event>
 5   0  0.5237200E+07  0.9118800E+02  0.7818608E-02  0.1180000E+00
       11   -1    0    0    0    0  0.00000000000E+00  0.00000000000E+00  0.39999999673E+01  0.40000000000E+01  0.51109989000E-03 0.  1.
     -623   -1    0    0    0    0  0.00000000000E+00  0.00000000000E+00  0.12525980253E-10  0.17130000000E+03  0.17130000000E+03 0. -1.
       11    1    1    2    0    0 -0.10778604799E-01 -0.26019618340E-02  0.97550635006E-01  0.98180120900E-01  0.51109989000E-03 0.  1.
     -623    1    1    2    0    0  0.77255141687E-04  0.41027993277E-02  0.13653584401E-02  0.17130000005E+03  0.17130000000E+03 0. -1.
      622    1    1    2    0    0  0.10701349657E-01 -0.15008374936E-02  0.39010839738E+01  0.39018198244E+01  0.75000000000E-01 0.  1.
</event>
<event>
 5   0  0.5237200E+07  0.9118800E+02  0.7818608E-02  0.1180000E+00
       11   -1    0    0    0    0  0.00000000000E+00  0.00000000000E+00  0.39999999673E+01  0.40000000000E+01  0.51109989000E-03 0.  1.
     -623   -1    0    0    0    0  0.00000000000E+00  0.00000000000E+00  0.12525980253E-10  0.17130000000E+03  0.17130000000E+03 0. -1.
       11    1    1    2    0    0 -0.15531405335E-01 -0.36531994451E-01  0.25602998969E+00  0.25908961387E+00  0.51109989000E-03 0.  1.
     -623    1    1    2    0    0  0.10367830018E-02  0.22793099189E-02  0.39964896797E-02  0.17130000006E+03  0.17130000000E+03 0. -1.
      622    1    1    2    0    0  0.14494622334E-01  0.34252684532E-01  0.37399734880E+01  0.37409103212E+01  0.75000000000E-01 0.  1.
</event>
<event>
 5   0  0.5237200E+07  0.9118800E+02  0.7818608E-02  0.1180000E+00
       11   -1    0    0    0    0  0.00000000000E+00  0.00000000000E+00  0.39999999673E+01  0.40000000000E+01  0.51109989000E-03 0.  1.
     -623   -1    0    0    0    0  0.00000000000E+00  0.00000000000E+00  0.12525980253E-10  0.17130000000E+03  0.17130000000E+03 0.  1.
       11    1    1    2    0    0 -0.18804651227E-02  0.16488037953E-01  0.21423642657E+00  0.21487880128E+00  0.51109989000E-03 0.  1.
     -623    1    1    2    0    0  0.64031798430E-02 -0.85700108141E-02  0.13967817424E-02  0.17130000034E+03  0.17130000000E+03 0.  1.
      622    1    1    2    0    0 -0.45227147206E-02 -0.79180271389E-02  0.37843667592E+01  0.37851208591E+01  0.75000000000E-01 0.  1.
</event>
<event>
 5   0  0.5237200E+07  0.9118800E+02  0.7818608E-02  0.1180000E+00
       11   -1    0    0    0    0  0.00000000000E+00  0.00000000000E+00  0.39999999673E+01  0.40000000000E+01  0.51109989000E-03 0. -1.
     -623   -1    0    0    0    0  0.00000000000E+00  0.00000000000E+00  0.12525980253E-10  0.17130000000E+03  0.17130000000E+03 0. -1.
       11    1    1    2    0    0 -0.40066360539E-02  0.10523621891E-02  0.30105127510E-01  0.30393099912E-01  0.51109989000E-03 0. -1.
     -623    1    1    2    0    0  0.18407822374E-02 -0.19275512541E-02  0.99722254097E-03  0.17130000002E+03  0.17130000000E+03 0. -1.
      622    1    1    2    0    0  0.21658538165E-02  0.87518906495E-03  0.39688976173E+01  0.39696068765E+01  0.75000000000E-01 0. -1.
</event>
<event>
 5   0  0.5237200E+07  0.9118800E+02  0.7818608E-02  0.1180000E+00
       11   -1    0    0    0    0  0.00000000000E+00  0.00000000000E+00  0.39999999673E+01  0.40000000000E+01  0.51109989000E-03 0. -1.
     -623   -1    0    0    0    0  0.00000000000E+00  0.00000000000E+00  0.12525980253E-10  0.17130000000E+03  0.17130000000E+03 0. -1.
       11    1    1    2    0    0 -0.15046920914E-01 -0.42797815465E-01  0.32329957845E+00  0.32646736665E+00  0.51109989000E-03 0. -1.
     -623    1    1    2    0    0  0.33636859959E-01  0.36298344803E-03  0.42290061180E-02  0.17130000336E+03  0.17130000000E+03 0. -1.
      622    1    1    2    0    0 -0.18589939045E-01  0.42434832017E-01  0.36724713828E+01  0.36735292783E+01  0.75000000000E-01 0. -1.
</event>
<event>
 5   0  0.5237200E+07  0.9118800E+02  0.7818608E-02  0.1180000E+00
       11   -1    0    0    0    0  0.00000000000E+00  0.00000000000E+00  0.39999999673E+01  0.40000000000E+01  0.51109989000E-03 0. -1.
     -623   -1    0    0    0    0  0.00000000000E+00  0.00000000000E+00  0.12525980253E-10  0.17130000000E+03  0.17130000000E+03 0. -1.
       11    1    1    2    0    0 -0.11153269451E-02 -0.16382747496E-02  0.28643604356E-02  0.35204657338E-02  0.51109989000E-03 0. -1.
     -623    1    1    2    0    0  0.51861670812E-02  0.30716227736E-02  0.13623212303E-02  0.17130000011E+03  0.17130000000E+03 0. -1.
      622    1    1    2    0    0 -0.40708401361E-02 -0.14333480240E-02  0.39957732857E+01  0.39964794228E+01  0.75000000000E-01 0. -1.
</event>
<event>
 5   0  0.5237200E+07  0.9118800E+02  0.7818608E-02  0.1180000E+00
       11   -1    0    0    0    0  0.00000000000E+00  0.00000000000E+00  0.39999999673E+01  0.40000000000E+01  0.51109989000E-03 0. -1.
     -623   -1    0    0    0    0  0.00000000000E+00  0.00000000000E+00  0.12525980253E-10  0.17130000000E+03  0.17130000000E+03 0. -1.
       11    1    1    2    0    0  0.83763173251E-03  0.94571110430E-02  0.64760683237E-01  0.65454914945E-01  0.51109989000E-03 0. -1.
     -623    1    1    2    0    0 -0.18135954661E-02 -0.59591824364E-02  0.14108814869E-02  0.17130000012E+03  0.17130000000E+03 0. -1.
      622    1    1    2    0    0  0.97596373356E-03 -0.34979286065E-02  0.39338284026E+01  0.39345449660E+01  0.75000000000E-01 0. -1.
</event>
<event>
 5   0  0.5237200E+07  0.9118800E+02  0.7818608E-02  0.1180000E+00
       11   -1    0    0    0    0  0.00000000000E+00  0.00000000000E+00  0.39999999673E+01  0.40000000000E+01  0.51109989000E-03 0. -1.
     -623   -1    0    0    0    0  0.00000000000E+00  0.00000000000E+00  0.12525980253E-10  0.17130000000E+03  0.17130000000E+03 0.  1.
       11    1    1    2    0    0 -0.76410670956E-03 -0.26494598429E-03  0.12292668918E-01  0.12329841268E-01  0.51109989000E-03 0. -1.
     -623    1    1    2    0    0 -0.33827096611E-03 -0.54878075488E-04  0.74266833204E-03  0.17130000000E+03  0.17130000000E+03 0.  1.
      622    1    1    2    0    0  0.11023776757E-02  0.31982405978E-03  0.39869646301E+01  0.39876701568E+01  0.75000000000E-01 0. -1.
</event>
<event>
 5   0  0.5237200E+07  0.9118800E+02  0.7818608E-02  0.1180000E+00
       11   -1    0    0    0    0  0.00000000000E+00  0.00000000000E+00  0.39999999673E+01  0.40000000000E+01  0.51109989000E-03 0. -1.
     -623   -1    0    0    0    0  0.00000000000E+00  0.00000000000E+00  0.12525980253E-10  0.17130000000E+03  0.17130000000E+03 0.  1.
       11    1    1    2    0    0 -0.92190794868E-03 -0.15351468625E-02  0.18640888507E-02  0.26348890861E-02  0.51109989000E-03 0. -1.
     -623    1    1    2    0    0 -0.89241172287E-02 -0.61167596044E-03  0.14873628021E-02  0.17130000024E+03  0.17130000000E+03 0.  1.
      622    1    1    2    0    0  0.98460251774E-02  0.21468228230E-02  0.39966485157E+01  0.39973648709E+01  0.75000000000E-01 0. -1.
</event>
<event>
 5   0  0.5237200E+07  0.9118800E+02  0.7818608E-02  0.1180000E+00
       11   -1    0    0    0    0  0.00000000000E+00  0.00000000000E+00  0.39999999673E+01  0.40000000000E+01  0.51109989000E-03 0. -1.
     -623   -1    0    0    0    0  0.00000000000E+00  0.00000000000E+00  0.12525980253E-10  0.17130000000E+03  0.17130000000E+03 0.  1.
       11    1    1    2    0    0  0.22001033303E-01 -0.25543896355E-01  0.19776189742E+00  0.20061546651E+00  0.51109989000E-03 0. -1.
     -623    1    1    2    0    0  0.30437919872E-02  0.18417995572E-01  0.36841633547E-02  0.17130000106E+03  0.17130000000E+03 0.  1.
      622    1    1    2    0    0 -0.25044825290E-01  0.71259007832E-02  0.37985539066E+01  0.37993834767E+01  0.75000000000E-01 0. -1.
</event>
<event>
 5   0  0.5237200E+07  0.9118800E+02  0.7818608E-02  0.1180000E+00
       11   -1    0    0    0    0  0.00000000000E+00  0.00000000000E+00  0.39999999673E+01  0.40000000000E+01  0.51109989000E-03 0. -1.
     -623   -1    0    0    0    0  0.00000000000E+00  0.00000000000E+00  0.12525980253E-10  0.17130000000E+03  0.17130000000E+03 0. -1.
       11    1    1    2    0    0 -0.19087870731E-02  0.20372030390E-01  0.20376578525E+00  0.20479116082E+00  0.51109989000E-03 0. -1.
     -623    1    1    2    0    0  0.94752966430E-02 -0.61984872852E-02  0.18008806351E-02  0.17130000038E+03  0.17130000000E+03 0. -1.
      622    1    1    2    0    0 -0.75665095705E-02 -0.14173543105E-01  0.37944333017E+01  0.37952084557E+01  0.75000000000E-01 0. -1.
</event>
<event>
 5   0  0.5237200E+07  0.9118800E+02  0.7818608E-02  0.1180000E+00
       11   -1    0    0    0    0  0.00000000000E+00  0.00000000000E+00  0.39999999673E+01  0.40000000000E+01  0.51109989000E-03 0. -1.
     -623   -1    0    0    0    0  0.00000000000E+00  0.00000000000E+00  0.12525980253E-10  0.17130000000E+03  0.17130000000E+03 0.  1.
       11    1    1    2    0    0  0.76267233711E-03 -0.79337436907E-03  0.91088910565E-01  0.91096992063E-01  0.51109989000E-03 0. -1.
     -623    1    1    2    0    0 -0.54862906582E-03  0.58994223903E-04  0.72770371443E-03  0.17130000000E+03  0.17130000000E+03 0.  1.
      622    1    1    2    0    0 -0.21404327129E-03  0.73438014517E-03  0.39081833530E+01  0.39089030054E+01  0.75000000000E-01 0. -1.
</event>
<event>
 5   0  0.5237200E+07  0.9118800E+02  0.7818608E-02  0.1180000E+00
       11   -1    0    0    0    0  0.00000000000E+00  0.00000000000E+00  0.39999999673E+01  0.40000000000E+01  0.51109989000E-03 0.  1.
     -623   -1    0    0    0    0  0.00000000000E+00  0.00000000000E+00  0.12525980253E-10  0.17130000000E+03  0.17130000000E+03 0. -1.
       11    1    1    2    0    0 -0.17684757664E-01  0.20177348063E-01  0.16027449063E-01  0.31257261121E-01  0.51109989000E-03 0.  1.
     -623    1    1    2    0    0  0.20527935227E-01 -0.99595206837E-02  0.15954942626E-01  0.17130000226E+03  0.17130000000E+03 0. -1.
      622    1    1    2    0    0 -0.28431775622E-02 -0.10217827379E-01  0.39680175757E+01  0.39687404763E+01  0.75000000000E-01 0.  1.
</event>
<event>
 5   0  0.5237200E+07  0.9118800E+02  0.7818608E-02  0.1180000E+00
       11   -1    0    0    0    0  0.00000000000E+00  0.00000000000E+00  0.39999999673E+01  0.40000000000E+01  0.51109989000E-03 0.  1.
     -623   -1    0    0    0    0  0.00000000000E+00  0.00000000000E+00  0.12525980253E-10  0.17130000000E+03  0.17130000000E+03 0.  1.
       11    1    1    2    0    0 -0.10318143468E-03  0.42643212622E-03  0.28407718388E-02  0.29195373785E-02  0.51109989000E-03 0. -1.
     -623    1    1    2    0    0 -0.14411251688E-02  0.55694220566E-02  0.78732808722E-03  0.17130000010E+03  0.17130000000E+03 0.  1.
      622    1    1    2    0    0  0.15443066035E-02 -0.59958541829E-02  0.39963718675E+01  0.39970803642E+01  0.75000000000E-01 0.  1.
</event>
<event>
 5   0  0.5237200E+07  0.9118800E+02  0.7818608E-02  0.1180000E+00
       11   -1    0    0    0    0  0.00000000000E+00  0.00000000000E+00  0.39999999673E+01  0.40000000000E+01  0.51109989000E-03 0.  1.
     -623   -1    0    0    0    0  0.00000000000E+00  0.00000000000E+00  0.12525980253E-10  0.17130000000E+03  0.17130000000E+03 0.  1.
       11    1    1    2    0    0  0.37688585350E-02 -0.60778808173E-02  0.24973201489E+00  0.24983491632E+00  0.51109989000E-03 0.  1.
     -623    1    1    2    0    0 -0.26236900052E-01 -0.76690609404E-03  0.92849211727E-03  0.17130000201E+03  0.17130000000E+03 0.  1.
      622    1    1    2    0    0  0.22468041517E-01  0.68447869114E-02  0.37493394603E+01  0.37501630702E+01  0.75000000000E-01 0.  1.
</event>
<event>
 5   0  0.5237200E+07  0.9118800E+02  0.7818608E-02  0.1180000E+00
       11   -1    0    0    0    0  0.00000000000E+00  0.00000000000E+00  0.39999999673E+01  0.40000000000E+01  0.51109989000E-03 0.  1.
     -623   -1    0    0    0    0  0.00000000000E+00  0.00000000000E+00  0.12525980253E-10  0.17130000000E+03  0.17130000000E+03 0. -1.
       11    1    1    2    0    0  0.18386012825E-01 -0.93873341598E-02  0.53144418379E+00  0.53184523051E+00  0.51109989000E-03 0.  1.
     -623    1    1    2    0    0  0.61134495944E-02  0.70506286673E-02  0.12996603602E-02  0.17130000026E+03  0.17130000000E+03 0. -1.
      622    1    1    2    0    0 -0.24499462419E-01  0.23367054926E-02  0.34672561232E+01  0.34681545104E+01  0.75000000000E-01 0.  1.
</event>
<event>
 5   0  0.5237200E+07  0.9118800E+02  0.7818608E-02  0.1180000E+00
       11   -1    0    0    0    0  0.00000000000E+00  0.00000000000E+00  0.39999999673E+01  0.40000000000E+01  0.51109989000E-03 0. -1.
     -623   -1    0    0    0    0  0.00000000000E+00  0.00000000000E+00  0.12525980253E-10  0.17130000000E+03  0.17130000000E+03 0.  1.
       11    1    1    2    0    0  0.11083128644E-01  0.41855267241E-02  0.29296167527E-01  0.31605079170E-01  0.51109989000E-03 0. -1.
     -623    1    1    2    0    0 -0.13939596982E-01  0.16958273109E-02  0.30236567264E-02  0.17130000060E+03  0.17130000000E+03 0.  1.
      622    1    1    2    0    0  0.28564683374E-02 -0.58813540349E-02  0.39676801430E+01  0.39683943185E+01  0.75000000000E-01 0. -1.
</event>
<event>
 5   0  0.5237200E+07  0.9118800E+02  0.7818608E-02  0.1180000E+00
       11   -1    0    0    0    0  0.00000000000E+00  0.00000000000E+00  0.39999999673E+01  0.40000000000E+01  0.51109989000E-03 0.  1.
     -623   -1    0    0    0    0  0.00000000000E+00  0.00000000000E+00  0.12525980253E-10  0.17130000000E+03  0.17130000000E+03 0.  1.
       11    1    1    2    0    0 -0.13238995159E-01 -0.28941347797E-02  0.43732899601E-01  0.45787277049E-01  0.51109989000E-03 0.  1.
     -623    1    1    2    0    0 -0.17132034578E-01  0.28951408224E-01  0.29715374266E-02  0.17130000333E+03  0.17130000000E+03 0.  1.
      622    1    1    2    0    0  0.30371029737E-01 -0.26057273446E-01  0.39532955305E+01  0.39542093941E+01  0.75000000000E-01 0.  1.
</event>
<event>
 5   0  0.5237200E+07  0.9118800E+02  0.7818608E-02  0.1180000E+00
       11   -1    0    0    0    0  0.00000000000E+00  0.00000000000E+00  0.39999999673E+01  0.40000000000E+01  0.51109989000E-03 0.  1.
     -623   -1    0    0    0    0  0.00000000000E+00  0.00000000000E+00  0.12525980253E-10  0.17130000000E+03  0.17130000000E+03 0.  1.
       11    1    1    2    0    0  0.58131684288E-03  0.22363035528E-02  0.17804166939E-01  0.17960750718E-01  0.51109989000E-03 0.  1.
     -623    1    1    2    0    0 -0.17912706516E-01 -0.15208438449E-01  0.92338144368E-03  0.17130000161E+03  0.17130000000E+03 0.  1.
      622    1    1    2    0    0  0.17331389674E-01  0.12972134897E-01  0.39812724193E+01  0.39820376354E+01  0.75000000000E-01 0.  1.
</event>
<event>
 5   0  0.5237200E+07  0.9118800E+02  0.7818608E-02  0.1180000E+00
       11   -1    0    0    0    0  0.00000000000E+00  0.00000000000E+00  0.39999999673E+01  0.40000000000E+01  0.51109989000E-03 0.  1.
     -623   -1    0    0    0    0  0.00000000000E+00  0.00000000000E+00  0.12525980253E-10  0.17130000000E+03  0.17130000000E+03 0.  1.
       11    1    1    2    0    0  0.15532912628E-02  0.13813368840E-02  0.33655911102E-01  0.33723914075E-01  0.51109989000E-03 0.  1.
     -623    1    1    2    0    0 -0.13129810647E-02  0.18614062055E-02  0.77848720265E-03  0.17130000002E+03  0.17130000000E+03 0.  1.
      622    1    1    2    0    0 -0.24031019811E-03 -0.32427430895E-02  0.39655655691E+01  0.39662760690E+01  0.75000000000E-01 0.  1.
</event>
<event>
 5   0  0.5237200E+07  0.9118800E+02  0.7818608E-02  0.1180000E+00
       11   -1    0    0    0    0  0.00000000000E+00  0.00000000000E+00  0.39999999673E+01  0.40000000000E+01  0.51109989000E-03 0. -1.
     -623   -1    0    0    0    0  0.00000000000E+00  0.00000000000E+00  0.12525980253E-10  0.17130000000E+03  0.17130000000E+03 0.  1.
       11    1    1    2    0    0  0.21478410059E-01  0.24788163915E-02  0.67555687421E+00  0.67590296503E+00  0.51109989000E-03 0. -1.
     -623    1    1    2    0    0  0.14360794934E-01  0.10078850607E-01  0.14101498199E-02  0.17130000090E+03  0.17130000000E+03 0.  1.
      622    1    1    2    0    0 -0.35839204993E-01 -0.12557666998E-01  0.33230329433E+01  0.33240961307E+01  0.75000000000E-01 0.  0.
</event>
<event>
 5   0  0.5237200E+07  0.9118800E+02  0.7818608E-02  0.1180000E+00
       11   -1    0    0    0    0  0.00000000000E+00  0.00000000000E+00  0.39999999673E+01  0.40000000000E+01  0.51109989000E-03 0. -1.
     -623   -1    0    0    0    0  0.00000000000E+00  0.00000000000E+00  0.12525980253E-10  0.17130000000E+03  0.17130000000E+03 0. -1.
       11    1    1    2    0    0 -0.14677791319E-02  0.24864128034E-02  0.31510318863E-01  0.31646453827E-01  0.51109989000E-03 0. -1.
     -623    1    1    2    0    0  0.43797919164E-02 -0.28019444391E-02  0.84606001696E-03  0.17130000008E+03  0.17130000000E+03 0. -1.
      622    1    1    2    0    0 -0.29120127846E-02  0.31553163570E-03  0.39676435885E+01  0.39683534652E+01  0.75000000000E-01 0. -1.
</event>
<event>
 5   0  0.5237200E+07  0.9118800E+02  0.7818608E-02  0.1180000E+00
       11   -1    0    0    0    0  0.00000000000E+00  0.00000000000E+00  0.39999999673E+01  0.40000000000E+01  0.51109989000E-03 0. -1.
     -623   -1    0    0    0    0  0.00000000000E+00  0.00000000000E+00  0.12525980253E-10  0.17130000000E+03  0.17130000000E+03 0.  1.
       11    1    1    2    0    0 -0.34313819797E-02 -0.20796233098E-02  0.32595777905E-01  0.32845778659E-01  0.51109989000E-03 0. -1.
     -623    1    1    2    0    0  0.43071916336E-02  0.34062415435E-02  0.95938720700E-03  0.17130000009E+03  0.17130000000E+03 0.  1.
      622    1    1    2    0    0 -0.87580965402E-03 -0.13266182338E-02  0.39664448024E+01  0.39671541308E+01  0.75000000000E-01 0. -1.
</event>
<event>
 5   0  0.5237200E+07  0.9118800E+02  0.7818608E-02  0.1180000E+00
       11   -1    0    0    0    0  0.00000000000E+00  0.00000000000E+00  0.39999999673E+01  0.40000000000E+01  0.51109989000E-03 0. -1.
     -623   -1    0    0    0    0  0.00000000000E+00  0.00000000000E+00  0.12525980253E-10  0.17130000000E+03  0.17130000000E+03 0.  1.
       11    1    1    2    0    0 -0.11650068042E-03  0.61895252803E-03  0.28010094101E-02  0.29160845628E-02  0.51109989000E-03 0. -1.
     -623    1    1    2    0    0  0.13193049149E-02 -0.17608405407E-02  0.81910265788E-03  0.17130000002E+03  0.17130000000E+03 0.  1.
      622    1    1    2    0    0 -0.12028042345E-02  0.11418880127E-02  0.39963798553E+01  0.39970838993E+01  0.75000000000E-01 0. -1.
</event>
<event>
 5   0  0.5237200E+07  0.9118800E+02  0.7818608E-02  0.1180000E+00
       11   -1    0    0    0    0  0.00000000000E+00  0.00000000000E+00  0.39999999673E+01  0.40000000000E+01  0.51109989000E-03 0. -1.
     -623   -1    0    0    0    0  0.00000000000E+00  0.00000000000E+00  0.12525980253E-10  0.17130000000E+03  0.17130000000E+03 0. -1.
       11    1    1    2    0    0  0.32592244447E-02  0.51996432704E-02  0.20668268246E+00  0.20677439708E+00  0.51109989000E-03 0. -1.
     -623    1    1    2    0    0 -0.46624198967E-02 -0.16290381416E-01  0.85052467170E-03  0.17130000084E+03  0.17130000000E+03 0. -1.
      622    1    1    2    0    0  0.14031954530E-02  0.11090738149E-01  0.37924667610E+01  0.37932247635E+01  0.75000000000E-01 0. -1.
</event>
<event>
 5   0  0.5237200E+07  0.9118800E+02  0.7818608E-02  0.1180000E+00
       11   -1    0    0    0    0  0.00000000000E+00  0.00000000000E+00  0.39999999673E+01  0.40000000000E+01  0.51109989000E-03 0.  1.
     -623   -1    0    0    0    0  0.00000000000E+00  0.00000000000E+00  0.12525980253E-10  0.17130000000E+03  0.17130000000E+03 0.  1.
       11    1    1    2    0    0  0.82721335686E-02 -0.55152079095E-01  0.30195451417E+00  0.30706183395E+00  0.51109989000E-03 0.  1.
     -623    1    1    2    0    0 -0.24173106565E-01  0.16997754128E-01  0.61030002589E-02  0.17130000266E+03  0.17130000000E+03 0.  1.
      622    1    1    2    0    0  0.15900972997E-01  0.38154324967E-01  0.36919424529E+01  0.36929355084E+01  0.75000000000E-01 0.  1.
</event>
<event>
 5   0  0.5237200E+07  0.9118800E+02  0.7818608E-02  0.1180000E+00
       11   -1    0    0    0    0  0.00000000000E+00  0.00000000000E+00  0.39999999673E+01  0.40000000000E+01  0.51109989000E-03 0. -1.
     -623   -1    0    0    0    0  0.00000000000E+00  0.00000000000E+00  0.12525980253E-10  0.17130000000E+03  0.17130000000E+03 0. -1.
       11    1    1    2    0    0 -0.37177480475E-02  0.79675520987E-02  0.11244751502E+00  0.11279188088E+00  0.51109989000E-03 0. -1.
     -623    1    1    2    0    0  0.44361884492E-03 -0.31249417368E-02  0.10723561172E-02  0.17130000003E+03  0.17130000000E+03 0. -1.
      622    1    1    2    0    0  0.32741292026E-02 -0.48426103618E-02  0.38864800964E+01  0.38872080868E+01  0.75000000000E-01 0. -1.
</event>
<event>
 5   0  0.5237200E+07  0.9118800E+02  0.7818608E-02  0.1180000E+00
       11   -1    0    0    0    0  0.00000000000E+00  0.00000000000E+00  0.39999999673E+01  0.40000000000E+01  0.51109989000E-03 0. -1.
     -623   -1    0    0    0    0  0.00000000000E+00  0.00000000000E+00  0.12525980253E-10  0.17130000000E+03  0.17130000000E+03 0.  1.
       11    1    1    2    0    0  0.48392407255E-03  0.41569153917E-02  0.18034684764E-02  0.45856130716E-02  0.51109989000E-03 0. -1.
     -623    1    1    2    0    0 -0.43177540498E-02 -0.42879591298E-02  0.34880914539E-02  0.17130000014E+03  0.17130000000E+03 0.  1.
      622    1    1    2    0    0  0.38338299773E-02  0.13104373804E-03  0.39947084074E+01  0.39954142433E+01  0.75000000000E-01 0. -1.
</event>
<event>
 5   0  0.5237200E+07  0.9118800E+02  0.7818608E-02  0.1180000E+00
       11   -1    0    0    0    0  0.00000000000E+00  0.00000000000E+00  0.39999999673E+01  0.40000000000E+01  0.51109989000E-03 0.  1.
     -623   -1    0    0    0    0  0.00000000000E+00  0.00000000000E+00  0.12525980253E-10  0.17130000000E+03  0.17130000000E+03 0.  1.
       11    1    1    2    0    0  0.27184578211E-02  0.14620090399E-01  0.15455224751E+00  0.15526685251E+00  0.51109989000E-03 0.  1.
     -623    1    1    2    0    0 -0.62676702951E-01  0.34802573918E-02  0.19679380727E-02  0.17130001151E+03  0.17130000000E+03 0.  1.
      622    1    1    2    0    0  0.59958245130E-01 -0.18100347791E-01  0.38434797818E+01  0.38447216345E+01  0.75000000000E-01 0.  1.
</event>
<event>
 5   0  0.5237200E+07  0.9118800E+02  0.7818608E-02  0.1180000E+00
       11   -1    0    0    0    0  0.00000000000E+00  0.00000000000E+00  0.39999999673E+01  0.40000000000E+01  0.51109989000E-03 0.  1.
     -623   -1    0    0    0    0  0.00000000000E+00  0.00000000000E+00  0.12525980253E-10  0.17130000000E+03  0.17130000000E+03 0.  1.
       11    1    1    2    0    0 -0.50856156413E-03  0.11116441054E-02  0.21155276673E-01  0.21196729484E-01  0.51109989000E-03 0.  1.
     -623    1    1    2    0    0 -0.71100561822E-03 -0.42176464502E-03  0.74860420292E-03  0.17130000000E+03  0.17130000000E+03 0.  1.
      622    1    1    2    0    0  0.12195671823E-02 -0.68987946040E-03  0.39780960865E+01  0.39788032669E+01  0.75000000000E-01 0.  1.
</event>
<event>
 5   0  0.5237200E+07  0.9118800E+02  0.7818608E-02  0.1180000E+00
       11   -1    0    0    0    0  0.00000000000E+00  0.00000000000E+00  0.39999999673E+01  0.40000000000E+01  0.51109989000E-03 0. -1.
     -623   -1    0    0    0    0  0.00000000000E+00  0.00000000000E+00  0.12525980253E-10  0.17130000000E+03  0.17130000000E+03 0.  1.
       11    1    1    2    0    0 -0.19397732880E-01 -0.23218774950E-01  0.19363706706E+00  0.19598713864E+00  0.51109989000E-03 0. -1.
     -623    1    1    2    0    0 -0.11839792508E-01  0.23926530657E-01  0.32199225272E-02  0.17130000211E+03  0.17130000000E+03 0.  1.
      622    1    1    2    0    0  0.31237525388E-01 -0.70775570598E-03  0.38031429777E+01  0.38040107509E+01  0.75000000000E-01 0. -1.
</event>
<event>
 5   0  0.5237200E+07  0.9118800E+02  0.7818608E-02  0.1180000E+00
       11   -1    0    0    0    0  0.00000000000E+00  0.00000000000E+00  0.39999999673E+01  0.40000000000E+01  0.51109989000E-03 0. -1.
     -623   -1    0    0    0    0  0.00000000000E+00  0.00000000000E+00  0.12525980253E-10  0.17130000000E+03  0.17130000000E+03 0. -1.
       11    1    1    2    0    0  0.86363804799E-02  0.59161362439E-02  0.18239524288E+00  0.18269612361E+00  0.51109989000E-03 0. -1.
     -623    1    1    2    0    0  0.83469712784E-04  0.18733290367E-02  0.10556196063E-02  0.17130000001E+03  0.17130000000E+03 0. -1.
      622    1    1    2    0    0 -0.87198501927E-02 -0.77894652806E-02  0.38165491050E+01  0.38173038630E+01  0.75000000000E-01 0. -1.
</event>
<event>
 5   0  0.5237200E+07  0.9118800E+02  0.7818608E-02  0.1180000E+00
       11   -1    0    0    0    0  0.00000000000E+00  0.00000000000E+00  0.39999999673E+01  0.40000000000E+01  0.51109989000E-03 0. -1.
     -623   -1    0    0    0    0  0.00000000000E+00  0.00000000000E+00  0.12525980253E-10  0.17130000000E+03  0.17130000000E+03 0. -1.
       11    1    1    2    0    0 -0.52379907185E-02 -0.11303230641E-02  0.29172294248E-01  0.29664762765E-01  0.51109989000E-03 0. -1.
     -623    1    1    2    0    0  0.96465047137E-03  0.29728957446E-02  0.12036380779E-02  0.17130000003E+03  0.17130000000E+03 0. -1.
      622    1    1    2    0    0  0.42733402471E-02 -0.18425726805E-02  0.39696240350E+01  0.39703352045E+01  0.75000000000E-01 0. -1.
</event>
<event>
 5   0  0.5237200E+07  0.9118800E+02  0.7818608E-02  0.1180000E+00
       11   -1    0    0    0    0  0.00000000000E+00  0.00000000000E+00  0.39999999673E+01  0.40000000000E+01  0.51109989000E-03 0. -1.
     -623   -1    0    0    0    0  0.00000000000E+00  0.00000000000E+00  0.12525980253E-10  0.17130000000E+03  0.17130000000E+03 0. -1.
       11    1    1    2    0    0 -0.33086288324E-02  0.45736251678E-02  0.57358055012E+00  0.57360855448E+00  0.51109989000E-03 0. -1.
     -623    1    1    2    0    0  0.56336497069E-03 -0.13635177885E-02  0.85151707507E-03  0.17130000001E+03  0.17130000000E+03 0. -1.
      622    1    1    2    0    0  0.27452638617E-02 -0.32101073794E-02  0.34255679000E+01  0.34263914369E+01  0.75000000000E-01 0. -1.
</event>
<event>
 5   0  0.5237200E+07  0.9118800E+02  0.7818608E-02  0.1180000E+00
       11   -1    0    0    0    0  0.00000000000E+00  0.00000000000E+00  0.39999999673E+01  0.40000000000E+01  0.51109989000E-03 0. -1.
     -623   -1    0    0    0    0  0.00000000000E+00  0.00000000000E+00  0.12525980253E-10  0.17130000000E+03  0.17130000000E+03 0. -1.
       11    1    1    2    0    0 -0.88569590898E-03  0.17201156136E-03  0.64889227105E-03  0.12232454772E-02  0.51109989000E-03 0. -1.
     -623    1    1    2    0    0  0.40054586172E-04 -0.12302959412E-02  0.12779612073E-02  0.17130000001E+03  0.17130000000E+03 0. -1.
      622    1    1    2    0    0  0.84564132281E-03  0.10582843800E-02  0.39980731142E+01  0.39987767457E+01  0.75000000000E-01 0. -1.
</event>
<event>
 5   0  0.5237200E+07  0.9118800E+02  0.7818608E-02  0.1180000E+00
       11   -1    0    0    0    0  0.00000000000E+00  0.00000000000E+00  0.39999999673E+01  0.40000000000E+01  0.51109989000E-03 0. -1.
     -623   -1    0    0    0    0  0.00000000000E+00  0.00000000000E+00  0.12525980253E-10  0.17130000000E+03  0.17130000000E+03 0.  1.
       11    1    1    2    0    0  0.96645995199E-02 -0.21009932791E-02  0.30883777790E+00  0.30899652577E+00  0.51109989000E-03 0. -1.
     -623    1    1    2    0    0 -0.17631347413E-01 -0.12078848020E-01  0.95796094384E-03  0.17130000134E+03  0.17130000000E+03 0.  1.
      622    1    1    2    0    0  0.79667478947E-02  0.14179841300E-01  0.36902042289E+01  0.36910021387E+01  0.75000000000E-01 0. -1.
</event>
<event>
 5   0  0.5237200E+07  0.9118800E+02  0.7818608E-02  0.1180000E+00
       11   -1    0    0    0    0  0.00000000000E+00  0.00000000000E+00  0.39999999673E+01  0.40000000000E+01  0.51109989000E-03 0. -1.
     -623   -1    0    0    0    0  0.00000000000E+00  0.00000000000E+00  0.12525980253E-10  0.17130000000E+03  0.17130000000E+03 0.  1.
       11    1    1    2    0    0  0.10629284476E-01 -0.38469160214E-02  0.39235214950E+00  0.39251528746E+00  0.51109989000E-03 0. -1.
     -623    1    1    2    0    0 -0.12034380610E-03 -0.27577702718E-02  0.96420109436E-03  0.17130000002E+03  0.17130000000E+03 0.  1.
      622    1    1    2    0    0 -0.10508940670E-01  0.66046862932E-02  0.36066836168E+01  0.36074846876E+01  0.75000000000E-01 0. -1.
</event>
<event>
 5   0  0.5237200E+07  0.9118800E+02  0.7818608E-02  0.1180000E+00
       11   -1    0    0    0    0  0.00000000000E+00  0.00000000000E+00  0.39999999673E+01  0.40000000000E+01  0.51109989000E-03 0.  1.
     -623   -1    0    0    0    0  0.00000000000E+00  0.00000000000E+00  0.12525980253E-10  0.17130000000E+03  0.17130000000E+03 0.  1.
       11    1    1    2    0    0 -0.70554377303E-02  0.27206106045E-02  0.41432977446E-01  0.42120467290E-01  0.51109989000E-03 0.  1.
     -623    1    1    2    0    0  0.14346106357E-01 -0.22739825325E-02  0.14054918508E-02  0.17130000062E+03  0.17130000000E+03 0.  1.
      622    1    1    2    0    0 -0.72906686271E-02 -0.44662807202E-03  0.39571614981E+01  0.39578789111E+01  0.75000000000E-01 0.  1.
</event>
<event>
 5   0  0.5237200E+07  0.9118800E+02  0.7818608E-02  0.1180000E+00
       11   -1    0    0    0    0  0.00000000000E+00  0.00000000000E+00  0.39999999673E+01  0.40000000000E+01  0.51109989000E-03 0. -1.
     -623   -1    0    0    0    0  0.00000000000E+00  0.00000000000E+00  0.12525980253E-10  0.17130000000E+03  0.17130000000E+03 0.  1.
       11    1    1    2    0    0 -0.44322018855E-02 -0.84578999486E-02  0.32155050304E+00  0.32169266033E+00  0.51109989000E-03 0. -1.
     -623    1    1    2    0    0 -0.48619174883E-03 -0.14123725358E-02  0.92336571219E-03  0.17130000001E+03  0.17130000000E+03 0.  1.
      622    1    1    2    0    0  0.49183936343E-02  0.98702724845E-02  0.36775260988E+01  0.36783073308E+01  0.75000000000E-01 0. -1.
</event>
<event>
 5   0  0.5237200E+07  0.9118800E+02  0.7818608E-02  0.1180000E+00
       11   -1    0    0    0    0  0.00000000000E+00  0.00000000000E+00  0.39999999673E+01  0.40000000000E+01  0.51109989000E-03 0. -1.
     -623   -1    0    0    0    0  0.00000000000E+00  0.00000000000E+00  0.12525980253E-10  0.17130000000E+03  0.17130000000E+03 0.  1.
       11    1    1    2    0    0 -0.14109261872E-02  0.25119431096E-01  0.25054142528E+00  0.25180199271E+00  0.51109989000E-03 0. -1.
     -623    1    1    2    0    0 -0.13292661322E-01 -0.17788697728E-02  0.21130427509E-02  0.17130000054E+03  0.17130000000E+03 0.  1.
      622    1    1    2    0    0  0.14703587510E-01 -0.23340561324E-01  0.37473454994E+01  0.37481974694E+01  0.75000000000E-01 0. -1.
</event>
<event>
 5   0  0.5237200E+07  0.9118800E+02  0.7818608E-02  0.1180000E+00
       11   -1    0    0    0    0  0.00000000000E+00  0.00000000000E+00  0.39999999673E+01  0.40000000000E+01  0.51109989000E-03 0.  1.
     -623   -1    0    0    0    0  0.00000000000E+00  0.00000000000E+00  0.12525980253E-10  0.17130000000E+03  0.17130000000E+03 0.  1.
       11    1    1    2    0    0  0.57395046559E-03  0.15619273819E-02  0.12829755630E-01  0.12947312034E-01  0.51109989000E-03 0.  1.
     -623    1    1    2    0    0  0.11794100021E-02 -0.33475912063E-02  0.82381875964E-03  0.17130000004E+03  0.17130000000E+03 0.  1.
      622    1    1    2    0    0 -0.17533604679E-02  0.17856638249E-02  0.39863463936E+01  0.39870526499E+01  0.75000000000E-01 0.  1.
</event>
<event>
 5   0  0.5237200E+07  0.9118800E+02  0.7818608E-02  0.1180000E+00
       11   -1    0    0    0    0  0.00000000000E+00  0.00000000000E+00  0.39999999673E+01  0.40000000000E+01  0.51109989000E-03 0. -1.
     -623   -1    0    0    0    0  0.00000000000E+00  0.00000000000E+00  0.12525980253E-10  0.17130000000E+03  0.17130000000E+03 0. -1.
       11    1    1    2    0    0 -0.34292571263E-02  0.28376688600E-02  0.69010354572E-01  0.69155639166E-01  0.51109989000E-03 0. -1.
     -623    1    1    2    0    0 -0.17590261654E-02 -0.61891595278E-02  0.86578889754E-03  0.17130000012E+03  0.17130000000E+03 0. -1.
      622    1    1    2    0    0  0.51882832917E-02  0.33514906678E-02  0.39301238239E+01  0.39308442378E+01  0.75000000000E-01 0. -1.
</event>
<event>
 5   0  0.5237200E+07  0.9118800E+02  0.7818608E-02  0.1180000E+00
       11   -1    0    0    0    0  0.00000000000E+00  0.00000000000E+00  0.39999999673E+01  0.40000000000E+01  0.51109989000E-03 0. -1.
     -623   -1    0    0    0    0  0.00000000000E+00  0.00000000000E+00  0.12525980253E-10  0.17130000000E+03  0.17130000000E+03 0.  1.
       11    1    1    2    0    0  0.57673480810E-02  0.18089259992E-02  0.15876252669E+00  0.15887836737E+00  0.51109989000E-03 0. -1.
     -623    1    1    2    0    0 -0.41739760897E-03  0.65952503716E-03  0.85260950081E-03  0.17130000000E+03  0.17130000000E+03 0.  1.
      622    1    1    2    0    0 -0.53499504720E-02 -0.24684510363E-02  0.38403848312E+01  0.38411216287E+01  0.75000000000E-01 0. -1.
</event>
<event>
 5   0  0.5237200E+07  0.9118800E+02  0.7818608E-02  0.1180000E+00
       11   -1    0    0    0    0  0.00000000000E+00  0.00000000000E+00  0.39999999673E+01  0.40000000000E+01  0.51109989000E-03 0. -1.
     -623   -1    0    0    0    0  0.00000000000E+00  0.00000000000E+00  0.12525980253E-10  0.17130000000E+03  0.17130000000E+03 0. -1.
       11    1    1    2    0    0  0.30567342778E-02 -0.95890044840E-02  0.36577219017E-02  0.10720670877E-01  0.51109989000E-03 0. -1.
     -623    1    1    2    0    0  0.54682818102E-02 -0.11804601092E-01  0.78351522842E-02  0.17130000067E+03  0.17130000000E+03 0. -1.
      622    1    1    2    0    0 -0.85250160881E-02  0.21393605576E-01  0.39885070932E+01  0.39892786559E+01  0.75000000000E-01 0. -1.
</event>
<event>
 5   0  0.5237200E+07  0.9118800E+02  0.7818608E-02  0.1180000E+00
       11   -1    0    0    0    0  0.00000000000E+00  0.00000000000E+00  0.39999999673E+01  0.40000000000E+01  0.51109989000E-03 0. -1.
     -623   -1    0    0    0    0  0.00000000000E+00  0.00000000000E+00  0.12525980253E-10  0.17130000000E+03  0.17130000000E+03 0.  1.
       11    1    1    2    0    0  0.16308249443E-02  0.49860386706E-03  0.23845460442E-02  0.29758156445E-02  0.51109989000E-03 0. -1.
     -623    1    1    2    0    0 -0.13581120802E-03  0.28512069818E-02  0.12966596706E-02  0.17130000003E+03  0.17130000000E+03 0.  1.
      622    1    1    2    0    0 -0.14950137363E-02 -0.33498108489E-02  0.39963187617E+01  0.39970241557E+01  0.75000000000E-01 0. -1.
</event>
<event>
 5   0  0.5237200E+07  0.9118800E+02  0.7818608E-02  0.1180000E+00
       11   -1    0    0    0    0  0.00000000000E+00  0.00000000000E+00  0.39999999673E+01  0.40000000000E+01  0.51109989000E-03 0.  1.
     -623   -1    0    0    0    0  0.00000000000E+00  0.00000000000E+00  0.12525980253E-10  0.17130000000E+03  0.17130000000E+03 0. -1.
       11    1    1    2    0    0  0.62606421439E-02 -0.68185110742E-02  0.19148690233E+00  0.19171119613E+00  0.51109989000E-03 0.  1.
     -623    1    1    2    0    0  0.36033036489E-03 -0.29868801791E-02  0.98126501530E-03  0.17130000003E+03  0.17130000000E+03 0. -1.
      622    1    1    2    0    0 -0.66209725088E-02  0.98053912533E-02  0.38075318000E+01  0.38082887746E+01  0.75000000000E-01 0.  1.
</event>
<event>
 5   0  0.5237200E+07  0.9118800E+02  0.7818608E-02  0.1180000E+00
       11   -1    0    0    0    0  0.00000000000E+00  0.00000000000E+00  0.39999999673E+01  0.40000000000E+01  0.51109989000E-03 0. -1.
     -623   -1    0    0    0    0  0.00000000000E+00  0.00000000000E+00  0.12525980253E-10  0.17130000000E+03  0.17130000000E+03 0. -1.
       11    1    1    2    0    0 -0.35883099033E-02 -0.16223767332E-01  0.14206808261E+00  0.14303736545E+00  0.51109989000E-03 0. -1.
     -623    1    1    2    0    0 -0.53148866995E-02  0.23343092640E-01  0.17170513478E-02  0.17130000168E+03  0.17130000000E+03 0. -1.
      622    1    1    2    0    0  0.89031966027E-02 -0.71193253074E-02  0.38562148333E+01  0.38569609529E+01  0.75000000000E-01 0. -1.
</event>
<event>
 5   0  0.5237200E+07  0.9118800E+02  0.7818608E-02  0.1180000E+00
       11   -1    0    0    0    0  0.00000000000E+00  0.00000000000E+00  0.39999999673E+01  0.40000000000E+01  0.51109989000E-03 0. -1.
     -623   -1    0    0    0    0  0.00000000000E+00  0.00000000000E+00  0.12525980253E-10  0.17130000000E+03  0.17130000000E+03 0.  1.
       11    1    1    2    0    0 -0.35464975603E-04 -0.79429365651E-03  0.31796389404E-01  0.31810434774E-01  0.51109989000E-03 0. -1.
     -623    1    1    2    0    0 -0.40425529152E-02  0.69558286062E-02  0.72990833958E-03  0.17130000019E+03  0.17130000000E+03 0.  1.
      622    1    1    2    0    0  0.40780178908E-02 -0.61615349497E-02  0.39674736696E+01  0.39681893747E+01  0.75000000000E-01 0. -1.
</event>
<event>
 5   0  0.5237200E+07  0.9118800E+02  0.7818608E-02  0.1180000E+00
       11   -1    0    0    0    0  0.00000000000E+00  0.00000000000E+00  0.39999999673E+01  0.40000000000E+01  0.51109989000E-03 0.  1.
     -623   -1    0    0    0    0  0.00000000000E+00  0.00000000000E+00  0.12525980253E-10  0.17130000000E+03  0.17130000000E+03 0.  1.
       11    1    1    2    0    0  0.57098342990E-01 -0.22139448935E-01  0.32753878898E+00  0.33321508891E+00  0.51109989000E-03 0.  1.
     -623    1    1    2    0    0 -0.58237187048E-01  0.20733184776E-01  0.64550930635E-02  0.17130001128E+03  0.17130000000E+03 0.  1.
      622    1    1    2    0    0  0.11388440598E-02  0.14062641584E-02  0.36660060854E+01  0.36667736354E+01  0.75000000000E-01 0.  1.
</event>
<event>
 5   0  0.5237200E+07  0.9118800E+02  0.7818608E-02  0.1180000E+00
       11   -1    0    0    0    0  0.00000000000E+00  0.00000000000E+00  0.39999999673E+01  0.40000000000E+01  0.51109989000E-03 0. -1.
     -623   -1    0    0    0    0  0.00000000000E+00  0.00000000000E+00  0.12525980253E-10  0.17130000000E+03  0.17130000000E+03 0. -1.
       11    1    1    2    0    0  0.95018151937E-03  0.30726417416E-02  0.89468002053E-02  0.95210518958E-02  0.51109989000E-03 0. -1.
     -623    1    1    2    0    0  0.17729857593E-04 -0.17518665396E-02  0.12794336794E-02  0.17130000001E+03  0.17130000000E+03 0. -1.
      622    1    1    2    0    0 -0.96791137697E-03 -0.13207752020E-02  0.39897737335E+01  0.39904789344E+01  0.75000000000E-01 0. -1.
</event>
<event>
 5   0  0.5237200E+07  0.9118800E+02  0.7818608E-02  0.1180000E+00
       11   -1    0    0    0    0  0.00000000000E+00  0.00000000000E+00  0.39999999673E+01  0.40000000000E+01  0.51109989000E-03 0.  1.
     -623   -1    0    0    0    0  0.00000000000E+00  0.00000000000E+00  0.12525980253E-10  0.17130000000E+03  0.17130000000E+03 0.  1.
       11    1    1    2    0    0  0.32273352558E-02 -0.37343367479E-02  0.11268566274E+01  0.11268675525E+01  0.51109989000E-03 0.  1.
     -623    1    1    2    0    0  0.39254954215E-02 -0.16423339591E-02  0.10039511698E-02  0.17130000006E+03  0.17130000000E+03 0.  1.
      622    1    1    2    0    0 -0.71528306774E-02  0.53766707070E-02  0.28721393888E+01  0.28731323917E+01  0.75000000000E-01 0.  1.
</event>
<event>
 5   0  0.5237200E+07  0.9118800E+02  0.7818608E-02  0.1180000E+00
       11   -1    0    0    0    0  0.00000000000E+00  0.00000000000E+00  0.39999999673E+01  0.40000000000E+01  0.51109989000E-03 0. -1.
     -623   -1    0    0    0    0  0.00000000000E+00  0.00000000000E+00  0.12525980253E-10  0.17130000000E+03  0.17130000000E+03 0. -1.
       11    1    1    2    0    0 -0.26209391643E-01  0.18869903178E-01  0.71331942479E+00  0.71405032628E+00  0.51109989000E-03 0. -1.
     -623    1    1    2    0    0  0.68088652703E-03 -0.17711629030E-02  0.17306098905E-02  0.17130000002E+03  0.17130000000E+03 0. -1.
      622    1    1    2    0    0  0.25528505116E-01 -0.17098740275E-01  0.32849499327E+01  0.32859496545E+01  0.75000000000E-01 0.  0.
</event>
<event>
 5   0  0.5237200E+07  0.9118800E+02  0.7818608E-02  0.1180000E+00
       11   -1    0    0    0    0  0.00000000000E+00  0.00000000000E+00  0.39999999673E+01  0.40000000000E+01  0.51109989000E-03 0.  1.
     -623   -1    0    0    0    0  0.00000000000E+00  0.00000000000E+00  0.12525980253E-10  0.17130000000E+03  0.17130000000E+03 0.  1.
       11    1    1    2    0    0  0.34708077849E-02  0.20157066129E-03  0.13507409620E+00  0.13511979805E+00  0.51109989000E-03 0.  1.
     -623    1    1    2    0    0  0.10342413142E-01  0.43953496696E-02  0.80123872421E-03  0.17130000037E+03  0.17130000000E+03 0.  1.
      622    1    1    2    0    0 -0.13813220927E-01 -0.45969203309E-02  0.38641246324E+01  0.38648798315E+01  0.75000000000E-01 0.  1.
</event>
<event>
 5   0  0.5237200E+07  0.9118800E+02  0.7818608E-02  0.1180000E+00
       11   -1    0    0    0    0  0.00000000000E+00  0.00000000000E+00  0.39999999673E+01  0.40000000000E+01  0.51109989000E-03 0. -1.
     -623   -1    0    0    0    0  0.00000000000E+00  0.00000000000E+00  0.12525980253E-10  0.17130000000E+03  0.17130000000E+03 0.  1.
       11    1    1    2    0    0 -0.25584468322E-01 -0.18553842384E-01  0.45754735129E+00  0.45863782005E+00  0.51109989000E-03 0. -1.
     -623    1    1    2    0    0  0.96427529182E-02  0.36298458131E-02  0.19523756888E-02  0.17130000032E+03  0.17130000000E+03 0.  1.
      622    1    1    2    0    0  0.15941715404E-01  0.14923996570E-01  0.35405002405E+01  0.35413618591E+01  0.75000000000E-01 0.  0.
</event>
<event>
 5   0  0.5237200E+07  0.9118800E+02  0.7818608E-02  0.1180000E+00
       11   -1    0    0    0    0  0.00000000000E+00  0.00000000000E+00  0.39999999673E+01  0.40000000000E+01  0.51109989000E-03 0.  1.
     -623   -1    0    0    0    0  0.00000000000E+00  0.00000000000E+00  0.12525980253E-10  0.17130000000E+03  0.17130000000E+03 0.  1.
       11    1    1    2    0    0  0.11719383744E-01 -0.55964529438E-02  0.28904826933E+00  0.28934033156E+00  0.51109989000E-03 0.  1.
     -623    1    1    2    0    0 -0.23916787247E-02 -0.15115451167E-01  0.11202886993E-02  0.17130000069E+03  0.17130000000E+03 0.  1.
      622    1    1    2    0    0 -0.93277050195E-02  0.20711904111E-01  0.37098314093E+01  0.37106589812E+01  0.75000000000E-01 0.  1.
</event>
<event>
 5   0  0.5237200E+07  0.9118800E+02  0.7818608E-02  0.1180000E+00
       11   -1    0    0    0    0  0.00000000000E+00  0.00000000000E+00  0.39999999673E+01  0.40000000000E+01  0.51109989000E-03 0.  1.
     -623   -1    0    0    0    0  0.00000000000E+00  0.00000000000E+00  0.12525980253E-10  0.17130000000E+03  0.17130000000E+03 0. -1.
       11    1    1    2    0    0  0.28414724439E-02 -0.21445702185E-01  0.36972227665E+00  0.37035498536E+00  0.51109989000E-03 0.  1.
     -623    1    1    2    0    0  0.11705510941E-01  0.13081534637E-01  0.14473302991E-02  0.17130000091E+03  0.17130000000E+03 0. -1.
      622    1    1    2    0    0 -0.14546983385E-01  0.83641675485E-02  0.36288303603E+01  0.36296441090E+01  0.75000000000E-01 0.  1.
</event>
<event>
 5   0  0.5237200E+07  0.9118800E+02  0.7818608E-02  0.1180000E+00
       11   -1    0    0    0    0  0.00000000000E+00  0.00000000000E+00  0.39999999673E+01  0.40000000000E+01  0.51109989000E-03 0. -1.
     -623   -1    0    0    0    0  0.00000000000E+00  0.00000000000E+00  0.12525980253E-10  0.17130000000E+03  0.17130000000E+03 0.  1.
       11    1    1    2    0    0 -0.45341959153E-02 -0.16809657605E-01  0.34260814554E-01  0.38434205555E-01  0.51109989000E-03 0. -1.
     -623    1    1    2    0    0 -0.68711920221E-02 -0.36642698939E-03  0.49372410414E-02  0.17130000021E+03  0.17130000000E+03 0.  1.
      622    1    1    2    0    0  0.11405387937E-01  0.17176084594E-01  0.39608019118E+01  0.39615655851E+01  0.75000000000E-01 0. -1.
</event>
<event>
 5   0  0.5237200E+07  0.9118800E+02  0.7818608E-02  0.1180000E+00
       11   -1    0    0    0    0  0.00000000000E+00  0.00000000000E+00  0.39999999673E+01  0.40000000000E+01  0.51109989000E-03 0.  1.
     -623   -1    0    0    0    0  0.00000000000E+00  0.00000000000E+00  0.12525980253E-10  0.17130000000E+03  0.17130000000E+03 0. -1.
       11    1    1    2    0    0  0.42454088782E-02  0.36591659752E-03  0.13190090996E-01  0.13870728688E-01  0.51109989000E-03 0.  1.
     -623    1    1    2    0    0 -0.15802535163E-02  0.12614153695E-02  0.13874801289E-02  0.17130000002E+03  0.17130000000E+03 0. -1.
      622    1    1    2    0    0 -0.26651553619E-02 -0.16273319671E-02  0.39854223962E+01  0.39861292538E+01  0.75000000000E-01 0.  1.
</event>
<event>
 5   0  0.5237200E+07  0.9118800E+02  0.7818608E-02  0.1180000E+00
       11   -1    0    0    0    0  0.00000000000E+00  0.00000000000E+00  0.39999999673E+01  0.40000000000E+01  0.51109989000E-03 0. -1.
     -623   -1    0    0    0    0  0.00000000000E+00  0.00000000000E+00  0.12525980253E-10  0.17130000000E+03  0.17130000000E+03 0. -1.
       11    1    1    2    0    0  0.12333873828E-01  0.23228746412E-01  0.21594844927E-01  0.34033772257E-01  0.51109989000E-03 0. -1.
     -623    1    1    2    0    0 -0.15220785454E-01 -0.22122348978E-02  0.13206063517E-01  0.17130000120E+03  0.17130000000E+03 0. -1.
      622    1    1    2    0    0  0.28869116264E-02 -0.21016511514E-01  0.39651990589E+01  0.39659650282E+01  0.75000000000E-01 0. -1.
</event>
<event>
 5   0  0.5237200E+07  0.9118800E+02  0.7818608E-02  0.1180000E+00
       11   -1    0    0    0    0  0.00000000000E+00  0.00000000000E+00  0.39999999673E+01  0.40000000000E+01  0.51109989000E-03 0. -1.
     -623   -1    0    0    0    0  0.00000000000E+00  0.00000000000E+00  0.12525980253E-10  0.17130000000E+03  0.17130000000E+03 0.  1.
       11    1    1    2    0    0  0.36495224327E-02 -0.43084370777E-02  0.29191904071E-01  0.29737352415E-01  0.51109989000E-03 0. -1.
     -623    1    1    2    0    0 -0.29796031583E-02  0.73896952175E-02  0.12553126731E-02  0.17130000019E+03  0.17130000000E+03 0.  1.
      622    1    1    2    0    0 -0.66991927447E-03 -0.30812581398E-02  0.39695527506E+01  0.39702624577E+01  0.75000000000E-01 0. -1.
</event>
<event>
 5   0  0.5237200E+07  0.9118800E+02  0.7818608E-02  0.1180000E+00
       11   -1    0    0    0    0  0.00000000000E+00  0.00000000000E+00  0.39999999673E+01  0.40000000000E+01  0.51109989000E-03 0.  1.
     -623   -1    0    0    0    0  0.00000000000E+00  0.00000000000E+00  0.12525980253E-10  0.17130000000E+03  0.17130000000E+03 0. -1.
       11    1    1    2    0    0 -0.12551951026E-01  0.23417982366E-01  0.11737842370E+01  0.11740850266E+01  0.51109989000E-03 0.  1.
     -623    1    1    2    0    0 -0.38381297231E-03  0.19661302599E-02  0.14398720898E-02  0.17130000002E+03  0.17130000000E+03 0. -1.
      622    1    1    2    0    0  0.12935763998E-01 -0.25384112626E-01  0.28247758583E+01  0.28259149557E+01  0.75000000000E-01 0.  0.
</event>
<event>
 5   0  0.5237200E+07  0.9118800E+02  0.7818608E-02  0.1180000E+00
       11   -1    0    0    0    0  0.00000000000E+00  0.00000000000E+00  0.39999999673E+01  0.40000000000E+01  0.51109989000E-03 0.  1.
     -623   -1    0    0    0    0  0.00000000000E+00  0.00000000000E+00  0.12525980253E-10  0.17130000000E+03  0.17130000000E+03 0. -1.
       11    1    1    2    0    0 -0.40589983459E-02 -0.11775240512E-02  0.13958097894E-01  0.14592866350E-01  0.51109989000E-03 0.  1.
     -623    1    1    2    0    0  0.45213757796E-02 -0.18302178914E-02  0.13417345487E-02  0.17130000007E+03  0.17130000000E+03 0. -1.
      622    1    1    2    0    0 -0.46237743374E-03  0.30077419425E-02  0.39847001349E+01  0.39854070589E+01  0.75000000000E-01 0.  1.
</event>
<event>
 5   0  0.5237200E+07  0.9118800E+02  0.7818608E-02  0.1180000E+00
       11   -1    0    0    0    0  0.00000000000E+00  0.00000000000E+00  0.39999999673E+01  0.40000000000E+01  0.51109989000E-03 0. -1.
     -623   -1    0    0    0    0  0.00000000000E+00  0.00000000000E+00  0.12525980253E-10  0.17130000000E+03  0.17130000000E+03 0. -1.
       11    1    1    2    0    0 -0.20886714296E-02 -0.69506230062E-03  0.53043452420E-02  0.57656709485E-02  0.51109989000E-03 0. -1.
     -623    1    1    2    0    0  0.13635534594E-02  0.42759390867E-02  0.11672291481E-02  0.17130000006E+03  0.17130000000E+03 0. -1.
      622    1    1    2    0    0  0.72511797013E-03 -0.35808767865E-02  0.39935283933E+01  0.39942342666E+01  0.75000000000E-01 0. -1.
</event>
<event>
 5   0  0.5237200E+07  0.9118800E+02  0.7818608E-02  0.1180000E+00
       11   -1    0    0    0    0  0.00000000000E+00  0.00000000000E+00  0.39999999673E+01  0.40000000000E+01  0.51109989000E-03 0.  1.
     -623   -1    0    0    0    0  0.00000000000E+00  0.00000000000E+00  0.12525980253E-10  0.17130000000E+03  0.17130000000E+03 0. -1.
       11    1    1    2    0    0  0.22540343131E-02  0.17711657938E-02  0.66775567161E-02  0.72848255015E-02  0.51109989000E-03 0.  1.
     -623    1    1    2    0    0 -0.21167362012E-02  0.42419836285E-02  0.13163079915E-02  0.17130000007E+03  0.17130000000E+03 0. -1.
      622    1    1    2    0    0 -0.13729811190E-03 -0.60131494222E-02  0.39920061027E+01  0.39927151038E+01  0.75000000000E-01 0.  1.
</event>
<event>
 5   0  0.5237200E+07  0.9118800E+02  0.7818608E-02  0.1180000E+00
       11   -1    0    0    0    0  0.00000000000E+00  0.00000000000E+00  0.39999999673E+01  0.40000000000E+01  0.51109989000E-03 0. -1.
     -623   -1    0    0    0    0  0.00000000000E+00  0.00000000000E+00  0.12525980253E-10  0.17130000000E+03  0.17130000000E+03 0.  1.
       11    1    1    2    0    0 -0.36059229441E-02  0.36118530344E-01  0.13690719262E+00  0.14163824175E+00  0.51109989000E-03 0. -1.
     -623    1    1    2    0    0  0.57989433729E-02 -0.30049570788E-02  0.56029858349E-02  0.17130000022E+03  0.17130000000E+03 0.  1.
      622    1    1    2    0    0 -0.21930204288E-02 -0.33113573265E-01  0.38574897889E+01  0.38583615421E+01  0.75000000000E-01 0. -1.
</event>
<event>
 5   0  0.5237200E+07  0.9118800E+02  0.7818608E-02  0.1180000E+00
       11   -1    0    0    0    0  0.00000000000E+00  0.00000000000E+00  0.39999999673E+01  0.40000000000E+01  0.51109989000E-03 0.  1.
     -623   -1    0    0    0    0  0.00000000000E+00  0.00000000000E+00  0.12525980253E-10  0.17130000000E+03  0.17130000000E+03 0. -1.
       11    1    1    2    0    0  0.19715127909E-02  0.11946255114E-01  0.91148774257E+00  0.91156830021E+00  0.51109989000E-03 0.  1.
     -623    1    1    2    0    0 -0.21477435406E-02 -0.28973029932E-02  0.10046220532E-02  0.17130000004E+03  0.17130000000E+03 0. -1.
      622    1    1    2    0    0  0.17623074971E-03 -0.90489521209E-02  0.30875076027E+01  0.30884316589E+01  0.75000000000E-01 0.  1.
</event>
<event>
 5   0  0.5237200E+07  0.9118800E+02  0.7818608E-02  0.1180000E+00
       11   -1    0    0    0    0  0.00000000000E+00  0.00000000000E+00  0.39999999673E+01  0.40000000000E+01  0.51109989000E-03 0. -1.
     -623   -1    0    0    0    0  0.00000000000E+00  0.00000000000E+00  0.12525980253E-10  0.17130000000E+03  0.17130000000E+03 0. -1.
       11    1    1    2    0    0  0.24176584458E-01  0.15697645626E-01  0.41373716159E+00  0.41474042896E+00  0.51109989000E-03 0. -1.
     -623    1    1    2    0    0 -0.29781487918E-02 -0.26079458144E-02  0.18744233141E-02  0.17130000006E+03  0.17130000000E+03 0. -1.
      622    1    1    2    0    0 -0.21198435666E-01 -0.13089699812E-01  0.35843883825E+01  0.35852595150E+01  0.75000000000E-01 0. -1.
</event>
<event>
 5   0  0.5237200E+07  0.9118800E+02  0.7818608E-02  0.1180000E+00
       11   -1    0    0    0    0  0.00000000000E+00  0.00000000000E+00  0.39999999673E+01  0.40000000000E+01  0.51109989000E-03 0. -1.
     -623   -1    0    0    0    0  0.00000000000E+00  0.00000000000E+00  0.12525980253E-10  0.17130000000E+03  0.17130000000E+03 0.  1.
       11    1    1    2    0    0 -0.45277549133E-02  0.20078948860E-02  0.71806035693E-02  0.87381060388E-02  0.51109989000E-03 0.  1.
     -623    1    1    2    0    0  0.12269055872E-01  0.20546870216E-01  0.23351337665E-02  0.17130000169E+03  0.17130000000E+03 0.  1.
      622    1    1    2    0    0 -0.77413009589E-02 -0.22554765102E-01  0.39904842302E+01  0.39912602066E+01  0.75000000000E-01 0. -1.
</event>
<event>
 5   0  0.5237200E+07  0.9118800E+02  0.7818608E-02  0.1180000E+00
       11   -1    0    0    0    0  0.00000000000E+00  0.00000000000E+00  0.39999999673E+01  0.40000000000E+01  0.51109989000E-03 0.  1.
     -623   -1    0    0    0    0  0.00000000000E+00  0.00000000000E+00  0.12525980253E-10  0.17130000000E+03  0.17130000000E+03 0.  1.
       11    1    1    2    0    0 -0.33538444004E-02  0.58712127006E-03  0.45873721672E+00  0.45875013702E+00  0.51109989000E-03 0.  1.
     -623    1    1    2    0    0 -0.41055168124E-03  0.32967493725E-03  0.80931052301E-03  0.17130000000E+03  0.17130000000E+03 0.  1.
      622    1    1    2    0    0  0.37643960817E-02 -0.91679620732E-03  0.35404534401E+01  0.35412498603E+01  0.75000000000E-01 0.  1.
</event>
<event>
 5   0  0.5237200E+07  0.9118800E+02  0.7818608E-02  0.1180000E+00
       11   -1    0    0    0    0  0.00000000000E+00  0.00000000000E+00  0.39999999673E+01  0.40000000000E+01  0.51109989000E-03 0.  1.
     -623   -1    0    0    0    0  0.00000000000E+00  0.00000000000E+00  0.12525980253E-10  0.17130000000E+03  0.17130000000E+03 0. -1.
       11    1    1    2    0    0 -0.13126505213E-01  0.67444181963E-02  0.49676990325E-01  0.51825253562E-01  0.51109989000E-03 0.  1.
     -623    1    1    2    0    0 -0.16482664906E-01 -0.15654531463E-02  0.29759209157E-02  0.17130000083E+03  0.17130000000E+03 0. -1.
      622    1    1    2    0    0  0.29609170119E-01 -0.51789650500E-02  0.39473470562E+01  0.39481739205E+01  0.75000000000E-01 0.  1.
</event>
<event>
 5   0  0.5237200E+07  0.9118800E+02  0.7818608E-02  0.1180000E+00
       11   -1    0    0    0    0  0.00000000000E+00  0.00000000000E+00  0.39999999673E+01  0.40000000000E+01  0.51109989000E-03 0. -1.
     -623   -1    0    0    0    0  0.00000000000E+00  0.00000000000E+00  0.12525980253E-10  0.17130000000E+03  0.17130000000E+03 0. -1.
       11    1    1    2    0    0 -0.74264189257E-02 -0.55998103359E-02  0.67538947665E-01  0.68178297483E-01  0.51109989000E-03 0. -1.
     -623    1    1    2    0    0 -0.14670603718E-02  0.12071568995E-01  0.13705239822E-02  0.17130000044E+03  0.17130000000E+03 0. -1.
      622    1    1    2    0    0  0.88934792975E-02 -0.64717586586E-02  0.39310904957E+01  0.39318212654E+01  0.75000000000E-01 0. -1.
</event>
<event>
 5   0  0.5237200E+07  0.9118800E+02  0.7818608E-02  0.1180000E+00
       11   -1    0    0    0    0  0.00000000000E+00  0.00000000000E+00  0.39999999673E+01  0.40000000000E+01  0.51109989000E-03 0. -1.
     -623   -1    0    0    0    0  0.00000000000E+00  0.00000000000E+00  0.12525980253E-10  0.17130000000E+03  0.17130000000E+03 0.  1.
       11    1    1    2    0    0 -0.23770763838E-02 -0.39767042135E-03  0.92307949425E-02  0.95539223498E-02  0.51109989000E-03 0. -1.
     -623    1    1    2    0    0  0.15839270661E-02  0.15794453392E-02  0.10282369968E-02  0.17130000002E+03  0.17130000000E+03 0.  1.
      622    1    1    2    0    0  0.79314931758E-03 -0.11817749180E-02  0.39897409356E+01  0.39904460601E+01  0.75000000000E-01 0. -1.
</event>
<event>
 5   0  0.5237200E+07  0.9118800E+02  0.7818608E-02  0.1180000E+00
       11   -1    0    0    0    0  0.00000000000E+00  0.00000000000E+00  0.39999999673E+01  0.40000000000E+01  0.51109989000E-03 0.  1.
     -623   -1    0    0    0    0  0.00000000000E+00  0.00000000000E+00  0.12525980253E-10  0.17130000000E+03  0.17130000000E+03 0.  1.
       11    1    1    2    0    0  0.58096380032E-02 -0.58962664468E-02  0.42472252923E-01  0.43274372822E-01  0.51109989000E-03 0.  1.
     -623    1    1    2    0    0 -0.20349335008E-01  0.17775931245E-02  0.15430545005E-02  0.17130000122E+03  0.17130000000E+03 0.  1.
      622    1    1    2    0    0  0.14539697005E-01  0.41186733223E-02  0.39559846600E+01  0.39567244024E+01  0.75000000000E-01 0.  1.
</event>
<event>
 5   0  0.5237200E+07  0.9118800E+02  0.7818608E-02  0.1180000E+00
       11   -1    0    0    0    0  0.00000000000E+00  0.00000000000E+00  0.39999999673E+01  0.40000000000E+01  0.51109989000E-03 0.  1.
     -623   -1    0    0    0    0  0.00000000000E+00  0.00000000000E+00  0.12525980253E-10  0.17130000000E+03  0.17130000000E+03 0. -1.
       11    1    1    2    0    0 -0.80547062100E-02  0.66799408860E-02  0.22013310553E+00  0.22038227077E+00  0.51109989000E-03 0.  1.
     -623    1    1    2    0    0 -0.27210633809E-02 -0.27255142400E-02  0.10108081358E-02  0.17130000005E+03  0.17130000000E+03 0. -1.
      622    1    1    2    0    0  0.10775769591E-01 -0.39544266460E-02  0.37788560537E+01  0.37796176830E+01  0.75000000000E-01 0.  1.
</event>
<event>
 5   0  0.5237200E+07  0.9118800E+02  0.7818608E-02  0.1180000E+00
       11   -1    0    0    0    0  0.00000000000E+00  0.00000000000E+00  0.39999999673E+01  0.40000000000E+01  0.51109989000E-03 0.  1.
     -623   -1    0    0    0    0  0.00000000000E+00  0.00000000000E+00  0.12525980253E-10  0.17130000000E+03  0.17130000000E+03 0. -1.
       11    1    1    2    0    0 -0.52228451822E-03  0.11462717672E-01  0.37697813111E+00  0.37715307136E+00  0.51109989000E-03 0.  1.
     -623    1    1    2    0    0 -0.23710165658E-02 -0.20529183089E-03  0.96998296974E-03  0.17130000002E+03  0.17130000000E+03 0. -1.
      622    1    1    2    0    0  0.28933010844E-02 -0.11257425841E-01  0.36220518538E+01  0.36228469099E+01  0.75000000000E-01 0.  1.
</event>
<event>
 5   0  0.5237200E+07  0.9118800E+02  0.7818608E-02  0.1180000E+00
       11   -1    0    0    0    0  0.00000000000E+00  0.00000000000E+00  0.39999999673E+01  0.40000000000E+01  0.51109989000E-03 0.  1.
     -623   -1    0    0    0    0  0.00000000000E+00  0.00000000000E+00  0.12525980253E-10  0.17130000000E+03  0.17130000000E+03 0. -1.
       11    1    1    2    0    0 -0.94887329760E-03  0.10459279089E-01  0.76069468129E+00  0.76076734698E+00  0.51109989000E-03 0.  1.
     -623    1    1    2    0    0  0.30809256300E-02 -0.11724560424E-01  0.94239132967E-03  0.17130000043E+03  0.17130000000E+03 0. -1.
      622    1    1    2    0    0 -0.21320523326E-02  0.12652813361E-02  0.32383628949E+01  0.32392322216E+01  0.75000000000E-01 0.  1.
</event>
<event>
 5   0  0.5237200E+07  0.9118800E+02  0.7818608E-02  0.1180000E+00
       11   -1    0    0    0    0  0.00000000000E+00  0.00000000000E+00  0.39999999673E+01  0.40000000000E+01  0.51109989000E-03 0. -1.
     -623   -1    0    0    0    0  0.00000000000E+00  0.00000000000E+00  0.12525980253E-10  0.17130000000E+03  0.17130000000E+03 0. -1.
       11    1    1    2    0    0  0.15159422525E-01 -0.14674635729E-02  0.49438236645E-01  0.51733567500E-01  0.51109989000E-03 0. -1.
     -623    1    1    2    0    0  0.20503640639E-02 -0.43502670384E-02  0.30495962415E-02  0.17130000009E+03  0.17130000000E+03 0. -1.
      622    1    1    2    0    0 -0.17209786589E-01  0.58177306113E-02  0.39475121345E+01  0.39482663379E+01  0.75000000000E-01 0. -1.
</event>
<event>
 5   0  0.5237200E+07  0.9118800E+02  0.7818608E-02  0.1180000E+00
       11   -1    0    0    0    0  0.00000000000E+00  0.00000000000E+00  0.39999999673E+01  0.40000000000E+01  0.51109989000E-03 0. -1.
     -623   -1    0    0    0    0  0.00000000000E+00  0.00000000000E+00  0.12525980253E-10  0.17130000000E+03  0.17130000000E+03 0. -1.
       11    1    1    2    0    0  0.77226992858E-02  0.35381236416E-01  0.10636582958E+01  0.10642747312E+01  0.51109989000E-03 0. -1.
     -623    1    1    2    0    0 -0.72182988980E-02 -0.12072213901E-01  0.16677798320E-02  0.17130000059E+03  0.17130000000E+03 0. -1.
      622    1    1    2    0    0 -0.50440038781E-03 -0.23309022516E-01  0.29346738917E+01  0.29357246832E+01  0.75000000000E-01 0. -1.
</event>
<event>
 5   0  0.5237200E+07  0.9118800E+02  0.7818608E-02  0.1180000E+00
       11   -1    0    0    0    0  0.00000000000E+00  0.00000000000E+00  0.39999999673E+01  0.40000000000E+01  0.51109989000E-03 0. -1.
     -623   -1    0    0    0    0  0.00000000000E+00  0.00000000000E+00  0.12525980253E-10  0.17130000000E+03  0.17130000000E+03 0.  1.
       11    1    1    2    0    0 -0.14517835394E-01  0.88285918572E-03  0.21866618648E+00  0.21914996991E+00  0.51109989000E-03 0. -1.
     -623    1    1    2    0    0  0.19358741709E-01 -0.33850344592E-02  0.12327641438E-02  0.17130000113E+03  0.17130000000E+03 0.  1.
      622    1    1    2    0    0 -0.48409063146E-02  0.25021752734E-02  0.37801010167E+01  0.37808488983E+01  0.75000000000E-01 0. -1.
</event>
<event>
 5   0  0.5237200E+07  0.9118800E+02  0.7818608E-02  0.1180000E+00
       11   -1    0    0    0    0  0.00000000000E+00  0.00000000000E+00  0.39999999673E+01  0.40000000000E+01  0.51109989000E-03 0. -1.
     -623   -1    0    0    0    0  0.00000000000E+00  0.00000000000E+00  0.12525980253E-10  0.17130000000E+03  0.17130000000E+03 0. -1.
       11    1    1    2    0    0  0.46549550385E-01 -0.34521223702E-01  0.10114805389E+01  0.10131395350E+01  0.51109989000E-03 0. -1.
     -623    1    1    2    0    0  0.18073628482E-01 -0.25749172929E-01  0.39115415833E-02  0.17130000293E+03  0.17130000000E+03 0. -1.
      622    1    1    2    0    0 -0.64623178867E-01  0.60270396632E-01  0.29846078868E+01  0.29868575316E+01  0.75000000000E-01 0.  0.
</event>
<event>
 5   0  0.5237200E+07  0.9118800E+02  0.7818608E-02  0.1180000E+00
       11   -1    0    0    0    0  0.00000000000E+00  0.00000000000E+00  0.39999999673E+01  0.40000000000E+01  0.51109989000E-03 0. -1.
     -623   -1    0    0    0    0  0.00000000000E+00  0.00000000000E+00  0.12525980253E-10  0.17130000000E+03  0.17130000000E+03 0. -1.
       11    1    1    2    0    0 -0.55403607145E-01  0.14440155182E-01  0.17041139458E+00  0.17977314146E+00  0.51109989000E-03 0. -1.
     -623    1    1    2    0    0  0.11045345439E+00 -0.20865499097E-02  0.10550670501E-01  0.17130003595E+03  0.17130000000E+03 0. -1.
      622    1    1    2    0    0 -0.55049847247E-01 -0.12353605272E-01  0.38190379023E+01  0.38201909110E+01  0.75000000000E-01 0. -1.
</event>
<event>
 5   0  0.5237200E+07  0.9118800E+02  0.7818608E-02  0.1180000E+00
       11   -1    0    0    0    0  0.00000000000E+00  0.00000000000E+00  0.39999999673E+01  0.40000000000E+01  0.51109989000E-03 0.  1.
     -623   -1    0    0    0    0  0.00000000000E+00  0.00000000000E+00  0.12525980253E-10  0.17130000000E+03  0.17130000000E+03 0. -1.
       11    1    1    2    0    0  0.88933308641E-02  0.33383203592E-03  0.24190821832E-01  0.25780998074E-01  0.51109989000E-03 0.  1.
     -623    1    1    2    0    0 -0.40922275053E-02 -0.10088295160E-02  0.23009180173E-02  0.17130000007E+03  0.17130000000E+03 0. -1.
      622    1    1    2    0    0 -0.48011033587E-02  0.67499748004E-03  0.39735082275E+01  0.39742189346E+01  0.75000000000E-01 0.  1.
</event>
<event>
 5   0  0.5237200E+07  0.9118800E+02  0.7818608E-02  0.1180000E+00
       11   -1    0    0    0    0  0.00000000000E+00  0.00000000000E+00  0.39999999673E+01  0.40000000000E+01  0.51109989000E-03 0.  1.
     -623   -1    0    0    0    0  0.00000000000E+00  0.00000000000E+00  0.12525980253E-10  0.17130000000E+03  0.17130000000E+03 0.  1.
       11    1    1    2    0    0 -0.46474089008E-02 -0.86753313589E-04  0.18623726352E+00  0.18629596206E+00  0.51109989000E-03 0.  1.
     -623    1    1    2    0    0  0.86874387843E-03  0.18460996859E-02  0.79850148070E-03  0.17130000001E+03  0.17130000000E+03 0.  1.
      622    1    1    2    0    0  0.37786650223E-02 -0.17593463726E-02  0.38129642028E+01  0.38137040244E+01  0.75000000000E-01 0.  1.
</event>
<event>
 5   0  0.5237200E+07  0.9118800E+02  0.7818608E-02  0.1180000E+00
       11   -1    0    0    0    0  0.00000000000E+00  0.00000000000E+00  0.39999999673E+01  0.40000000000E+01  0.51109989000E-03 0.  1.
     -623   -1    0    0    0    0  0.00000000000E+00  0.00000000000E+00  0.12525980253E-10  0.17130000000E+03  0.17130000000E+03 0.  1.
       11    1    1    2    0    0  0.13901428486E-01 -0.18111357492E-01  0.71636757236E+00  0.71673149152E+00  0.51109989000E-03 0.  1.
     -623    1    1    2    0    0 -0.33001062012E-02  0.48749569248E-02  0.12645281144E-02  0.17130000011E+03  0.17130000000E+03 0.  1.
      622    1    1    2    0    0 -0.10601322285E-01  0.13236400567E-01  0.32823678669E+01  0.32832684027E+01  0.75000000000E-01 0.  0.
</event>
<event>
 5   0  0.5237200E+07  0.9118800E+02  0.7818608E-02  0.1180000E+00
       11   -1    0    0    0    0  0.00000000000E+00  0.00000000000E+00  0.39999999673E+01  0.40000000000E+01  0.51109989000E-03 0. -1.
     -623   -1    0    0    0    0  0.00000000000E+00  0.00000000000E+00  0.12525980253E-10  0.17130000000E+03  0.17130000000E+03 0. -1.
       11    1    1    2    0    0  0.11562355381E-01  0.21701758235E-03  0.22408533698E+00  0.22438412295E+00  0.51109989000E-03 0. -1.
     -623    1    1    2    0    0  0.38100985410E-03  0.28542335312E-02  0.10639092540E-02  0.17130000003E+03  0.17130000000E+03 0. -1.
      622    1    1    2    0    0 -0.11943365236E-01 -0.30712511139E-02  0.37748507215E+01  0.37756158500E+01  0.75000000000E-01 0. -1.
</event>
<event>
 5   0  0.5237200E+07  0.9118800E+02  0.7818608E-02  0.1180000E+00
       11   -1    0    0    0    0  0.00000000000E+00  0.00000000000E+00  0.39999999673E+01  0.40000000000E+01  0.51109989000E-03 0. -1.
     -623   -1    0    0    0    0  0.00000000000E+00  0.00000000000E+00  0.12525980253E-10  0.17130000000E+03  0.17130000000E+03 0.  1.
       11    1    1    2    0    0 -0.77961743240E-02  0.19267721560E-01  0.62990646444E+00  0.63024950662E+00  0.51109989000E-03 0. -1.
     -623    1    1    2    0    0 -0.10248727718E-01 -0.31451818764E-02  0.12649913231E-02  0.17130000034E+03  0.17130000000E+03 0.  1.
      622    1    1    2    0    0  0.18044902041E-01 -0.16122539683E-01  0.33688285113E+01  0.33697501529E+01  0.75000000000E-01 0. -1.
</event>
<event>
 5   0  0.5237200E+07  0.9118800E+02  0.7818608E-02  0.1180000E+00
       11   -1    0    0    0    0  0.00000000000E+00  0.00000000000E+00  0.39999999673E+01  0.40000000000E+01  0.51109989000E-03 0.  1.
     -623   -1    0    0    0    0  0.00000000000E+00  0.00000000000E+00  0.12525980253E-10  0.17130000000E+03  0.17130000000E+03 0.  1.
       11    1    1    2    0    0  0.15625929976E-01 -0.11417366083E-01  0.13851297534E+00  0.13985932753E+00  0.51109989000E-03 0.  1.
     -623    1    1    2    0    0 -0.53050930647E-03  0.32426025274E-01  0.21647755993E-02  0.17130000308E+03  0.17130000000E+03 0.  1.
      622    1    1    2    0    0 -0.15095420670E-01 -0.21008659191E-01  0.38593222164E+01  0.38601375890E+01  0.75000000000E-01 0.  1.
</event>
<event>
 5   0  0.5237200E+07  0.9118800E+02  0.7818608E-02  0.1180000E+00
       11   -1    0    0    0    0  0.00000000000E+00  0.00000000000E+00  0.39999999673E+01  0.40000000000E+01  0.51109989000E-03 0.  1.
     -623   -1    0    0    0    0  0.00000000000E+00  0.00000000000E+00  0.12525980253E-10  0.17130000000E+03  0.17130000000E+03 0. -1.
       11    1    1    2    0    0  0.80973226729E-02  0.10747017130E-01  0.16197121931E+00  0.16253000375E+00  0.51109989000E-03 0.  1.
     -623    1    1    2    0    0 -0.14077890443E-01 -0.11152247993E-01  0.12973557051E-02  0.17130000095E+03  0.17130000000E+03 0. -1.
      622    1    1    2    0    0  0.59805677712E-02  0.40523086376E-03  0.38367313925E+01  0.38374690500E+01  0.75000000000E-01 0.  1.
</event>
<event>
 5   0  0.5237200E+07  0.9118800E+02  0.7818608E-02  0.1180000E+00
       11   -1    0    0    0    0  0.00000000000E+00  0.00000000000E+00  0.39999999673E+01  0.40000000000E+01  0.51109989000E-03 0. -1.
     -623   -1    0    0    0    0  0.00000000000E+00  0.00000000000E+00  0.12525980253E-10  0.17130000000E+03  0.17130000000E+03 0. -1.
       11    1    1    2    0    0 -0.85187359518E-02 -0.10189434738E-01  0.23427548082E+00  0.23465220130E+00  0.51109989000E-03 0. -1.
     -623    1    1    2    0    0 -0.19917035391E-02  0.74909357266E-02  0.11395234011E-02  0.17130000018E+03  0.17130000000E+03 0. -1.
      622    1    1    2    0    0  0.10510439491E-01  0.26984990107E-02  0.37645849634E+01  0.37653476198E+01  0.75000000000E-01 0. -1.
</event>
<event>
 5   0  0.5237200E+07  0.9118800E+02  0.7818608E-02  0.1180000E+00
       11   -1    0    0    0    0  0.00000000000E+00  0.00000000000E+00  0.39999999673E+01  0.40000000000E+01  0.51109989000E-03 0.  1.
     -623   -1    0    0    0    0  0.00000000000E+00  0.00000000000E+00  0.12525980253E-10  0.17130000000E+03  0.17130000000E+03 0. -1.
       11    1    1    2    0    0 -0.14792325130E-02  0.46280839366E-03  0.31450840116E-02  0.35433169311E-02  0.51109989000E-03 0.  1.
     -623    1    1    2    0    0  0.24509962818E-02 -0.25527316119E-02  0.11027154844E-02  0.17130000004E+03  0.17130000000E+03 0. -1.
      622    1    1    2    0    0 -0.97176376877E-03  0.20899232182E-02  0.39957521679E+01  0.39964566430E+01  0.75000000000E-01 0.  1.
</event>
<event>
 5   0  0.5237200E+07  0.9118800E+02  0.7818608E-02  0.1180000E+00
       11   -1    0    0    0    0  0.00000000000E+00  0.00000000000E+00  0.39999999673E+01  0.40000000000E+01  0.51109989000E-03 0. -1.
     -623   -1    0    0    0    0  0.00000000000E+00  0.00000000000E+00  0.12525980253E-10  0.17130000000E+03  0.17130000000E+03 0.  1.
       11    1    1    2    0    0  0.71522123852E-02 -0.14531583745E-01  0.18102553083E-01  0.24295775751E-01  0.51109989000E-03 0. -1.
     -623    1    1    2    0    0 -0.56939820701E-02  0.17056449685E-01  0.69028272431E-02  0.17130000108E+03  0.17130000000E+03 0.  1.
      622    1    1    2    0    0 -0.14582303151E-02 -0.25248659410E-02  0.39749945870E+01  0.39757031414E+01  0.75000000000E-01 0. -1.
</event>
<event>
 5   0  0.5237200E+07  0.9118800E+02  0.7818608E-02  0.1180000E+00
       11   -1    0    0    0    0  0.00000000000E+00  0.00000000000E+00  0.39999999673E+01  0.40000000000E+01  0.51109989000E-03 0.  1.
     -623   -1    0    0    0    0  0.00000000000E+00  0.00000000000E+00  0.12525980253E-10  0.17130000000E+03  0.17130000000E+03 0.  1.
       11    1    1    2    0    0 -0.55008678095E-03 -0.28132002776E-03  0.30757036897E-02  0.31785077100E-02  0.51109989000E-03 0.  1.
     -623    1    1    2    0    0 -0.43075034694E-03  0.63514308074E-03  0.80665715823E-03  0.17130000000E+03  0.17130000000E+03 0.  1.
      622    1    1    2    0    0  0.98083712788E-03 -0.35382305298E-03  0.39961176065E+01  0.39968214887E+01  0.75000000000E-01 0.  1.
</event>
<event>
 5   0  0.5237200E+07  0.9118800E+02  0.7818608E-02  0.1180000E+00
       11   -1    0    0    0    0  0.00000000000E+00  0.00000000000E+00  0.39999999673E+01  0.40000000000E+01  0.51109989000E-03 0.  1.
     -623   -1    0    0    0    0  0.00000000000E+00  0.00000000000E+00  0.12525980253E-10  0.17130000000E+03  0.17130000000E+03 0.  1.
       11    1    1    2    0    0 -0.11470742384E-01 -0.62026533202E-02  0.32532650660E+00  0.32558815697E+00  0.51109989000E-03 0.  1.
     -623    1    1    2    0    0  0.45026416462E-04 -0.14964039020E-02  0.10529716646E-02  0.17130000001E+03  0.17130000000E+03 0.  1.
      622    1    1    2    0    0  0.11425715967E-01  0.76990572222E-02  0.36736204891E+01  0.36744118333E+01  0.75000000000E-01 0.  1.
</event>
<event>
 5   0  0.5237200E+07  0.9118800E+02  0.7818608E-02  0.1180000E+00
       11   -1    0    0    0    0  0.00000000000E+00  0.00000000000E+00  0.39999999673E+01  0.40000000000E+01  0.51109989000E-03 0. -1.
     -623   -1    0    0    0    0  0.00000000000E+00  0.00000000000E+00  0.12525980253E-10  0.17130000000E+03  0.17130000000E+03 0.  1.
       11    1    1    2    0    0  0.56879001095E-02  0.72393116362E-02  0.21661200727E-01  0.23542061946E-01  0.51109989000E-03 0. -1.
     -623    1    1    2    0    0  0.48625642640E-02  0.90633221780E-03  0.26106140604E-02  0.17130000009E+03  0.17130000000E+03 0.  1.
      622    1    1    2    0    0 -0.10550464374E-01 -0.81456438540E-02  0.39757281525E+01  0.39764578467E+01  0.75000000000E-01 0. -1.
</event>
<event>
 5   0  0.5237200E+07  0.9118800E+02  0.7818608E-02  0.1180000E+00
       11   -1    0    0    0    0  0.00000000000E+00  0.00000000000E+00  0.39999999673E+01  0.40000000000E+01  0.51109989000E-03 0. -1.
     -623   -1    0    0    0    0  0.00000000000E+00  0.00000000000E+00  0.12525980253E-10  0.17130000000E+03  0.17130000000E+03 0.  1.
       11    1    1    2    0    0  0.16230756114E-02  0.26079758675E-02  0.11391470062E-01  0.11809433764E-01  0.51109989000E-03 0. -1.
     -623    1    1    2    0    0  0.47591323851E-02 -0.60355250652E-03  0.11288826981E-02  0.17130000007E+03  0.17130000000E+03 0.  1.
      622    1    1    2    0    0 -0.63822079968E-02 -0.20044233609E-02  0.39874796149E+01  0.39881904956E+01  0.75000000000E-01 0. -1.
</event>
<event>
 5   0  0.5237200E+07  0.9118800E+02  0.7818608E-02  0.1180000E+00
       11   -1    0    0    0    0  0.00000000000E+00  0.00000000000E+00  0.39999999673E+01  0.40000000000E+01  0.51109989000E-03 0. -1.
     -623   -1    0    0    0    0  0.00000000000E+00  0.00000000000E+00  0.12525980253E-10  0.17130000000E+03  0.17130000000E+03 0.  1.
       11    1    1    2    0    0  0.33279329709E-02 -0.48037881323E-02  0.65872787496E-01  0.66133477703E-01  0.51109989000E-03 0. -1.
     -623    1    1    2    0    0 -0.12191875085E-01 -0.19246939821E-02  0.99185901443E-03  0.17130000045E+03  0.17130000000E+03 0.  1.
      622    1    1    2    0    0  0.88639421143E-02  0.67284821144E-02  0.39331353208E+01  0.39338660747E+01  0.75000000000E-01 0. -1.
</event>
<event>
 5   0  0.5237200E+07  0.9118800E+02  0.7818608E-02  0.1180000E+00
       11   -1    0    0    0    0  0.00000000000E+00  0.00000000000E+00  0.39999999673E+01  0.40000000000E+01  0.51109989000E-03 0. -1.
     -623   -1    0    0    0    0  0.00000000000E+00  0.00000000000E+00  0.12525980253E-10  0.17130000000E+03  0.17130000000E+03 0.  1.
       11    1    1    2    0    0 -0.91440716914E-01 -0.34477627097E-01  0.77202394821E+00  0.77818464988E+00  0.51109989000E-03 0. -1.
     -623    1    1    2    0    0 -0.93378935942E-02  0.31497224659E-01  0.86154857346E-02  0.17130000337E+03  0.17130000000E+03 0.  1.
      622    1    1    2    0    0  0.10077861051E+00  0.29804024384E-02  0.32193605334E+01  0.32218119832E+01  0.75000000000E-01 0. -1.
</event>
<event>
 5   0  0.5237200E+07  0.9118800E+02  0.7818608E-02  0.1180000E+00
       11   -1    0    0    0    0  0.00000000000E+00  0.00000000000E+00  0.39999999673E+01  0.40000000000E+01  0.51109989000E-03 0. -1.
     -623   -1    0    0    0    0  0.00000000000E+00  0.00000000000E+00  0.12525980253E-10  0.17130000000E+03  0.17130000000E+03 0. -1.
       11    1    1    2    0    0  0.71517031899E-03 -0.25926951974E-02  0.57694617836E-01  0.57759533284E-01  0.51109989000E-03 0. -1.
     -623    1    1    2    0    0 -0.68685224275E-03  0.23505335488E-03  0.77908270239E-03  0.17130000000E+03  0.17130000000E+03 0. -1.
      622    1    1    2    0    0 -0.28318076241E-04  0.23576418426E-02  0.39415262668E+01  0.39422404634E+01  0.75000000000E-01 0. -1.
</event>
<event>
 5   0  0.5237200E+07  0.9118800E+02  0.7818608E-02  0.1180000E+00
       11   -1    0    0    0    0  0.00000000000E+00  0.00000000000E+00  0.39999999673E+01  0.40000000000E+01  0.51109989000E-03 0. -1.
     -623   -1    0    0    0    0  0.00000000000E+00  0.00000000000E+00  0.12525980253E-10  0.17130000000E+03  0.17130000000E+03 0. -1.
       11    1    1    2    0    0 -0.35798312959E-02  0.17644056057E-02  0.56894017418E-02  0.69684169311E-02  0.51109989000E-03 0. -1.
     -623    1    1    2    0    0  0.13106119917E-01 -0.42527274203E-02  0.19961036784E-02  0.17130000057E+03  0.17130000000E+03 0. -1.
      622    1    1    2    0    0 -0.95262886223E-02  0.24883218149E-02  0.39923144622E+01  0.39930310175E+01  0.75000000000E-01 0. -1.
</event>
<event>
 5   0  0.5237200E+07  0.9118800E+02  0.7818608E-02  0.1180000E+00
       11   -1    0    0    0    0  0.00000000000E+00  0.00000000000E+00  0.39999999673E+01  0.40000000000E+01  0.51109989000E-03 0.  1.
     -623   -1    0    0    0    0  0.00000000000E+00  0.00000000000E+00  0.12525980253E-10  0.17130000000E+03  0.17130000000E+03 0.  1.
       11    1    1    2    0    0  0.41170587894E-01 -0.29750566158E-01  0.21382122579E+00  0.21977236249E+00  0.51109989000E-03 0.  1.
     -623    1    1    2    0    0  0.19006600796E-01 -0.22492259841E-01  0.75381137399E-02  0.17130000270E+03  0.17130000000E+03 0.  1.
      622    1    1    2    0    0 -0.60177188691E-01  0.52242825999E-01  0.37786406279E+01  0.37802249406E+01  0.75000000000E-01 0.  1.
</event>
<event>
 5   0  0.5237200E+07  0.9118800E+02  0.7818608E-02  0.1180000E+00
       11   -1    0    0    0    0  0.00000000000E+00  0.00000000000E+00  0.39999999673E+01  0.40000000000E+01  0.51109989000E-03 0. -1.
     -623   -1    0    0    0    0  0.00000000000E+00  0.00000000000E+00  0.12525980253E-10  0.17130000000E+03  0.17130000000E+03 0. -1.
       11    1    1    2    0    0 -0.37765752194E-02 -0.22294076573E-02  0.10634584528E-01  0.11514703157E-01  0.51109989000E-03 0. -1.
     -623    1    1    2    0    0 -0.44516193012E-03  0.11854897321E-02  0.15876866373E-02  0.17130000001E+03  0.17130000000E+03 0. -1.
      622    1    1    2    0    0  0.42217371495E-02  0.10439179253E-02  0.39877776962E+01  0.39884852848E+01  0.75000000000E-01 0. -1.
</event>
<event>
 5   0  0.5237200E+07  0.9118800E+02  0.7818608E-02  0.1180000E+00
       11   -1    0    0    0    0  0.00000000000E+00  0.00000000000E+00  0.39999999673E+01  0.40000000000E+01  0.51109989000E-03 0. -1.
     -623   -1    0    0    0    0  0.00000000000E+00  0.00000000000E+00  0.12525980253E-10  0.17130000000E+03  0.17130000000E+03 0.  1.
       11    1    1    2    0    0 -0.86849147397E-03 -0.45270394876E-04  0.74834068873E-02  0.75510879076E-02  0.51109989000E-03 0.  1.
     -623    1    1    2    0    0 -0.15618444698E-02 -0.31092426717E-02  0.77418877003E-03  0.17130000004E+03  0.17130000000E+03 0.  1.
      622    1    1    2    0    0  0.24303359439E-02  0.31545130669E-02  0.39917423721E+01  0.39924488754E+01  0.75000000000E-01 0. -1.
</event>
<event>
 5   0  0.5237200E+07  0.9118800E+02  0.7818608E-02  0.1180000E+00
       11   -1    0    0    0    0  0.00000000000E+00  0.00000000000E+00  0.39999999673E+01  0.40000000000E+01  0.51109989000E-03 0. -1.
     -623   -1    0    0    0    0  0.00000000000E+00  0.00000000000E+00  0.12525980253E-10  0.17130000000E+03  0.17130000000E+03 0.  1.
       11    1    1    2    0    0  0.25528169840E-01  0.39843297575E-01  0.54026777243E+00  0.54233633749E+00  0.51109989000E-03 0. -1.
     -623    1    1    2    0    0 -0.68670372688E-01 -0.35099451774E-01  0.31719111649E-02  0.17130001739E+03  0.17130000000E+03 0.  1.
      622    1    1    2    0    0  0.43142202849E-01 -0.47438458018E-02  0.34565602838E+01  0.34576462730E+01  0.75000000000E-01 0. -1.
</event>
<event>
 5   0  0.5237200E+07  0.9118800E+02  0.7818608E-02  0.1180000E+00
       11   -1    0    0    0    0  0.00000000000E+00  0.00000000000E+00  0.39999999673E+01  0.40000000000E+01  0.51109989000E-03 0.  1.
     -623   -1    0    0    0    0  0.00000000000E+00  0.00000000000E+00  0.12525980253E-10  0.17130000000E+03  0.17130000000E+03 0.  1.
       11    1    1    2    0    0 -0.24412043502E-03  0.12965149062E-02  0.25072529321E-01  0.25112417112E-01  0.51109989000E-03 0.  1.
     -623    1    1    2    0    0  0.38986402739E-02 -0.22049833379E-02  0.74932964631E-03  0.17130000006E+03  0.17130000000E+03 0.  1.
      622    1    1    2    0    0 -0.36545198388E-02  0.90846843170E-03  0.39741781084E+01  0.39748875227E+01  0.75000000000E-01 0.  1.
</event>
<event>
 5   0  0.5237200E+07  0.9118800E+02  0.7818608E-02  0.1180000E+00
       11   -1    0    0    0    0  0.00000000000E+00  0.00000000000E+00  0.39999999673E+01  0.40000000000E+01  0.51109989000E-03 0.  1.
     -623   -1    0    0    0    0  0.00000000000E+00  0.00000000000E+00  0.12525980253E-10  0.17130000000E+03  0.17130000000E+03 0.  1.
       11    1    1    2    0    0 -0.14790401406E-01  0.60663070135E-02  0.62430607790E-01  0.64446862336E-01  0.51109989000E-03 0.  1.
     -623    1    1    2    0    0  0.60427863649E-03  0.61571849543E-02  0.27756187040E-02  0.17130000013E+03  0.17130000000E+03 0.  1.
      622    1    1    2    0    0  0.14186122770E-01 -0.12223491968E-01  0.39347937409E+01  0.39355530035E+01  0.75000000000E-01 0.  1.
</event>
<event>
 5   0  0.5237200E+07  0.9118800E+02  0.7818608E-02  0.1180000E+00
       11   -1    0    0    0    0  0.00000000000E+00  0.00000000000E+00  0.39999999673E+01  0.40000000000E+01  0.51109989000E-03 0. -1.
     -623   -1    0    0    0    0  0.00000000000E+00  0.00000000000E+00  0.12525980253E-10  0.17130000000E+03  0.17130000000E+03 0. -1.
       11    1    1    2    0    0 -0.14025777567E-01 -0.12841471162E-01  0.52450837519E+00  0.52485323919E+00  0.51109989000E-03 0. -1.
     -623    1    1    2    0    0  0.14689615568E-01  0.90549302548E-02  0.11572440561E-02  0.17130000087E+03  0.17130000000E+03 0. -1.
      622    1    1    2    0    0 -0.66383800368E-03  0.37865409057E-02  0.34743343487E+01  0.34751458883E+01  0.75000000000E-01 0. -1.
</event>
<event>
 5   0  0.5237200E+07  0.9118800E+02  0.7818608E-02  0.1180000E+00
       11   -1    0    0    0    0  0.00000000000E+00  0.00000000000E+00  0.39999999673E+01  0.40000000000E+01  0.51109989000E-03 0.  1.
     -623   -1    0    0    0    0  0.00000000000E+00  0.00000000000E+00  0.12525980253E-10  0.17130000000E+03  0.17130000000E+03 0. -1.
       11    1    1    2    0    0  0.28672506626E-01  0.24889801601E-01  0.18639887585E+00  0.19022727722E+00  0.51109989000E-03 0.  1.
     -623    1    1    2    0    0 -0.56568130886E-03 -0.70923392533E-02  0.47121673956E-02  0.17130000021E+03  0.17130000000E+03 0. -1.
      622    1    1    2    0    0 -0.28106825317E-01 -0.17797462348E-01  0.38088889241E+01  0.38097725102E+01  0.75000000000E-01 0.  1.
</event>
<event>
 5   0  0.5237200E+07  0.9118800E+02  0.7818608E-02  0.1180000E+00
       11   -1    0    0    0    0  0.00000000000E+00  0.00000000000E+00  0.39999999673E+01  0.40000000000E+01  0.51109989000E-03 0.  1.
     -623   -1    0    0    0    0  0.00000000000E+00  0.00000000000E+00  0.12525980253E-10  0.17130000000E+03  0.17130000000E+03 0.  1.
       11    1    1    2    0    0  0.31967601676E-03  0.25471232313E-03  0.10124677070E-02  0.12055642159E-02  0.51109989000E-03 0.  1.
     -623    1    1    2    0    0 -0.11456142066E-03 -0.11451774478E-02  0.89657335141E-03  0.17130000001E+03  0.17130000000E+03 0.  1.
      622    1    1    2    0    0 -0.20511459609E-03  0.89046512473E-03  0.39980909266E+01  0.39987944299E+01  0.75000000000E-01 0.  1.
</event>
<event>
 5   0  0.5237200E+07  0.9118800E+02  0.7818608E-02  0.1180000E+00
       11   -1    0    0    0    0  0.00000000000E+00  0.00000000000E+00  0.39999999673E+01  0.40000000000E+01  0.51109989000E-03 0.  1.
     -623   -1    0    0    0    0  0.00000000000E+00  0.00000000000E+00  0.12525980253E-10  0.17130000000E+03  0.17130000000E+03 0.  1.
       11    1    1    2    0    0  0.50318037975E-01 -0.13274810378E-01  0.72455526352E+00  0.72642185860E+00  0.51109989000E-03 0.  1.
     -623    1    1    2    0    0 -0.27599476337E-02  0.10552388619E-01  0.30729018725E-02  0.17130000037E+03  0.17130000000E+03 0.  1.
      622    1    1    2    0    0 -0.47558090342E-01  0.27224217591E-02  0.32723718020E+01  0.32735777666E+01  0.75000000000E-01 0.  1.
</event>
<event>
 5   0  0.5237200E+07  0.9118800E+02  0.7818608E-02  0.1180000E+00
       11   -1    0    0    0    0  0.00000000000E+00  0.00000000000E+00  0.39999999673E+01  0.40000000000E+01  0.51109989000E-03 0.  1.
     -623   -1    0    0    0    0  0.00000000000E+00  0.00000000000E+00  0.12525980253E-10  0.17130000000E+03  0.17130000000E+03 0.  1.
       11    1    1    2    0    0  0.83325352140E-03 -0.81356829238E-03  0.16464493682E-02  0.20804382752E-02  0.51109989000E-03 0.  1.
     -623    1    1    2    0    0 -0.49713594173E-03 -0.64784027828E-03  0.11377960727E-02  0.17130000001E+03  0.17130000000E+03 0.  1.
      622    1    1    2    0    0 -0.33611757962E-03  0.14614085707E-02  0.39972157224E+01  0.39979195565E+01  0.75000000000E-01 0.  1.
</event>
<event>
 5   0  0.5237200E+07  0.9118800E+02  0.7818608E-02  0.1180000E+00
       11   -1    0    0    0    0  0.00000000000E+00  0.00000000000E+00  0.39999999673E+01  0.40000000000E+01  0.51109989000E-03 0.  1.
     -623   -1    0    0    0    0  0.00000000000E+00  0.00000000000E+00  0.12525980253E-10  0.17130000000E+03  0.17130000000E+03 0.  1.
       11    1    1    2    0    0  0.60522711625E-01  0.13411620030E-01  0.68426607192E+00  0.68706854722E+00  0.51109989000E-03 0.  1.
     -623    1    1    2    0    0 -0.11863732030E-01 -0.95369922422E-02  0.40119401124E-02  0.17130000072E+03  0.17130000000E+03 0.  1.
      622    1    1    2    0    0 -0.48658979595E-01 -0.38746277880E-02  0.33117219553E+01  0.33129307295E+01  0.75000000000E-01 0.  0.
</event>
<event>
 5   0  0.5237200E+07  0.9118800E+02  0.7818608E-02  0.1180000E+00
       11   -1    0    0    0    0  0.00000000000E+00  0.00000000000E+00  0.39999999673E+01  0.40000000000E+01  0.51109989000E-03 0.  1.
     -623   -1    0    0    0    0  0.00000000000E+00  0.00000000000E+00  0.12525980253E-10  0.17130000000E+03  0.17130000000E+03 0. -1.
       11    1    1    2    0    0  0.93497310197E-02  0.53288309246E-02  0.10884425997E+00  0.10937617684E+00  0.51109989000E-03 0.  1.
     -623    1    1    2    0    0 -0.23480250905E-02 -0.41875332539E-02  0.12613839860E-02  0.17130000007E+03  0.17130000000E+03 0. -1.
      622    1    1    2    0    0 -0.70017059289E-02 -0.11412976702E-02  0.38898943239E+01  0.38906237517E+01  0.75000000000E-01 0.  1.
</event>
<event>
 5   0  0.5237200E+07  0.9118800E+02  0.7818608E-02  0.1180000E+00
       11   -1    0    0    0    0  0.00000000000E+00  0.00000000000E+00  0.39999999673E+01  0.40000000000E+01  0.51109989000E-03 0.  1.
     -623   -1    0    0    0    0  0.00000000000E+00  0.00000000000E+00  0.12525980253E-10  0.17130000000E+03  0.17130000000E+03 0. -1.
       11    1    1    2    0    0  0.58261226990E-02 -0.22608579586E-01  0.59946699388E+00  0.59992168618E+00  0.51109989000E-03 0.  1.
     -623    1    1    2    0    0 -0.53305556233E-02 -0.17076532039E-02  0.13690532996E-02  0.17130000010E+03  0.17130000000E+03 0. -1.
      622    1    1    2    0    0 -0.49556707569E-03  0.24316232790E-01  0.33991639202E+01  0.34000782169E+01  0.75000000000E-01 0.  1.
</event>
<event>
 5   0  0.5237200E+07  0.9118800E+02  0.7818608E-02  0.1180000E+00
       11   -1    0    0    0    0  0.00000000000E+00  0.00000000000E+00  0.39999999673E+01  0.40000000000E+01  0.51109989000E-03 0. -1.
     -623   -1    0    0    0    0  0.00000000000E+00  0.00000000000E+00  0.12525980253E-10  0.17130000000E+03  0.17130000000E+03 0. -1.
       11    1    1    2    0    0  0.14888255994E-01 -0.28166499800E-01  0.34287611347E+00  0.34435345546E+00  0.51109989000E-03 0. -1.
     -623    1    1    2    0    0 -0.10375137287E-02  0.48887989217E-02  0.23472104304E-02  0.17130000009E+03  0.17130000000E+03 0. -1.
      622    1    1    2    0    0 -0.13850742265E-01  0.23277700878E-01  0.36547766436E+01  0.36556464557E+01  0.75000000000E-01 0.  0.
</event>
<event>
 5   0  0.5237200E+07  0.9118800E+02  0.7818608E-02  0.1180000E+00
       11   -1    0    0    0    0  0.00000000000E+00  0.00000000000E+00  0.39999999673E+01  0.40000000000E+01  0.51109989000E-03 0.  1.
     -623   -1    0    0    0    0  0.00000000000E+00  0.00000000000E+00  0.12525980253E-10  0.17130000000E+03  0.17130000000E+03 0.  1.
       11    1    1    2    0    0 -0.53088476004E-02 -0.23651446203E-02  0.31050676058E-01  0.31594041817E-01  0.51109989000E-03 0.  1.
     -623    1    1    2    0    0 -0.33964756193E-03  0.10883594947E-02  0.12563537642E-02  0.17130000001E+03  0.17130000000E+03 0.  1.
      622    1    1    2    0    0  0.56484951623E-02  0.12767851256E-02  0.39676929375E+01  0.39684059498E+01  0.75000000000E-01 0.  1.
</event>
<event>
 5   0  0.5237200E+07  0.9118800E+02  0.7818608E-02  0.1180000E+00
       11   -1    0    0    0    0  0.00000000000E+00  0.00000000000E+00  0.39999999673E+01  0.40000000000E+01  0.51109989000E-03 0. -1.
     -623   -1    0    0    0    0  0.00000000000E+00  0.00000000000E+00  0.12525980253E-10  0.17130000000E+03  0.17130000000E+03 0.  1.
       11    1    1    2    0    0  0.39058334656E-02  0.21227536206E-02  0.22999368128E-01  0.23430616197E-01  0.51109989000E-03 0. -1.
     -623    1    1    2    0    0 -0.38448348723E-02 -0.68118304250E-02  0.11414942758E-02  0.17130000018E+03  0.17130000000E+03 0.  1.
      622    1    1    2    0    0 -0.60998593505E-04  0.46890768042E-02  0.39758591048E+01  0.39765692012E+01  0.75000000000E-01 0. -1.
</event>
<event>
 5   0  0.5237200E+07  0.9118800E+02  0.7818608E-02  0.1180000E+00
       11   -1    0    0    0    0  0.00000000000E+00  0.00000000000E+00  0.39999999673E+01  0.40000000000E+01  0.51109989000E-03 0.  1.
     -623   -1    0    0    0    0  0.00000000000E+00  0.00000000000E+00  0.12525980253E-10  0.17130000000E+03  0.17130000000E+03 0.  1.
       11    1    1    2    0    0  0.16592250680E-02 -0.13497082027E-01  0.19887316097E-01  0.24097527170E-01  0.51109989000E-03 0.  1.
     -623    1    1    2    0    0 -0.78807321173E-02 -0.36804459841E-02  0.49599030073E-02  0.17130000029E+03  0.17130000000E+03 0.  1.
      622    1    1    2    0    0  0.62215070493E-02  0.17177528011E-01  0.39751527483E+01  0.39759021802E+01  0.75000000000E-01 0.  1.
</event>
<event>
 5   0  0.5237200E+07  0.9118800E+02  0.7818608E-02  0.1180000E+00
       11   -1    0    0    0    0  0.00000000000E+00  0.00000000000E+00  0.39999999673E+01  0.40000000000E+01  0.51109989000E-03 0. -1.
     -623   -1    0    0    0    0  0.00000000000E+00  0.00000000000E+00  0.12525980253E-10  0.17130000000E+03  0.17130000000E+03 0.  1.
       11    1    1    2    0    0 -0.16197284739E-02  0.77480320917E-02  0.27831187544E-01  0.28939449576E-01  0.51109989000E-03 0. -1.
     -623    1    1    2    0    0  0.16094347174E-02  0.91173235908E-05  0.18241367809E-02  0.17130000002E+03  0.17130000000E+03 0.  1.
      622    1    1    2    0    0  0.10293756519E-04 -0.77571494153E-02  0.39703446430E+01  0.39710605332E+01  0.75000000000E-01 0. -1.
</event>
<event>
 5   0  0.5237200E+07  0.9118800E+02  0.7818608E-02  0.1180000E+00
       11   -1    0    0    0    0  0.00000000000E+00  0.00000000000E+00  0.39999999673E+01  0.40000000000E+01  0.51109989000E-03 0.  1.
     -623   -1    0    0    0    0  0.00000000000E+00  0.00000000000E+00  0.12525980253E-10  0.17130000000E+03  0.17130000000E+03 0. -1.
       11    1    1    2    0    0 -0.17294244662E-02 -0.52163839778E-03  0.97796763022E-01  0.97814779534E-01  0.51109989000E-03 0.  1.
     -623    1    1    2    0    0 -0.74530019082E-03  0.74452312454E-03  0.73959651828E-03  0.17130000000E+03  0.17130000000E+03 0. -1.
      622    1    1    2    0    0  0.24747246570E-02 -0.22288472676E-03  0.39014636078E+01  0.39021852156E+01  0.75000000000E-01 0.  1.
</event>
<event>
 5   0  0.5237200E+07  0.9118800E+02  0.7818608E-02  0.1180000E+00
       11   -1    0    0    0    0  0.00000000000E+00  0.00000000000E+00  0.39999999673E+01  0.40000000000E+01  0.51109989000E-03 0. -1.
     -623   -1    0    0    0    0  0.00000000000E+00  0.00000000000E+00  0.12525980253E-10  0.17130000000E+03  0.17130000000E+03 0. -1.
       11    1    1    2    0    0 -0.34558061294E-02  0.86631288385E-02  0.38178165608E-01  0.39304273908E-01  0.51109989000E-03 0. -1.
     -623    1    1    2    0    0 -0.12043803693E-01 -0.51679617675E-02  0.18686292393E-02  0.17130000051E+03  0.17130000000E+03 0. -1.
      622    1    1    2    0    0  0.15499609822E-01 -0.34951670710E-02  0.39599531725E+01  0.39606952146E+01  0.75000000000E-01 0. -1.
</event>
<event>
 5   0  0.5237200E+07  0.9118800E+02  0.7818608E-02  0.1180000E+00
       11   -1    0    0    0    0  0.00000000000E+00  0.00000000000E+00  0.39999999673E+01  0.40000000000E+01  0.51109989000E-03 0. -1.
     -623   -1    0    0    0    0  0.00000000000E+00  0.00000000000E+00  0.12525980253E-10  0.17130000000E+03  0.17130000000E+03 0. -1.
       11    1    1    2    0    0 -0.41450440624E-01  0.25610795237E-01  0.72178638623E+00  0.72342926429E+00  0.51109989000E-03 0. -1.
     -623    1    1    2    0    0  0.10065668595E-02 -0.34219168789E-02  0.28262243825E-02  0.17130000006E+03  0.17130000000E+03 0. -1.
      622    1    1    2    0    0  0.40443873765E-01 -0.22188878358E-01  0.32753873567E+01  0.32765706753E+01  0.75000000000E-01 0. -1.
</event>
<event>
 5   0  0.5237200E+07  0.9118800E+02  0.7818608E-02  0.1180000E+00
       11   -1    0    0    0    0  0.00000000000E+00  0.00000000000E+00  0.39999999673E+01  0.40000000000E+01  0.51109989000E-03 0.  1.
     -623   -1    0    0    0    0  0.00000000000E+00  0.00000000000E+00  0.12525980253E-10  0.17130000000E+03  0.17130000000E+03 0.  1.
       11    1    1    2    0    0 -0.69039231000E-02 -0.14682131423E-01  0.16060944045E+00  0.16142763928E+00  0.51109989000E-03 0.  1.
     -623    1    1    2    0    0 -0.18435277143E-02 -0.99308052354E-03  0.15929315126E-02  0.17130000002E+03  0.17130000000E+03 0.  1.
      622    1    1    2    0    0  0.87474508143E-02  0.15675211946E-01  0.38377975955E+01  0.38385723406E+01  0.75000000000E-01 0.  1.
</event>
<event>
 5   0  0.5237200E+07  0.9118800E+02  0.7818608E-02  0.1180000E+00
       11   -1    0    0    0    0  0.00000000000E+00  0.00000000000E+00  0.39999999673E+01  0.40000000000E+01  0.51109989000E-03 0. -1.
     -623   -1    0    0    0    0  0.00000000000E+00  0.00000000000E+00  0.12525980253E-10  0.17130000000E+03  0.17130000000E+03 0. -1.
       11    1    1    2    0    0 -0.22334963993E-02  0.83632158963E-02  0.52224412453E-01  0.52939421658E-01  0.51109989000E-03 0. -1.
     -623    1    1    2    0    0  0.11314789114E-01  0.22191942922E-02  0.14526284588E-02  0.17130000039E+03  0.17130000000E+03 0. -1.
      622    1    1    2    0    0 -0.90812927145E-02 -0.10582410189E-01  0.39463229265E+01  0.39470601842E+01  0.75000000000E-01 0. -1.
</event>
<event>
 5   0  0.5237200E+07  0.9118800E+02  0.7818608E-02  0.1180000E+00
       11   -1    0    0    0    0  0.00000000000E+00  0.00000000000E+00  0.39999999673E+01  0.40000000000E+01  0.51109989000E-03 0. -1.
     -623   -1    0    0    0    0  0.00000000000E+00  0.00000000000E+00  0.12525980253E-10  0.17130000000E+03  0.17130000000E+03 0.  1.
       11    1    1    2    0    0 -0.18573653460E-01  0.13343509791E-01  0.34949212713E+00  0.35023997202E+00  0.51109989000E-03 0. -1.
     -623    1    1    2    0    0  0.21169270993E-01 -0.16225240528E-01  0.15226369702E-02  0.17130000208E+03  0.17130000000E+03 0.  1.
      622    1    1    2    0    0 -0.25956175342E-02  0.28817307371E-02  0.36489852034E+01  0.36497579448E+01  0.75000000000E-01 0. -1.
</event>
<event>
 5   0  0.5237200E+07  0.9118800E+02  0.7818608E-02  0.1180000E+00
       11   -1    0    0    0    0  0.00000000000E+00  0.00000000000E+00  0.39999999673E+01  0.40000000000E+01  0.51109989000E-03 0. -1.
     -623   -1    0    0    0    0  0.00000000000E+00  0.00000000000E+00  0.12525980253E-10  0.17130000000E+03  0.17130000000E+03 0. -1.
       11    1    1    2    0    0  0.14542921142E-02 -0.14369585519E-02  0.26891416845E-01  0.26973863987E-01  0.51109989000E-03 0. -1.
     -623    1    1    2    0    0 -0.27414233169E-02  0.26967207576E-02  0.79082955507E-03  0.17130000004E+03  0.17130000000E+03 0. -1.
      622    1    1    2    0    0  0.12871312027E-02 -0.12597622057E-02  0.39723177210E+01  0.39730260910E+01  0.75000000000E-01 0. -1.
</event>
<event>
 5   0  0.5237200E+07  0.9118800E+02  0.7818608E-02  0.1180000E+00
       11   -1    0    0    0    0  0.00000000000E+00  0.00000000000E+00  0.39999999673E+01  0.40000000000E+01  0.51109989000E-03 0.  1.
     -623   -1    0    0    0    0  0.00000000000E+00  0.00000000000E+00  0.12525980253E-10  0.17130000000E+03  0.17130000000E+03 0.  1.
       11    1    1    2    0    0 -0.47252281407E-01  0.66445733217E-02  0.50608561265E+00  0.50833044076E+00  0.51109989000E-03 0.  1.
     -623    1    1    2    0    0  0.46982506168E-01 -0.35561820000E-01  0.31803267577E-02  0.17130001016E+03  0.17130000000E+03 0.  1.
      622    1    1    2    0    0  0.26977523881E-03  0.28917246679E-01  0.34907340280E+01  0.34916593955E+01  0.75000000000E-01 0.  1.
</event>
<event>
 5   0  0.5237200E+07  0.9118800E+02  0.7818608E-02  0.1180000E+00
       11   -1    0    0    0    0  0.00000000000E+00  0.00000000000E+00  0.39999999673E+01  0.40000000000E+01  0.51109989000E-03 0. -1.
     -623   -1    0    0    0    0  0.00000000000E+00  0.00000000000E+00  0.12525980253E-10  0.17130000000E+03  0.17130000000E+03 0.  1.
       11    1    1    2    0    0 -0.19688919659E-02 -0.25014711021E-02  0.76844195553E-02  0.83333918100E-02  0.51109989000E-03 0. -1.
     -623    1    1    2    0    0  0.14905516060E-02  0.59540288751E-03  0.13540914293E-02  0.17130000001E+03  0.17130000000E+03 0.  1.
      622    1    1    2    0    0  0.47834035993E-03  0.19060682146E-02  0.39909614564E+01  0.39916665953E+01  0.75000000000E-01 0. -1.
</event>
<event>
 5   0  0.5237200E+07  0.9118800E+02  0.7818608E-02  0.1180000E+00
       11   -1    0    0    0    0  0.00000000000E+00  0.00000000000E+00  0.39999999673E+01  0.40000000000E+01  0.51109989000E-03 0.  1.
     -623   -1    0    0    0    0  0.00000000000E+00  0.00000000000E+00  0.12525980253E-10  0.17130000000E+03  0.17130000000E+03 0.  1.
       11    1    1    2    0    0 -0.14315973641E-01 -0.35881112326E-02  0.15212630875E+00  0.15284141022E+00  0.51109989000E-03 0.  1.
     -623    1    1    2    0    0 -0.19932500936E-02  0.30591439306E-02  0.14808555187E-02  0.17130000005E+03  0.17130000000E+03 0.  1.
      622    1    1    2    0    0  0.16309223735E-01  0.52896730208E-03  0.38463928031E+01  0.38471585445E+01  0.75000000000E-01 0.  1.
</event>
<event>
 5   0  0.5237200E+07  0.9118800E+02  0.7818608E-02  0.1180000E+00
       11   -1    0    0    0    0  0.00000000000E+00  0.00000000000E+00  0.39999999673E+01  0.40000000000E+01  0.51109989000E-03 0.  1.
     -623   -1    0    0    0    0  0.00000000000E+00  0.00000000000E+00  0.12525980253E-10  0.17130000000E+03  0.17130000000E+03 0. -1.
       11    1    1    2    0    0  0.63450833341E-03 -0.64805691106E-02  0.26612201854E-01  0.27402023368E-01  0.51109989000E-03 0.  1.
     -623    1    1    2    0    0 -0.31115523035E-02  0.59145711072E-02  0.14987766304E-02  0.17130000014E+03  0.17130000000E+03 0. -1.
      622    1    1    2    0    0  0.24770439701E-02  0.56599800350E-03  0.39718889889E+01  0.39725978397E+01  0.75000000000E-01 0.  1.
</event>
<event>
 5   0  0.5237200E+07  0.9118800E+02  0.7818608E-02  0.1180000E+00
       11   -1    0    0    0    0  0.00000000000E+00  0.00000000000E+00  0.39999999673E+01  0.40000000000E+01  0.51109989000E-03 0. -1.
     -623   -1    0    0    0    0  0.00000000000E+00  0.00000000000E+00  0.12525980253E-10  0.17130000000E+03  0.17130000000E+03 0. -1.
       11    1    1    2    0    0  0.16418065900E-01  0.11438088445E-01  0.82457488168E-02  0.21648010286E-01  0.51109989000E-03 0. -1.
     -623    1    1    2    0    0 -0.23084430816E-01 -0.11731846099E-01  0.14117379154E-01  0.17130000254E+03  0.17130000000E+03 0. -1.
      622    1    1    2    0    0  0.66663649159E-02  0.29375765342E-03  0.39776368394E+01  0.39783494508E+01  0.75000000000E-01 0. -1.
</event>
<event>
 5   0  0.5237200E+07  0.9118800E+02  0.7818608E-02  0.1180000E+00
       11   -1    0    0    0    0  0.00000000000E+00  0.00000000000E+00  0.39999999673E+01  0.40000000000E+01  0.51109989000E-03 0. -1.
     -623   -1    0    0    0    0  0.00000000000E+00  0.00000000000E+00  0.12525980253E-10  0.17130000000E+03  0.17130000000E+03 0.  1.
       11    1    1    2    0    0 -0.88697251498E-03 -0.84011947094E-04 -0.95635020143E-03  0.14034268969E-02  0.51109989000E-03 0. -1.
     -623    1    1    2    0    0 -0.50915133312E-03  0.43984920841E-02  0.30658346353E-02  0.17130000008E+03  0.17130000000E+03 0.  1.
      622    1    1    2    0    0  0.13961238481E-02 -0.43144801371E-02  0.39978904830E+01  0.39985964885E+01  0.75000000000E-01 0. -1.
</event>
<event>
 5   0  0.5237200E+07  0.9118800E+02  0.7818608E-02  0.1180000E+00
       11   -1    0    0    0    0  0.00000000000E+00  0.00000000000E+00  0.39999999673E+01  0.40000000000E+01  0.51109989000E-03 0.  1.
     -623   -1    0    0    0    0  0.00000000000E+00  0.00000000000E+00  0.12525980253E-10  0.17130000000E+03  0.17130000000E+03 0. -1.
       11    1    1    2    0    0 -0.32900659846E-01 -0.25925385520E-01  0.90273739799E+00  0.90370883031E+00  0.51109989000E-03 0.  1.
     -623    1    1    2    0    0 -0.34816693490E-02  0.60964120959E-02  0.21573740020E-02  0.17130000016E+03  0.17130000000E+03 0. -1.
      622    1    1    2    0    0  0.36382329195E-01  0.19828973424E-01  0.30951051955E+01  0.30962910124E+01  0.75000000000E-01 0.  1.
</event>
<event>
 5   0  0.5237200E+07  0.9118800E+02  0.7818608E-02  0.1180000E+00
       11   -1    0    0    0    0  0.00000000000E+00  0.00000000000E+00  0.39999999673E+01  0.40000000000E+01  0.51109989000E-03 0. -1.
     -623   -1    0    0    0    0  0.00000000000E+00  0.00000000000E+00  0.12525980253E-10  0.17130000000E+03  0.17130000000E+03 0. -1.
       11    1    1    2    0    0  0.38754393889E-02 -0.17125404172E-02  0.28805653558E-01  0.29120074226E-01  0.51109989000E-03 0. -1.
     -623    1    1    2    0    0  0.56018553313E-03  0.16275493153E-02  0.10252229601E-02  0.17130000001E+03  0.17130000000E+03 0. -1.
      622    1    1    2    0    0 -0.44356249221E-02  0.84991101882E-04  0.39701690908E+01  0.39708799141E+01  0.75000000000E-01 0. -1.
</event>
<event>
 5   0  0.5237200E+07  0.9118800E+02  0.7818608E-02  0.1180000E+00
       11   -1    0    0    0    0  0.00000000000E+00  0.00000000000E+00  0.39999999673E+01  0.40000000000E+01  0.51109989000E-03 0.  1.
     -623   -1    0    0    0    0  0.00000000000E+00  0.00000000000E+00  0.12525980253E-10  0.17130000000E+03  0.17130000000E+03 0. -1.
       11    1    1    2    0    0 -0.28583684251E-02  0.23209057448E-02  0.64293501206E-01  0.64400872595E-01  0.51109989000E-03 0.  1.
     -623    1    1    2    0    0  0.36325889730E-02  0.54343133208E-02  0.82987961306E-03  0.17130000013E+03  0.17130000000E+03 0. -1.
      622    1    1    2    0    0 -0.77422054797E-03 -0.77552190656E-02  0.39348765865E+01  0.39355990007E+01  0.75000000000E-01 0.  1.
</event>
<event>
 5   0  0.5237200E+07  0.9118800E+02  0.7818608E-02  0.1180000E+00
       11   -1    0    0    0    0  0.00000000000E+00  0.00000000000E+00  0.39999999673E+01  0.40000000000E+01  0.51109989000E-03 0.  1.
     -623   -1    0    0    0    0  0.00000000000E+00  0.00000000000E+00  0.12525980253E-10  0.17130000000E+03  0.17130000000E+03 0. -1.
       11    1    1    2    0    0  0.22144336867E-02 -0.27661363637E-01  0.10245976236E+01  0.10249734661E+01  0.51109989000E-03 0.  1.
     -623    1    1    2    0    0 -0.26547509312E-01  0.17428530442E-01  0.14414300383E-02  0.17130000295E+03  0.17130000000E+03 0. -1.
      622    1    1    2    0    0  0.24333075627E-01  0.10232833194E-01  0.29739609141E+01  0.29750235844E+01  0.75000000000E-01 0.  1.
</event>
<event>
 5   0  0.5237200E+07  0.9118800E+02  0.7818608E-02  0.1180000E+00
       11   -1    0    0    0    0  0.00000000000E+00  0.00000000000E+00  0.39999999673E+01  0.40000000000E+01  0.51109989000E-03 0.  1.
     -623   -1    0    0    0    0  0.00000000000E+00  0.00000000000E+00  0.12525980253E-10  0.17130000000E+03  0.17130000000E+03 0.  1.
       11    1    1    2    0    0 -0.42164138492E-03 -0.12652245329E-01  0.55508936872E+00  0.55523393770E+00  0.51109989000E-03 0.  1.
     -623    1    1    2    0    0  0.10234224248E-01  0.25897973279E-01  0.10028075122E-02  0.17130000227E+03  0.17130000000E+03 0.  1.
      622    1    1    2    0    0 -0.98125828627E-02 -0.13245727951E-01  0.34439077911E+01  0.34447637960E+01  0.75000000000E-01 0.  1.
</event>
<event>
 5   0  0.5237200E+07  0.9118800E+02  0.7818608E-02  0.1180000E+00
       11   -1    0    0    0    0  0.00000000000E+00  0.00000000000E+00  0.39999999673E+01  0.40000000000E+01  0.51109989000E-03 0.  1.
     -623   -1    0    0    0    0  0.00000000000E+00  0.00000000000E+00  0.12525980253E-10  0.17130000000E+03  0.17130000000E+03 0. -1.
       11    1    1    2    0    0  0.35327229358E-01  0.16603581370E-01  0.17820147417E+00  0.18242729693E+00  0.51109989000E-03 0.  1.
     -623    1    1    2    0    0  0.40688102521E-02 -0.37445823361E-01  0.52270384266E-02  0.17130000422E+03  0.17130000000E+03 0. -1.
      622    1    1    2    0    0 -0.39396039610E-01  0.20842241990E-01  0.38165714548E+01  0.38175684822E+01  0.75000000000E-01 0.  1.
</event>
<event>
 5   0  0.5237200E+07  0.9118800E+02  0.7818608E-02  0.1180000E+00
       11   -1    0    0    0    0  0.00000000000E+00  0.00000000000E+00  0.39999999673E+01  0.40000000000E+01  0.51109989000E-03 0. -1.
     -623   -1    0    0    0    0  0.00000000000E+00  0.00000000000E+00  0.12525980253E-10  0.17130000000E+03  0.17130000000E+03 0.  1.
       11    1    1    2    0    0 -0.14558682293E-01 -0.71756254595E-02  0.15619442458E+00  0.15703631530E+00  0.51109989000E-03 0. -1.
     -623    1    1    2    0    0  0.29048675031E-01  0.99569359561E-02  0.16048746806E-02  0.17130000276E+03  0.17130000000E+03 0.  1.
      622    1    1    2    0    0 -0.14489992738E-01 -0.27813104964E-02  0.38422006680E+01  0.38429609247E+01  0.75000000000E-01 0. -1.
</event>
<event>
 5   0  0.5237200E+07  0.9118800E+02  0.7818608E-02  0.1180000E+00
       11   -1    0    0    0    0  0.00000000000E+00  0.00000000000E+00  0.39999999673E+01  0.40000000000E+01  0.51109989000E-03 0. -1.
     -623   -1    0    0    0    0  0.00000000000E+00  0.00000000000E+00  0.12525980253E-10  0.17130000000E+03  0.17130000000E+03 0. -1.
       11    1    1    2    0    0  0.61031728151E-04  0.82475225091E-02  0.13247822261E+00  0.13273569995E+00  0.51109989000E-03 0. -1.
     -623    1    1    2    0    0  0.52473287760E-02 -0.18932144684E-02  0.99373040165E-03  0.17130000009E+03  0.17130000000E+03 0. -1.
      622    1    1    2    0    0 -0.53083605042E-02 -0.63543080408E-02  0.38665280143E+01  0.38672642063E+01  0.75000000000E-01 0. -1.
</event>
<event>
 5   0  0.5237200E+07  0.9118800E+02  0.7818608E-02  0.1180000E+00
       11   -1    0    0    0    0  0.00000000000E+00  0.00000000000E+00  0.39999999673E+01  0.40000000000E+01  0.51109989000E-03 0.  1.
     -623   -1    0    0    0    0  0.00000000000E+00  0.00000000000E+00  0.12525980253E-10  0.17130000000E+03  0.17130000000E+03 0. -1.
       11    1    1    2    0    0 -0.30186820570E-01 -0.29346639098E-01  0.10895295177E+00  0.11680529219E+00  0.51109989000E-03 0.  1.
     -623    1    1    2    0    0  0.15435987100E-01  0.26909679750E-01  0.86084627770E-02  0.17130000303E+03  0.17130000000E+03 0. -1.
      622    1    1    2    0    0  0.14750833470E-01  0.24369593485E-02  0.38824385528E+01  0.38831916824E+01  0.75000000000E-01 0.  1.
</event>
<event>
 5   0  0.5237200E+07  0.9118800E+02  0.7818608E-02  0.1180000E+00
       11   -1    0    0    0    0  0.00000000000E+00  0.00000000000E+00  0.39999999673E+01  0.40000000000E+01  0.51109989000E-03 0. -1.
     -623   -1    0    0    0    0  0.00000000000E+00  0.00000000000E+00  0.12525980253E-10  0.17130000000E+03  0.17130000000E+03 0.  1.
       11    1    1    2    0    0 -0.58137260224E-03 -0.38138503311E-02  0.99231354828E+00  0.99232117924E+00  0.51109989000E-03 0. -1.
     -623    1    1    2    0    0  0.81022253751E-02 -0.97933150733E-02  0.98352103542E-03  0.17130000047E+03  0.17130000000E+03 0.  1.
      622    1    1    2    0    0 -0.75208527728E-02  0.13607165404E-01  0.30067028980E+01  0.30076783464E+01  0.75000000000E-01 0. -1.
</event>
<event>
 5   0  0.5237200E+07  0.9118800E+02  0.7818608E-02  0.1180000E+00
       11   -1    0    0    0    0  0.00000000000E+00  0.00000000000E+00  0.39999999673E+01  0.40000000000E+01  0.51109989000E-03 0. -1.
     -623   -1    0    0    0    0  0.00000000000E+00  0.00000000000E+00  0.12525980253E-10  0.17130000000E+03  0.17130000000E+03 0. -1.
       11    1    1    2    0    0  0.53418273087E-03 -0.77554374004E-02  0.57685994505E-01  0.58209684294E-01  0.51109989000E-03 0. -1.
     -623    1    1    2    0    0  0.60377523326E-02  0.26559139379E-02  0.12461403225E-02  0.17130000013E+03  0.17130000000E+03 0. -1.
      622    1    1    2    0    0 -0.65719350639E-02  0.50995234623E-02  0.39410678329E+01  0.39417901845E+01  0.75000000000E-01 0. -1.
</event>
<event>
 5   0  0.5237200E+07  0.9118800E+02  0.7818608E-02  0.1180000E+00
       11   -1    0    0    0    0  0.00000000000E+00  0.00000000000E+00  0.39999999673E+01  0.40000000000E+01  0.51109989000E-03 0. -1.
     -623   -1    0    0    0    0  0.00000000000E+00  0.00000000000E+00  0.12525980253E-10  0.17130000000E+03  0.17130000000E+03 0.  1.
       11    1    1    2    0    0 -0.70030685413E-02  0.21187466523E-02  0.31297270943E-02  0.79742377776E-02  0.51109989000E-03 0. -1.
     -623    1    1    2    0    0 -0.90400788105E-02 -0.10689065572E-02  0.55817836010E-02  0.17130000033E+03  0.17130000000E+03 0.  1.
      622    1    1    2    0    0  0.16043147352E-01 -0.10498400951E-02  0.39912884567E+01  0.39920254294E+01  0.75000000000E-01 0. -1.
</event>
<event>
 5   0  0.5237200E+07  0.9118800E+02  0.7818608E-02  0.1180000E+00
       11   -1    0    0    0    0  0.00000000000E+00  0.00000000000E+00  0.39999999673E+01  0.40000000000E+01  0.51109989000E-03 0.  1.
     -623   -1    0    0    0    0  0.00000000000E+00  0.00000000000E+00  0.12525980253E-10  0.17130000000E+03  0.17130000000E+03 0.  1.
       11    1    1    2    0    0 -0.33338338964E-02  0.49192494849E-02  0.21826243996E-02  0.63512625325E-02  0.51109989000E-03 0.  1.
     -623    1    1    2    0    0  0.13428679571E-01  0.41273759155E-03  0.48898283780E-02  0.17130000060E+03  0.17130000000E+03 0.  1.
      622    1    1    2    0    0 -0.10094845674E-01 -0.53319870765E-02  0.39929275146E+01  0.39936481408E+01  0.75000000000E-01 0.  1.
</event>
<event>
 5   0  0.5237200E+07  0.9118800E+02  0.7818608E-02  0.1180000E+00
       11   -1    0    0    0    0  0.00000000000E+00  0.00000000000E+00  0.39999999673E+01  0.40000000000E+01  0.51109989000E-03 0. -1.
     -623   -1    0    0    0    0  0.00000000000E+00  0.00000000000E+00  0.12525980253E-10  0.17130000000E+03  0.17130000000E+03 0.  1.
       11    1    1    2    0    0  0.13780944184E-01 -0.85441648556E-02  0.66478276786E+00  0.66498068155E+00  0.51109989000E-03 0. -1.
     -623    1    1    2    0    0 -0.16595495745E-01  0.25962134268E-01  0.10907712884E-02  0.17130000277E+03  0.17130000000E+03 0.  1.
      622    1    1    2    0    0  0.28145515607E-02 -0.17417969413E-01  0.33341264282E+01  0.33350165437E+01  0.75000000000E-01 0. -1.
</event>
<event>
 5   0  0.5237200E+07  0.9118800E+02  0.7818608E-02  0.1180000E+00
       11   -1    0    0    0    0  0.00000000000E+00  0.00000000000E+00  0.39999999673E+01  0.40000000000E+01  0.51109989000E-03 0. -1.
     -623   -1    0    0    0    0  0.00000000000E+00  0.00000000000E+00  0.12525980253E-10  0.17130000000E+03  0.17130000000E+03 0. -1.
       11    1    1    2    0    0 -0.54340913394E-02 -0.12779968680E-01  0.57413393305E+00  0.57430209058E+00  0.51109989000E-03 0. -1.
     -623    1    1    2    0    0  0.28797758392E-02 -0.27648991478E-02  0.10255038082E-02  0.17130000005E+03  0.17130000000E+03 0. -1.
      622    1    1    2    0    0  0.25543154999E-02  0.15544867828E-01  0.34248405309E+01  0.34256978602E+01  0.75000000000E-01 0. -1.
</event>
<event>
 5   0  0.5237200E+07  0.9118800E+02  0.7818608E-02  0.1180000E+00
       11   -1    0    0    0    0  0.00000000000E+00  0.00000000000E+00  0.39999999673E+01  0.40000000000E+01  0.51109989000E-03 0. -1.
     -623   -1    0    0    0    0  0.00000000000E+00  0.00000000000E+00  0.12525980253E-10  0.17130000000E+03  0.17130000000E+03 0. -1.
       11    1    1    2    0    0 -0.29263252996E-01  0.32430132389E-02  0.61558799819E+00  0.61629189501E+00  0.51109989000E-03 0. -1.
     -623    1    1    2    0    0  0.11041608366E-02  0.53095301287E-02  0.16632608335E-02  0.17130000009E+03  0.17130000000E+03 0. -1.
      622    1    1    2    0    0  0.28159092160E-01 -0.85525433676E-02  0.33827487083E+01  0.33837080111E+01  0.75000000000E-01 0. -1.
</event>
<event>
 5   0  0.5237200E+07  0.9118800E+02  0.7818608E-02  0.1180000E+00
       11   -1    0    0    0    0  0.00000000000E+00  0.00000000000E+00  0.39999999673E+01  0.40000000000E+01  0.51109989000E-03 0. -1.
     -623   -1    0    0    0    0  0.00000000000E+00  0.00000000000E+00  0.12525980253E-10  0.17130000000E+03  0.17130000000E+03 0.  1.
       11    1    1    2    0    0  0.14446072978E-02 -0.19388900338E-01  0.24849351620E+00  0.24925349579E+00  0.51109989000E-03 0. -1.
     -623    1    1    2    0    0 -0.31961545023E-01  0.54863760887E-01  0.18136312959E-02  0.17130001178E+03  0.17130000000E+03 0.  1.
      622    1    1    2    0    0  0.30516937726E-01 -0.35474860550E-01  0.37496928200E+01  0.37507347272E+01  0.75000000000E-01 0. -1.
</event>
<event>
 5   0  0.5237200E+07  0.9118800E+02  0.7818608E-02  0.1180000E+00
       11   -1    0    0    0    0  0.00000000000E+00  0.00000000000E+00  0.39999999673E+01  0.40000000000E+01  0.51109989000E-03 0. -1.
     -623   -1    0    0    0    0  0.00000000000E+00  0.00000000000E+00  0.12525980253E-10  0.17130000000E+03  0.17130000000E+03 0.  1.
       11    1    1    2    0    0  0.22661548672E-02  0.15355694772E-02  0.34549349373E-02  0.44374801431E-02  0.51109989000E-03 0. -1.
     -623    1    1    2    0    0 -0.48367491337E-02 -0.49228638963E-02  0.16888909704E-02  0.17130000015E+03  0.17130000000E+03 0.  1.
      622    1    1    2    0    0  0.25705942663E-02  0.33872944190E-02  0.39948561413E+01  0.39955623724E+01  0.75000000000E-01 0. -1.
</event>
<event>
 5   0  0.5237200E+07  0.9118800E+02  0.7818608E-02  0.1180000E+00
       11   -1    0    0    0    0  0.00000000000E+00  0.00000000000E+00  0.39999999673E+01  0.40000000000E+01  0.51109989000E-03 0. -1.
     -623   -1    0    0    0    0  0.00000000000E+00  0.00000000000E+00  0.12525980253E-10  0.17130000000E+03  0.17130000000E+03 0. -1.
       11    1    1    2    0    0 -0.13580092159E-02 -0.36897694276E-02  0.35521359259E+00  0.35523571916E+00  0.51109989000E-03 0. -1.
     -623    1    1    2    0    0  0.50452878449E-02  0.86589113265E-02  0.79937918872E-03  0.17130000030E+03  0.17130000000E+03 0. -1.
      622    1    1    2    0    0 -0.36872786290E-02 -0.49691418989E-02  0.36439869956E+01  0.36447639858E+01  0.75000000000E-01 0. -1.
</event>
<event>
 5   0  0.5237200E+07  0.9118800E+02  0.7818608E-02  0.1180000E+00
       11   -1    0    0    0    0  0.00000000000E+00  0.00000000000E+00  0.39999999673E+01  0.40000000000E+01  0.51109989000E-03 0.  1.
     -623   -1    0    0    0    0  0.00000000000E+00  0.00000000000E+00  0.12525980253E-10  0.17130000000E+03  0.17130000000E+03 0. -1.
       11    1    1    2    0    0  0.17585502397E-02  0.85461740317E-03  0.37288313193E-02  0.42412584274E-02  0.51109989000E-03 0.  1.
     -623    1    1    2    0    0  0.90622522040E-03 -0.50872032523E-02  0.12195409394E-02  0.17130000008E+03  0.17130000000E+03 0. -1.
      622    1    1    2    0    0 -0.26647754601E-02  0.42325858492E-02  0.39950515951E+01  0.39957586593E+01  0.75000000000E-01 0.  1.
</event>
<event>
 5   0  0.5237200E+07  0.9118800E+02  0.7818608E-02  0.1180000E+00
       11   -1    0    0    0    0  0.00000000000E+00  0.00000000000E+00  0.39999999673E+01  0.40000000000E+01  0.51109989000E-03 0.  1.
     -623   -1    0    0    0    0  0.00000000000E+00  0.00000000000E+00  0.12525980253E-10  0.17130000000E+03  0.17130000000E+03 0.  1.
       11    1    1    2    0    0  0.59505985496E-02  0.11530210352E-01  0.44111277293E-01  0.45982837901E-01  0.51109989000E-03 0.  1.
     -623    1    1    2    0    0  0.74433597598E-02 -0.94114786628E-02  0.26065915048E-02  0.17130000044E+03  0.17130000000E+03 0.  1.
      622    1    1    2    0    0 -0.13393958310E-01 -0.21187316891E-02  0.39532820987E+01  0.39540167221E+01  0.75000000000E-01 0.  1.
</event>
<event>
 5   0  0.5237200E+07  0.9118800E+02  0.7818608E-02  0.1180000E+00
       11   -1    0    0    0    0  0.00000000000E+00  0.00000000000E+00  0.39999999673E+01  0.40000000000E+01  0.51109989000E-03 0.  1.
     -623   -1    0    0    0    0  0.00000000000E+00  0.00000000000E+00  0.12525980253E-10  0.17130000000E+03  0.17130000000E+03 0.  1.
       11    1    1    2    0    0 -0.25225348725E-02  0.34455842553E-02  0.10121723128E-01  0.10997533143E-01  0.51109989000E-03 0.  1.
     -623    1    1    2    0    0 -0.16966986690E-02 -0.27288390860E-02  0.15832368226E-02  0.17130000004E+03  0.17130000000E+03 0.  1.
      622    1    1    2    0    0  0.42192335415E-02 -0.71674516929E-03  0.39882950075E+01  0.39890024295E+01  0.75000000000E-01 0.  1.
</event>
<event>
 5   0  0.5237200E+07  0.9118800E+02  0.7818608E-02  0.1180000E+00
       11   -1    0    0    0    0  0.00000000000E+00  0.00000000000E+00  0.39999999673E+01  0.40000000000E+01  0.51109989000E-03 0.  1.
     -623   -1    0    0    0    0  0.00000000000E+00  0.00000000000E+00  0.12525980253E-10  0.17130000000E+03  0.17130000000E+03 0. -1.
       11    1    1    2    0    0  0.15316103070E-02 -0.71605673109E-02  0.17089469354E-01  0.18599213431E-01  0.51109989000E-03 0.  1.
     -623    1    1    2    0    0  0.34655624294E-01 -0.78942468430E-02  0.24128454592E-02  0.17130000370E+03  0.17130000000E+03 0. -1.
      622    1    1    2    0    0 -0.36187234603E-01  0.15054814154E-01  0.39804976527E+01  0.39813970822E+01  0.75000000000E-01 0.  1.
</event>
<event>
 5   0  0.5237200E+07  0.9118800E+02  0.7818608E-02  0.1180000E+00
       11   -1    0    0    0    0  0.00000000000E+00  0.00000000000E+00  0.39999999673E+01  0.40000000000E+01  0.51109989000E-03 0.  1.
     -623   -1    0    0    0    0  0.00000000000E+00  0.00000000000E+00  0.12525980253E-10  0.17130000000E+03  0.17130000000E+03 0. -1.
       11    1    1    2    0    0 -0.21920942263E-01  0.20183724799E-01  0.63140512514E+00  0.63210806334E+00  0.51109989000E-03 0.  1.
     -623    1    1    2    0    0 -0.10671124014E-03 -0.46355036902E-02  0.16461261880E-02  0.17130000007E+03  0.17130000000E+03 0. -1.
      622    1    1    2    0    0  0.22027653503E-01 -0.15548221109E-01  0.33669487159E+01  0.33678918659E+01  0.75000000000E-01 0.  1.
</event>
<event>
 5   0  0.5237200E+07  0.9118800E+02  0.7818608E-02  0.1180000E+00
       11   -1    0    0    0    0  0.00000000000E+00  0.00000000000E+00  0.39999999673E+01  0.40000000000E+01  0.51109989000E-03 0. -1.
     -623   -1    0    0    0    0  0.00000000000E+00  0.00000000000E+00  0.12525980253E-10  0.17130000000E+03  0.17130000000E+03 0. -1.
       11    1    1    2    0    0  0.11185715908E-01 -0.13847287308E-01  0.77742394849E+00  0.77762788306E+00  0.51109989000E-03 0. -1.
     -623    1    1    2    0    0  0.16114433713E-01 -0.61537283693E-02  0.12554675417E-02  0.17130000087E+03  0.17130000000E+03 0. -1.
      622    1    1    2    0    0 -0.27300149621E-01  0.20001015678E-01  0.32213205513E+01  0.32223712439E+01  0.75000000000E-01 0. -1.
</event>
<event>
 5   0  0.5237200E+07  0.9118800E+02  0.7818608E-02  0.1180000E+00
       11   -1    0    0    0    0  0.00000000000E+00  0.00000000000E+00  0.39999999673E+01  0.40000000000E+01  0.51109989000E-03 0.  1.
     -623   -1    0    0    0    0  0.00000000000E+00  0.00000000000E+00  0.12525980253E-10  0.17130000000E+03  0.17130000000E+03 0. -1.
       11    1    1    2    0    0  0.93732771738E-02  0.10776779373E-01  0.28260127347E+00  0.28296243265E+00  0.51109989000E-03 0.  1.
     -623    1    1    2    0    0  0.22402074428E-02 -0.49875606340E-02  0.11406011110E-02  0.17130000009E+03  0.17130000000E+03 0. -1.
      622    1    1    2    0    0 -0.11613484617E-01 -0.57892187392E-02  0.37162580928E+01  0.37170374763E+01  0.75000000000E-01 0.  1.
</event>
<event>
 5   0  0.5237200E+07  0.9118800E+02  0.7818608E-02  0.1180000E+00
       11   -1    0    0    0    0  0.00000000000E+00  0.00000000000E+00  0.39999999673E+01  0.40000000000E+01  0.51109989000E-03 0. -1.
     -623   -1    0    0    0    0  0.00000000000E+00  0.00000000000E+00  0.12525980253E-10  0.17130000000E+03  0.17130000000E+03 0.  1.
       11    1    1    2    0    0 -0.67953391277E-03  0.10490795794E-03  0.37448591223E-02  0.38416094421E-02  0.51109989000E-03 0. -1.
     -623    1    1    2    0    0  0.46593763058E-04  0.78307784110E-03  0.80073307818E-03  0.17130000000E+03  0.17130000000E+03 0.  1.
      622    1    1    2    0    0  0.63294014971E-03 -0.88798579904E-03  0.39954543752E+01  0.39961583869E+01  0.75000000000E-01 0. -1.
</event>
<event>
 5   0  0.5237200E+07  0.9118800E+02  0.7818608E-02  0.1180000E+00
       11   -1    0    0    0    0  0.00000000000E+00  0.00000000000E+00  0.39999999673E+01  0.40000000000E+01  0.51109989000E-03 0.  1.
     -623   -1    0    0    0    0  0.00000000000E+00  0.00000000000E+00  0.12525980253E-10  0.17130000000E+03  0.17130000000E+03 0. -1.
       11    1    1    2    0    0  0.13721360863E-02  0.39992997902E-02 -0.51466792301E-02  0.66803208341E-02  0.51109989000E-03 0.  1.
     -623    1    1    2    0    0  0.42078351538E-02 -0.19677665033E-02  0.12536268637E-01  0.17130000052E+03  0.17130000000E+03 0. -1.
      622    1    1    2    0    0 -0.55799712401E-02 -0.20315332869E-02  0.39926103780E+01  0.39933191575E+01  0.75000000000E-01 0.  1.
</event>
<event>
 5   0  0.5237200E+07  0.9118800E+02  0.7818608E-02  0.1180000E+00
       11   -1    0    0    0    0  0.00000000000E+00  0.00000000000E+00  0.39999999673E+01  0.40000000000E+01  0.51109989000E-03 0.  1.
     -623   -1    0    0    0    0  0.00000000000E+00  0.00000000000E+00  0.12525980253E-10  0.17130000000E+03  0.17130000000E+03 0. -1.
       11    1    1    2    0    0 -0.24027734848E-01  0.14071132903E-01  0.18565954545E+00  0.18773666894E+00  0.51109989000E-03 0.  1.
     -623    1    1    2    0    0 -0.58643842372E-02  0.43832043631E-02  0.29769895067E-02  0.17130000018E+03  0.17130000000E+03 0. -1.
      622    1    1    2    0    0  0.29892119085E-01 -0.18454337266E-01  0.38113634323E+01  0.38122631486E+01  0.75000000000E-01 0.  1.
</event>
<event>
 5   0  0.5237200E+07  0.9118800E+02  0.7818608E-02  0.1180000E+00
       11   -1    0    0    0    0  0.00000000000E+00  0.00000000000E+00  0.39999999673E+01  0.40000000000E+01  0.51109989000E-03 0.  1.
     -623   -1    0    0    0    0  0.00000000000E+00  0.00000000000E+00  0.12525980253E-10  0.17130000000E+03  0.17130000000E+03 0. -1.
       11    1    1    2    0    0 -0.16742962527E-01  0.47179751287E-02  0.23767563071E+00  0.23831188124E+00  0.51109989000E-03 0.  1.
     -623    1    1    2    0    0  0.14914046911E-01 -0.70062634566E-02  0.13859009594E-02  0.17130000080E+03  0.17130000000E+03 0. -1.
      622    1    1    2    0    0  0.18289156160E-02  0.22882883279E-02  0.37609384357E+01  0.37616873206E+01  0.75000000000E-01 0.  0.
</event>
<event>
 5   0  0.5237200E+07  0.9118800E+02  0.7818608E-02  0.1180000E+00
       11   -1    0    0    0    0  0.00000000000E+00  0.00000000000E+00  0.39999999673E+01  0.40000000000E+01  0.51109989000E-03 0.  1.
     -623   -1    0    0    0    0  0.00000000000E+00  0.00000000000E+00  0.12525980253E-10  0.17130000000E+03  0.17130000000E+03 0.  1.
       11    1    1    2    0    0 -0.86049085641E-02 -0.15301845858E-01  0.71269561370E+00  0.71291197910E+00  0.51109989000E-03 0.  1.
     -623    1    1    2    0    0  0.37495215675E-02 -0.73664920707E-03  0.11148361518E-02  0.17130000005E+03  0.17130000000E+03 0.  1.
      622    1    1    2    0    0  0.48553869963E-02  0.16038495065E-01  0.32861895178E+01  0.32870879750E+01  0.75000000000E-01 0.  1.
</event>
<event>
 5   0  0.5237200E+07  0.9118800E+02  0.7818608E-02  0.1180000E+00
       11   -1    0    0    0    0  0.00000000000E+00  0.00000000000E+00  0.39999999673E+01  0.40000000000E+01  0.51109989000E-03 0.  1.
     -623   -1    0    0    0    0  0.00000000000E+00  0.00000000000E+00  0.12525980253E-10  0.17130000000E+03  0.17130000000E+03 0. -1.
       11    1    1    2    0    0 -0.25868905409E-01  0.14429570681E-01  0.70913635427E+00  0.70975491752E+00  0.51109989000E-03 0.  1.
     -623    1    1    2    0    0 -0.68998928557E-02 -0.36832478512E-02  0.16544075834E-02  0.17130000019E+03  0.17130000000E+03 0. -1.
      622    1    1    2    0    0  0.32768798265E-01 -0.10746322830E-01  0.32892092055E+01  0.32902448959E+01  0.75000000000E-01 0.  1.
</event>
<event>
 5   0  0.5237200E+07  0.9118800E+02  0.7818608E-02  0.1180000E+00
       11   -1    0    0    0    0  0.00000000000E+00  0.00000000000E+00  0.39999999673E+01  0.40000000000E+01  0.51109989000E-03 0. -1.
     -623   -1    0    0    0    0  0.00000000000E+00  0.00000000000E+00  0.12525980253E-10  0.17130000000E+03  0.17130000000E+03 0. -1.
       11    1    1    2    0    0  0.30966253356E-01 -0.28881218843E-01  0.11418034183E+01  0.11425884389E+01  0.51109989000E-03 0. -1.
     -623    1    1    2    0    0  0.52721414517E-02  0.18168670666E-01  0.20204671312E-02  0.17130000106E+03  0.17130000000E+03 0. -1.
      622    1    1    2    0    0 -0.36238394808E-01  0.10712548177E-01  0.28561760822E+01  0.28574105048E+01  0.75000000000E-01 0. -1.
</event>
<event>
 5   0  0.5237200E+07  0.9118800E+02  0.7818608E-02  0.1180000E+00
       11   -1    0    0    0    0  0.00000000000E+00  0.00000000000E+00  0.39999999673E+01  0.40000000000E+01  0.51109989000E-03 0.  1.
     -623   -1    0    0    0    0  0.00000000000E+00  0.00000000000E+00  0.12525980253E-10  0.17130000000E+03  0.17130000000E+03 0. -1.
       11    1    1    2    0    0  0.11585596480E-01 -0.11562182100E-02  0.69267393842E+00  0.69277197480E+00  0.51109989000E-03 0.  1.
     -623    1    1    2    0    0 -0.68831154048E-02 -0.18450077491E-02  0.95338025331E-03  0.17130000015E+03  0.17130000000E+03 0. -1.
      622    1    1    2    0    0 -0.47024810748E-02  0.30012259592E-02  0.33063726489E+01  0.33072278746E+01  0.75000000000E-01 0.  1.
</event>
<event>
 5   0  0.5237200E+07  0.9118800E+02  0.7818608E-02  0.1180000E+00
       11   -1    0    0    0    0  0.00000000000E+00  0.00000000000E+00  0.39999999673E+01  0.40000000000E+01  0.51109989000E-03 0. -1.
     -623   -1    0    0    0    0  0.00000000000E+00  0.00000000000E+00  0.12525980253E-10  0.17130000000E+03  0.17130000000E+03 0. -1.
       11    1    1    2    0    0  0.39997992719E-02 -0.17863723872E-02  0.51967406030E-01  0.52154213953E-01  0.51109989000E-03 0. -1.
     -623    1    1    2    0    0 -0.33131726882E-03  0.15510898277E-02  0.90097489859E-03  0.17130000001E+03  0.17130000000E+03 0. -1.
      622    1    1    2    0    0 -0.36684820031E-02  0.23528255931E-03  0.39471315868E+01  0.39478457767E+01  0.75000000000E-01 0. -1.
</event>
<event>
 5   0  0.5237200E+07  0.9118800E+02  0.7818608E-02  0.1180000E+00
       11   -1    0    0    0    0  0.00000000000E+00  0.00000000000E+00  0.39999999673E+01  0.40000000000E+01  0.51109989000E-03 0. -1.
     -623   -1    0    0    0    0  0.00000000000E+00  0.00000000000E+00  0.12525980253E-10  0.17130000000E+03  0.17130000000E+03 0. -1.
       11    1    1    2    0    0  0.21795269052E-01 -0.21501398348E-01  0.11811849987E+01  0.11815818237E+01  0.51109989000E-03 0. -1.
     -623    1    1    2    0    0  0.58700387951E-02  0.11889199120E-02  0.16040398241E-02  0.17130000011E+03  0.17130000000E+03 0. -1.
      622    1    1    2    0    0 -0.27665307847E-01  0.20312478436E-01  0.28172109289E+01  0.28184180641E+01  0.75000000000E-01 0. -1.
</event>
<event>
 5   0  0.5237200E+07  0.9118800E+02  0.7818608E-02  0.1180000E+00
       11   -1    0    0    0    0  0.00000000000E+00  0.00000000000E+00  0.39999999673E+01  0.40000000000E+01  0.51109989000E-03 0. -1.
     -623   -1    0    0    0    0  0.00000000000E+00  0.00000000000E+00  0.12525980253E-10  0.17130000000E+03  0.17130000000E+03 0. -1.
       11    1    1    2    0    0  0.16068101074E-01 -0.74230359086E-02  0.97871520131E+00  0.97887537094E+00  0.51109989000E-03 0. -1.
     -623    1    1    2    0    0 -0.26983978122E-02 -0.33968510165E-02  0.11402578260E-02  0.17130000006E+03  0.17130000000E+03 0. -1.
      622    1    1    2    0    0 -0.13369703262E-01  0.10819886925E-01  0.30201445082E+01  0.30211245703E+01  0.75000000000E-01 0. -1.
</event>
<event>
 5   0  0.5237200E+07  0.9118800E+02  0.7818608E-02  0.1180000E+00
       11   -1    0    0    0    0  0.00000000000E+00  0.00000000000E+00  0.39999999673E+01  0.40000000000E+01  0.51109989000E-03 0. -1.
     -623   -1    0    0    0    0  0.00000000000E+00  0.00000000000E+00  0.12525980253E-10  0.17130000000E+03  0.17130000000E+03 0. -1.
       11    1    1    2    0    0  0.17687163941E-01  0.89307577591E-02  0.80436438546E+00  0.80460855081E+00  0.51109989000E-03 0. -1.
     -623    1    1    2    0    0  0.16203856746E-01  0.38865400863E-02  0.13307410029E-02  0.17130000082E+03  0.17130000000E+03 0. -1.
      622    1    1    2    0    0 -0.33891020687E-01 -0.12817297845E-01  0.31943048409E+01  0.31953906336E+01  0.75000000000E-01 0.  0.
</event>
<event>
 5   0  0.5237200E+07  0.9118800E+02  0.7818608E-02  0.1180000E+00
       11   -1    0    0    0    0  0.00000000000E+00  0.00000000000E+00  0.39999999673E+01  0.40000000000E+01  0.51109989000E-03 0.  1.
     -623   -1    0    0    0    0  0.00000000000E+00  0.00000000000E+00  0.12525980253E-10  0.17130000000E+03  0.17130000000E+03 0. -1.
       11    1    1    2    0    0  0.29498678193E-02 -0.16870665353E-01  0.37453768587E+00  0.37492940726E+00  0.51109989000E-03 0.  1.
     -623    1    1    2    0    0 -0.19960325697E-02  0.22634622170E-02  0.11972112843E-02  0.17130000003E+03  0.17130000000E+03 0. -1.
      622    1    1    2    0    0 -0.95383524961E-03  0.14607203136E-01  0.36242650702E+01  0.36250705620E+01  0.75000000000E-01 0.  0.
</event>
<event>
 5   0  0.5237200E+07  0.9118800E+02  0.7818608E-02  0.1180000E+00
       11   -1    0    0    0    0  0.00000000000E+00  0.00000000000E+00  0.39999999673E+01  0.40000000000E+01  0.51109989000E-03 0.  1.
     -623   -1    0    0    0    0  0.00000000000E+00  0.00000000000E+00  0.12525980253E-10  0.17130000000E+03  0.17130000000E+03 0.  1.
       11    1    1    2    0    0  0.12856318764E-01 -0.35077770916E-02  0.66257894019E-01  0.67586678960E-01  0.51109989000E-03 0.  1.
     -623    1    1    2    0    0 -0.15236474482E-01  0.55644780879E-03  0.20465460339E-02  0.17130000069E+03  0.17130000000E+03 0.  1.
      622    1    1    2    0    0  0.23801557180E-02  0.29513292828E-02  0.39316955273E+01  0.39324126303E+01  0.75000000000E-01 0.  0.
</event>
<event>
 5   0  0.5237200E+07  0.9118800E+02  0.7818608E-02  0.1180000E+00
       11   -1    0    0    0    0  0.00000000000E+00  0.00000000000E+00  0.39999999673E+01  0.40000000000E+01  0.51109989000E-03 0.  1.
     -623   -1    0    0    0    0  0.00000000000E+00  0.00000000000E+00  0.12525980253E-10  0.17130000000E+03  0.17130000000E+03 0.  1.
       11    1    1    2    0    0  0.19803809978E-02 -0.17701811290E-01  0.36500427264E-01  0.40617957154E-01  0.51109989000E-03 0.  1.
     -623    1    1    2    0    0  0.11470663792E-01  0.55743363009E-02  0.48698722222E-02  0.17130000054E+03  0.17130000000E+03 0.  1.
      622    1    1    2    0    0 -0.13451044790E-01  0.12127474989E-01  0.39586296679E+01  0.39593814989E+01  0.75000000000E-01 0.  1.
</event>
<event>
 5   0  0.5237200E+07  0.9118800E+02  0.7818608E-02  0.1180000E+00
       11   -1    0    0    0    0  0.00000000000E+00  0.00000000000E+00  0.39999999673E+01  0.40000000000E+01  0.51109989000E-03 0. -1.
     -623   -1    0    0    0    0  0.00000000000E+00  0.00000000000E+00  0.12525980253E-10  0.17130000000E+03  0.17130000000E+03 0. -1.
       11    1    1    2    0    0 -0.45137595144E-02  0.54654173218E-03  0.14966673717E-02  0.48139348913E-02  0.51109989000E-03 0. -1.
     -623    1    1    2    0    0  0.14564881650E-02 -0.12142046749E-02  0.40225526428E-02  0.17130000006E+03  0.17130000000E+03 0. -1.
      622    1    1    2    0    0  0.30572713494E-02  0.66766294271E-03  0.39944807473E+01  0.39951860073E+01  0.75000000000E-01 0. -1.
</event>
<event>
 5   0  0.5237200E+07  0.9118800E+02  0.7818608E-02  0.1180000E+00
       11   -1    0    0    0    0  0.00000000000E+00  0.00000000000E+00  0.39999999673E+01  0.40000000000E+01  0.51109989000E-03 0. -1.
     -623   -1    0    0    0    0  0.00000000000E+00  0.00000000000E+00  0.12525980253E-10  0.17130000000E+03  0.17130000000E+03 0. -1.
       11    1    1    2    0    0  0.28527330690E-01 -0.32857218957E-02  0.72148880959E+00  0.72206022474E+00  0.51109989000E-03 0. -1.
     -623    1    1    2    0    0  0.22661799518E-02  0.76883513441E-02  0.15773363779E-02  0.17130000019E+03  0.17130000000E+03 0. -1.
      622    1    1    2    0    0 -0.30793510642E-01 -0.44026294482E-02  0.32769338213E+01  0.32779395804E+01  0.75000000000E-01 0.  0.
</event>
<event>
 5   0  0.5237200E+07  0.9118800E+02  0.7818608E-02  0.1180000E+00
       11   -1    0    0    0    0  0.00000000000E+00  0.00000000000E+00  0.39999999673E+01  0.40000000000E+01  0.51109989000E-03 0. -1.
     -623   -1    0    0    0    0  0.00000000000E+00  0.00000000000E+00  0.12525980253E-10  0.17130000000E+03  0.17130000000E+03 0. -1.
       11    1    1    2    0    0 -0.84376880173E-02 -0.30454088381E-01  0.82776486471E-01  0.88605045081E-01  0.51109989000E-03 0. -1.
     -623    1    1    2    0    0 -0.84569344385E-02  0.17366785102E-01  0.66072543857E-02  0.17130000122E+03  0.17130000000E+03 0. -1.
      622    1    1    2    0    0  0.16894622456E-01  0.13087303279E-01  0.39106162265E+01  0.39113937384E+01  0.75000000000E-01 0. -1.
</event>
<event>
 5   0  0.5237200E+07  0.9118800E+02  0.7818608E-02  0.1180000E+00
       11   -1    0    0    0    0  0.00000000000E+00  0.00000000000E+00  0.39999999673E+01  0.40000000000E+01  0.51109989000E-03 0.  1.
     -623   -1    0    0    0    0  0.00000000000E+00  0.00000000000E+00  0.12525980253E-10  0.17130000000E+03  0.17130000000E+03 0.  1.
       11    1    1    2    0    0  0.40455006747E-02 -0.25860537810E-02  0.87901618294E-01  0.88034138103E-01  0.51109989000E-03 0.  1.
     -623    1    1    2    0    0  0.13212419774E-02 -0.93380124038E-03  0.85677677798E-03  0.17130000001E+03  0.17130000000E+03 0.  1.
      622    1    1    2    0    0 -0.53667426522E-02  0.35198550214E-02  0.39112415725E+01  0.39119658524E+01  0.75000000000E-01 0.  1.
</event>
<event>
 5   0  0.5237200E+07  0.9118800E+02  0.7818608E-02  0.1180000E+00
       11   -1    0    0    0    0  0.00000000000E+00  0.00000000000E+00  0.39999999673E+01  0.40000000000E+01  0.51109989000E-03 0.  1.
     -623   -1    0    0    0    0  0.00000000000E+00  0.00000000000E+00  0.12525980253E-10  0.17130000000E+03  0.17130000000E+03 0. -1.
       11    1    1    2    0    0  0.22174116853E-01 -0.15807717939E-01  0.82608722486E-01  0.86982973383E-01  0.51109989000E-03 0.  1.
     -623    1    1    2    0    0  0.14414953534E-02 -0.21237332403E-01  0.53411153633E-02  0.17130000141E+03  0.17130000000E+03 0. -1.
      622    1    1    2    0    0 -0.23615612207E-01  0.37045050342E-01  0.39120501295E+01  0.39130156208E+01  0.75000000000E-01 0.  1.
</event>
<event>
 5   0  0.5237200E+07  0.9118800E+02  0.7818608E-02  0.1180000E+00
       11   -1    0    0    0    0  0.00000000000E+00  0.00000000000E+00  0.39999999673E+01  0.40000000000E+01  0.51109989000E-03 0.  1.
     -623   -1    0    0    0    0  0.00000000000E+00  0.00000000000E+00  0.12525980253E-10  0.17130000000E+03  0.17130000000E+03 0.  1.
       11    1    1    2    0    0 -0.10165016586E-03  0.43247771035E-02  0.17127316965E-02  0.46806733183E-02  0.51109989000E-03 0.  1.
     -623    1    1    2    0    0 -0.14803060984E-01 -0.10086828876E-01  0.37048586887E-02  0.17130000098E+03  0.17130000000E+03 0.  1.
      622    1    1    2    0    0  0.14904711151E-01  0.57620517728E-02  0.39945823771E+01  0.39953183502E+01  0.75000000000E-01 0.  1.
</event>
<event>
 5   0  0.5237200E+07  0.9118800E+02  0.7818608E-02  0.1180000E+00
       11   -1    0    0    0    0  0.00000000000E+00  0.00000000000E+00  0.39999999673E+01  0.40000000000E+01  0.51109989000E-03 0. -1.
     -623   -1    0    0    0    0  0.00000000000E+00  0.00000000000E+00  0.12525980253E-10  0.17130000000E+03  0.17130000000E+03 0. -1.
       11    1    1    2    0    0  0.48386488319E-02 -0.58701384423E-02  0.29191741610E+00  0.29201696884E+00  0.51109989000E-03 0. -1.
     -623    1    1    2    0    0 -0.45681475699E-02  0.16132719824E-02  0.86062086854E-03  0.17130000007E+03  0.17130000000E+03 0. -1.
      622    1    1    2    0    0 -0.27050126203E-03  0.42568664599E-02  0.37072219304E+01  0.37079829605E+01  0.75000000000E-01 0. -1.
</event>
<event>
 5   0  0.5237200E+07  0.9118800E+02  0.7818608E-02  0.1180000E+00
       11   -1    0    0    0    0  0.00000000000E+00  0.00000000000E+00  0.39999999673E+01  0.40000000000E+01  0.51109989000E-03 0. -1.
     -623   -1    0    0    0    0  0.00000000000E+00  0.00000000000E+00  0.12525980253E-10  0.17130000000E+03  0.17130000000E+03 0. -1.
       11    1    1    2    0    0 -0.93011384090E-02 -0.76128272358E-02  0.14054704223E-01  0.18500331027E-01  0.51109989000E-03 0. -1.
     -623    1    1    2    0    0  0.69715334884E-02 -0.18678049917E-02  0.51642500736E-02  0.17130000023E+03  0.17130000000E+03 0. -1.
      622    1    1    2    0    0  0.23296049206E-02  0.94806322275E-02  0.39807810131E+01  0.39814994391E+01  0.75000000000E-01 0. -1.
</event>
<event>
 5   0  0.5237200E+07  0.9118800E+02  0.7818608E-02  0.1180000E+00
       11   -1    0    0    0    0  0.00000000000E+00  0.00000000000E+00  0.39999999673E+01  0.40000000000E+01  0.51109989000E-03 0. -1.
     -623   -1    0    0    0    0  0.00000000000E+00  0.00000000000E+00  0.12525980253E-10  0.17130000000E+03  0.17130000000E+03 0. -1.
       11    1    1    2    0    0 -0.31116180751E-01  0.55227850374E-02  0.52813453338E+00  0.52907945001E+00  0.51109989000E-03 0. -1.
     -623    1    1    2    0    0  0.81468561898E-02  0.16163969674E-01  0.19000383139E-02  0.17130000097E+03  0.17130000000E+03 0. -1.
      622    1    1    2    0    0  0.22969324561E-01 -0.21686754712E-01  0.34699653957E+01  0.34709195832E+01  0.75000000000E-01 0. -1.
</event>
<event>
 5   0  0.5237200E+07  0.9118800E+02  0.7818608E-02  0.1180000E+00
       11   -1    0    0    0    0  0.00000000000E+00  0.00000000000E+00  0.39999999673E+01  0.40000000000E+01  0.51109989000E-03 0. -1.
     -623   -1    0    0    0    0  0.00000000000E+00  0.00000000000E+00  0.12525980253E-10  0.17130000000E+03  0.17130000000E+03 0.  1.
       11    1    1    2    0    0  0.74236056359E-02  0.33191407906E-02  0.91704894263E-01  0.92066147259E-01  0.51109989000E-03 0. -1.
     -623    1    1    2    0    0 -0.34364824373E-02 -0.55857370518E-02  0.10837971622E-02  0.17130000013E+03  0.17130000000E+03 0.  1.
      622    1    1    2    0    0 -0.39871231987E-02  0.22665962610E-02  0.39072112758E+01  0.39079337236E+01  0.75000000000E-01 0. -1.
</event>
<event>
 5   0  0.5237200E+07  0.9118800E+02  0.7818608E-02  0.1180000E+00
       11   -1    0    0    0    0  0.00000000000E+00  0.00000000000E+00  0.39999999673E+01  0.40000000000E+01  0.51109989000E-03 0.  1.
     -623   -1    0    0    0    0  0.00000000000E+00  0.00000000000E+00  0.12525980253E-10  0.17130000000E+03  0.17130000000E+03 0.  1.
       11    1    1    2    0    0  0.87954668650E-03 -0.12891414472E-03  0.76591345692E-02  0.77274694627E-02  0.51109989000E-03 0.  1.
     -623    1    1    2    0    0 -0.32586296028E-03  0.14120408477E-02  0.77310290937E-03  0.17130000001E+03  0.17130000000E+03 0.  1.
      622    1    1    2    0    0 -0.55368372622E-03 -0.12831267030E-02  0.39915677299E+01  0.39922725227E+01  0.75000000000E-01 0.  1.
</event>
<event>
 5   0  0.5237200E+07  0.9118800E+02  0.7818608E-02  0.1180000E+00
       11   -1    0    0    0    0  0.00000000000E+00  0.00000000000E+00  0.39999999673E+01  0.40000000000E+01  0.51109989000E-03 0. -1.
     -623   -1    0    0    0    0  0.00000000000E+00  0.00000000000E+00  0.12525980253E-10  0.17130000000E+03  0.17130000000E+03 0. -1.
       11    1    1    2    0    0  0.39827572342E-01 -0.16479703577E-01  0.35728094886E+00  0.35987185746E+00  0.51109989000E-03 0. -1.
     -623    1    1    2    0    0 -0.71154573033E-03  0.29987400368E-01  0.36015461757E-02  0.17130000266E+03  0.17130000000E+03 0. -1.
      622    1    1    2    0    0 -0.39116026611E-01 -0.13507696791E-01  0.36391174723E+01  0.36401254784E+01  0.75000000000E-01 0. -1.
</event>
<event>
 5   0  0.5237200E+07  0.9118800E+02  0.7818608E-02  0.1180000E+00
       11   -1    0    0    0    0  0.00000000000E+00  0.00000000000E+00  0.39999999673E+01  0.40000000000E+01  0.51109989000E-03 0. -1.
     -623   -1    0    0    0    0  0.00000000000E+00  0.00000000000E+00  0.12525980253E-10  0.17130000000E+03  0.17130000000E+03 0. -1.
       11    1    1    2    0    0 -0.18053873129E-01  0.20427372874E-02  0.21192522793E+00  0.21270326412E+00  0.51109989000E-03 0. -1.
     -623    1    1    2    0    0  0.73416653575E-02  0.18439173747E-01  0.15923955366E-02  0.17130000116E+03  0.17130000000E+03 0. -1.
      622    1    1    2    0    0  0.10712207772E-01 -0.20481911034E-01  0.37864823439E+01  0.37872955788E+01  0.75000000000E-01 0. -1.
</event>
<event>
 5   0  0.5237200E+07  0.9118800E+02  0.7818608E-02  0.1180000E+00
       11   -1    0    0    0    0  0.00000000000E+00  0.00000000000E+00  0.39999999673E+01  0.40000000000E+01  0.51109989000E-03 0.  1.
     -623   -1    0    0    0    0  0.00000000000E+00  0.00000000000E+00  0.12525980253E-10  0.17130000000E+03  0.17130000000E+03 0. -1.
       11    1    1    2    0    0  0.14333416212E-01  0.15217875066E-02  0.54513213636E+00  0.54532290431E+00  0.51109989000E-03 0.  1.
     -623    1    1    2    0    0 -0.11598776803E-02  0.52722035312E-02  0.10368383726E-02  0.17130000009E+03  0.17130000000E+03 0. -1.
      622    1    1    2    0    0 -0.13173538532E-01 -0.67939910378E-02  0.34538309926E+01  0.34546770075E+01  0.75000000000E-01 0.  1.
</event>
<event>
 5   0  0.5237200E+07  0.9118800E+02  0.7818608E-02  0.1180000E+00
       11   -1    0    0    0    0  0.00000000000E+00  0.00000000000E+00  0.39999999673E+01  0.40000000000E+01  0.51109989000E-03 0.  1.
     -623   -1    0    0    0    0  0.00000000000E+00  0.00000000000E+00  0.12525980253E-10  0.17130000000E+03  0.17130000000E+03 0. -1.
       11    1    1    2    0    0 -0.57272501467E-02  0.10258724824E-02  0.92599867867E+00  0.92601709916E+00  0.51109989000E-03 0.  1.
     -623    1    1    2    0    0 -0.45656195389E-02 -0.92100858333E-02  0.96190766884E-03  0.17130000031E+03  0.17130000000E+03 0. -1.
      622    1    1    2    0    0  0.10292869686E-01  0.81842133509E-02  0.30730393810E+01  0.30739825897E+01  0.75000000000E-01 0.  1.
</event>
<event>
 5   0  0.5237200E+07  0.9118800E+02  0.7818608E-02  0.1180000E+00
       11   -1    0    0    0    0  0.00000000000E+00  0.00000000000E+00  0.39999999673E+01  0.40000000000E+01  0.51109989000E-03 0. -1.
     -623   -1    0    0    0    0  0.00000000000E+00  0.00000000000E+00  0.12525980253E-10  0.17130000000E+03  0.17130000000E+03 0. -1.
       11    1    1    2    0    0  0.26886535684E-02  0.15555983069E-02  0.13695726842E-02  0.34330302268E-02  0.51109989000E-03 0. -1.
     -623    1    1    2    0    0 -0.55327077754E-02  0.16460312132E-02  0.27696302783E-02  0.17130000012E+03  0.17130000000E+03 0. -1.
      622    1    1    2    0    0  0.28440542070E-02 -0.32016295202E-02  0.39958607644E+01  0.39965668502E+01  0.75000000000E-01 0. -1.
</event>
<event>
 5   0  0.5237200E+07  0.9118800E+02  0.7818608E-02  0.1180000E+00
       11   -1    0    0    0    0  0.00000000000E+00  0.00000000000E+00  0.39999999673E+01  0.40000000000E+01  0.51109989000E-03 0. -1.
     -623   -1    0    0    0    0  0.00000000000E+00  0.00000000000E+00  0.12525980253E-10  0.17130000000E+03  0.17130000000E+03 0.  1.
       11    1    1    2    0    0  0.68330341626E-02 -0.26492485053E-02  0.32133082887E+00  0.32141479692E+00  0.51109989000E-03 0. -1.
     -623    1    1    2    0    0 -0.12094636020E-01 -0.14692300728E-01  0.89428288804E-03  0.17130000106E+03  0.17130000000E+03 0.  1.
      622    1    1    2    0    0  0.52616018563E-02  0.17341549232E-01  0.36777748552E+01  0.36785841433E+01  0.75000000000E-01 0. -1.
</event>
<event>
 5   0  0.5237200E+07  0.9118800E+02  0.7818608E-02  0.1180000E+00
       11   -1    0    0    0    0  0.00000000000E+00  0.00000000000E+00  0.39999999673E+01  0.40000000000E+01  0.51109989000E-03 0.  1.
     -623   -1    0    0    0    0  0.00000000000E+00  0.00000000000E+00  0.12525980253E-10  0.17130000000E+03  0.17130000000E+03 0. -1.
       11    1    1    2    0    0 -0.13136360120E-01  0.57049817009E-02  0.84233333124E+00  0.84245522902E+00  0.51109989000E-03 0.  1.
     -623    1    1    2    0    0  0.25006995659E-02 -0.19406327643E-01  0.10614884019E-02  0.17130000112E+03  0.17130000000E+03 0. -1.
      622    1    1    2    0    0  0.10635660554E-01  0.13701345943E-01  0.31566051480E+01  0.31575436505E+01  0.75000000000E-01 0.  1.
</event>
<event>
 5   0  0.5237200E+07  0.9118800E+02  0.7818608E-02  0.1180000E+00
       11   -1    0    0    0    0  0.00000000000E+00  0.00000000000E+00  0.39999999673E+01  0.40000000000E+01  0.51109989000E-03 0. -1.
     -623   -1    0    0    0    0  0.00000000000E+00  0.00000000000E+00  0.12525980253E-10  0.17130000000E+03  0.17130000000E+03 0.  1.
       11    1    1    2    0    0 -0.28508459763E-02 -0.20858826198E-02  0.43303270360E-01  0.43450117085E-01  0.51109989000E-03 0. -1.
     -623    1    1    2    0    0 -0.67973486589E-03  0.42079860272E-02  0.85992446619E-03  0.17130000006E+03  0.17130000000E+03 0.  1.
      622    1    1    2    0    0  0.35305808422E-02 -0.21221034073E-02  0.39558367725E+01  0.39565498277E+01  0.75000000000E-01 0. -1.
</event>
<event>
 5   0  0.5237200E+07  0.9118800E+02  0.7818608E-02  0.1180000E+00
       11   -1    0    0    0    0  0.00000000000E+00  0.00000000000E+00  0.39999999673E+01  0.40000000000E+01  0.51109989000E-03 0.  1.
     -623   -1    0    0    0    0  0.00000000000E+00  0.00000000000E+00  0.12525980253E-10  0.17130000000E+03  0.17130000000E+03 0.  1.
       11    1    1    2    0    0 -0.13078971462E-02  0.16952716801E-02  0.73401954410E-02  0.76631736695E-02  0.51109989000E-03 0.  1.
     -623    1    1    2    0    0  0.22131723329E-02 -0.21406043624E-03  0.10278773781E-02  0.17130000002E+03  0.17130000000E+03 0.  1.
      622    1    1    2    0    0 -0.90527518670E-03 -0.14812112439E-02  0.39916318945E+01  0.39923368088E+01  0.75000000000E-01 0.  1.
</event>
<event>
 5   0  0.5237200E+07  0.9118800E+02  0.7818608E-02  0.1180000E+00
       11   -1    0    0    0    0  0.00000000000E+00  0.00000000000E+00  0.39999999673E+01  0.40000000000E+01  0.51109989000E-03 0. -1.
     -623   -1    0    0    0    0  0.00000000000E+00  0.00000000000E+00  0.12525980253E-10  0.17130000000E+03  0.17130000000E+03 0. -1.
       11    1    1    2    0    0  0.20555830394E-02  0.65263330035E-03  0.25986219108E-01  0.26080570461E-01  0.51109989000E-03 0. -1.
     -623    1    1    2    0    0  0.20845639367E-04 -0.10814441444E-02  0.80269232419E-03  0.17130000001E+03  0.17130000000E+03 0. -1.
      622    1    1    2    0    0 -0.20764286787E-02  0.42881084401E-03  0.39732110559E+01  0.39739194242E+01  0.75000000000E-01 0. -1.
</event>
<event>
 5   0  0.5237200E+07  0.9118800E+02  0.7818608E-02  0.1180000E+00
       11   -1    0    0    0    0  0.00000000000E+00  0.00000000000E+00  0.39999999673E+01  0.40000000000E+01  0.51109989000E-03 0.  1.
     -623   -1    0    0    0    0  0.00000000000E+00  0.00000000000E+00  0.12525980253E-10  0.17130000000E+03  0.17130000000E+03 0.  1.
       11    1    1    2    0    0  0.87291996287E-02  0.26583612128E-03  0.24296548822E-01  0.25823499038E-01  0.51109989000E-03 0.  1.
     -623    1    1    2    0    0 -0.15640572049E-01 -0.56580797462E-02  0.22451662862E-02  0.17130000082E+03  0.17130000000E+03 0.  1.
      622    1    1    2    0    0  0.69113724207E-02  0.53922436249E-02  0.39734582523E+01  0.39741756788E+01  0.75000000000E-01 0.  1.
</event>
<event>
 5   0  0.5237200E+07  0.9118800E+02  0.7818608E-02  0.1180000E+00
       11   -1    0    0    0    0  0.00000000000E+00  0.00000000000E+00  0.39999999673E+01  0.40000000000E+01  0.51109989000E-03 0. -1.
     -623   -1    0    0    0    0  0.00000000000E+00  0.00000000000E+00  0.12525980253E-10  0.17130000000E+03  0.17130000000E+03 0. -1.
       11    1    1    2    0    0  0.36882394632E-01  0.34326106869E-01  0.91671740714E+00  0.91810111557E+00  0.51109989000E-03 0. -1.
     -623    1    1    2    0    0  0.27263858456E-01 -0.59149892218E-01  0.30766771282E-02  0.17130001241E+03  0.17130000000E+03 0. -1.
      622    1    1    2    0    0 -0.64146253088E-01  0.24823785349E-01  0.30802058831E+01  0.30818864750E+01  0.75000000000E-01 0. -1.
</event>
<event>
 5   0  0.5237200E+07  0.9118800E+02  0.7818608E-02  0.1180000E+00
       11   -1    0    0    0    0  0.00000000000E+00  0.00000000000E+00  0.39999999673E+01  0.40000000000E+01  0.51109989000E-03 0.  1.
     -623   -1    0    0    0    0  0.00000000000E+00  0.00000000000E+00  0.12525980253E-10  0.17130000000E+03  0.17130000000E+03 0. -1.
       11    1    1    2    0    0  0.29361670172E-02 -0.22223406784E-01  0.66448618570E+00  0.66486438700E+00  0.51109989000E-03 0.  1.
     -623    1    1    2    0    0  0.30447777474E-02 -0.28451494229E-02  0.13212286069E-02  0.17130000006E+03  0.17130000000E+03 0. -1.
      622    1    1    2    0    0 -0.59809447648E-02  0.25068556207E-01  0.33341925533E+01  0.33351355575E+01  0.75000000000E-01 0.  1.
</event>
<event>
 5   0  0.5237200E+07  0.9118800E+02  0.7818608E-02  0.1180000E+00
       11   -1    0    0    0    0  0.00000000000E+00  0.00000000000E+00  0.39999999673E+01  0.40000000000E+01  0.51109989000E-03 0.  1.
     -623   -1    0    0    0    0  0.00000000000E+00  0.00000000000E+00  0.12525980253E-10  0.17130000000E+03  0.17130000000E+03 0. -1.
       11    1    1    2    0    0 -0.96387463251E-03 -0.38319585405E-02  0.23618230072E+00  0.23621590411E+00  0.51109989000E-03 0.  1.
     -623    1    1    2    0    0 -0.87106425728E-02 -0.35687725238E-02  0.80087259308E-03  0.17130000026E+03  0.17130000000E+03 0. -1.
      622    1    1    2    0    0  0.96745172058E-02  0.74007310645E-02  0.37630167943E+01  0.37637838356E+01  0.75000000000E-01 0.  1.
</event>
<event>
 5   0  0.5237200E+07  0.9118800E+02  0.7818608E-02  0.1180000E+00
       11   -1    0    0    0    0  0.00000000000E+00  0.00000000000E+00  0.39999999673E+01  0.40000000000E+01  0.51109989000E-03 0.  1.
     -623   -1    0    0    0    0  0.00000000000E+00  0.00000000000E+00  0.12525980253E-10  0.17130000000E+03  0.17130000000E+03 0. -1.
       11    1    1    2    0    0 -0.36164725048E-02  0.42296997401E-02  0.61686491899E-02  0.83236222694E-02  0.51109989000E-03 0.  1.
     -623    1    1    2    0    0  0.10055794397E-02 -0.36303160214E-02  0.28605581717E-02  0.17130000007E+03  0.17130000000E+03 0. -1.
      622    1    1    2    0    0  0.26108930651E-02 -0.59938371872E-03  0.39909707600E+01  0.39916763124E+01  0.75000000000E-01 0.  1.
</event>
<event>
 5   0  0.5237200E+07  0.9118800E+02  0.7818608E-02  0.1180000E+00
       11   -1    0    0    0    0  0.00000000000E+00  0.00000000000E+00  0.39999999673E+01  0.40000000000E+01  0.51109989000E-03 0.  1.
     -623   -1    0    0    0    0  0.00000000000E+00  0.00000000000E+00  0.12525980253E-10  0.17130000000E+03  0.17130000000E+03 0.  1.
       11    1    1    2    0    0  0.14493483178E-01 -0.10920387173E-01  0.32457219355E+00  0.32507950714E+00  0.51109989000E-03 0.  1.
     -623    1    1    2    0    0  0.21346983540E-02  0.16384389889E-03  0.13260750038E-02  0.17130000002E+03  0.17130000000E+03 0.  1.
      622    1    1    2    0    0 -0.16628181532E-01  0.10756543274E-01  0.36741016991E+01  0.36749204747E+01  0.75000000000E-01 0.  1.
</event>
<event>
 5   0  0.5237200E+07  0.9118800E+02  0.7818608E-02  0.1180000E+00
       11   -1    0    0    0    0  0.00000000000E+00  0.00000000000E+00  0.39999999673E+01  0.40000000000E+01  0.51109989000E-03 0.  1.
     -623   -1    0    0    0    0  0.00000000000E+00  0.00000000000E+00  0.12525980253E-10  0.17130000000E+03  0.17130000000E+03 0. -1.
       11    1    1    2    0    0  0.19777624984E-01 -0.15357975837E-01  0.14280463221E+00  0.14498429596E+00  0.51109989000E-03 0.  1.
     -623    1    1    2    0    0 -0.78706204287E-02 -0.32192896284E-02  0.29726689461E-02  0.17130000024E+03  0.17130000000E+03 0. -1.
      622    1    1    2    0    0 -0.11907004556E-01  0.18577265465E-01  0.38542226662E+01  0.38550154672E+01  0.75000000000E-01 0.  1.
</event>
<event>
 5   0  0.5237200E+07  0.9118800E+02  0.7818608E-02  0.1180000E+00
       11   -1    0    0    0    0  0.00000000000E+00  0.00000000000E+00  0.39999999673E+01  0.40000000000E+01  0.51109989000E-03 0.  1.
     -623   -1    0    0    0    0  0.00000000000E+00  0.00000000000E+00  0.12525980253E-10  0.17130000000E+03  0.17130000000E+03 0. -1.
       11    1    1    2    0    0 -0.30987701425E-01 -0.51403816857E-02  0.44864693586E+00  0.44974547851E+00  0.51109989000E-03 0.  1.
     -623    1    1    2    0    0 -0.18967563367E-02  0.62882655968E-02  0.20434533546E-02  0.17130000014E+03  0.17130000000E+03 0. -1.
      622    1    1    2    0    0  0.32884457762E-01 -0.11478839112E-02  0.35493095781E+01  0.35502543834E+01  0.75000000000E-01 0.  1.
</event>
<event>
 5   0  0.5237200E+07  0.9118800E+02  0.7818608E-02  0.1180000E+00
       11   -1    0    0    0    0  0.00000000000E+00  0.00000000000E+00  0.39999999673E+01  0.40000000000E+01  0.51109989000E-03 0. -1.
     -623   -1    0    0    0    0  0.00000000000E+00  0.00000000000E+00  0.12525980253E-10  0.17130000000E+03  0.17130000000E+03 0.  1.
       11    1    1    2    0    0 -0.61191631768E-01 -0.43106728737E-01  0.54919988632E+00  0.55427735134E+00  0.51109989000E-03 0. -1.
     -623    1    1    2    0    0  0.60906807524E-02 -0.67105313586E-03  0.66129015219E-02  0.17130000024E+03  0.17130000000E+03 0.  1.
      622    1    1    2    0    0  0.55100951015E-01  0.43777781872E-01  0.34441871795E+01  0.34457224114E+01  0.75000000000E-01 0. -1.
</event>
<event>
 5   0  0.5237200E+07  0.9118800E+02  0.7818608E-02  0.1180000E+00
       11   -1    0    0    0    0  0.00000000000E+00  0.00000000000E+00  0.39999999673E+01  0.40000000000E+01  0.51109989000E-03 0.  1.
     -623   -1    0    0    0    0  0.00000000000E+00  0.00000000000E+00  0.12525980253E-10  0.17130000000E+03  0.17130000000E+03 0.  1.
       11    1    1    2    0    0  0.25572392302E-01  0.80916578034E-03  0.99547758816E+00  0.99580645295E+00  0.51109989000E-03 0.  1.
     -623    1    1    2    0    0  0.31513173668E-03  0.29487638900E-02  0.13791267759E-02  0.17130000003E+03  0.17130000000E+03 0.  1.
      622    1    1    2    0    0 -0.25887524038E-01 -0.37579296704E-02  0.30031432524E+01  0.30041935158E+01  0.75000000000E-01 0.  1.
</event>
<event>
 5   0  0.5237200E+07  0.9118800E+02  0.7818608E-02  0.1180000E+00
       11   -1    0    0    0    0  0.00000000000E+00  0.00000000000E+00  0.39999999673E+01  0.40000000000E+01  0.51109989000E-03 0.  1.
     -623   -1    0    0    0    0  0.00000000000E+00  0.00000000000E+00  0.12525980253E-10  0.17130000000E+03  0.17130000000E+03 0.  1.
       11    1    1    2    0    0 -0.10676892969E-01 -0.16608312778E-01  0.65177881385E+00  0.65207799802E+00  0.51109989000E-03 0.  1.
     -623    1    1    2    0    0  0.21594727403E-02 -0.14156166371E-03  0.11920966767E-02  0.17130000002E+03  0.17130000000E+03 0.  1.
      622    1    1    2    0    0  0.85174202281E-02  0.16749874442E-01  0.33470290572E+01  0.33479219846E+01  0.75000000000E-01 0.  1.
</event>
<event>
 5   0  0.5237200E+07  0.9118800E+02  0.7818608E-02  0.1180000E+00
       11   -1    0    0    0    0  0.00000000000E+00  0.00000000000E+00  0.39999999673E+01  0.40000000000E+01  0.51109989000E-03 0.  1.
     -623   -1    0    0    0    0  0.00000000000E+00  0.00000000000E+00  0.12525980253E-10  0.17130000000E+03  0.17130000000E+03 0. -1.
       11    1    1    2    0    0  0.51188989118E-02  0.14938297112E-02  0.55759656197E-02  0.77322226769E-02  0.51109989000E-03 0.  1.
     -623    1    1    2    0    0 -0.24061587103E-02 -0.54483909073E-02  0.28637816705E-02  0.17130000013E+03  0.17130000000E+03 0. -1.
      622    1    1    2    0    0 -0.27127402016E-02  0.39545611961E-02  0.39915602201E+01  0.39922676498E+01  0.75000000000E-01 0.  1.
</event>
<event>
 5   0  0.5237200E+07  0.9118800E+02  0.7818608E-02  0.1180000E+00
       11   -1    0    0    0    0  0.00000000000E+00  0.00000000000E+00  0.39999999673E+01  0.40000000000E+01  0.51109989000E-03 0.  1.
     -623   -1    0    0    0    0  0.00000000000E+00  0.00000000000E+00  0.12525980253E-10  0.17130000000E+03  0.17130000000E+03 0. -1.
       11    1    1    2    0    0 -0.45472890317E-02 -0.19603549875E-02  0.25134989289E-01  0.25623226550E-01  0.51109989000E-03 0.  1.
     -623    1    1    2    0    0  0.34612816979E-02  0.24351422216E-02  0.11961589872E-02  0.17130000006E+03  0.17130000000E+03 0. -1.
      622    1    1    2    0    0  0.10860073339E-02 -0.47478723409E-03  0.39736688190E+01  0.39743767169E+01  0.75000000000E-01 0.  1.
</event>
<event>
 5   0  0.5237200E+07  0.9118800E+02  0.7818608E-02  0.1180000E+00
       11   -1    0    0    0    0  0.00000000000E+00  0.00000000000E+00  0.39999999673E+01  0.40000000000E+01  0.51109989000E-03 0.  1.
     -623   -1    0    0    0    0  0.00000000000E+00  0.00000000000E+00  0.12525980253E-10  0.17130000000E+03  0.17130000000E+03 0.  1.
       11    1    1    2    0    0  0.24057377635E-02 -0.10689611492E-03  0.24362433351E-01  0.24486493836E-01  0.51109989000E-03 0.  1.
     -623    1    1    2    0    0 -0.12472947993E-02 -0.33196802987E-02  0.83323111577E-03  0.17130000004E+03  0.17130000000E+03 0.  1.
      622    1    1    2    0    0 -0.11584429642E-02  0.34265764136E-02  0.39748043029E+01  0.39755134674E+01  0.75000000000E-01 0.  1.
</event>
<event>
 5   0  0.5237200E+07  0.9118800E+02  0.7818608E-02  0.1180000E+00
       11   -1    0    0    0    0  0.00000000000E+00  0.00000000000E+00  0.39999999673E+01  0.40000000000E+01  0.51109989000E-03 0. -1.
     -623   -1    0    0    0    0  0.00000000000E+00  0.00000000000E+00  0.12525980253E-10  0.17130000000E+03  0.17130000000E+03 0. -1.
       11    1    1    2    0    0  0.23059836494E-01 -0.20909047398E-02 -0.11103175432E-03  0.23160343064E-01  0.51109989000E-03 0. -1.
     -623    1    1    2    0    0 -0.15024599189E-01  0.22761994334E-01  0.24044336260E-01  0.17130000386E+03  0.17130000000E+03 0. -1.
      622    1    1    2    0    0 -0.80352373058E-02 -0.20671089594E-01  0.39760666629E+01  0.39768357983E+01  0.75000000000E-01 0. -1.
</event>
<event>
 5   0  0.5237200E+07  0.9118800E+02  0.7818608E-02  0.1180000E+00
       11   -1    0    0    0    0  0.00000000000E+00  0.00000000000E+00  0.39999999673E+01  0.40000000000E+01  0.51109989000E-03 0.  1.
     -623   -1    0    0    0    0  0.00000000000E+00  0.00000000000E+00  0.12525980253E-10  0.17130000000E+03  0.17130000000E+03 0. -1.
       11    1    1    2    0    0 -0.61969823000E-02 -0.92664282853E-03  0.75224345367E-01  0.75486585655E-01  0.51109989000E-03 0.  1.
     -623    1    1    2    0    0 -0.58376151201E-03 -0.53067351534E-02  0.98981865842E-03  0.17130000009E+03  0.17130000000E+03 0. -1.
      622    1    1    2    0    0  0.67807438120E-02  0.62333779820E-02  0.39237858033E+01  0.39245133283E+01  0.75000000000E-01 0.  1.
</event>
<event>
 5   0  0.5237200E+07  0.9118800E+02  0.7818608E-02  0.1180000E+00
       11   -1    0    0    0    0  0.00000000000E+00  0.00000000000E+00  0.39999999673E+01  0.40000000000E+01  0.51109989000E-03 0.  1.
     -623   -1    0    0    0    0  0.00000000000E+00  0.00000000000E+00  0.12525980253E-10  0.17130000000E+03  0.17130000000E+03 0. -1.
       11    1    1    2    0    0  0.66133927887E-02  0.11558616731E-01  0.54576580246E+00  0.54592848519E+00  0.51109989000E-03 0.  1.
     -623    1    1    2    0    0  0.10606939987E-01 -0.79306894451E-02  0.10223599522E-02  0.17130000052E+03  0.17130000000E+03 0. -1.
      622    1    1    2    0    0 -0.17220332776E-01 -0.36279272855E-02  0.34532118049E+01  0.34540709998E+01  0.75000000000E-01 0.  1.
</event>
<event>
 5   0  0.5237200E+07  0.9118800E+02  0.7818608E-02  0.1180000E+00
       11   -1    0    0    0    0  0.00000000000E+00  0.00000000000E+00  0.39999999673E+01  0.40000000000E+01  0.51109989000E-03 0.  1.
     -623   -1    0    0    0    0  0.00000000000E+00  0.00000000000E+00  0.12525980253E-10  0.17130000000E+03  0.17130000000E+03 0. -1.
       11    1    1    2    0    0 -0.28018164328E-02 -0.16025973703E-02  0.16464823676E+00  0.16468066549E+00  0.51109989000E-03 0.  1.
     -623    1    1    2    0    0  0.82752375669E-03  0.82143054703E-04  0.76659535397E-03  0.17130000000E+03  0.17130000000E+03 0. -1.
      622    1    1    2    0    0  0.19742926761E-02  0.15204543156E-02  0.38345851352E+01  0.38353193308E+01  0.75000000000E-01 0.  1.
</event>
<event>
 5   0  0.5237200E+07  0.9118800E+02  0.7818608E-02  0.1180000E+00
       11   -1    0    0    0    0  0.00000000000E+00  0.00000000000E+00  0.39999999673E+01  0.40000000000E+01  0.51109989000E-03 0. -1.
     -623   -1    0    0    0    0  0.00000000000E+00  0.00000000000E+00  0.12525980253E-10  0.17130000000E+03  0.17130000000E+03 0.  1.
       11    1    1    2    0    0  0.15045638665E-03 -0.66884263444E-03  0.26403773025E-01  0.26417616104E-01  0.51109989000E-03 0. -1.
     -623    1    1    2    0    0 -0.67671446624E-03 -0.12704974718E-03  0.72179056502E-03  0.17130000000E+03  0.17130000000E+03 0.  1.
      622    1    1    2    0    0  0.52625807959E-03  0.79589238162E-03  0.39728744037E+01  0.39735823810E+01  0.75000000000E-01 0. -1.
</event>
<event>
 5   0  0.5237200E+07  0.9118800E+02  0.7818608E-02  0.1180000E+00
       11   -1    0    0    0    0  0.00000000000E+00  0.00000000000E+00  0.39999999673E+01  0.40000000000E+01  0.51109989000E-03 0. -1.
     -623   -1    0    0    0    0  0.00000000000E+00  0.00000000000E+00  0.12525980253E-10  0.17130000000E+03  0.17130000000E+03 0. -1.
       11    1    1    2    0    0  0.97340065174E-02  0.16481856756E-03  0.15501022954E-01  0.18311771693E-01  0.51109989000E-03 0. -1.
     -623    1    1    2    0    0 -0.12240454146E-01  0.19242301373E-02  0.35189589600E-02  0.17130000048E+03  0.17130000000E+03 0. -1.
      622    1    1    2    0    0  0.25064476286E-02 -0.20890487048E-02  0.39809799854E+01  0.39816877440E+01  0.75000000000E-01 0. -1.
</event>
<event>
 5   0  0.5237200E+07  0.9118800E+02  0.7818608E-02  0.1180000E+00
       11   -1    0    0    0    0  0.00000000000E+00  0.00000000000E+00  0.39999999673E+01  0.40000000000E+01  0.51109989000E-03 0.  1.
     -623   -1    0    0    0    0  0.00000000000E+00  0.00000000000E+00  0.12525980253E-10  0.17130000000E+03  0.17130000000E+03 0. -1.
       11    1    1    2    0    0 -0.12374864149E-02  0.20693393820E-01  0.15697998073E+00  0.15834368788E+00  0.51109989000E-03 0.  1.
     -623    1    1    2    0    0 -0.14185760029E-02 -0.14833890636E-01  0.21018993847E-02  0.17130000066E+03  0.17130000000E+03 0. -1.
      622    1    1    2    0    0  0.26560624178E-02 -0.58595031834E-02  0.38409180873E+01  0.38416556511E+01  0.75000000000E-01 0.  1.
</event>
<event>
 5   0  0.5237200E+07  0.9118800E+02  0.7818608E-02  0.1180000E+00
       11   -1    0    0    0    0  0.00000000000E+00  0.00000000000E+00  0.39999999673E+01  0.40000000000E+01  0.51109989000E-03 0.  1.
     -623   -1    0    0    0    0  0.00000000000E+00  0.00000000000E+00  0.12525980253E-10  0.17130000000E+03  0.17130000000E+03 0. -1.
       11    1    1    2    0    0 -0.20851413122E-01  0.23181779859E-01  0.55158028141E+00  0.55246107954E+00  0.51109989000E-03 0.  1.
     -623    1    1    2    0    0 -0.31396172973E-02  0.76625735311E-02  0.19183860420E-02  0.17130000021E+03  0.17130000000E+03 0. -1.
      622    1    1    2    0    0  0.23991030419E-01 -0.30844353390E-01  0.34465012999E+01  0.34475387096E+01  0.75000000000E-01 0.  0.
</event>
<event>
 5   0  0.5237200E+07  0.9118800E+02  0.7818608E-02  0.1180000E+00
       11   -1    0    0    0    0  0.00000000000E+00  0.00000000000E+00  0.39999999673E+01  0.40000000000E+01  0.51109989000E-03 0.  1.
     -623   -1    0    0    0    0  0.00000000000E+00  0.00000000000E+00  0.12525980253E-10  0.17130000000E+03  0.17130000000E+03 0. -1.
       11    1    1    2    0    0  0.27313086316E-02  0.93838496755E-02  0.18077535144E-01  0.20556633517E-01  0.51109989000E-03 0.  1.
     -623    1    1    2    0    0 -0.57851261076E-02 -0.14067893040E-01  0.31905199717E-02  0.17130000071E+03  0.17130000000E+03 0. -1.
      622    1    1    2    0    0  0.30538174761E-02  0.46840433651E-02  0.39787319123E+01  0.39794426615E+01  0.75000000000E-01 0.  1.
</event>
<event>
 5   0  0.5237200E+07  0.9118800E+02  0.7818608E-02  0.1180000E+00
       11   -1    0    0    0    0  0.00000000000E+00  0.00000000000E+00  0.39999999673E+01  0.40000000000E+01  0.51109989000E-03 0. -1.
     -623   -1    0    0    0    0  0.00000000000E+00  0.00000000000E+00  0.12525980253E-10  0.17130000000E+03  0.17130000000E+03 0. -1.
       11    1    1    2    0    0 -0.66976230060E-02  0.65663248598E-02  0.44018005403E+00  0.44028026979E+00  0.51109989000E-03 0. -1.
     -623    1    1    2    0    0 -0.98126386886E-02 -0.40482450423E-02  0.92988008178E-03  0.17130000033E+03  0.17130000000E+03 0. -1.
      622    1    1    2    0    0  0.16510261695E-01 -0.25180798175E-02  0.35588900332E+01  0.35597193988E+01  0.75000000000E-01 0. -1.
</event>
<event>
 5   0  0.5237200E+07  0.9118800E+02  0.7818608E-02  0.1180000E+00
       11   -1    0    0    0    0  0.00000000000E+00  0.00000000000E+00  0.39999999673E+01  0.40000000000E+01  0.51109989000E-03 0. -1.
     -623   -1    0    0    0    0  0.00000000000E+00  0.00000000000E+00  0.12525980253E-10  0.17130000000E+03  0.17130000000E+03 0. -1.
       11    1    1    2    0    0  0.13201145855E-01 -0.11538977390E-01  0.10230895378E+01  0.10232398945E+01  0.51109989000E-03 0. -1.
     -623    1    1    2    0    0  0.49679393760E-02 -0.98585494012E-02  0.12280521085E-02  0.17130000036E+03  0.17130000000E+03 0. -1.
      622    1    1    2    0    0 -0.18169085232E-01  0.21397526793E-01  0.29756823779E+01  0.29767597458E+01  0.75000000000E-01 0. -1.
</event>
<event>
 5   0  0.5237200E+07  0.9118800E+02  0.7818608E-02  0.1180000E+00
       11   -1    0    0    0    0  0.00000000000E+00  0.00000000000E+00  0.39999999673E+01  0.40000000000E+01  0.51109989000E-03 0.  1.
     -623   -1    0    0    0    0  0.00000000000E+00  0.00000000000E+00  0.12525980253E-10  0.17130000000E+03  0.17130000000E+03 0. -1.
       11    1    1    2    0    0 -0.24332742081E-02  0.98521778718E-02  0.48294059371E-01  0.49351429826E-01  0.51109989000E-03 0.  1.
     -623    1    1    2    0    0 -0.67954212155E-03 -0.10870190000E-01  0.17710235960E-02  0.17130000036E+03  0.17130000000E+03 0. -1.
      622    1    1    2    0    0  0.31128163297E-02  0.10180121284E-02  0.39499348845E+01  0.39506482149E+01  0.75000000000E-01 0.  1.
</event>
<event>
 5   0  0.5237200E+07  0.9118800E+02  0.7818608E-02  0.1180000E+00
       11   -1    0    0    0    0  0.00000000000E+00  0.00000000000E+00  0.39999999673E+01  0.40000000000E+01  0.51109989000E-03 0. -1.
     -623   -1    0    0    0    0  0.00000000000E+00  0.00000000000E+00  0.12525980253E-10  0.17130000000E+03  0.17130000000E+03 0. -1.
       11    1    1    2    0    0  0.60018500138E-02 -0.71729072912E-02  0.13622202399E+00  0.13654367010E+00  0.51109989000E-03 0. -1.
     -623    1    1    2    0    0 -0.28540669185E-02  0.21421827637E-02  0.10542561205E-02  0.17130000004E+03  0.17130000000E+03 0. -1.
      622    1    1    2    0    0 -0.31477830953E-02  0.50307245275E-02  0.38627236872E+01  0.38634562895E+01  0.75000000000E-01 0. -1.
</event>
<event>
 5   0  0.5237200E+07  0.9118800E+02  0.7818608E-02  0.1180000E+00
       11   -1    0    0    0    0  0.00000000000E+00  0.00000000000E+00  0.39999999673E+01  0.40000000000E+01  0.51109989000E-03 0.  1.
     -623   -1    0    0    0    0  0.00000000000E+00  0.00000000000E+00  0.12525980253E-10  0.17130000000E+03  0.17130000000E+03 0. -1.
       11    1    1    2    0    0  0.51374299525E-03  0.12527613415E-02  0.25399955216E-02  0.29233787287E-02  0.51109989000E-03 0.  1.
     -623    1    1    2    0    0 -0.50760553254E-02  0.23543978035E-02  0.10913787700E-02  0.17130000009E+03  0.17130000000E+03 0. -1.
      622    1    1    2    0    0  0.45623123308E-02 -0.36071591452E-02  0.39963685936E+01  0.39970765269E+01  0.75000000000E-01 0.  1.
</event>
<event>
 5   0  0.5237200E+07  0.9118800E+02  0.7818608E-02  0.1180000E+00
       11   -1    0    0    0    0  0.00000000000E+00  0.00000000000E+00  0.39999999673E+01  0.40000000000E+01  0.51109989000E-03 0.  1.
     -623   -1    0    0    0    0  0.00000000000E+00  0.00000000000E+00  0.12525980253E-10  0.17130000000E+03  0.17130000000E+03 0. -1.
       11    1    1    2    0    0 -0.62508376489E-02  0.12071113499E-01  0.16916146577E+00  0.16970753512E+00  0.51109989000E-03 0.  1.
     -623    1    1    2    0    0  0.39787637450E-03  0.50944006641E-03  0.13055285471E-02  0.17130000001E+03  0.17130000000E+03 0. -1.
      622    1    1    2    0    0  0.58529612744E-02 -0.12580553565E-01  0.38295329730E+01  0.38302924587E+01  0.75000000000E-01 0.  1.
</event>
<event>
 5   0  0.5237200E+07  0.9118800E+02  0.7818608E-02  0.1180000E+00
       11   -1    0    0    0    0  0.00000000000E+00  0.00000000000E+00  0.39999999673E+01  0.40000000000E+01  0.51109989000E-03 0.  1.
     -623   -1    0    0    0    0  0.00000000000E+00  0.00000000000E+00  0.12525980253E-10  0.17130000000E+03  0.17130000000E+03 0.  1.
       11    1    1    2    0    0  0.10895495112E-01 -0.10349040930E-02  0.13151753732E+00  0.13197312865E+00  0.51109989000E-03 0.  1.
     -623    1    1    2    0    0 -0.72155526336E-03 -0.79766775895E-02  0.12068155480E-02  0.17130000019E+03  0.17130000000E+03 0.  1.
      622    1    1    2    0    0 -0.10173939849E-01  0.90115816829E-02  0.38672756147E+01  0.38680266801E+01  0.75000000000E-01 0.  1.
</event>
<event>
 5   0  0.5237200E+07  0.9118800E+02  0.7818608E-02  0.1180000E+00
       11   -1    0    0    0    0  0.00000000000E+00  0.00000000000E+00  0.39999999673E+01  0.40000000000E+01  0.51109989000E-03 0.  1.
     -623   -1    0    0    0    0  0.00000000000E+00  0.00000000000E+00  0.12525980253E-10  0.17130000000E+03  0.17130000000E+03 0.  1.
       11    1    1    2    0    0 -0.37475798424E-03 -0.13952569481E-03 -0.72440166620E-03  0.97256813957E-03  0.51109989000E-03 0.  1.
     -623    1    1    2    0    0 -0.46769662641E-03  0.21702457562E-02  0.24009306853E-02  0.17130000003E+03  0.17130000000E+03 0.  1.
      622    1    1    2    0    0  0.84245461064E-03 -0.20307200614E-02  0.39983234383E+01  0.39990274006E+01  0.75000000000E-01 0.  1.
</event>
<event>
 5   0  0.5237200E+07  0.9118800E+02  0.7818608E-02  0.1180000E+00
       11   -1    0    0    0    0  0.00000000000E+00  0.00000000000E+00  0.39999999673E+01  0.40000000000E+01  0.51109989000E-03 0.  1.
     -623   -1    0    0    0    0  0.00000000000E+00  0.00000000000E+00  0.12525980253E-10  0.17130000000E+03  0.17130000000E+03 0. -1.
       11    1    1    2    0    0  0.13265600974E-01 -0.13020194335E-01  0.45453527439E-02  0.19142180763E-01  0.51109989000E-03 0.  1.
     -623    1    1    2    0    0  0.24861228920E-01  0.38003694347E-02  0.15499208490E-01  0.17130000255E+03  0.17130000000E+03 0. -1.
      622    1    1    2    0    0 -0.38126829894E-01  0.92198248999E-02  0.39799554061E+01  0.39808552718E+01  0.75000000000E-01 0.  1.
</event>
<event>
 5   0  0.5237200E+07  0.9118800E+02  0.7818608E-02  0.1180000E+00
       11   -1    0    0    0    0  0.00000000000E+00  0.00000000000E+00  0.39999999673E+01  0.40000000000E+01  0.51109989000E-03 0. -1.
     -623   -1    0    0    0    0  0.00000000000E+00  0.00000000000E+00  0.12525980253E-10  0.17130000000E+03  0.17130000000E+03 0.  1.
       11    1    1    2    0    0  0.49426314080E-02  0.50546823521E-02  0.25644516997E-01  0.26606049951E-01  0.51109989000E-03 0. -1.
     -623    1    1    2    0    0 -0.32820477981E-02  0.15548902154E-02  0.16752886513E-02  0.17130000005E+03  0.17130000000E+03 0.  1.
      622    1    1    2    0    0 -0.16605836098E-02 -0.66095725676E-02  0.39726801618E+01  0.39733939035E+01  0.75000000000E-01 0. -1.
</event>
<event>
 5   0  0.5237200E+07  0.9118800E+02  0.7818608E-02  0.1180000E+00
       11   -1    0    0    0    0  0.00000000000E+00  0.00000000000E+00  0.39999999673E+01  0.40000000000E+01  0.51109989000E-03 0. -1.
     -623   -1    0    0    0    0  0.00000000000E+00  0.00000000000E+00  0.12525980253E-10  0.17130000000E+03  0.17130000000E+03 0.  1.
       11    1    1    2    0    0 -0.35547294063E-02  0.38885553092E-03  0.17015248320E-01  0.17394459035E-01  0.51109989000E-03 0. -1.
     -623    1    1    2    0    0  0.26656828860E-03 -0.65712320526E-03  0.10868082693E-02  0.17130000000E+03  0.17130000000E+03 0.  1.
      622    1    1    2    0    0  0.32881611177E-02  0.26826767434E-03  0.39818979108E+01  0.39826055360E+01  0.75000000000E-01 0. -1.
</event>
<event>
 5   0  0.5237200E+07  0.9118800E+02  0.7818608E-02  0.1180000E+00
       11   -1    0    0    0    0  0.00000000000E+00  0.00000000000E+00  0.39999999673E+01  0.40000000000E+01  0.51109989000E-03 0. -1.
     -623   -1    0    0    0    0  0.00000000000E+00  0.00000000000E+00  0.12525980253E-10  0.17130000000E+03  0.17130000000E+03 0. -1.
       11    1    1    2    0    0 -0.78661270461E-02 -0.16586926569E-02  0.11688874046E+00  0.11716597664E+00  0.51109989000E-03 0. -1.
     -623    1    1    2    0    0  0.16402686501E-02 -0.28576820655E-02  0.10092672921E-02  0.17130000003E+03  0.17130000000E+03 0. -1.
      622    1    1    2    0    0  0.62258583960E-02  0.45163747224E-02  0.38821019596E+01  0.38828339887E+01  0.75000000000E-01 0. -1.
</event>
<event>
 5   0  0.5237200E+07  0.9118800E+02  0.7818608E-02  0.1180000E+00
       11   -1    0    0    0    0  0.00000000000E+00  0.00000000000E+00  0.39999999673E+01  0.40000000000E+01  0.51109989000E-03 0.  1.
     -623   -1    0    0    0    0  0.00000000000E+00  0.00000000000E+00  0.12525980253E-10  0.17130000000E+03  0.17130000000E+03 0.  1.
       11    1    1    2    0    0  0.16373903293E-02  0.11846689204E-02  0.61779194786E-02  0.65201533511E-02  0.51109989000E-03 0.  1.
     -623    1    1    2    0    0 -0.30892193560E-02 -0.20537830839E-02  0.10469382542E-02  0.17130000004E+03  0.17130000000E+03 0.  1.
      622    1    1    2    0    0  0.14518290270E-02  0.86911416370E-03  0.39927751100E+01  0.39934798037E+01  0.75000000000E-01 0.  1.
</event>
<event>
 5   0  0.5237200E+07  0.9118800E+02  0.7818608E-02  0.1180000E+00
       11   -1    0    0    0    0  0.00000000000E+00  0.00000000000E+00  0.39999999673E+01  0.40000000000E+01  0.51109989000E-03 0.  1.
     -623   -1    0    0    0    0  0.00000000000E+00  0.00000000000E+00  0.12525980253E-10  0.17130000000E+03  0.17130000000E+03 0.  1.
       11    1    1    2    0    0  0.44282877098E-02  0.10380769182E-01  0.49555929155E-01  0.50827368989E-01  0.51109989000E-03 0.  1.
     -623    1    1    2    0    0  0.38447214727E-02 -0.14153380337E-02  0.20025521916E-02  0.17130000006E+03  0.17130000000E+03 0.  1.
      622    1    1    2    0    0 -0.82730091825E-02 -0.89654311485E-02  0.39484414860E+01  0.39491725703E+01  0.75000000000E-01 0.  1.
</event>
<event>
 5   0  0.5237200E+07  0.9118800E+02  0.7818608E-02  0.1180000E+00
       11   -1    0    0    0    0  0.00000000000E+00  0.00000000000E+00  0.39999999673E+01  0.40000000000E+01  0.51109989000E-03 0. -1.
     -623   -1    0    0    0    0  0.00000000000E+00  0.00000000000E+00  0.12525980253E-10  0.17130000000E+03  0.17130000000E+03 0. -1.
       11    1    1    2    0    0 -0.17512927030E-02 -0.13852194339E-02  0.40189331368E-02  0.46258951207E-02  0.51109989000E-03 0. -1.
     -623    1    1    2    0    0  0.26523944124E-02  0.23176590221E-02  0.13111821526E-02  0.17130000004E+03  0.17130000000E+03 0. -1.
      622    1    1    2    0    0 -0.90110170924E-03 -0.93243958806E-03  0.39946698519E+01  0.39953740635E+01  0.75000000000E-01 0. -1.
</event>
<event>
 5   0  0.5237200E+07  0.9118800E+02  0.7818608E-02  0.1180000E+00
       11   -1    0    0    0    0  0.00000000000E+00  0.00000000000E+00  0.39999999673E+01  0.40000000000E+01  0.51109989000E-03 0.  1.
     -623   -1    0    0    0    0  0.00000000000E+00  0.00000000000E+00  0.12525980253E-10  0.17130000000E+03  0.17130000000E+03 0. -1.
       11    1    1    2    0    0 -0.70867943423E-02  0.13649749195E-02  0.30472698576E+00  0.30481286535E+00  0.51109989000E-03 0.  1.
     -623    1    1    2    0    0  0.28378340595E-02  0.58291711097E-03  0.85003403640E-03  0.17130000003E+03  0.17130000000E+03 0. -1.
      622    1    1    2    0    0  0.42489602829E-02 -0.19478920305E-02  0.36944229474E+01  0.36951871079E+01  0.75000000000E-01 0.  1.
</event>
<event>
 5   0  0.5237200E+07  0.9118800E+02  0.7818608E-02  0.1180000E+00
       11   -1    0    0    0    0  0.00000000000E+00  0.00000000000E+00  0.39999999673E+01  0.40000000000E+01  0.51109989000E-03 0.  1.
     -623   -1    0    0    0    0  0.00000000000E+00  0.00000000000E+00  0.12525980253E-10  0.17130000000E+03  0.17130000000E+03 0. -1.
       11    1    1    2    0    0  0.20451794703E-02 -0.40927444771E-02  0.58130338958E+00  0.58132161948E+00  0.51109989000E-03 0.  1.
     -623    1    1    2    0    0  0.11437793807E-01  0.85550005285E-02  0.87108772186E-03  0.17130000060E+03  0.17130000000E+03 0. -1.
      622    1    1    2    0    0 -0.13482973278E-01 -0.44622560514E-02  0.34178254901E+01  0.34186777828E+01  0.75000000000E-01 0.  0.
</event>
<event>
 5   0  0.5237200E+07  0.9118800E+02  0.7818608E-02  0.1180000E+00
       11   -1    0    0    0    0  0.00000000000E+00  0.00000000000E+00  0.39999999673E+01  0.40000000000E+01  0.51109989000E-03 0. -1.
     -623   -1    0    0    0    0  0.00000000000E+00  0.00000000000E+00  0.12525980253E-10  0.17130000000E+03  0.17130000000E+03 0. -1.
       11    1    1    2    0    0  0.21740679777E-02 -0.40536749327E-02  0.44106941261E-01  0.44349096295E-01  0.51109989000E-03 0. -1.
     -623    1    1    2    0    0  0.29656452410E-01  0.90220065190E-02  0.10872168012E-02  0.17130000281E+03  0.17130000000E+03 0. -1.
      622    1    1    2    0    0 -0.31830520388E-01 -0.49683315863E-02  0.39548058093E+01  0.39556480955E+01  0.75000000000E-01 0. -1.
</event>
<event>
 5   0  0.5237200E+07  0.9118800E+02  0.7818608E-02  0.1180000E+00
       11   -1    0    0    0    0  0.00000000000E+00  0.00000000000E+00  0.39999999673E+01  0.40000000000E+01  0.51109989000E-03 0.  1.
     -623   -1    0    0    0    0  0.00000000000E+00  0.00000000000E+00  0.12525980253E-10  0.17130000000E+03  0.17130000000E+03 0.  1.
       11    1    1    2    0    0 -0.25382013595E-01 -0.20045649753E-01  0.37195083030E+00  0.37335473222E+00  0.51109989000E-03 0.  1.
     -623    1    1    2    0    0  0.99131666460E-02 -0.56969100544E-02  0.23042406768E-02  0.17130000040E+03  0.17130000000E+03 0.  1.
      622    1    1    2    0    0  0.15468846948E-01  0.25742559807E-01  0.36257448966E+01  0.36266448709E+01  0.75000000000E-01 0.  1.
</event>
<event>
 5   0  0.5237200E+07  0.9118800E+02  0.7818608E-02  0.1180000E+00
       11   -1    0    0    0    0  0.00000000000E+00  0.00000000000E+00  0.39999999673E+01  0.40000000000E+01  0.51109989000E-03 0. -1.
     -623   -1    0    0    0    0  0.00000000000E+00  0.00000000000E+00  0.12525980253E-10  0.17130000000E+03  0.17130000000E+03 0.  1.
       11    1    1    2    0    0 -0.57533822702E-03  0.40064352849E-02  0.21551933493E-01  0.21934666584E-01  0.51109989000E-03 0. -1.
     -623    1    1    2    0    0 -0.18898225402E-02 -0.59107618836E-02  0.10911009871E-02  0.17130000012E+03  0.17130000000E+03 0.  1.
      622    1    1    2    0    0  0.24651607673E-02  0.19043265990E-02  0.39773569331E+01  0.39780652177E+01  0.75000000000E-01 0. -1.
</event>
<event>
 5   0  0.5237200E+07  0.9118800E+02  0.7818608E-02  0.1180000E+00
       11   -1    0    0    0    0  0.00000000000E+00  0.00000000000E+00  0.39999999673E+01  0.40000000000E+01  0.51109989000E-03 0.  1.
     -623   -1    0    0    0    0  0.00000000000E+00  0.00000000000E+00  0.12525980253E-10  0.17130000000E+03  0.17130000000E+03 0. -1.
       11    1    1    2    0    0  0.29547306182E-01 -0.72019363059E-02  0.81769159435E+00  0.81825712088E+00  0.51109989000E-03 0.  1.
     -623    1    1    2    0    0  0.46169547134E-02 -0.19482424351E-02  0.16462863493E-02  0.17130000008E+03  0.17130000000E+03 0. -1.
      622    1    1    2    0    0 -0.34164260895E-01  0.91501787412E-02  0.31806620869E+01  0.31817427982E+01  0.75000000000E-01 0.  0.
</event>
<event>
 5   0  0.5237200E+07  0.9118800E+02  0.7818608E-02  0.1180000E+00
       11   -1    0    0    0    0  0.00000000000E+00  0.00000000000E+00  0.39999999673E+01  0.40000000000E+01  0.51109989000E-03 0.  1.
     -623   -1    0    0    0    0  0.00000000000E+00  0.00000000000E+00  0.12525980253E-10  0.17130000000E+03  0.17130000000E+03 0. -1.
       11    1    1    2    0    0 -0.29014757889E-02  0.73451105209E-02  0.44964263943E-01  0.45655399066E-01  0.51109989000E-03 0.  1.
     -623    1    1    2    0    0 -0.22187310923E-02 -0.30072994922E-02  0.14081512028E-02  0.17130000005E+03  0.17130000000E+03 0. -1.
      622    1    1    2    0    0  0.51202068811E-02 -0.43378110287E-02  0.39536275522E+01  0.39543445544E+01  0.75000000000E-01 0.  1.
</event>
<event>
 5   0  0.5237200E+07  0.9118800E+02  0.7818608E-02  0.1180000E+00
       11   -1    0    0    0    0  0.00000000000E+00  0.00000000000E+00  0.39999999673E+01  0.40000000000E+01  0.51109989000E-03 0. -1.
     -623   -1    0    0    0    0  0.00000000000E+00  0.00000000000E+00  0.12525980253E-10  0.17130000000E+03  0.17130000000E+03 0. -1.
       11    1    1    2    0    0  0.22370909372E-01 -0.14536510082E-02  0.14241200045E+00  0.14416660425E+00  0.51109989000E-03 0. -1.
     -623    1    1    2    0    0 -0.73610242947E-02 -0.69861834037E-02  0.25228329909E-02  0.17130000032E+03  0.17130000000E+03 0. -1.
      622    1    1    2    0    0 -0.15009885077E-01  0.84398344121E-02  0.38550651340E+01  0.38558330766E+01  0.75000000000E-01 0. -1.
</event>
<event>
 5   0  0.5237200E+07  0.9118800E+02  0.7818608E-02  0.1180000E+00
       11   -1    0    0    0    0  0.00000000000E+00  0.00000000000E+00  0.39999999673E+01  0.40000000000E+01  0.51109989000E-03 0. -1.
     -623   -1    0    0    0    0  0.00000000000E+00  0.00000000000E+00  0.12525980253E-10  0.17130000000E+03  0.17130000000E+03 0.  1.
       11    1    1    2    0    0 -0.14323510963E-02 -0.35167902527E-02  0.91504505216E-02  0.99202524557E-02  0.51109989000E-03 0. -1.
     -623    1    1    2    0    0 -0.12871545578E-02  0.43590306615E-02  0.14757871953E-02  0.17130000007E+03  0.17130000000E+03 0.  1.
      622    1    1    2    0    0  0.27195056540E-02 -0.84224040880E-03  0.39893737296E+01  0.39900796809E+01  0.75000000000E-01 0. -1.
</event>
<event>
 5   0  0.5237200E+07  0.9118800E+02  0.7818608E-02  0.1180000E+00
       11   -1    0    0    0    0  0.00000000000E+00  0.00000000000E+00  0.39999999673E+01  0.40000000000E+01  0.51109989000E-03 0. -1.
     -623   -1    0    0    0    0  0.00000000000E+00  0.00000000000E+00  0.12525980253E-10  0.17130000000E+03  0.17130000000E+03 0. -1.
       11    1    1    2    0    0 -0.18697602413E-01 -0.36169362311E-01  0.13021068255E+00  0.13642912511E+00  0.51109989000E-03 0. -1.
     -623    1    1    2    0    0 -0.10727459984E-03  0.22377073893E-01  0.70184335007E-02  0.17130000161E+03  0.17130000000E+03 0. -1.
      622    1    1    2    0    0  0.18804877013E-01  0.13792288419E-01  0.38627708513E+01  0.38635692695E+01  0.75000000000E-01 0. -1.
</event>
<event>
 5   0  0.5237200E+07  0.9118800E+02  0.7818608E-02  0.1180000E+00
       11   -1    0    0    0    0  0.00000000000E+00  0.00000000000E+00  0.39999999673E+01  0.40000000000E+01  0.51109989000E-03 0. -1.
     -623   -1    0    0    0    0  0.00000000000E+00  0.00000000000E+00  0.12525980253E-10  0.17130000000E+03  0.17130000000E+03 0.  1.
       11    1    1    2    0    0  0.75144569537E-03  0.29802181997E-02  0.11583634119E-01  0.11995339531E-01  0.51109989000E-03 0. -1.
     -623    1    1    2    0    0  0.68600377160E-03 -0.51332858510E-02  0.11178974017E-02  0.17130000008E+03  0.17130000000E+03 0.  1.
      622    1    1    2    0    0 -0.14374494670E-02  0.21530676513E-02  0.39872984358E+01  0.39880045785E+01  0.75000000000E-01 0. -1.
</event>
<event>
 5   0  0.5237200E+07  0.9118800E+02  0.7818608E-02  0.1180000E+00
       11   -1    0    0    0    0  0.00000000000E+00  0.00000000000E+00  0.39999999673E+01  0.40000000000E+01  0.51109989000E-03 0.  1.
     -623   -1    0    0    0    0  0.00000000000E+00  0.00000000000E+00  0.12525980253E-10  0.17130000000E+03  0.17130000000E+03 0. -1.
       11    1    1    2    0    0 -0.36933267313E-02  0.29386837718E-02  0.51741078773E+00  0.51743256662E+00  0.51109989000E-03 0.  1.
     -623    1    1    2    0    0 -0.12741207179E-02 -0.37599762448E-02  0.83312220754E-03  0.17130000005E+03  0.17130000000E+03 0. -1.
      622    1    1    2    0    0  0.49674474492E-02  0.82129247316E-03  0.34817560576E+01  0.34825673855E+01  0.75000000000E-01 0.  1.
</event>
<event>
 5   0  0.5237200E+07  0.9118800E+02  0.7818608E-02  0.1180000E+00
       11   -1    0    0    0    0  0.00000000000E+00  0.00000000000E+00  0.39999999673E+01  0.40000000000E+01  0.51109989000E-03 0.  1.
     -623   -1    0    0    0    0  0.00000000000E+00  0.00000000000E+00  0.12525980253E-10  0.17130000000E+03  0.17130000000E+03 0.  1.
       11    1    1    2    0    0 -0.34375601638E-02 -0.41442149888E-03  0.15621892871E-01  0.16009163744E-01  0.51109989000E-03 0.  1.
     -623    1    1    2    0    0 -0.73368237044E-03 -0.91677869042E-03  0.10956652155E-02  0.17130000001E+03  0.17130000000E+03 0.  1.
      622    1    1    2    0    0  0.41712425343E-02  0.13312001893E-02  0.39832824093E+01  0.39839908287E+01  0.75000000000E-01 0.  1.
</event>
<event>
 5   0  0.5237200E+07  0.9118800E+02  0.7818608E-02  0.1180000E+00
       11   -1    0    0    0    0  0.00000000000E+00  0.00000000000E+00  0.39999999673E+01  0.40000000000E+01  0.51109989000E-03 0. -1.
     -623   -1    0    0    0    0  0.00000000000E+00  0.00000000000E+00  0.12525980253E-10  0.17130000000E+03  0.17130000000E+03 0. -1.
       11    1    1    2    0    0  0.20841275480E-01  0.14589941050E-01  0.18581007681E+00  0.18754431746E+00  0.51109989000E-03 0. -1.
     -623    1    1    2    0    0 -0.14697358995E-01  0.42803932032E-01  0.29150705773E-02  0.17130000600E+03  0.17130000000E+03 0. -1.
      622    1    1    2    0    0 -0.61439164846E-02 -0.57393873082E-01  0.38112748199E+01  0.38124496793E+01  0.75000000000E-01 0. -1.
</event>
<event>
 5   0  0.5237200E+07  0.9118800E+02  0.7818608E-02  0.1180000E+00
       11   -1    0    0    0    0  0.00000000000E+00  0.00000000000E+00  0.39999999673E+01  0.40000000000E+01  0.51109989000E-03 0.  1.
     -623   -1    0    0    0    0  0.00000000000E+00  0.00000000000E+00  0.12525980253E-10  0.17130000000E+03  0.17130000000E+03 0.  1.
       11    1    1    2    0    0 -0.74791467707E-02  0.84046471823E-03  0.11001563582E+00  0.11027395597E+00  0.51109989000E-03 0.  1.
     -623    1    1    2    0    0 -0.31737803031E-03 -0.17883791141E-02  0.98935646901E-03  0.17130000001E+03  0.17130000000E+03 0.  1.
      622    1    1    2    0    0  0.77965248011E-02  0.94791439609E-03  0.38889949756E+01  0.38897260321E+01  0.75000000000E-01 0.  1.
</event>
<event>
 5   0  0.5237200E+07  0.9118800E+02  0.7818608E-02  0.1180000E+00
       11   -1    0    0    0    0  0.00000000000E+00  0.00000000000E+00  0.39999999673E+01  0.40000000000E+01  0.51109989000E-03 0.  1.
     -623   -1    0    0    0    0  0.00000000000E+00  0.00000000000E+00  0.12525980253E-10  0.17130000000E+03  0.17130000000E+03 0. -1.
       11    1    1    2    0    0  0.76548445245E-02 -0.58881334045E-02  0.20765931404E-01  0.22907463628E-01  0.51109989000E-03 0.  1.
     -623    1    1    2    0    0  0.16409441771E-01 -0.46939688214E-02  0.29365107846E-02  0.17130000088E+03  0.17130000000E+03 0. -1.
      622    1    1    2    0    0 -0.24064286295E-01  0.10582102226E-01  0.39762975251E+01  0.39770916608E+01  0.75000000000E-01 0.  1.
</event>
<event>
 5   0  0.5237200E+07  0.9118800E+02  0.7818608E-02  0.1180000E+00
       11   -1    0    0    0    0  0.00000000000E+00  0.00000000000E+00  0.39999999673E+01  0.40000000000E+01  0.51109989000E-03 0. -1.
     -623   -1    0    0    0    0  0.00000000000E+00  0.00000000000E+00  0.12525980253E-10  0.17130000000E+03  0.17130000000E+03 0.  1.
       11    1    1    2    0    0 -0.37607366569E-03  0.70009795174E-02  0.26378518589E+00  0.26387883709E+00  0.51109989000E-03 0. -1.
     -623    1    1    2    0    0 -0.94977769956E-02 -0.19906841422E-01  0.88324836678E-03  0.17130000142E+03  0.17130000000E+03 0.  1.
      622    1    1    2    0    0  0.98738506613E-02  0.12905861904E-01  0.37353315331E+01  0.37361197406E+01  0.75000000000E-01 0. -1.
</event>
<event>
 5   0  0.5237200E+07  0.9118800E+02  0.7818608E-02  0.1180000E+00
       11   -1    0    0    0    0  0.00000000000E+00  0.00000000000E+00  0.39999999673E+01  0.40000000000E+01  0.51109989000E-03 0.  1.
     -623   -1    0    0    0    0  0.00000000000E+00  0.00000000000E+00  0.12525980253E-10  0.17130000000E+03  0.17130000000E+03 0.  1.
       11    1    1    2    0    0  0.76256452840E-02  0.39810708700E-02  0.66783999936E-01  0.67337680847E-01  0.51109989000E-03 0.  1.
     -623    1    1    2    0    0 -0.12203699654E-01  0.34428519835E-01  0.14630529251E-02  0.17130000390E+03  0.17130000000E+03 0.  1.
      622    1    1    2    0    0  0.45780543694E-02 -0.38409590703E-01  0.39317529142E+01  0.39326584181E+01  0.75000000000E-01 0.  1.
</event>
<event>
 5   0  0.5237200E+07  0.9118800E+02  0.7818608E-02  0.1180000E+00
       11   -1    0    0    0    0  0.00000000000E+00  0.00000000000E+00  0.39999999673E+01  0.40000000000E+01  0.51109989000E-03 0.  1.
     -623   -1    0    0    0    0  0.00000000000E+00  0.00000000000E+00  0.12525980253E-10  0.17130000000E+03  0.17130000000E+03 0.  1.
       11    1    1    2    0    0 -0.22795630944E-01 -0.24305516588E-02  0.18299918010E+00  0.18443022939E+00  0.51109989000E-03 0.  1.
     -623    1    1    2    0    0 -0.62218264932E-02 -0.18936146407E-01  0.23395762761E-02  0.17130000118E+03  0.17130000000E+03 0.  1.
      622    1    1    2    0    0  0.29017457438E-01  0.21366698066E-01  0.38146612111E+01  0.38155685951E+01  0.75000000000E-01 0.  1.
</event>
<event>
 5   0  0.5237200E+07  0.9118800E+02  0.7818608E-02  0.1180000E+00
       11   -1    0    0    0    0  0.00000000000E+00  0.00000000000E+00  0.39999999673E+01  0.40000000000E+01  0.51109989000E-03 0. -1.
     -623   -1    0    0    0    0  0.00000000000E+00  0.00000000000E+00  0.12525980253E-10  0.17130000000E+03  0.17130000000E+03 0.  1.
       11    1    1    2    0    0 -0.29604057994E-02  0.66109438785E-03  0.13390157730E-02  0.33548822072E-02  0.51109989000E-03 0. -1.
     -623    1    1    2    0    0  0.50590304858E-02  0.31072839732E-02  0.27220634911E-02  0.17130000012E+03  0.17130000000E+03 0.  1.
      622    1    1    2    0    0 -0.20986246864E-02 -0.37683783610E-02  0.39959388881E+01  0.39966449933E+01  0.75000000000E-01 0. -1.
</event>
<event>
 5   0  0.5237200E+07  0.9118800E+02  0.7818608E-02  0.1180000E+00
       11   -1    0    0    0    0  0.00000000000E+00  0.00000000000E+00  0.39999999673E+01  0.40000000000E+01  0.51109989000E-03 0.  1.
     -623   -1    0    0    0    0  0.00000000000E+00  0.00000000000E+00  0.12525980253E-10  0.17130000000E+03  0.17130000000E+03 0.  1.
       11    1    1    2    0    0  0.39146083377E-02 -0.15954356692E-02  0.23402953762E-01  0.23787161270E-01  0.51109989000E-03 0.  1.
     -623    1    1    2    0    0 -0.68820639740E-02  0.27373562642E-03  0.10930383339E-02  0.17130000014E+03  0.17130000000E+03 0.  1.
      622    1    1    2    0    0  0.29674556365E-02  0.13217000428E-02  0.39755039753E+01  0.39762126969E+01  0.75000000000E-01 0.  1.
</event>
<event>
 5   0  0.5237200E+07  0.9118800E+02  0.7818608E-02  0.1180000E+00
       11   -1    0    0    0    0  0.00000000000E+00  0.00000000000E+00  0.39999999673E+01  0.40000000000E+01  0.51109989000E-03 0. -1.
     -623   -1    0    0    0    0  0.00000000000E+00  0.00000000000E+00  0.12525980253E-10  0.17130000000E+03  0.17130000000E+03 0. -1.
       11    1    1    2    0    0  0.80002771963E-02 -0.24694294616E-01  0.14247411620E+00  0.14482039785E+00  0.51109989000E-03 0. -1.
     -623    1    1    2    0    0  0.10625268529E-01  0.10882952994E-01  0.31463068382E-02  0.17130000070E+03  0.17130000000E+03 0. -1.
      622    1    1    2    0    0 -0.18625545726E-01  0.13811341622E-01  0.38543795444E+01  0.38551788981E+01  0.75000000000E-01 0. -1.
</event>
<event>
 5   0  0.5237200E+07  0.9118800E+02  0.7818608E-02  0.1180000E+00
       11   -1    0    0    0    0  0.00000000000E+00  0.00000000000E+00  0.39999999673E+01  0.40000000000E+01  0.51109989000E-03 0. -1.
     -623   -1    0    0    0    0  0.00000000000E+00  0.00000000000E+00  0.12525980253E-10  0.17130000000E+03  0.17130000000E+03 0.  1.
       11    1    1    2    0    0  0.37020758007E-02 -0.13357889927E-02  0.88515810270E-01  0.88604737954E-01  0.51109989000E-03 0. -1.
     -623    1    1    2    0    0 -0.49445799670E-04  0.67645597982E-03  0.80977866636E-03  0.17130000000E+03  0.17130000000E+03 0.  1.
      622    1    1    2    0    0 -0.36526300011E-02  0.65933301290E-03  0.39106743784E+01  0.39113952588E+01  0.75000000000E-01 0. -1.
</event>
<event>
 5   0  0.5237200E+07  0.9118800E+02  0.7818608E-02  0.1180000E+00
       11   -1    0    0    0    0  0.00000000000E+00  0.00000000000E+00  0.39999999673E+01  0.40000000000E+01  0.51109989000E-03 0. -1.
     -623   -1    0    0    0    0  0.00000000000E+00  0.00000000000E+00  0.12525980253E-10  0.17130000000E+03  0.17130000000E+03 0. -1.
       11    1    1    2    0    0 -0.18715732302E-01  0.17543213398E-02  0.40897889791E-01  0.45013941063E-01  0.51109989000E-03 0. -1.
     -623    1    1    2    0    0  0.11197779471E-01  0.91348837779E-02  0.48500285385E-02  0.17130000068E+03  0.17130000000E+03 0. -1.
      622    1    1    2    0    0  0.75179528306E-02 -0.10889205118E-01  0.39542520490E+01  0.39549853807E+01  0.75000000000E-01 0. -1.
</event>
<event>
 5   0  0.5237200E+07  0.9118800E+02  0.7818608E-02  0.1180000E+00
       11   -1    0    0    0    0  0.00000000000E+00  0.00000000000E+00  0.39999999673E+01  0.40000000000E+01  0.51109989000E-03 0. -1.
     -623   -1    0    0    0    0  0.00000000000E+00  0.00000000000E+00  0.12525980253E-10  0.17130000000E+03  0.17130000000E+03 0.  1.
       11    1    1    2    0    0  0.47547155628E-02 -0.18238883627E-01  0.34435293025E-01  0.39259582587E-01  0.51109989000E-03 0. -1.
     -623    1    1    2    0    0 -0.11727905398E-02 -0.38335799604E-02  0.55976878318E-02  0.17130000014E+03  0.17130000000E+03 0.  1.
      622    1    1    2    0    0 -0.35819250230E-02  0.22072463588E-01  0.39599669866E+01  0.39607402791E+01  0.75000000000E-01 0. -1.
</event>
<event>
 5   0  0.5237200E+07  0.9118800E+02  0.7818608E-02  0.1180000E+00
       11   -1    0    0    0    0  0.00000000000E+00  0.00000000000E+00  0.39999999673E+01  0.40000000000E+01  0.51109989000E-03 0.  1.
     -623   -1    0    0    0    0  0.00000000000E+00  0.00000000000E+00  0.12525980253E-10  0.17130000000E+03  0.17130000000E+03 0. -1.
       11    1    1    2    0    0 -0.88974337108E-02  0.49695287624E-02  0.74358192463E+00  0.74365193498E+00  0.51109989000E-03 0.  1.
     -623    1    1    2    0    0 -0.17642486943E-02 -0.72811267553E-02  0.95223559815E-03  0.17130000017E+03  0.17130000000E+03 0. -1.
      622    1    1    2    0    0  0.10661682405E-01  0.23115979929E-02  0.32554658071E+01  0.32563478985E+01  0.75000000000E-01 0.  1.
</event>
<event>
 5   0  0.5237200E+07  0.9118800E+02  0.7818608E-02  0.1180000E+00
       11   -1    0    0    0    0  0.00000000000E+00  0.00000000000E+00  0.39999999673E+01  0.40000000000E+01  0.51109989000E-03 0.  1.
     -623   -1    0    0    0    0  0.00000000000E+00  0.00000000000E+00  0.12525980253E-10  0.17130000000E+03  0.17130000000E+03 0.  1.
       11    1    1    2    0    0  0.22889051121E-01  0.43711539693E-02  0.57508208514E-01  0.62052162857E-01  0.51109989000E-03 0.  1.
     -623    1    1    2    0    0 -0.20915980811E-01 -0.19510813270E-01  0.52902635877E-02  0.17130000247E+03  0.17130000000E+03 0.  1.
      622    1    1    2    0    0 -0.19730703105E-02  0.15139659301E-01  0.39372014953E+01  0.39379453674E+01  0.75000000000E-01 0.  1.
</event>
<event>
 5   0  0.5237200E+07  0.9118800E+02  0.7818608E-02  0.1180000E+00
       11   -1    0    0    0    0  0.00000000000E+00  0.00000000000E+00  0.39999999673E+01  0.40000000000E+01  0.51109989000E-03 0. -1.
     -623   -1    0    0    0    0  0.00000000000E+00  0.00000000000E+00  0.12525980253E-10  0.17130000000E+03  0.17130000000E+03 0.  1.
       11    1    1    2    0    0 -0.28422718134E-01  0.19407080506E-01  0.48950257867E+00  0.49071124037E+00  0.51109989000E-03 0. -1.
     -623    1    1    2    0    0  0.19352778800E-01  0.29078614302E-02  0.20939851083E-02  0.17130000113E+03  0.17130000000E+03 0.  1.
      622    1    1    2    0    0  0.90699393342E-02 -0.22314941936E-01  0.35084034036E+01  0.35092876290E+01  0.75000000000E-01 0. -1.
</event>
<event>
 5   0  0.5237200E+07  0.9118800E+02  0.7818608E-02  0.1180000E+00
       11   -1    0    0    0    0  0.00000000000E+00  0.00000000000E+00  0.39999999673E+01  0.40000000000E+01  0.51109989000E-03 0. -1.
     -623   -1    0    0    0    0  0.00000000000E+00  0.00000000000E+00  0.12525980253E-10  0.17130000000E+03  0.17130000000E+03 0. -1.
       11    1    1    2    0    0 -0.19262859723E-02  0.62179910142E-02  0.90091757393E+00  0.90094123572E+00  0.51109989000E-03 0. -1.
     -623    1    1    2    0    0  0.10877130098E-01 -0.18409614789E-02  0.94767550000E-03  0.17130000036E+03  0.17130000000E+03 0. -1.
      622    1    1    2    0    0 -0.89508441265E-02 -0.43770295352E-02  0.30981347181E+01  0.30990584066E+01  0.75000000000E-01 0. -1.
</event>
<event>
 5   0  0.5237200E+07  0.9118800E+02  0.7818608E-02  0.1180000E+00
       11   -1    0    0    0    0  0.00000000000E+00  0.00000000000E+00  0.39999999673E+01  0.40000000000E+01  0.51109989000E-03 0.  1.
     -623   -1    0    0    0    0  0.00000000000E+00  0.00000000000E+00  0.12525980253E-10  0.17130000000E+03  0.17130000000E+03 0.  1.
       11    1    1    2    0    0 -0.52963931790E-02  0.66560924305E-02  0.35662257772E-01  0.36666240599E-01  0.51109989000E-03 0.  1.
     -623    1    1    2    0    0 -0.54531582091E-02 -0.50292836379E-02  0.17287272795E-02  0.17130000017E+03  0.17130000000E+03 0.  1.
      622    1    1    2    0    0  0.10749551388E-01 -0.16268087927E-02  0.39626089823E+01  0.39633335900E+01  0.75000000000E-01 0.  1.
</event>
<event>
 5   0  0.5237200E+07  0.9118800E+02  0.7818608E-02  0.1180000E+00
       11   -1    0    0    0    0  0.00000000000E+00  0.00000000000E+00  0.39999999673E+01  0.40000000000E+01  0.51109989000E-03 0. -1.
     -623   -1    0    0    0    0  0.00000000000E+00  0.00000000000E+00  0.12525980253E-10  0.17130000000E+03  0.17130000000E+03 0. -1.
       11    1    1    2    0    0  0.27350565208E-01  0.37298474322E-01  0.40422859960E+00  0.40686638047E+00  0.51109989000E-03 0. -1.
     -623    1    1    2    0    0 -0.76846499365E-02  0.11644712043E-02  0.36805406667E-02  0.17130000022E+03  0.17130000000E+03 0. -1.
      622    1    1    2    0    0 -0.19665915271E-01 -0.38462945526E-01  0.35920908271E+01  0.35931334037E+01  0.75000000000E-01 0. -1.
</event>
<event>
 5   0  0.5237200E+07  0.9118800E+02  0.7818608E-02  0.1180000E+00
       11   -1    0    0    0    0  0.00000000000E+00  0.00000000000E+00  0.39999999673E+01  0.40000000000E+01  0.51109989000E-03 0. -1.
     -623   -1    0    0    0    0  0.00000000000E+00  0.00000000000E+00  0.12525980253E-10  0.17130000000E+03  0.17130000000E+03 0. -1.
       11    1    1    2    0    0 -0.43799423367E-02  0.47997417114E-02  0.25721292090E+00  0.25729549027E+00  0.51109989000E-03 0. -1.
     -623    1    1    2    0    0  0.16504876004E-02 -0.87178244796E-03  0.83714341665E-03  0.17130000001E+03  0.17130000000E+03 0. -1.
      622    1    1    2    0    0  0.27294547363E-02 -0.39279592635E-02  0.37419499030E+01  0.37427044974E+01  0.75000000000E-01 0. -1.
</event>
<event>
 5   0  0.5237200E+07  0.9118800E+02  0.7818608E-02  0.1180000E+00
       11   -1    0    0    0    0  0.00000000000E+00  0.00000000000E+00  0.39999999673E+01  0.40000000000E+01  0.51109989000E-03 0.  1.
     -623   -1    0    0    0    0  0.00000000000E+00  0.00000000000E+00  0.12525980253E-10  0.17130000000E+03  0.17130000000E+03 0.  1.
       11    1    1    2    0    0  0.24928202953E-01  0.17234544928E-01  0.73367228764E+00  0.73429812182E+00  0.51109989000E-03 0.  1.
     -623    1    1    2    0    0  0.37618943705E-02 -0.67293057766E-02  0.16302830797E-02  0.17130000018E+03  0.17130000000E+03 0.  1.
      622    1    1    2    0    0 -0.28690097323E-01 -0.10505239151E-01  0.32646973966E+01  0.32657016969E+01  0.75000000000E-01 0.  1.
</event>
<event>
 5   0  0.5237200E+07  0.9118800E+02  0.7818608E-02  0.1180000E+00
       11   -1    0    0    0    0  0.00000000000E+00  0.00000000000E+00  0.39999999673E+01  0.40000000000E+01  0.51109989000E-03 0.  1.
     -623   -1    0    0    0    0  0.00000000000E+00  0.00000000000E+00  0.12525980253E-10  0.17130000000E+03  0.17130000000E+03 0. -1.
       11    1    1    2    0    0  0.82790481275E-01 -0.78246416539E-03  0.78252183896E+00  0.78688980532E+00  0.51109989000E-03 0.  1.
     -623    1    1    2    0    0  0.24503262984E-01 -0.14543100414E-01  0.70748617325E-02  0.17130000252E+03  0.17130000000E+03 0. -1.
      622    1    1    2    0    0 -0.10729374426E+00  0.15325564580E-01  0.32104032667E+01  0.32131076788E+01  0.75000000000E-01 0.  1.
</event>
<event>
 5   0  0.5237200E+07  0.9118800E+02  0.7818608E-02  0.1180000E+00
       11   -1    0    0    0    0  0.00000000000E+00  0.00000000000E+00  0.39999999673E+01  0.40000000000E+01  0.51109989000E-03 0.  1.
     -623   -1    0    0    0    0  0.00000000000E+00  0.00000000000E+00  0.12525980253E-10  0.17130000000E+03  0.17130000000E+03 0.  1.
       11    1    1    2    0    0 -0.50119095824E-02  0.34217505980E-02  0.67853214436E+00  0.67855947400E+00  0.51109989000E-03 0.  1.
     -623    1    1    2    0    0 -0.77520714722E-03 -0.85742931837E-03  0.88021531557E-03  0.17130000001E+03  0.17130000000E+03 0.  1.
      622    1    1    2    0    0  0.57871167296E-02 -0.25643212796E-02  0.33205876077E+01  0.33214405198E+01  0.75000000000E-01 0.  1.
</event>
<event>
 5   0  0.5237200E+07  0.9118800E+02  0.7818608E-02  0.1180000E+00
       11   -1    0    0    0    0  0.00000000000E+00  0.00000000000E+00  0.39999999673E+01  0.40000000000E+01  0.51109989000E-03 0.  1.
     -623   -1    0    0    0    0  0.00000000000E+00  0.00000000000E+00  0.12525980253E-10  0.17130000000E+03  0.17130000000E+03 0. -1.
       11    1    1    2    0    0 -0.30690158570E-02 -0.51249060341E-02  0.37695587947E-01  0.38169386854E-01  0.51109989000E-03 0.  1.
     -623    1    1    2    0    0 -0.12264635790E-02  0.19546364761E-02  0.11873463341E-02  0.17130000002E+03  0.17130000000E+03 0. -1.
      622    1    1    2    0    0  0.42954794361E-02  0.31702695580E-02  0.39611170331E+01  0.39618305935E+01  0.75000000000E-01 0.  1.
</event>
<event>
 5   0  0.5237200E+07  0.9118800E+02  0.7818608E-02  0.1180000E+00
       11   -1    0    0    0    0  0.00000000000E+00  0.00000000000E+00  0.39999999673E+01  0.40000000000E+01  0.51109989000E-03 0. -1.
     -623   -1    0    0    0    0  0.00000000000E+00  0.00000000000E+00  0.12525980253E-10  0.17130000000E+03  0.17130000000E+03 0. -1.
       11    1    1    2    0    0 -0.60305280551E-03  0.12834976414E-02  0.34377539515E-02  0.37537200495E-02  0.51109989000E-03 0.  1.
     -623    1    1    2    0    0 -0.77860967047E-05  0.12386794062E-02  0.10206311669E-02  0.17130000001E+03  0.17130000000E+03 0. -1.
      622    1    1    2    0    0  0.61083890222E-03 -0.25221770476E-02  0.39955415825E+01  0.39962462727E+01  0.75000000000E-01 0. -1.
</event>
<event>
 5   0  0.5237200E+07  0.9118800E+02  0.7818608E-02  0.1180000E+00
       11   -1    0    0    0    0  0.00000000000E+00  0.00000000000E+00  0.39999999673E+01  0.40000000000E+01  0.51109989000E-03 0.  1.
     -623   -1    0    0    0    0  0.00000000000E+00  0.00000000000E+00  0.12525980253E-10  0.17130000000E+03  0.17130000000E+03 0.  1.
       11    1    1    2    0    0 -0.57237770525E-03 -0.40426780170E-02  0.51561078618E-01  0.51725012442E-01  0.51109989000E-03 0.  1.
     -623    1    1    2    0    0  0.47669130252E-03  0.42797478244E-03  0.87796142006E-03  0.17130000000E+03  0.17130000000E+03 0.  1.
      622    1    1    2    0    0  0.95686402726E-04  0.36147032346E-02  0.39475609273E+01  0.39482749841E+01  0.75000000000E-01 0.  1.
</event>
<event>
 5   0  0.5237200E+07  0.9118800E+02  0.7818608E-02  0.1180000E+00
       11   -1    0    0    0    0  0.00000000000E+00  0.00000000000E+00  0.39999999673E+01  0.40000000000E+01  0.51109989000E-03 0. -1.
     -623   -1    0    0    0    0  0.00000000000E+00  0.00000000000E+00  0.12525980253E-10  0.17130000000E+03  0.17130000000E+03 0.  1.
       11    1    1    2    0    0 -0.31839688211E-02 -0.44842476868E-02  0.51303739793E+00  0.51306712916E+00  0.51109989000E-03 0. -1.
     -623    1    1    2    0    0 -0.27359762238E-02 -0.84117925983E-02  0.86548470481E-03  0.17130000023E+03  0.17130000000E+03 0.  1.
      622    1    1    2    0    0  0.59199450449E-02  0.12896040285E-01  0.34860970848E+01  0.34869326403E+01  0.75000000000E-01 0.  0.
</event>
<event>
 5   0  0.5237200E+07  0.9118800E+02  0.7818608E-02  0.1180000E+00
       11   -1    0    0    0    0  0.00000000000E+00  0.00000000000E+00  0.39999999673E+01  0.40000000000E+01  0.51109989000E-03 0. -1.
     -623   -1    0    0    0    0  0.00000000000E+00  0.00000000000E+00  0.12525980253E-10  0.17130000000E+03  0.17130000000E+03 0. -1.
       11    1    1    2    0    0 -0.37768136886E-02  0.18181290392E-03  0.59471180547E-01  0.59593455315E-01  0.51109989000E-03 0. -1.
     -623    1    1    2    0    0 -0.21851152100E-03  0.30969590105E-03  0.83812462472E-03  0.17130000000E+03  0.17130000000E+03 0. -1.
      622    1    1    2    0    0  0.39953252096E-02 -0.49150880497E-03  0.39396906621E+01  0.39404065422E+01  0.75000000000E-01 0. -1.
</event>
<event>
 5   0  0.5237200E+07  0.9118800E+02  0.7818608E-02  0.1180000E+00
       11   -1    0    0    0    0  0.00000000000E+00  0.00000000000E+00  0.39999999673E+01  0.40000000000E+01  0.51109989000E-03 0. -1.
     -623   -1    0    0    0    0  0.00000000000E+00  0.00000000000E+00  0.12525980253E-10  0.17130000000E+03  0.17130000000E+03 0. -1.
       11    1    1    2    0    0 -0.63551917355E-02  0.17389061370E-01  0.63528317374E-01  0.66173077971E-01  0.51109989000E-03 0. -1.
     -623    1    1    2    0    0  0.29040671060E-01 -0.20043950099E-01  0.34297344547E-02  0.17130000367E+03  0.17130000000E+03 0. -1.
      622    1    1    2    0    0 -0.22685479325E-01  0.26548887287E-02  0.39330419155E+01  0.39338232534E+01  0.75000000000E-01 0. -1.
</event>
<event>
 5   0  0.5237200E+07  0.9118800E+02  0.7818608E-02  0.1180000E+00
       11   -1    0    0    0    0  0.00000000000E+00  0.00000000000E+00  0.39999999673E+01  0.40000000000E+01  0.51109989000E-03 0.  1.
     -623   -1    0    0    0    0  0.00000000000E+00  0.00000000000E+00  0.12525980253E-10  0.17130000000E+03  0.17130000000E+03 0.  1.
       11    1    1    2    0    0  0.98430269766E-03 -0.11065581724E-02  0.20645519282E-02  0.25917022498E-02  0.51109989000E-03 0.  1.
     -623    1    1    2    0    0 -0.83397248686E-03 -0.71947557005E-03  0.12311884163E-02  0.17130000001E+03  0.17130000000E+03 0.  1.
      622    1    1    2    0    0 -0.15033021074E-03  0.18260337425E-02  0.39967042273E+01  0.39974082901E+01  0.75000000000E-01 0.  1.
</event>
<event>
 5   0  0.5237200E+07  0.9118800E+02  0.7818608E-02  0.1180000E+00
       11   -1    0    0    0    0  0.00000000000E+00  0.00000000000E+00  0.39999999673E+01  0.40000000000E+01  0.51109989000E-03 0.  1.
     -623   -1    0    0    0    0  0.00000000000E+00  0.00000000000E+00  0.12525980253E-10  0.17130000000E+03  0.17130000000E+03 0.  1.
       11    1    1    2    0    0 -0.20510836959E-02  0.64128244574E-02  0.23508129397E-01  0.24458631047E-01  0.51109989000E-03 0.  1.
     -623    1    1    2    0    0 -0.13635259354E-02 -0.12429348814E-01  0.16644674593E-02  0.17130000046E+03  0.17130000000E+03 0.  1.
      622    1    1    2    0    0  0.34146096314E-02  0.60165243576E-02  0.39748273707E+01  0.39755409047E+01  0.75000000000E-01 0.  1.
</event>
<event>
 5   0  0.5237200E+07  0.9118800E+02  0.7818608E-02  0.1180000E+00
       11   -1    0    0    0    0  0.00000000000E+00  0.00000000000E+00  0.39999999673E+01  0.40000000000E+01  0.51109989000E-03 0. -1.
     -623   -1    0    0    0    0  0.00000000000E+00  0.00000000000E+00  0.12525980253E-10  0.17130000000E+03  0.17130000000E+03 0.  1.
       11    1    1    2    0    0 -0.70282657370E-02  0.66081000271E-02  0.27878385093E-01  0.29504729820E-01  0.51109989000E-03 0. -1.
     -623    1    1    2    0    0  0.21811177086E-02  0.31109712652E-02  0.23496401060E-02  0.17130000006E+03  0.17130000000E+03 0.  1.
      622    1    1    2    0    0  0.48471480283E-02 -0.97190712923E-02  0.39697719422E+01  0.39704952119E+01  0.75000000000E-01 0. -1.
</event>
<event>
 5   0  0.5237200E+07  0.9118800E+02  0.7818608E-02  0.1180000E+00
       11   -1    0    0    0    0  0.00000000000E+00  0.00000000000E+00  0.39999999673E+01  0.40000000000E+01  0.51109989000E-03 0.  1.
     -623   -1    0    0    0    0  0.00000000000E+00  0.00000000000E+00  0.12525980253E-10  0.17130000000E+03  0.17130000000E+03 0. -1.
       11    1    1    2    0    0  0.11827686196E-01 -0.27130446644E-01  0.39148460220E+00  0.39260210173E+00  0.51109989000E-03 0.  1.
     -623    1    1    2    0    0 -0.11012361965E-03 -0.13008763595E-02  0.20283164425E-02  0.17130000002E+03  0.17130000000E+03 0. -1.
      622    1    1    2    0    0 -0.11717562576E-01  0.28431323004E-01  0.36064870487E+01  0.36073978813E+01  0.75000000000E-01 0.  0.
</event>
<event>
 5   0  0.5237200E+07  0.9118800E+02  0.7818608E-02  0.1180000E+00
       11   -1    0    0    0    0  0.00000000000E+00  0.00000000000E+00  0.39999999673E+01  0.40000000000E+01  0.51109989000E-03 0.  1.
     -623   -1    0    0    0    0  0.00000000000E+00  0.00000000000E+00  0.12525980253E-10  0.17130000000E+03  0.17130000000E+03 0.  1.
       11    1    1    2    0    0 -0.26731346989E-02  0.82696156996E-02  0.29484511350E-01  0.30742963812E-01  0.51109989000E-03 0.  1.
     -623    1    1    2    0    0  0.52073102981E-02 -0.33488811431E-02  0.19710370259E-02  0.17130000012E+03  0.17130000000E+03 0.  1.
      622    1    1    2    0    0 -0.25341755991E-02 -0.49207345565E-02  0.39685444190E+01  0.39692569130E+01  0.75000000000E-01 0.  1.
</event>
<event>
 5   0  0.5237200E+07  0.9118800E+02  0.7818608E-02  0.1180000E+00
       11   -1    0    0    0    0  0.00000000000E+00  0.00000000000E+00  0.39999999673E+01  0.40000000000E+01  0.51109989000E-03 0.  1.
     -623   -1    0    0    0    0  0.00000000000E+00  0.00000000000E+00  0.12525980253E-10  0.17130000000E+03  0.17130000000E+03 0.  1.
       11    1    1    2    0    0 -0.19266338836E-02 -0.20392428583E-02  0.22541767241E-01  0.22721419877E-01  0.51109989000E-03 0.  1.
     -623    1    1    2    0    0  0.59405188512E-02  0.15623582182E-02  0.88899151365E-03  0.17130000011E+03  0.17130000000E+03 0.  1.
      622    1    1    2    0    0 -0.40138849676E-02  0.47688464013E-03  0.39765692086E+01  0.39772784677E+01  0.75000000000E-01 0.  1.
</event>
<event>
 5   0  0.5237200E+07  0.9118800E+02  0.7818608E-02  0.1180000E+00
       11   -1    0    0    0    0  0.00000000000E+00  0.00000000000E+00  0.39999999673E+01  0.40000000000E+01  0.51109989000E-03 0.  1.
     -623   -1    0    0    0    0  0.00000000000E+00  0.00000000000E+00  0.12525980253E-10  0.17130000000E+03  0.17130000000E+03 0.  1.
       11    1    1    2    0    0  0.12208555896E-02 -0.21160503627E-02  0.50676691387E-02  0.56489510914E-02  0.51109989000E-03 0.  1.
     -623    1    1    2    0    0 -0.16217439667E-02  0.83673153893E-04  0.12859805566E-02  0.17130000001E+03  0.17130000000E+03 0.  1.
      622    1    1    2    0    0  0.40088837709E-03  0.20323772088E-02  0.39936463177E+01  0.39943510364E+01  0.75000000000E-01 0.  1.
</event>
<event>
 5   0  0.5237200E+07  0.9118800E+02  0.7818608E-02  0.1180000E+00
       11   -1    0    0    0    0  0.00000000000E+00  0.00000000000E+00  0.39999999673E+01  0.40000000000E+01  0.51109989000E-03 0. -1.
     -623   -1    0    0    0    0  0.00000000000E+00  0.00000000000E+00  0.12525980253E-10  0.17130000000E+03  0.17130000000E+03 0.  1.
       11    1    1    2    0    0 -0.25349176230E-01  0.10504369280E+00  0.11730072085E+01  0.11779740789E+01  0.51109989000E-03 0. -1.
     -623    1    1    2    0    0  0.11007767033E-01  0.34614034591E-02  0.80881850651E-02  0.17130000058E+03  0.17130000000E+03 0.  1.
      622    1    1    2    0    0  0.14341409197E-01 -0.10850509626E+00  0.28189045737E+01  0.28220253414E+01  0.75000000000E-01 0. -1.
</event>
<event>
 5   0  0.5237200E+07  0.9118800E+02  0.7818608E-02  0.1180000E+00
       11   -1    0    0    0    0  0.00000000000E+00  0.00000000000E+00  0.39999999673E+01  0.40000000000E+01  0.51109989000E-03 0.  1.
     -623   -1    0    0    0    0  0.00000000000E+00  0.00000000000E+00  0.12525980253E-10  0.17130000000E+03  0.17130000000E+03 0.  1.
       11    1    1    2    0    0 -0.38593104465E-01 -0.11763348115E-01  0.38717332098E+00  0.38927014498E+00  0.51109989000E-03 0.  1.
     -623    1    1    2    0    0  0.42656792295E-02  0.15256002436E-02  0.30536239895E-02  0.17130000009E+03  0.17130000000E+03 0.  1.
      622    1    1    2    0    0  0.34327425235E-01  0.10237747871E-01  0.36097730225E+01  0.36107297680E+01  0.75000000000E-01 0.  1.
</event>
<event>
 5   0  0.5237200E+07  0.9118800E+02  0.7818608E-02  0.1180000E+00
       11   -1    0    0    0    0  0.00000000000E+00  0.00000000000E+00  0.39999999673E+01  0.40000000000E+01  0.51109989000E-03 0. -1.
     -623   -1    0    0    0    0  0.00000000000E+00  0.00000000000E+00  0.12525980253E-10  0.17130000000E+03  0.17130000000E+03 0.  1.
       11    1    1    2    0    0 -0.35574711104E-03  0.28350531701E-02  0.57012450179E-02  0.63976167701E-02  0.51109989000E-03 0. -1.
     -623    1    1    2    0    0  0.11670383486E-01 -0.24686740905E-02  0.14171217980E-02  0.17130000042E+03  0.17130000000E+03 0.  1.
      622    1    1    2    0    0 -0.11314636375E-01 -0.36637907956E-03  0.39928816006E+01  0.39936019621E+01  0.75000000000E-01 0. -1.
</event>
<event>
 5   0  0.5237200E+07  0.9118800E+02  0.7818608E-02  0.1180000E+00
       11   -1    0    0    0    0  0.00000000000E+00  0.00000000000E+00  0.39999999673E+01  0.40000000000E+01  0.51109989000E-03 0. -1.
     -623   -1    0    0    0    0  0.00000000000E+00  0.00000000000E+00  0.12525980253E-10  0.17130000000E+03  0.17130000000E+03 0. -1.
       11    1    1    2    0    0 -0.25275579094E-02  0.32574297272E-01  0.23389254232E+00  0.23616404462E+00  0.51109989000E-03 0. -1.
     -623    1    1    2    0    0  0.41186607792E-01  0.40241437580E-01  0.39316911421E-02  0.17130000972E+03  0.17130000000E+03 0. -1.
      622    1    1    2    0    0 -0.38659049884E-01 -0.72815734853E-01  0.37621757340E+01  0.37638262323E+01  0.75000000000E-01 0. -1.
</event>
<event>
 5   0  0.5237200E+07  0.9118800E+02  0.7818608E-02  0.1180000E+00
       11   -1    0    0    0    0  0.00000000000E+00  0.00000000000E+00  0.39999999673E+01  0.40000000000E+01  0.51109989000E-03 0.  1.
     -623   -1    0    0    0    0  0.00000000000E+00  0.00000000000E+00  0.12525980253E-10  0.17130000000E+03  0.17130000000E+03 0. -1.
       11    1    1    2    0    0  0.23404598157E-02 -0.12504359711E-02  0.25572614684E-01  0.25714999264E-01  0.51109989000E-03 0.  1.
     -623    1    1    2    0    0  0.54571154613E-03  0.22142338496E-02  0.85127177414E-03  0.17130000002E+03  0.17130000000E+03 0. -1.
      622    1    1    2    0    0 -0.28861713619E-02 -0.96379787867E-03  0.39735760812E+01  0.39742849837E+01  0.75000000000E-01 0.  1.
</event>
<event>
 5   0  0.5237200E+07  0.9118800E+02  0.7818608E-02  0.1180000E+00
       11   -1    0    0    0    0  0.00000000000E+00  0.00000000000E+00  0.39999999673E+01  0.40000000000E+01  0.51109989000E-03 0. -1.
     -623   -1    0    0    0    0  0.00000000000E+00  0.00000000000E+00  0.12525980253E-10  0.17130000000E+03  0.17130000000E+03 0.  1.
       11    1    1    2    0    0  0.23298380637E-03 -0.13997165261E-01  0.12418015490E+00  0.12496778389E+00  0.51109989000E-03 0. -1.
     -623    1    1    2    0    0 -0.32160221999E-03  0.10992357541E-01  0.15149907424E-02  0.17130000036E+03  0.17130000000E+03 0.  1.
      622    1    1    2    0    0  0.88618413618E-04  0.30048077203E-02  0.38743048217E+01  0.38750318564E+01  0.75000000000E-01 0. -1.
</event>
<event>
 5   0  0.5237200E+07  0.9118800E+02  0.7818608E-02  0.1180000E+00
       11   -1    0    0    0    0  0.00000000000E+00  0.00000000000E+00  0.39999999673E+01  0.40000000000E+01  0.51109989000E-03 0.  1.
     -623   -1    0    0    0    0  0.00000000000E+00  0.00000000000E+00  0.12525980253E-10  0.17130000000E+03  0.17130000000E+03 0. -1.
       11    1    1    2    0    0 -0.16980656930E-02  0.17099136167E-02  0.21349996167E-02  0.32598586066E-02  0.51109989000E-03 0.  1.
     -623    1    1    2    0    0 -0.34177059432E-03 -0.16018077323E-02  0.18291264929E-02  0.17130000002E+03  0.17130000000E+03 0. -1.
      622    1    1    2    0    0  0.20398362873E-02 -0.10810588422E-03  0.39960358415E+01  0.39967401241E+01  0.75000000000E-01 0.  1.
</event>
<event>
 5   0  0.5237200E+07  0.9118800E+02  0.7818608E-02  0.1180000E+00
       11   -1    0    0    0    0  0.00000000000E+00  0.00000000000E+00  0.39999999673E+01  0.40000000000E+01  0.51109989000E-03 0. -1.
     -623   -1    0    0    0    0  0.00000000000E+00  0.00000000000E+00  0.12525980253E-10  0.17130000000E+03  0.17130000000E+03 0. -1.
       11    1    1    2    0    0  0.17477183002E-01  0.25884133820E-02  0.27719419931E+00  0.27775715501E+00  0.51109989000E-03 0. -1.
     -623    1    1    2    0    0 -0.19599636069E-02 -0.12144440836E-03  0.13517775337E-02  0.17130000002E+03  0.17130000000E+03 0. -1.
      622    1    1    2    0    0 -0.15517219395E-01 -0.24669689737E-02  0.37214539905E+01  0.37222428284E+01  0.75000000000E-01 0.  0.
</event>
<event>
 5   0  0.5237200E+07  0.9118800E+02  0.7818608E-02  0.1180000E+00
       11   -1    0    0    0    0  0.00000000000E+00  0.00000000000E+00  0.39999999673E+01  0.40000000000E+01  0.51109989000E-03 0. -1.
     -623   -1    0    0    0    0  0.00000000000E+00  0.00000000000E+00  0.12525980253E-10  0.17130000000E+03  0.17130000000E+03 0. -1.
       11    1    1    2    0    0  0.41975459692E-02 -0.12623038777E-01  0.23369564325E+00  0.23407450821E+00  0.51109989000E-03 0. -1.
     -623    1    1    2    0    0 -0.80077415219E-02 -0.79768840538E-02  0.11843929787E-02  0.17130000038E+03  0.17130000000E+03 0. -1.
      622    1    1    2    0    0  0.38101955530E-02  0.20599922831E-01  0.37651199313E+01  0.37659251150E+01  0.75000000000E-01 0. -1.
</event>
<event>
 5   0  0.5237200E+07  0.9118800E+02  0.7818608E-02  0.1180000E+00
       11   -1    0    0    0    0  0.00000000000E+00  0.00000000000E+00  0.39999999673E+01  0.40000000000E+01  0.51109989000E-03 0.  1.
     -623   -1    0    0    0    0  0.00000000000E+00  0.00000000000E+00  0.12525980253E-10  0.17130000000E+03  0.17130000000E+03 0. -1.
       11    1    1    2    0    0 -0.16994051459E-02 -0.27175661831E-02  0.10654694263E-01  0.11138082274E-01  0.51109989000E-03 0.  1.
     -623    1    1    2    0    0 -0.73901329141E-03  0.16359763680E-01  0.12133715687E-02  0.17130000079E+03  0.17130000000E+03 0. -1.
      622    1    1    2    0    0  0.24384184374E-02 -0.13642197498E-01  0.39881319020E+01  0.39888611311E+01  0.75000000000E-01 0.  1.
</event>
<event>
 5   0  0.5237200E+07  0.9118800E+02  0.7818608E-02  0.1180000E+00
       11   -1    0    0    0    0  0.00000000000E+00  0.00000000000E+00  0.39999999673E+01  0.40000000000E+01  0.51109989000E-03 0.  1.
     -623   -1    0    0    0    0  0.00000000000E+00  0.00000000000E+00  0.12525980253E-10  0.17130000000E+03  0.17130000000E+03 0.  1.
       11    1    1    2    0    0  0.10839535463E-01  0.21192812663E-01  0.57165525316E-01  0.61925675979E-01  0.51109989000E-03 0.  1.
     -623    1    1    2    0    0  0.84531541645E-02 -0.19481327268E-01  0.55234084295E-02  0.17130000141E+03  0.17130000000E+03 0.  1.
      622    1    1    2    0    0 -0.19292689628E-01 -0.17114853942E-02  0.39373110337E+01  0.39380729187E+01  0.75000000000E-01 0.  1.
</event>
<event>
 5   0  0.5237200E+07  0.9118800E+02  0.7818608E-02  0.1180000E+00
       11   -1    0    0    0    0  0.00000000000E+00  0.00000000000E+00  0.39999999673E+01  0.40000000000E+01  0.51109989000E-03 0.  1.
     -623   -1    0    0    0    0  0.00000000000E+00  0.00000000000E+00  0.12525980253E-10  0.17130000000E+03  0.17130000000E+03 0.  1.
       11    1    1    2    0    0  0.31427717611E-02  0.38796330967E-02  0.75788236814E-02  0.90900142354E-02  0.51109989000E-03 0.  1.
     -623    1    1    2    0    0  0.14466024098E-03 -0.48505615707E-02  0.22175020877E-02  0.17130000008E+03  0.17130000000E+03 0.  1.
      622    1    1    2    0    0 -0.32874320021E-02  0.97092847372E-03  0.39902036414E+01  0.39909099025E+01  0.75000000000E-01 0.  1.
</event>
<event>
 5   0  0.5237200E+07  0.9118800E+02  0.7818608E-02  0.1180000E+00
       11   -1    0    0    0    0  0.00000000000E+00  0.00000000000E+00  0.39999999673E+01  0.40000000000E+01  0.51109989000E-03 0. -1.
     -623   -1    0    0    0    0  0.00000000000E+00  0.00000000000E+00  0.12525980253E-10  0.17130000000E+03  0.17130000000E+03 0. -1.
       11    1    1    2    0    0 -0.40998184791E-02 -0.62941768916E-02  0.39558482357E-01  0.40268597242E-01  0.51109989000E-03 0. -1.
     -623    1    1    2    0    0  0.44510175609E-02 -0.61072737986E-03  0.14265232570E-02  0.17130000006E+03  0.17130000000E+03 0. -1.
      622    1    1    2    0    0 -0.35119908181E-03  0.69049042715E-02  0.39590149617E+01  0.39597313379E+01  0.75000000000E-01 0. -1.
</event>
<event>
 5   0  0.5237200E+07  0.9118800E+02  0.7818608E-02  0.1180000E+00
       11   -1    0    0    0    0  0.00000000000E+00  0.00000000000E+00  0.39999999673E+01  0.40000000000E+01  0.51109989000E-03 0.  1.
     -623   -1    0    0    0    0  0.00000000000E+00  0.00000000000E+00  0.12525980253E-10  0.17130000000E+03  0.17130000000E+03 0.  1.
       11    1    1    2    0    0 -0.12450853332E-02 -0.16259040042E-02  0.18651393414E-02  0.28166943023E-02  0.51109989000E-03 0.  1.
     -623    1    1    2    0    0  0.14192805993E-02 -0.53484920058E-03  0.16558073684E-02  0.17130000001E+03  0.17130000000E+03 0.  1.
      622    1    1    2    0    0 -0.17419526608E-03  0.21607532048E-02  0.39964790207E+01  0.39971832910E+01  0.75000000000E-01 0.  1.
</event>
<event>
 5   0  0.5237200E+07  0.9118800E+02  0.7818608E-02  0.1180000E+00
       11   -1    0    0    0    0  0.00000000000E+00  0.00000000000E+00  0.39999999673E+01  0.40000000000E+01  0.51109989000E-03 0.  1.
     -623   -1    0    0    0    0  0.00000000000E+00  0.00000000000E+00  0.12525980253E-10  0.17130000000E+03  0.17130000000E+03 0.  1.
       11    1    1    2    0    0  0.24910468195E-01 -0.23520319426E-02  0.40829803512E+00  0.40906431057E+00  0.51109989000E-03 0.  1.
     -623    1    1    2    0    0 -0.51042672943E-02  0.45578371645E-02  0.16050061411E-02  0.17130000014E+03  0.17130000000E+03 0.  1.
      622    1    1    2    0    0 -0.19806200901E-01 -0.22058052219E-02  0.35900969261E+01  0.35909355452E+01  0.75000000000E-01 0.  0.
</event>
<event>
 5   0  0.5237200E+07  0.9118800E+02  0.7818608E-02  0.1180000E+00
       11   -1    0    0    0    0  0.00000000000E+00  0.00000000000E+00  0.39999999673E+01  0.40000000000E+01  0.51109989000E-03 0.  1.
     -623   -1    0    0    0    0  0.00000000000E+00  0.00000000000E+00  0.12525980253E-10  0.17130000000E+03  0.17130000000E+03 0. -1.
       11    1    1    2    0    0 -0.69296524860E-02 -0.39821430649E-01  0.36964703098E+00  0.37185071622E+00  0.51109989000E-03 0.  1.
     -623    1    1    2    0    0 -0.18284329909E-01 -0.10147903356E-01  0.34120714710E-02  0.17130000131E+03  0.17130000000E+03 0. -1.
      622    1    1    2    0    0  0.25213982395E-01  0.49969334005E-01  0.36269408649E+01  0.36281479734E+01  0.75000000000E-01 0.  1.
</event>
<event>
 5   0  0.5237200E+07  0.9118800E+02  0.7818608E-02  0.1180000E+00
       11   -1    0    0    0    0  0.00000000000E+00  0.00000000000E+00  0.39999999673E+01  0.40000000000E+01  0.51109989000E-03 0.  1.
     -623   -1    0    0    0    0  0.00000000000E+00  0.00000000000E+00  0.12525980253E-10  0.17130000000E+03  0.17130000000E+03 0.  1.
       11    1    1    2    0    0 -0.69427776891E-02 -0.18078129542E-01  0.30139929201E-01  0.35828724302E-01  0.51109989000E-03 0.  1.
     -623    1    1    2    0    0 -0.67457298330E-02  0.21682428047E-01  0.64252085077E-02  0.17130000163E+03  0.17130000000E+03 0.  1.
      622    1    1    2    0    0  0.13688507522E-01 -0.36042985051E-02  0.39634348296E+01  0.39641696501E+01  0.75000000000E-01 0.  1.
</event>
<event>
 5   0  0.5237200E+07  0.9118800E+02  0.7818608E-02  0.1180000E+00
       11   -1    0    0    0    0  0.00000000000E+00  0.00000000000E+00  0.39999999673E+01  0.40000000000E+01  0.51109989000E-03 0. -1.
     -623   -1    0    0    0    0  0.00000000000E+00  0.00000000000E+00  0.12525980253E-10  0.17130000000E+03  0.17130000000E+03 0. -1.
       11    1    1    2    0    0 -0.55115524643E-02 -0.39244536192E-02  0.58782328202E+00  0.58786244195E+00  0.51109989000E-03 0. -1.
     -623    1    1    2    0    0  0.73376020904E-02  0.66814545878E-02  0.86538278253E-03  0.17130000029E+03  0.17130000000E+03 0. -1.
      622    1    1    2    0    0 -0.18260496257E-02 -0.27570009682E-02  0.34113113024E+01  0.34121372682E+01  0.75000000000E-01 0. -1.
</event>
<event>
 5   0  0.5237200E+07  0.9118800E+02  0.7818608E-02  0.1180000E+00
       11   -1    0    0    0    0  0.00000000000E+00  0.00000000000E+00  0.39999999673E+01  0.40000000000E+01  0.51109989000E-03 0. -1.
     -623   -1    0    0    0    0  0.00000000000E+00  0.00000000000E+00  0.12525980253E-10  0.17130000000E+03  0.17130000000E+03 0. -1.
       11    1    1    2    0    0  0.29481207218E-02 -0.69287268396E-02  0.22408194387E-01  0.23645022066E-01  0.51109989000E-03 0. -1.
     -623    1    1    2    0    0  0.51082615302E-02  0.59439514746E-02  0.19526393100E-02  0.17130000019E+03  0.17130000000E+03 0. -1.
      622    1    1    2    0    0 -0.80563822520E-02  0.98477536500E-03  0.39756391337E+01  0.39763547875E+01  0.75000000000E-01 0. -1.
</event>
<event>
 5   0  0.5237200E+07  0.9118800E+02  0.7818608E-02  0.1180000E+00
       11   -1    0    0    0    0  0.00000000000E+00  0.00000000000E+00  0.39999999673E+01  0.40000000000E+01  0.51109989000E-03 0.  1.
     -623   -1    0    0    0    0  0.00000000000E+00  0.00000000000E+00  0.12525980253E-10  0.17130000000E+03  0.17130000000E+03 0.  1.
       11    1    1    2    0    0 -0.83857427849E-03 -0.82180118122E-03  0.93374612609E-02  0.94248591447E-02  0.51109989000E-03 0.  1.
     -623    1    1    2    0    0  0.37748101363E-03  0.30149965627E-03  0.79227620031E-03  0.17130000000E+03  0.17130000000E+03 0.  1.
      622    1    1    2    0    0  0.46109326485E-03  0.52030152494E-03  0.39898702300E+01  0.39905751385E+01  0.75000000000E-01 0.  1.
</event>
<event>
 5   0  0.5237200E+07  0.9118800E+02  0.7818608E-02  0.1180000E+00
       11   -1    0    0    0    0  0.00000000000E+00  0.00000000000E+00  0.39999999673E+01  0.40000000000E+01  0.51109989000E-03 0. -1.
     -623   -1    0    0    0    0  0.00000000000E+00  0.00000000000E+00  0.12525980253E-10  0.17130000000E+03  0.17130000000E+03 0.  1.
       11    1    1    2    0    0 -0.53164843573E-02  0.13027239121E-01  0.16023265073E+00  0.16085004677E+00  0.51109989000E-03 0. -1.
     -623    1    1    2    0    0 -0.61888285840E-02 -0.11401031978E-02  0.13857883650E-02  0.17130000012E+03  0.17130000000E+03 0.  1.
      622    1    1    2    0    0  0.11505312941E-01 -0.11887135923E-01  0.38383815280E+01  0.38391498317E+01  0.75000000000E-01 0. -1.
</event>
<event>
 5   0  0.5237200E+07  0.9118800E+02  0.7818608E-02  0.1180000E+00
       11   -1    0    0    0    0  0.00000000000E+00  0.00000000000E+00  0.39999999673E+01  0.40000000000E+01  0.51109989000E-03 0. -1.
     -623   -1    0    0    0    0  0.00000000000E+00  0.00000000000E+00  0.12525980253E-10  0.17130000000E+03  0.17130000000E+03 0. -1.
       11    1    1    2    0    0 -0.22588989159E-01  0.73118038757E-02  0.12982111299E+00  0.13197540494E+00  0.51109989000E-03 0. -1.
     -623    1    1    2    0    0  0.22558933499E-01  0.38981669235E-02  0.28992446899E-02  0.17130000155E+03  0.17130000000E+03 0. -1.
      622    1    1    2    0    0  0.30055659024E-04 -0.11209970799E-01  0.38672796099E+01  0.38680230410E+01  0.75000000000E-01 0. -1.
</event>
<event>
 5   0  0.5237200E+07  0.9118800E+02  0.7818608E-02  0.1180000E+00
       11   -1    0    0    0    0  0.00000000000E+00  0.00000000000E+00  0.39999999673E+01  0.40000000000E+01  0.51109989000E-03 0.  1.
     -623   -1    0    0    0    0  0.00000000000E+00  0.00000000000E+00  0.12525980253E-10  0.17130000000E+03  0.17130000000E+03 0. -1.
       11    1    1    2    0    0 -0.63635722057E-02  0.75464191638E-02  0.62377778953E-01  0.63156092522E-01  0.51109989000E-03 0.  1.
     -623    1    1    2    0    0  0.56382281152E-02 -0.17446643914E-01  0.15062560310E-02  0.17130000099E+03  0.17130000000E+03 0. -1.
      622    1    1    2    0    0  0.72534409054E-03  0.99002247503E-02  0.39361159324E+01  0.39368429196E+01  0.75000000000E-01 0.  1.
</event>
<event>
 5   0  0.5237200E+07  0.9118800E+02  0.7818608E-02  0.1180000E+00
       11   -1    0    0    0    0  0.00000000000E+00  0.00000000000E+00  0.39999999673E+01  0.40000000000E+01  0.51109989000E-03 0.  1.
     -623   -1    0    0    0    0  0.00000000000E+00  0.00000000000E+00  0.12525980253E-10  0.17130000000E+03  0.17130000000E+03 0. -1.
       11    1    1    2    0    0  0.11758216388E-01  0.18440003134E-01  0.10480037025E+00  0.10705918080E+00  0.51109989000E-03 0.  1.
     -623    1    1    2    0    0  0.21200734149E-03 -0.54673101022E-01  0.31771232733E-02  0.17130000875E+03  0.17130000000E+03 0. -1.
      622    1    1    2    0    0 -0.11970223729E-01  0.36233097889E-01  0.38920224738E+01  0.38929320647E+01  0.75000000000E-01 0.  1.
</event>
<event>
 5   0  0.5237200E+07  0.9118800E+02  0.7818608E-02  0.1180000E+00
       11   -1    0    0    0    0  0.00000000000E+00  0.00000000000E+00  0.39999999673E+01  0.40000000000E+01  0.51109989000E-03 0. -1.
     -623   -1    0    0    0    0  0.00000000000E+00  0.00000000000E+00  0.12525980253E-10  0.17130000000E+03  0.17130000000E+03 0.  1.
       11    1    1    2    0    0  0.12389478375E-02 -0.33793827302E-02 -0.68606443143E-02  0.77643340272E-02  0.51109989000E-03 0. -1.
     -623    1    1    2    0    0  0.72986613666E-02  0.12809917154E-01  0.15351094081E-01  0.17130000132E+03  0.17130000000E+03 0.  1.
      622    1    1    2    0    0 -0.85376092042E-02 -0.94305344237E-02  0.39915095176E+01  0.39922343437E+01  0.75000000000E-01 0. -1.
</event>
<event>
 5   0  0.5237200E+07  0.9118800E+02  0.7818608E-02  0.1180000E+00
       11   -1    0    0    0    0  0.00000000000E+00  0.00000000000E+00  0.39999999673E+01  0.40000000000E+01  0.51109989000E-03 0. -1.
     -623   -1    0    0    0    0  0.00000000000E+00  0.00000000000E+00  0.12525980253E-10  0.17130000000E+03  0.17130000000E+03 0. -1.
       11    1    1    2    0    0 -0.45995345609E-01  0.35405158748E-01  0.24171426730E+00  0.24858629350E+00  0.51109989000E-03 0. -1.
     -623    1    1    2    0    0 -0.32196618765E-02  0.79236703955E-02  0.81954051483E-02  0.17130000041E+03  0.17130000000E+03 0. -1.
      622    1    1    2    0    0  0.49215007485E-01 -0.43328829144E-01  0.37500902949E+01  0.37514132969E+01  0.75000000000E-01 0. -1.
</event>
<event>
 5   0  0.5237200E+07  0.9118800E+02  0.7818608E-02  0.1180000E+00
       11   -1    0    0    0    0  0.00000000000E+00  0.00000000000E+00  0.39999999673E+01  0.40000000000E+01  0.51109989000E-03 0. -1.
     -623   -1    0    0    0    0  0.00000000000E+00  0.00000000000E+00  0.12525980253E-10  0.17130000000E+03  0.17130000000E+03 0.  1.
       11    1    1    2    0    0  0.73666055740E-03 -0.49718319327E-02  0.13934533964E-01  0.14822086215E-01  0.51109989000E-03 0. -1.
     -623    1    1    2    0    0 -0.63878006292E-02  0.20897257686E-03  0.16003031136E-02  0.17130000013E+03  0.17130000000E+03 0.  1.
      622    1    1    2    0    0  0.56511400718E-02  0.47628593558E-02  0.39844651303E+01  0.39851777871E+01  0.75000000000E-01 0. -1.
</event>
<event>
 5   0  0.5237200E+07  0.9118800E+02  0.7818608E-02  0.1180000E+00
       11   -1    0    0    0    0  0.00000000000E+00  0.00000000000E+00  0.39999999673E+01  0.40000000000E+01  0.51109989000E-03 0. -1.
     -623   -1    0    0    0    0  0.00000000000E+00  0.00000000000E+00  0.12525980253E-10  0.17130000000E+03  0.17130000000E+03 0. -1.
       11    1    1    2    0    0  0.52536388993E-02 -0.14634386470E-01  0.33407888826E+00  0.33444092273E+00  0.51109989000E-03 0. -1.
     -623    1    1    2    0    0  0.41980736556E-02  0.46500317431E-03  0.11689958469E-02  0.17130000006E+03  0.17130000000E+03 0. -1.
      622    1    1    2    0    0 -0.94517125548E-02  0.14169383296E-01  0.36647520831E+01  0.36655590211E+01  0.75000000000E-01 0. -1.
</event>
<event>
 5   0  0.5237200E+07  0.9118800E+02  0.7818608E-02  0.1180000E+00
       11   -1    0    0    0    0  0.00000000000E+00  0.00000000000E+00  0.39999999673E+01  0.40000000000E+01  0.51109989000E-03 0. -1.
     -623   -1    0    0    0    0  0.00000000000E+00  0.00000000000E+00  0.12525980253E-10  0.17130000000E+03  0.17130000000E+03 0. -1.
       11    1    1    2    0    0  0.31493241279E-03 -0.15676495027E-01  0.24106491550E+00  0.24157484633E+00  0.51109989000E-03 0. -1.
     -623    1    1    2    0    0 -0.19414001423E-02  0.10211730700E-02  0.12872410765E-02  0.17130000002E+03  0.17130000000E+03 0. -1.
      622    1    1    2    0    0  0.16264677295E-02  0.14655321957E-01  0.37576478108E+01  0.37584251348E+01  0.75000000000E-01 0. -1.
</event>
<event>
 5   0  0.5237200E+07  0.9118800E+02  0.7818608E-02  0.1180000E+00
       11   -1    0    0    0    0  0.00000000000E+00  0.00000000000E+00  0.39999999673E+01  0.40000000000E+01  0.51109989000E-03 0. -1.
     -623   -1    0    0    0    0  0.00000000000E+00  0.00000000000E+00  0.12525980253E-10  0.17130000000E+03  0.17130000000E+03 0. -1.
       11    1    1    2    0    0 -0.57102807366E-02 -0.27931444731E-02  0.99134827736E-02  0.11787592033E-01  0.51109989000E-03 0. -1.
     -623    1    1    2    0    0  0.53836825180E-02 -0.12760103412E-02  0.25815405769E-02  0.17130000011E+03  0.17130000000E+03 0. -1.
      622    1    1    2    0    0  0.32659821864E-03  0.40691548143E-02  0.39875049440E+01  0.39882122992E+01  0.75000000000E-01 0. -1.
</event>
<event>
 5   0  0.5237200E+07  0.9118800E+02  0.7818608E-02  0.1180000E+00
       11   -1    0    0    0    0  0.00000000000E+00  0.00000000000E+00  0.39999999673E+01  0.40000000000E+01  0.51109989000E-03 0.  1.
     -623   -1    0    0    0    0  0.00000000000E+00  0.00000000000E+00  0.12525980253E-10  0.17130000000E+03  0.17130000000E+03 0. -1.
       11    1    1    2    0    0 -0.31356068928E-01  0.41512234475E-01  0.22221793156E+00  0.22822694625E+00  0.51109989000E-03 0.  1.
     -623    1    1    2    0    0 -0.15249751089E-02 -0.13041040819E-01  0.70062110727E-02  0.17130000065E+03  0.17130000000E+03 0. -1.
      622    1    1    2    0    0  0.32881044037E-01 -0.28471193656E-01  0.37707758247E+01  0.37717724073E+01  0.75000000000E-01 0.  1.
</event>
<event>
 5   0  0.5237200E+07  0.9118800E+02  0.7818608E-02  0.1180000E+00
       11   -1    0    0    0    0  0.00000000000E+00  0.00000000000E+00  0.39999999673E+01  0.40000000000E+01  0.51109989000E-03 0.  1.
     -623   -1    0    0    0    0  0.00000000000E+00  0.00000000000E+00  0.12525980253E-10  0.17130000000E+03  0.17130000000E+03 0.  1.
       11    1    1    2    0    0  0.69714386434E-02 -0.39760032568E-02  0.59912948739E-02  0.10028279814E-01  0.51109989000E-03 0.  1.
     -623    1    1    2    0    0  0.41196569704E-02 -0.32619731660E-02  0.47640377974E-02  0.17130000015E+03  0.17130000000E+03 0.  1.
      622    1    1    2    0    0 -0.11091095614E-01  0.72379764228E-02  0.39892446347E+01  0.39899715734E+01  0.75000000000E-01 0.  1.
</event>
<event>
 5   0  0.5237200E+07  0.9118800E+02  0.7818608E-02  0.1180000E+00
       11   -1    0    0    0    0  0.00000000000E+00  0.00000000000E+00  0.39999999673E+01  0.40000000000E+01  0.51109989000E-03 0.  1.
     -623   -1    0    0    0    0  0.00000000000E+00  0.00000000000E+00  0.12525980253E-10  0.17130000000E+03  0.17130000000E+03 0. -1.
       11    1    1    2    0    0  0.70261856465E-03 -0.35075961303E-02  0.50303503773E-02  0.61937507864E-02  0.51109989000E-03 0.  1.
     -623    1    1    2    0    0 -0.40612647855E-02  0.10706880464E-02  0.18698631024E-02  0.17130000006E+03  0.17130000000E+03 0. -1.
      622    1    1    2    0    0  0.33586462209E-02  0.24369080839E-02  0.39930997539E+01  0.39938061875E+01  0.75000000000E-01 0.  1.
</event>
<event>
 5   0  0.5237200E+07  0.9118800E+02  0.7818608E-02  0.1180000E+00
       11   -1    0    0    0    0  0.00000000000E+00  0.00000000000E+00  0.39999999673E+01  0.40000000000E+01  0.51109989000E-03 0. -1.
     -623   -1    0    0    0    0  0.00000000000E+00  0.00000000000E+00  0.12525980253E-10  0.17130000000E+03  0.17130000000E+03 0. -1.
       11    1    1    2    0    0  0.47730559012E-02 -0.13043189662E-01  0.47906402436E-01  0.49881774995E-01  0.51109989000E-03 0. -1.
     -623    1    1    2    0    0 -0.10229020194E-01 -0.40328393671E-02  0.27284673798E-02  0.17130000037E+03  0.17130000000E+03 0. -1.
      622    1    1    2    0    0  0.54559642931E-02  0.17076029030E-01  0.39493650976E+01  0.39501178505E+01  0.75000000000E-01 0. -1.
</event>
<event>
 5   0  0.5237200E+07  0.9118800E+02  0.7818608E-02  0.1180000E+00
       11   -1    0    0    0    0  0.00000000000E+00  0.00000000000E+00  0.39999999673E+01  0.40000000000E+01  0.51109989000E-03 0. -1.
     -623   -1    0    0    0    0  0.00000000000E+00  0.00000000000E+00  0.12525980253E-10  0.17130000000E+03  0.17130000000E+03 0. -1.
       11    1    1    2    0    0 -0.90780956896E-02  0.72705654328E-02  0.68491510516E+00  0.68501404033E+00  0.51109989000E-03 0. -1.
     -623    1    1    2    0    0  0.38230247129E-02 -0.57644093266E-02  0.95208194645E-03  0.17130000014E+03  0.17130000000E+03 0. -1.
      622    1    1    2    0    0  0.52550709767E-02 -0.15061561062E-02  0.33141327802E+01  0.33149858174E+01  0.75000000000E-01 0. -1.
</event>
<event>
 5   0  0.5237200E+07  0.9118800E+02  0.7818608E-02  0.1180000E+00
       11   -1    0    0    0    0  0.00000000000E+00  0.00000000000E+00  0.39999999673E+01  0.40000000000E+01  0.51109989000E-03 0.  1.
     -623   -1    0    0    0    0  0.00000000000E+00  0.00000000000E+00  0.12525980253E-10  0.17130000000E+03  0.17130000000E+03 0. -1.
       11    1    1    2    0    0 -0.10742484620E-01 -0.41188727325E-02  0.41427638476E-01  0.42998564408E-01  0.51109989000E-03 0.  1.
     -623    1    1    2    0    0  0.32790819854E-03 -0.34395428434E-02  0.23027008157E-02  0.17130000005E+03  0.17130000000E+03 0. -1.
      622    1    1    2    0    0  0.10414576421E-01  0.75584155759E-02  0.39562696280E+01  0.39570013852E+01  0.75000000000E-01 0.  1.
</event>
<event>
 5   0  0.5237200E+07  0.9118800E+02  0.7818608E-02  0.1180000E+00
       11   -1    0    0    0    0  0.00000000000E+00  0.00000000000E+00  0.39999999673E+01  0.40000000000E+01  0.51109989000E-03 0.  1.
     -623   -1    0    0    0    0  0.00000000000E+00  0.00000000000E+00  0.12525980253E-10  0.17130000000E+03  0.17130000000E+03 0. -1.
       11    1    1    2    0    0  0.69696160020E-02  0.86273523562E-02  0.71194462306E-01  0.72054975138E-01  0.51109989000E-03 0.  1.
     -623    1    1    2    0    0  0.12844449397E-02  0.17082344596E-01  0.16702632625E-02  0.17130000086E+03  0.17130000000E+03 0. -1.
      622    1    1    2    0    0 -0.82540609417E-02 -0.25709696952E-01  0.39271352417E+01  0.39279441601E+01  0.75000000000E-01 0.  1.
</event>
<event>
 5   0  0.5237200E+07  0.9118800E+02  0.7818608E-02  0.1180000E+00
       11   -1    0    0    0    0  0.00000000000E+00  0.00000000000E+00  0.39999999673E+01  0.40000000000E+01  0.51109989000E-03 0.  1.
     -623   -1    0    0    0    0  0.00000000000E+00  0.00000000000E+00  0.12525980253E-10  0.17130000000E+03  0.17130000000E+03 0. -1.
       11    1    1    2    0    0  0.18598488192E-02  0.17489071754E-03  0.18977970813E-01  0.19076535904E-01  0.51109989000E-03 0.  1.
     -623    1    1    2    0    0 -0.36042114466E-03 -0.18453773690E-02  0.80573471753E-03  0.17130000001E+03  0.17130000000E+03 0. -1.
      622    1    1    2    0    0 -0.14994276746E-02  0.16704866514E-02  0.39802162618E+01  0.39809234519E+01  0.75000000000E-01 0.  1.
</event>
<event>
 5   0  0.5237200E+07  0.9118800E+02  0.7818608E-02  0.1180000E+00
       11   -1    0    0    0    0  0.00000000000E+00  0.00000000000E+00  0.39999999673E+01  0.40000000000E+01  0.51109989000E-03 0. -1.
     -623   -1    0    0    0    0  0.00000000000E+00  0.00000000000E+00  0.12525980253E-10  0.17130000000E+03  0.17130000000E+03 0. -1.
       11    1    1    2    0    0 -0.24838791073E-02 -0.71780967828E-04  0.13070389241E-01  0.13314319565E-01  0.51109989000E-03 0. -1.
     -623    1    1    2    0    0  0.91928589604E-03 -0.69243372666E-03  0.94982016975E-03  0.17130000001E+03  0.17130000000E+03 0. -1.
      622    1    1    2    0    0  0.15645932113E-02  0.76421469449E-03  0.39859797579E+01  0.39866856739E+01  0.75000000000E-01 0. -1.
</event>
<event>
 5   0  0.5237200E+07  0.9118800E+02  0.7818608E-02  0.1180000E+00
       11   -1    0    0    0    0  0.00000000000E+00  0.00000000000E+00  0.39999999673E+01  0.40000000000E+01  0.51109989000E-03 0. -1.
     -623   -1    0    0    0    0  0.00000000000E+00  0.00000000000E+00  0.12525980253E-10  0.17130000000E+03  0.17130000000E+03 0.  1.
       11    1    1    2    0    0  0.23966622040E-02 -0.96223575418E-02  0.13382838898E+00  0.13419624686E+00  0.51109989000E-03 0. -1.
     -623    1    1    2    0    0 -0.11872519435E-01  0.12658318364E-01  0.11091178257E-02  0.17130000088E+03  0.17130000000E+03 0.  1.
      622    1    1    2    0    0  0.94758572309E-02 -0.30359608219E-02  0.38650624606E+01  0.38658028704E+01  0.75000000000E-01 0. -1.
</event>
<event>
 5   0  0.5237200E+07  0.9118800E+02  0.7818608E-02  0.1180000E+00
       11   -1    0    0    0    0  0.00000000000E+00  0.00000000000E+00  0.39999999673E+01  0.40000000000E+01  0.51109989000E-03 0.  1.
     -623   -1    0    0    0    0  0.00000000000E+00  0.00000000000E+00  0.12525980253E-10  0.17130000000E+03  0.17130000000E+03 0.  1.
       11    1    1    2    0    0 -0.22288447877E-02  0.86951413768E-04  0.24291110166E-02  0.33372313472E-02  0.51109989000E-03 0.  1.
     -623    1    1    2    0    0 -0.15509494740E-02 -0.82449274337E-03  0.16137341030E-02  0.17130000002E+03  0.17130000000E+03 0.  1.
      622    1    1    2    0    0  0.37797942617E-02  0.73754132960E-03  0.39959571222E+01  0.39966627520E+01  0.75000000000E-01 0.  1.
</event>
<event>
 5   0  0.5237200E+07  0.9118800E+02  0.7818608E-02  0.1180000E+00
       11   -1    0    0    0    0  0.00000000000E+00  0.00000000000E+00  0.39999999673E+01  0.40000000000E+01  0.51109989000E-03 0. -1.
     -623   -1    0    0    0    0  0.00000000000E+00  0.00000000000E+00  0.12525980253E-10  0.17130000000E+03  0.17130000000E+03 0.  1.
       11    1    1    2    0    0  0.25682760213E-01 -0.51786425008E-03  0.90049539694E+00  0.90086186149E+00  0.51109989000E-03 0. -1.
     -623    1    1    2    0    0  0.21708882671E-02  0.25254508124E-02  0.13999709403E-02  0.17130000004E+03  0.17130000000E+03 0.  1.
      622    1    1    2    0    0 -0.27853648480E-01 -0.20075865623E-02  0.30981045995E+01  0.30991381004E+01  0.75000000000E-01 0.  0.
</event>
<event>
 5   0  0.5237200E+07  0.9118800E+02  0.7818608E-02  0.1180000E+00
       11   -1    0    0    0    0  0.00000000000E+00  0.00000000000E+00  0.39999999673E+01  0.40000000000E+01  0.51109989000E-03 0.  1.
     -623   -1    0    0    0    0  0.00000000000E+00  0.00000000000E+00  0.12525980253E-10  0.17130000000E+03  0.17130000000E+03 0. -1.
       11    1    1    2    0    0 -0.78043738890E-03  0.16381383238E-02  0.25864615927E-01  0.25933224983E-01  0.51109989000E-03 0.  1.
     -623    1    1    2    0    0 -0.23578420211E-02 -0.47503287098E-02  0.77889483271E-03  0.17130000008E+03  0.17130000000E+03 0. -1.
      622    1    1    2    0    0  0.31382794100E-02  0.31121903860E-02  0.39733564566E+01  0.39740666912E+01  0.75000000000E-01 0.  1.
</event>
<event>
 5   0  0.5237200E+07  0.9118800E+02  0.7818608E-02  0.1180000E+00
       11   -1    0    0    0    0  0.00000000000E+00  0.00000000000E+00  0.39999999673E+01  0.40000000000E+01  0.51109989000E-03 0.  1.
     -623   -1    0    0    0    0  0.00000000000E+00  0.00000000000E+00  0.12525980253E-10  0.17130000000E+03  0.17130000000E+03 0. -1.
       11    1    1    2    0    0 -0.25870941497E-02  0.58334422970E-02  0.11911762760E-01  0.13523069867E-01  0.51109989000E-03 0.  1.
     -623    1    1    2    0    0  0.72199434072E-02 -0.78479102084E-02  0.23203963358E-02  0.17130000035E+03  0.17130000000E+03 0. -1.
      622    1    1    2    0    0 -0.46328492575E-02  0.20144679114E-02  0.39857678083E+01  0.39864765825E+01  0.75000000000E-01 0.  1.
</event>
<event>
 5   0  0.5237200E+07  0.9118800E+02  0.7818608E-02  0.1180000E+00
       11   -1    0    0    0    0  0.00000000000E+00  0.00000000000E+00  0.39999999673E+01  0.40000000000E+01  0.51109989000E-03 0. -1.
     -623   -1    0    0    0    0  0.00000000000E+00  0.00000000000E+00  0.12525980253E-10  0.17130000000E+03  0.17130000000E+03 0. -1.
       11    1    1    2    0    0 -0.37668692443E-02 -0.15774471925E-01  0.18298662195E+00  0.18370462243E+00  0.51109989000E-03 0. -1.
     -623    1    1    2    0    0  0.17288217812E-02 -0.56005436853E-03  0.14905351760E-02  0.17130000002E+03  0.17130000000E+03 0. -1.
      622    1    1    2    0    0  0.20380474632E-02  0.16334526294E-01  0.38155228102E+01  0.38162953614E+01  0.75000000000E-01 0. -1.
</event>
<event>
 5   0  0.5237200E+07  0.9118800E+02  0.7818608E-02  0.1180000E+00
       11   -1    0    0    0    0  0.00000000000E+00  0.00000000000E+00  0.39999999673E+01  0.40000000000E+01  0.51109989000E-03 0.  1.
     -623   -1    0    0    0    0  0.00000000000E+00  0.00000000000E+00  0.12525980253E-10  0.17130000000E+03  0.17130000000E+03 0.  1.
       11    1    1    2    0    0  0.44777120616E-03 -0.13203966549E-02  0.48015513931E-01  0.48038471530E-01  0.51109989000E-03 0.  1.
     -623    1    1    2    0    0 -0.95527611175E-03  0.91363904447E-02  0.74267195862E-03  0.17130000025E+03  0.17130000000E+03 0.  1.
      622    1    1    2    0    0  0.50750490558E-03 -0.78159937898E-02  0.39512417815E+01  0.39519612805E+01  0.75000000000E-01 0.  1.
</event>
<event>
 5   0  0.5237200E+07  0.9118800E+02  0.7818608E-02  0.1180000E+00
       11   -1    0    0    0    0  0.00000000000E+00  0.00000000000E+00  0.39999999673E+01  0.40000000000E+01  0.51109989000E-03 0.  1.
     -623   -1    0    0    0    0  0.00000000000E+00  0.00000000000E+00  0.12525980253E-10  0.17130000000E+03  0.17130000000E+03 0.  1.
       11    1    1    2    0    0  0.32404956975E-01 -0.40647223737E-01  0.45373890218E+00  0.45670727015E+00  0.51109989000E-03 0.  1.
     -623    1    1    2    0    0 -0.24730582830E-01 -0.16595239047E-01  0.42356480870E-02  0.17130000264E+03  0.17130000000E+03 0.  1.
      622    1    1    2    0    0 -0.76743741453E-02  0.57242462784E-01  0.35420254171E+01  0.35432900884E+01  0.75000000000E-01 0.  1.
</event>
<event>
 5   0  0.5237200E+07  0.9118800E+02  0.7818608E-02  0.1180000E+00
       11   -1    0    0    0    0  0.00000000000E+00  0.00000000000E+00  0.39999999673E+01  0.40000000000E+01  0.51109989000E-03 0. -1.
     -623   -1    0    0    0    0  0.00000000000E+00  0.00000000000E+00  0.12525980253E-10  0.17130000000E+03  0.17130000000E+03 0.  1.
       11    1    1    2    0    0 -0.16058012807E-01 -0.27500165933E-01  0.63600085305E+00  0.63679782130E+00  0.51109989000E-03 0. -1.
     -623    1    1    2    0    0 -0.71212454942E-02  0.38814140659E-01  0.17367840479E-02  0.17130000455E+03  0.17130000000E+03 0.  1.
      622    1    1    2    0    0  0.23179258302E-01 -0.11313974728E-01  0.33622623304E+01  0.33631976246E+01  0.75000000000E-01 0. -1.
</event>
<event>
 5   0  0.5237200E+07  0.9118800E+02  0.7818608E-02  0.1180000E+00
       11   -1    0    0    0    0  0.00000000000E+00  0.00000000000E+00  0.39999999673E+01  0.40000000000E+01  0.51109989000E-03 0.  1.
     -623   -1    0    0    0    0  0.00000000000E+00  0.00000000000E+00  0.12525980253E-10  0.17130000000E+03  0.17130000000E+03 0.  1.
       11    1    1    2    0    0 -0.31631699039E-01  0.58488452435E-02  0.74696832742E+00  0.74766083004E+00  0.51109989000E-03 0.  1.
     -623    1    1    2    0    0  0.29848986817E-01  0.19894574396E-01  0.16635138085E-02  0.17130000376E+03  0.17130000000E+03 0.  1.
      622    1    1    2    0    0  0.17827122208E-02 -0.25743419640E-01  0.32513681263E+01  0.32523354062E+01  0.75000000000E-01 0.  1.
</event>
<event>
 5   0  0.5237200E+07  0.9118800E+02  0.7818608E-02  0.1180000E+00
       11   -1    0    0    0    0  0.00000000000E+00  0.00000000000E+00  0.39999999673E+01  0.40000000000E+01  0.51109989000E-03 0. -1.
     -623   -1    0    0    0    0  0.00000000000E+00  0.00000000000E+00  0.12525980253E-10  0.17130000000E+03  0.17130000000E+03 0. -1.
       11    1    1    2    0    0  0.20088593636E-01 -0.13064533024E-01  0.44021439285E+00  0.44086642706E+00  0.51109989000E-03 0. -1.
     -623    1    1    2    0    0 -0.15740566689E-01  0.88272927428E-02  0.14484460173E-02  0.17130000096E+03  0.17130000000E+03 0. -1.
      622    1    1    2    0    0 -0.43480269468E-02  0.42372402815E-02  0.35583371285E+01  0.35591326162E+01  0.75000000000E-01 0. -1.
</event>
<event>
 5   0  0.5237200E+07  0.9118800E+02  0.7818608E-02  0.1180000E+00
       11   -1    0    0    0    0  0.00000000000E+00  0.00000000000E+00  0.39999999673E+01  0.40000000000E+01  0.51109989000E-03 0.  1.
     -623   -1    0    0    0    0  0.00000000000E+00  0.00000000000E+00  0.12525980253E-10  0.17130000000E+03  0.17130000000E+03 0. -1.
       11    1    1    2    0    0  0.22879354434E-03  0.81477012492E-03  0.95127175518E-01  0.95132312812E-01  0.51109989000E-03 0.  1.
     -623    1    1    2    0    0  0.26432581703E-03  0.54363760882E-03  0.72569603792E-03  0.17130000000E+03  0.17130000000E+03 0. -1.
      622    1    1    2    0    0 -0.49311936137E-03 -0.13584077337E-02  0.39041470958E+01  0.39048676846E+01  0.75000000000E-01 0.  1.
</event>
<event>
 5   0  0.5237200E+07  0.9118800E+02  0.7818608E-02  0.1180000E+00
       11   -1    0    0    0    0  0.00000000000E+00  0.00000000000E+00  0.39999999673E+01  0.40000000000E+01  0.51109989000E-03 0. -1.
     -623   -1    0    0    0    0  0.00000000000E+00  0.00000000000E+00  0.12525980253E-10  0.17130000000E+03  0.17130000000E+03 0. -1.
       11    1    1    2    0    0  0.33558264311E-01 -0.95510153556E-02  0.31685565841E+00  0.31877131065E+00  0.51109989000E-03 0. -1.
     -623    1    1    2    0    0 -0.34317904744E-02  0.37101268732E-02  0.28077449052E-02  0.17130000010E+03  0.17130000000E+03 0. -1.
      622    1    1    2    0    0 -0.30126473837E-01  0.58408884824E-02  0.36803365640E+01  0.36812285917E+01  0.75000000000E-01 0. -1.
</event>
<event>
 5   0  0.5237200E+07  0.9118800E+02  0.7818608E-02  0.1180000E+00
       11   -1    0    0    0    0  0.00000000000E+00  0.00000000000E+00  0.39999999673E+01  0.40000000000E+01  0.51109989000E-03 0. -1.
     -623   -1    0    0    0    0  0.00000000000E+00  0.00000000000E+00  0.12525980253E-10  0.17130000000E+03  0.17130000000E+03 0. -1.
       11    1    1    2    0    0 -0.50165254040E-02 -0.59761454402E-02  0.13680475667E+00  0.13702803549E+00  0.51109989000E-03 0. -1.
     -623    1    1    2    0    0 -0.49063992195E-02  0.13416909698E-02  0.96698706143E-03  0.17130000008E+03  0.17130000000E+03 0. -1.
      622    1    1    2    0    0  0.99229246232E-02  0.46344544705E-02  0.38622282233E+01  0.38629718860E+01  0.75000000000E-01 0. -1.
</event>
<event>
 5   0  0.5237200E+07  0.9118800E+02  0.7818608E-02  0.1180000E+00
       11   -1    0    0    0    0  0.00000000000E+00  0.00000000000E+00  0.39999999673E+01  0.40000000000E+01  0.51109989000E-03 0.  1.
     -623   -1    0    0    0    0  0.00000000000E+00  0.00000000000E+00  0.12525980253E-10  0.17130000000E+03  0.17130000000E+03 0. -1.
       11    1    1    2    0    0  0.16149282854E-01 -0.15474777461E-01  0.26885236437E+00  0.26978162118E+00  0.51109989000E-03 0.  1.
     -623    1    1    2    0    0  0.37120980439E-01  0.58185687043E-01  0.23222701084E-02  0.17130001392E+03  0.17130000000E+03 0. -1.
      622    1    1    2    0    0 -0.53270263293E-01 -0.42710909582E-01  0.37288253329E+01  0.37302044590E+01  0.75000000000E-01 0.  1.
</event>
<event>
 5   0  0.5237200E+07  0.9118800E+02  0.7818608E-02  0.1180000E+00
       11   -1    0    0    0    0  0.00000000000E+00  0.00000000000E+00  0.39999999673E+01  0.40000000000E+01  0.51109989000E-03 0.  1.
     -623   -1    0    0    0    0  0.00000000000E+00  0.00000000000E+00  0.12525980253E-10  0.17130000000E+03  0.17130000000E+03 0. -1.
       11    1    1    2    0    0  0.24557479069E-01  0.27898257004E-01  0.14299575218E+00  0.14774785577E+00  0.51109989000E-03 0.  1.
     -623    1    1    2    0    0 -0.54973315678E-02 -0.25972331905E-01  0.55320230579E-02  0.17130000215E+03  0.17130000000E+03 0. -1.
      622    1    1    2    0    0 -0.19060147501E-01 -0.19259250995E-02  0.38514721921E+01  0.38522499977E+01  0.75000000000E-01 0.  1.
</event>
<event>
 5   0  0.5237200E+07  0.9118800E+02  0.7818608E-02  0.1180000E+00
       11   -1    0    0    0    0  0.00000000000E+00  0.00000000000E+00  0.39999999673E+01  0.40000000000E+01  0.51109989000E-03 0. -1.
     -623   -1    0    0    0    0  0.00000000000E+00  0.00000000000E+00  0.12525980253E-10  0.17130000000E+03  0.17130000000E+03 0. -1.
       11    1    1    2    0    0 -0.77293436006E-03 -0.24678288708E-02  0.32769301778E-02  0.42056034088E-02  0.51109989000E-03 0. -1.
     -623    1    1    2    0    0  0.62124424507E-02 -0.98716668035E-03  0.16378880256E-02  0.17130000012E+03  0.17130000000E+03 0. -1.
      622    1    1    2    0    0 -0.54395080906E-02  0.34549955512E-02  0.39950851492E+01  0.39957942733E+01  0.75000000000E-01 0. -1.
</event>
<event>
 5   0  0.5237200E+07  0.9118800E+02  0.7818608E-02  0.1180000E+00
       11   -1    0    0    0    0  0.00000000000E+00  0.00000000000E+00  0.39999999673E+01  0.40000000000E+01  0.51109989000E-03 0.  1.
     -623   -1    0    0    0    0  0.00000000000E+00  0.00000000000E+00  0.12525980253E-10  0.17130000000E+03  0.17130000000E+03 0. -1.
       11    1    1    2    0    0  0.55465513266E-03 -0.25352277482E-02  0.10512307336E-01  0.10839965366E-01  0.51109989000E-03 0.  1.
     -623    1    1    2    0    0 -0.10045980558E-01  0.18736880884E-01  0.10782464586E-02  0.17130000132E+03  0.17130000000E+03 0. -1.
      622    1    1    2    0    0  0.94913254252E-02 -0.16201653136E-01  0.39884094136E+01  0.39891587119E+01  0.75000000000E-01 0.  1.
</event>
<event>
 5   0  0.5237200E+07  0.9118800E+02  0.7818608E-02  0.1180000E+00
       11   -1    0    0    0    0  0.00000000000E+00  0.00000000000E+00  0.39999999673E+01  0.40000000000E+01  0.51109989000E-03 0.  1.
     -623   -1    0    0    0    0  0.00000000000E+00  0.00000000000E+00  0.12525980253E-10  0.17130000000E+03  0.17130000000E+03 0.  1.
       11    1    1    2    0    0 -0.12090412341E-02  0.32199544396E-02  0.28409790646E-01  0.28621797899E-01  0.51109989000E-03 0.  1.
     -623    1    1    2    0    0 -0.11732174465E-02 -0.11902694417E-02  0.92147422719E-03  0.17130000001E+03  0.17130000000E+03 0.  1.
      622    1    1    2    0    0  0.23822586807E-02 -0.20296849979E-02  0.39706687027E+01  0.39713781917E+01  0.75000000000E-01 0.  1.
</event>
<event>
 5   0  0.5237200E+07  0.9118800E+02  0.7818608E-02  0.1180000E+00
       11   -1    0    0    0    0  0.00000000000E+00  0.00000000000E+00  0.39999999673E+01  0.40000000000E+01  0.51109989000E-03 0.  1.
     -623   -1    0    0    0    0  0.00000000000E+00  0.00000000000E+00  0.12525980253E-10  0.17130000000E+03  0.17130000000E+03 0. -1.
       11    1    1    2    0    0 -0.32031497810E-01  0.11040191374E-01  0.94814379386E+00  0.94874908049E+00  0.51109989000E-03 0.  1.
     -623    1    1    2    0    0  0.36932028435E-02  0.22410938971E-02  0.16877618976E-02  0.17130000006E+03  0.17130000000E+03 0. -1.
      622    1    1    2    0    0  0.28338294967E-01 -0.13281285271E-01  0.30501684115E+01  0.30512508567E+01  0.75000000000E-01 0.  1.
</event>
<event>
 5   0  0.5237200E+07  0.9118800E+02  0.7818608E-02  0.1180000E+00
       11   -1    0    0    0    0  0.00000000000E+00  0.00000000000E+00  0.39999999673E+01  0.40000000000E+01  0.51109989000E-03 0.  1.
     -623   -1    0    0    0    0  0.00000000000E+00  0.00000000000E+00  0.12525980253E-10  0.17130000000E+03  0.17130000000E+03 0.  1.
       11    1    1    2    0    0  0.51456018741E-02  0.17974848428E-02  0.12047607375E+00  0.12060038864E+00  0.51109989000E-03 0.  1.
     -623    1    1    2    0    0 -0.46216692942E-02 -0.39643119315E-02  0.85008430606E-03  0.17130000011E+03  0.17130000000E+03 0.  1.
      622    1    1    2    0    0 -0.52393257936E-03  0.21668270891E-02  0.38786738097E+01  0.38793995015E+01  0.75000000000E-01 0.  1.
</event>
<event>
 5   0  0.5237200E+07  0.9118800E+02  0.7818608E-02  0.1180000E+00
       11   -1    0    0    0    0  0.00000000000E+00  0.00000000000E+00  0.39999999673E+01  0.40000000000E+01  0.51109989000E-03 0. -1.
     -623   -1    0    0    0    0  0.00000000000E+00  0.00000000000E+00  0.12525980253E-10  0.17130000000E+03  0.17130000000E+03 0.  1.
       11    1    1    2    0    0  0.10209152052E-02  0.14914610085E-02  0.12259806200E-01  0.12402854307E-01  0.51109989000E-03 0. -1.
     -623    1    1    2    0    0 -0.13844735283E-03 -0.17246005835E-02  0.84850514566E-03  0.17130000001E+03  0.17130000000E+03 0.  1.
      622    1    1    2    0    0 -0.88246785238E-03  0.23313957505E-03  0.39868916561E+01  0.39875971349E+01  0.75000000000E-01 0. -1.
</event>
<event>
 5   0  0.5237200E+07  0.9118800E+02  0.7818608E-02  0.1180000E+00
       11   -1    0    0    0    0  0.00000000000E+00  0.00000000000E+00  0.39999999673E+01  0.40000000000E+01  0.51109989000E-03 0.  1.
     -623   -1    0    0    0    0  0.00000000000E+00  0.00000000000E+00  0.12525980253E-10  0.17130000000E+03  0.17130000000E+03 0. -1.
       11    1    1    2    0    0  0.19978186045E-01  0.15289301826E-01  0.22712119674E+00  0.22851080915E+00  0.51109989000E-03 0.  1.
     -623    1    1    2    0    0  0.20351025755E-02 -0.46941294197E-02  0.22146129630E-02  0.17130000009E+03  0.17130000000E+03 0. -1.
      622    1    1    2    0    0 -0.22013288620E-01 -0.10595172406E-01  0.37706641577E+01  0.37714891001E+01  0.75000000000E-01 0.  1.
</event>
<event>
 5   0  0.5237200E+07  0.9118800E+02  0.7818608E-02  0.1180000E+00
       11   -1    0    0    0    0  0.00000000000E+00  0.00000000000E+00  0.39999999673E+01  0.40000000000E+01  0.51109989000E-03 0.  1.
     -623   -1    0    0    0    0  0.00000000000E+00  0.00000000000E+00  0.12525980253E-10  0.17130000000E+03  0.17130000000E+03 0. -1.
       11    1    1    2    0    0  0.25847199745E-03  0.10223081045E-02  0.30424349322E-02  0.32602997044E-02  0.51109989000E-03 0.  1.
     -623    1    1    2    0    0 -0.71799364736E-04 -0.27582136112E-02  0.92199877101E-03  0.17130000002E+03  0.17130000000E+03 0. -1.
      622    1    1    2    0    0 -0.18667263271E-03  0.17359055067E-02  0.39960355337E+01  0.39967396756E+01  0.75000000000E-01 0.  1.
</event>
<event>
 5   0  0.5237200E+07  0.9118800E+02  0.7818608E-02  0.1180000E+00
       11   -1    0    0    0    0  0.00000000000E+00  0.00000000000E+00  0.39999999673E+01  0.40000000000E+01  0.51109989000E-03 0.  1.
     -623   -1    0    0    0    0  0.00000000000E+00  0.00000000000E+00  0.12525980253E-10  0.17130000000E+03  0.17130000000E+03 0.  1.
       11    1    1    2    0    0  0.17841189556E-02  0.72374568895E-03  0.50516222543E-01  0.50555482890E-01  0.51109989000E-03 0.  1.
     -623    1    1    2    0    0 -0.40524895803E-02  0.31127005164E-02  0.75401048856E-03  0.17130000008E+03  0.17130000000E+03 0.  1.
      622    1    1    2    0    0  0.22683706247E-02 -0.38364462053E-02  0.39487297343E+01  0.39494444392E+01  0.75000000000E-01 0.  1.
</event>
<event>
 5   0  0.5237200E+07  0.9118800E+02  0.7818608E-02  0.1180000E+00
       11   -1    0    0    0    0  0.00000000000E+00  0.00000000000E+00  0.39999999673E+01  0.40000000000E+01  0.51109989000E-03 0. -1.
     -623   -1    0    0    0    0  0.00000000000E+00  0.00000000000E+00  0.12525980253E-10  0.17130000000E+03  0.17130000000E+03 0.  1.
       11    1    1    2    0    0  0.60902653459E-02  0.27714218960E-02  0.22472555519E+00  0.22482572915E+00  0.51109989000E-03 0. -1.
     -623    1    1    2    0    0  0.27220838076E-02 -0.23009281787E-02  0.85556944926E-03  0.17130000004E+03  0.17130000000E+03 0.  1.
      622    1    1    2    0    0 -0.88123491536E-02 -0.47049371716E-03  0.37744188429E+01  0.37751742318E+01  0.75000000000E-01 0. -1.
</event>
<event>
 5   0  0.5237200E+07  0.9118800E+02  0.7818608E-02  0.1180000E+00
       11   -1    0    0    0    0  0.00000000000E+00  0.00000000000E+00  0.39999999673E+01  0.40000000000E+01  0.51109989000E-03 0.  1.
     -623   -1    0    0    0    0  0.00000000000E+00  0.00000000000E+00  0.12525980253E-10  0.17130000000E+03  0.17130000000E+03 0.  1.
       11    1    1    2    0    0 -0.86827103360E-02 -0.26462248692E-01  0.50444310422E+00  0.50521158605E+00  0.51109989000E-03 0.  1.
     -623    1    1    2    0    0 -0.37351406569E-02  0.35155221310E-02  0.16708161646E-02  0.17130000008E+03  0.17130000000E+03 0.  1.
      622    1    1    2    0    0  0.12417850993E-01  0.22946726561E-01  0.34938860470E+01  0.34947883290E+01  0.75000000000E-01 0.  1.
</event>
<event>
 5   0  0.5237200E+07  0.9118800E+02  0.7818608E-02  0.1180000E+00
       11   -1    0    0    0    0  0.00000000000E+00  0.00000000000E+00  0.39999999673E+01  0.40000000000E+01  0.51109989000E-03 0. -1.
     -623   -1    0    0    0    0  0.00000000000E+00  0.00000000000E+00  0.12525980253E-10  0.17130000000E+03  0.17130000000E+03 0. -1.
       11    1    1    2    0    0  0.17881087182E-02  0.33769973835E-02  0.30375369835E+00  0.30377816236E+00  0.51109989000E-03 0. -1.
     -623    1    1    2    0    0 -0.48851880251E-04 -0.97984898732E-03  0.78661321971E-03  0.17130000000E+03  0.17130000000E+03 0. -1.
      622    1    1    2    0    0 -0.17392568380E-02 -0.23971483961E-02  0.36954596561E+01  0.36962218333E+01  0.75000000000E-01 0. -1.
</event>
<event>
 5   0  0.5237200E+07  0.9118800E+02  0.7818608E-02  0.1180000E+00
       11   -1    0    0    0    0  0.00000000000E+00  0.00000000000E+00  0.39999999673E+01  0.40000000000E+01  0.51109989000E-03 0. -1.
     -623   -1    0    0    0    0  0.00000000000E+00  0.00000000000E+00  0.12525980253E-10  0.17130000000E+03  0.17130000000E+03 0.  1.
       11    1    1    2    0    0  0.52064175363E-02  0.12500712607E-01  0.52903176435E-01  0.54611188407E-01  0.51109989000E-03 0. -1.
     -623    1    1    2    0    0  0.13570047795E-02 -0.40675878252E-02  0.24354469766E-02  0.17130000007E+03  0.17130000000E+03 0.  1.
      622    1    1    2    0    0 -0.65634223159E-02 -0.84331247816E-02  0.39446613442E+01  0.39453887409E+01  0.75000000000E-01 0. -1.
</event>
<event>
 5   0  0.5237200E+07  0.9118800E+02  0.7818608E-02  0.1180000E+00
       11   -1    0    0    0    0  0.00000000000E+00  0.00000000000E+00  0.39999999673E+01  0.40000000000E+01  0.51109989000E-03 0.  1.
     -623   -1    0    0    0    0  0.00000000000E+00  0.00000000000E+00  0.12525980253E-10  0.17130000000E+03  0.17130000000E+03 0.  1.
       11    1    1    2    0    0  0.42997001453E-01  0.16354018936E-01  0.28955702951E+00  0.29318889922E+00  0.51109989000E-03 0.  1.
     -623    1    1    2    0    0  0.57290954035E-02 -0.74728403683E-02  0.47219516183E-02  0.17130000032E+03  0.17130000000E+03 0.  1.
      622    1    1    2    0    0 -0.48726096856E-01 -0.88811785680E-02  0.37057209862E+01  0.37068107769E+01  0.75000000000E-01 0.  1.
</event>
<event>
 5   0  0.5237200E+07  0.9118800E+02  0.7818608E-02  0.1180000E+00
       11   -1    0    0    0    0  0.00000000000E+00  0.00000000000E+00  0.39999999673E+01  0.40000000000E+01  0.51109989000E-03 0.  1.
     -623   -1    0    0    0    0  0.00000000000E+00  0.00000000000E+00  0.12525980253E-10  0.17130000000E+03  0.17130000000E+03 0. -1.
       11    1    1    2    0    0  0.14513526438E-02  0.10595338094E-02  0.98262862148E-03  0.21108809760E-02  0.51109989000E-03 0.  1.
     -623    1    1    2    0    0 -0.10649548456E-03 -0.19080298902E-02  0.18321146270E-02  0.17130000002E+03  0.17130000000E+03 0. -1.
      622    1    1    2    0    0 -0.13448571592E-02  0.84849608087E-03  0.39971852242E+01  0.39978890987E+01  0.75000000000E-01 0.  1.
</event>
<event>
 5   0  0.5237200E+07  0.9118800E+02  0.7818608E-02  0.1180000E+00
       11   -1    0    0    0    0  0.00000000000E+00  0.00000000000E+00  0.39999999673E+01  0.40000000000E+01  0.51109989000E-03 0. -1.
     -623   -1    0    0    0    0  0.00000000000E+00  0.00000000000E+00  0.12525980253E-10  0.17130000000E+03  0.17130000000E+03 0.  1.
       11    1    1    2    0    0  0.67670618694E-02 -0.12430867944E-01  0.12963988221E+00  0.13041119541E+00  0.51109989000E-03 0. -1.
     -623    1    1    2    0    0 -0.12032614891E-01  0.10167034560E-01  0.15031468572E-02  0.17130000073E+03  0.17130000000E+03 0.  1.
      622    1    1    2    0    0  0.52655530218E-02  0.22638333833E-02  0.38688569383E+01  0.38695880737E+01  0.75000000000E-01 0. -1.
</event>
<event>
 5   0  0.5237200E+07  0.9118800E+02  0.7818608E-02  0.1180000E+00
       11   -1    0    0    0    0  0.00000000000E+00  0.00000000000E+00  0.39999999673E+01  0.40000000000E+01  0.51109989000E-03 0.  1.
     -623   -1    0    0    0    0  0.00000000000E+00  0.00000000000E+00  0.12525980253E-10  0.17130000000E+03  0.17130000000E+03 0. -1.
       11    1    1    2    0    0 -0.31339743115E-02  0.21507434420E-01  0.52127136369E+00  0.52172453206E+00  0.51109989000E-03 0.  1.
     -623    1    1    2    0    0 -0.66324293017E-02 -0.23576806200E-02  0.13284119703E-02  0.17130000015E+03  0.17130000000E+03 0. -1.
      622    1    1    2    0    0  0.97664036131E-02 -0.19149753800E-01  0.34774001917E+01  0.34782753181E+01  0.75000000000E-01 0.  1.
</event>
<event>
 5   0  0.5237200E+07  0.9118800E+02  0.7818608E-02  0.1180000E+00
       11   -1    0    0    0    0  0.00000000000E+00  0.00000000000E+00  0.39999999673E+01  0.40000000000E+01  0.51109989000E-03 0.  1.
     -623   -1    0    0    0    0  0.00000000000E+00  0.00000000000E+00  0.12525980253E-10  0.17130000000E+03  0.17130000000E+03 0.  1.
       11    1    1    2    0    0 -0.82854525441E-02 -0.19109568617E-02  0.20799481425E+00  0.20816917269E+00  0.51109989000E-03 0.  1.
     -623    1    1    2    0    0  0.10012526732E-01 -0.10382979993E-02  0.91796334109E-03  0.17130000030E+03  0.17130000000E+03 0.  1.
      622    1    1    2    0    0 -0.17270741864E-02  0.29492548609E-02  0.37910871893E+01  0.37918305286E+01  0.75000000000E-01 0.  1.
</event>
<event>
 5   0  0.5237200E+07  0.9118800E+02  0.7818608E-02  0.1180000E+00
       11   -1    0    0    0    0  0.00000000000E+00  0.00000000000E+00  0.39999999673E+01  0.40000000000E+01  0.51109989000E-03 0.  1.
     -623   -1    0    0    0    0  0.00000000000E+00  0.00000000000E+00  0.12525980253E-10  0.17130000000E+03  0.17130000000E+03 0. -1.
       11    1    1    2    0    0 -0.66587539297E-02  0.32673876090E-02  0.10446202066E-01  0.12821824556E-01  0.51109989000E-03 0.  1.
     -623    1    1    2    0    0  0.93205181079E-02  0.12914402450E-03  0.30836553384E-02  0.17130000028E+03  0.17130000000E+03 0. -1.
      622    1    1    2    0    0 -0.26617641781E-02 -0.33965316335E-02  0.39864701100E+01  0.39871778941E+01  0.75000000000E-01 0.  1.
</event>
<event>
 5   0  0.5237200E+07  0.9118800E+02  0.7818608E-02  0.1180000E+00
       11   -1    0    0    0    0  0.00000000000E+00  0.00000000000E+00  0.39999999673E+01  0.40000000000E+01  0.51109989000E-03 0. -1.
     -623   -1    0    0    0    0  0.00000000000E+00  0.00000000000E+00  0.12525980253E-10  0.17130000000E+03  0.17130000000E+03 0. -1.
       11    1    1    2    0    0 -0.21676489175E-01  0.55038806415E-02  0.14667816380E+00  0.14837421555E+00  0.51109989000E-03 0. -1.
     -623    1    1    2    0    0 -0.27210674109E-02 -0.81972408910E-02  0.25047642738E-02  0.17130000024E+03  0.17130000000E+03 0. -1.
      622    1    1    2    0    0  0.24397556586E-01  0.26933602495E-02  0.38508170393E+01  0.38516255484E+01  0.75000000000E-01 0. -1.
</event>
<event>
 5   0  0.5237200E+07  0.9118800E+02  0.7818608E-02  0.1180000E+00
       11   -1    0    0    0    0  0.00000000000E+00  0.00000000000E+00  0.39999999673E+01  0.40000000000E+01  0.51109989000E-03 0. -1.
     -623   -1    0    0    0    0  0.00000000000E+00  0.00000000000E+00  0.12525980253E-10  0.17130000000E+03  0.17130000000E+03 0.  1.
       11    1    1    2    0    0 -0.20193404780E-01 -0.19689876140E-01  0.31156333070E-01  0.42029074813E-01  0.51109989000E-03 0. -1.
     -623    1    1    2    0    0  0.20968588167E-01  0.37625906545E-01  0.11629898879E-01  0.17130000581E+03  0.17130000000E+03 0.  1.
      622    1    1    2    0    0 -0.77518338699E-03 -0.17936030404E-01  0.39572137354E+01  0.39579651148E+01  0.75000000000E-01 0. -1.
</event>
<event>
 5   0  0.5237200E+07  0.9118800E+02  0.7818608E-02  0.1180000E+00
       11   -1    0    0    0    0  0.00000000000E+00  0.00000000000E+00  0.39999999673E+01  0.40000000000E+01  0.51109989000E-03 0. -1.
     -623   -1    0    0    0    0  0.00000000000E+00  0.00000000000E+00  0.12525980253E-10  0.17130000000E+03  0.17130000000E+03 0. -1.
       11    1    1    2    0    0  0.27004904057E-02  0.74456455128E-03  0.20165453260E+00  0.20167463590E+00  0.51109989000E-03 0. -1.
     -623    1    1    2    0    0 -0.20298618716E-02 -0.39001214221E-02  0.76202912407E-03  0.17130000006E+03  0.17130000000E+03 0. -1.
      622    1    1    2    0    0 -0.67062853415E-03  0.31555568708E-02  0.37975834056E+01  0.37983253060E+01  0.75000000000E-01 0. -1.
</event>
<event>
 5   0  0.5237200E+07  0.9118800E+02  0.7818608E-02  0.1180000E+00
       11   -1    0    0    0    0  0.00000000000E+00  0.00000000000E+00  0.39999999673E+01  0.40000000000E+01  0.51109989000E-03 0. -1.
     -623   -1    0    0    0    0  0.00000000000E+00  0.00000000000E+00  0.12525980253E-10  0.17130000000E+03  0.17130000000E+03 0. -1.
       11    1    1    2    0    0  0.25129553299E-01 -0.15346222591E-01  0.47409425092E+00  0.47500802201E+00  0.51109989000E-03 0. -1.
     -623    1    1    2    0    0  0.67041966236E-02  0.14853208539E-01  0.18563015553E-02  0.17130000079E+03  0.17130000000E+03 0. -1.
      622    1    1    2    0    0 -0.31833749922E-01  0.49301405137E-03  0.35240494149E+01  0.35249911928E+01  0.75000000000E-01 0. -1.
</event>
<event>
 5   0  0.5237200E+07  0.9118800E+02  0.7818608E-02  0.1180000E+00
       11   -1    0    0    0    0  0.00000000000E+00  0.00000000000E+00  0.39999999673E+01  0.40000000000E+01  0.51109989000E-03 0.  1.
     -623   -1    0    0    0    0  0.00000000000E+00  0.00000000000E+00  0.12525980253E-10  0.17130000000E+03  0.17130000000E+03 0.  1.
       11    1    1    2    0    0 -0.11140451451E-01  0.44000984094E-02  0.38492159767E-01  0.40315978360E-01  0.51109989000E-03 0.  1.
     -623    1    1    2    0    0 -0.22695895561E-02 -0.75198305590E-02  0.25582737122E-02  0.17130000020E+03  0.17130000000E+03 0.  1.
      622    1    1    2    0    0  0.13410041007E-01  0.31197321499E-02  0.39589495341E+01  0.39596838226E+01  0.75000000000E-01 0.  1.
</event>
<event>
 5   0  0.5237200E+07  0.9118800E+02  0.7818608E-02  0.1180000E+00
       11   -1    0    0    0    0  0.00000000000E+00  0.00000000000E+00  0.39999999673E+01  0.40000000000E+01  0.51109989000E-03 0. -1.
     -623   -1    0    0    0    0  0.00000000000E+00  0.00000000000E+00  0.12525980253E-10  0.17130000000E+03  0.17130000000E+03 0. -1.
       11    1    1    2    0    0  0.17598609599E-02 -0.11810370677E-02  0.25058814789E-02  0.33215394379E-02  0.51109989000E-03 0. -1.
     -623    1    1    2    0    0 -0.58974396743E-03 -0.21739780213E-02  0.15209979508E-02  0.17130000002E+03  0.17130000000E+03 0. -1.
      622    1    1    2    0    0 -0.11701169924E-02  0.33550150890E-02  0.39959730880E+01  0.39966784391E+01  0.75000000000E-01 0. -1.
</event>
<event>
 5   0  0.5237200E+07  0.9118800E+02  0.7818608E-02  0.1180000E+00
       11   -1    0    0    0    0  0.00000000000E+00  0.00000000000E+00  0.39999999673E+01  0.40000000000E+01  0.51109989000E-03 0.  1.
     -623   -1    0    0    0    0  0.00000000000E+00  0.00000000000E+00  0.12525980253E-10  0.17130000000E+03  0.17130000000E+03 0.  1.
       11    1    1    2    0    0  0.10406870971E-02 -0.76403653828E-02  0.10652641334E+01  0.10652921634E+01  0.51109989000E-03 0.  1.
     -623    1    1    2    0    0 -0.13049372886E-02  0.42551488969E-03  0.99540351749E-03  0.17130000001E+03  0.17130000000E+03 0.  1.
      622    1    1    2    0    0  0.26425019149E-03  0.72148504931E-02  0.29337404303E+01  0.29347078281E+01  0.75000000000E-01 0.  1.
</event>
<event>
 5   0  0.5237200E+07  0.9118800E+02  0.7818608E-02  0.1180000E+00
       11   -1    0    0    0    0  0.00000000000E+00  0.00000000000E+00  0.39999999673E+01  0.40000000000E+01  0.51109989000E-03 0. -1.
     -623   -1    0    0    0    0  0.00000000000E+00  0.00000000000E+00  0.12525980253E-10  0.17130000000E+03  0.17130000000E+03 0. -1.
       11    1    1    2    0    0  0.72121291410E-02 -0.22239851696E-01  0.14708481216E-01  0.27626553404E-01  0.51109989000E-03 0. -1.
     -623    1    1    2    0    0 -0.15046284535E-02 -0.46659884992E-01  0.14234849490E-01  0.17130000695E+03  0.17130000000E+03 0. -1.
      622    1    1    2    0    0 -0.57075006875E-02  0.68899736688E-01  0.39710566367E+01  0.39723664938E+01  0.75000000000E-01 0. -1.
</event>
<event>
 5   0  0.5237200E+07  0.9118800E+02  0.7818608E-02  0.1180000E+00
       11   -1    0    0    0    0  0.00000000000E+00  0.00000000000E+00  0.39999999673E+01  0.40000000000E+01  0.51109989000E-03 0. -1.
     -623   -1    0    0    0    0  0.00000000000E+00  0.00000000000E+00  0.12525980253E-10  0.17130000000E+03  0.17130000000E+03 0. -1.
       11    1    1    2    0    0 -0.80918291196E-01 -0.47123440379E-01  0.84840364910E+00  0.85355574013E+00  0.51109989000E-03 0. -1.
     -623    1    1    2    0    0  0.17298073918E-02 -0.25124635779E-01  0.78751011166E-02  0.17130000203E+03  0.17130000000E+03 0. -1.
      622    1    1    2    0    0  0.79188483804E-01  0.72248076159E-01  0.31437212172E+01  0.31464422277E+01  0.75000000000E-01 0. -1.
</event>
<event>
 5   0  0.5237200E+07  0.9118800E+02  0.7818608E-02  0.1180000E+00
       11   -1    0    0    0    0  0.00000000000E+00  0.00000000000E+00  0.39999999673E+01  0.40000000000E+01  0.51109989000E-03 0. -1.
     -623   -1    0    0    0    0  0.00000000000E+00  0.00000000000E+00  0.12525980253E-10  0.17130000000E+03  0.17130000000E+03 0.  1.
       11    1    1    2    0    0 -0.38064774086E-03  0.21720037365E-03  0.32359861570E-03  0.74699924135E-03  0.51109989000E-03 0.  1.
     -623    1    1    2    0    0  0.94010443126E-03  0.59206971812E-03  0.11268145049E-02  0.17130000001E+03  0.17130000000E+03 0.  1.
      622    1    1    2    0    0 -0.55945669046E-03 -0.80927009181E-03  0.39985495545E+01  0.39992529937E+01  0.75000000000E-01 0. -1.
</event>
<event>
 5   0  0.5237200E+07  0.9118800E+02  0.7818608E-02  0.1180000E+00
       11   -1    0    0    0    0  0.00000000000E+00  0.00000000000E+00  0.39999999673E+01  0.40000000000E+01  0.51109989000E-03 0.  1.
     -623   -1    0    0    0    0  0.00000000000E+00  0.00000000000E+00  0.12525980253E-10  0.17130000000E+03  0.17130000000E+03 0. -1.
       11    1    1    2    0    0  0.68752811154E-02 -0.55756673852E-02  0.23945077992E+00  0.23961488849E+00  0.51109989000E-03 0.  1.
     -623    1    1    2    0    0  0.17839217636E-02  0.30622537929E-02  0.92293029210E-03  0.17130000004E+03  0.17130000000E+03 0. -1.
      622    1    1    2    0    0 -0.86592028790E-02  0.25134135924E-02  0.37596262571E+01  0.37603850723E+01  0.75000000000E-01 0.  1.
</event>
<event>
 5   0  0.5237200E+07  0.9118800E+02  0.7818608E-02  0.1180000E+00
       11   -1    0    0    0    0  0.00000000000E+00  0.00000000000E+00  0.39999999673E+01  0.40000000000E+01  0.51109989000E-03 0. -1.
     -623   -1    0    0    0    0  0.00000000000E+00  0.00000000000E+00  0.12525980253E-10  0.17130000000E+03  0.17130000000E+03 0.  1.
       11    1    1    2    0    0  0.26086790821E-02  0.52831956674E-03  0.95987138920E-01  0.96025394502E-01  0.51109989000E-03 0. -1.
     -623    1    1    2    0    0 -0.25279446154E-03 -0.18505734177E-02  0.75965587070E-03  0.17130000001E+03  0.17130000000E+03 0.  1.
      622    1    1    2    0    0 -0.23558846205E-02  0.13222538512E-02  0.39032531733E+01  0.39039745943E+01  0.75000000000E-01 0. -1.
</event>
<event>
 5   0  0.5237200E+07  0.9118800E+02  0.7818608E-02  0.1180000E+00
       11   -1    0    0    0    0  0.00000000000E+00  0.00000000000E+00  0.39999999673E+01  0.40000000000E+01  0.51109989000E-03 0.  1.
     -623   -1    0    0    0    0  0.00000000000E+00  0.00000000000E+00  0.12525980253E-10  0.17130000000E+03  0.17130000000E+03 0.  1.
       11    1    1    2    0    0  0.56325493754E-01  0.28965461692E-01  0.10440774533E+01  0.10459969163E+01  0.51109989000E-03 0.  1.
     -623    1    1    2    0    0  0.55246774260E-02  0.66608950470E-02  0.37346803488E-02  0.17130000026E+03  0.17130000000E+03 0.  1.
      622    1    1    2    0    0 -0.61850171180E-01 -0.35626356739E-01  0.29521878336E+01  0.29540028243E+01  0.75000000000E-01 0.  1.
</event>
<event>
 5   0  0.5237200E+07  0.9118800E+02  0.7818608E-02  0.1180000E+00
       11   -1    0    0    0    0  0.00000000000E+00  0.00000000000E+00  0.39999999673E+01  0.40000000000E+01  0.51109989000E-03 0.  1.
     -623   -1    0    0    0    0  0.00000000000E+00  0.00000000000E+00  0.12525980253E-10  0.17130000000E+03  0.17130000000E+03 0. -1.
       11    1    1    2    0    0 -0.73106421340E-02 -0.96955934038E-02  0.16603713782E+00  0.16648135745E+00  0.51109989000E-03 0.  1.
     -623    1    1    2    0    0  0.11937819013E-01  0.73105328374E-02  0.11820287440E-02  0.17130000058E+03  0.17130000000E+03 0. -1.
      622    1    1    2    0    0 -0.46271768787E-02  0.23850605663E-02  0.38327808008E+01  0.38335180666E+01  0.75000000000E-01 0.  1.
</event>
<event>
 5   0  0.5237200E+07  0.9118800E+02  0.7818608E-02  0.1180000E+00
       11   -1    0    0    0    0  0.00000000000E+00  0.00000000000E+00  0.39999999673E+01  0.40000000000E+01  0.51109989000E-03 0. -1.
     -623   -1    0    0    0    0  0.00000000000E+00  0.00000000000E+00  0.12525980253E-10  0.17130000000E+03  0.17130000000E+03 0. -1.
       11    1    1    2    0    0  0.14677677770E-01  0.10513466458E-01  0.48613861965E+00  0.48647403419E+00  0.51109989000E-03 0. -1.
     -623    1    1    2    0    0  0.74537320677E-02 -0.69562450464E-02  0.12077784938E-02  0.17130000031E+03  0.17130000000E+03 0. -1.
      622    1    1    2    0    0 -0.22131409838E-01 -0.35572214119E-02  0.35126535692E+01  0.35135256581E+01  0.75000000000E-01 0. -1.
</event>
<event>
 5   0  0.5237200E+07  0.9118800E+02  0.7818608E-02  0.1180000E+00
       11   -1    0    0    0    0  0.00000000000E+00  0.00000000000E+00  0.39999999673E+01  0.40000000000E+01  0.51109989000E-03 0. -1.
     -623   -1    0    0    0    0  0.00000000000E+00  0.00000000000E+00  0.12525980253E-10  0.17130000000E+03  0.17130000000E+03 0.  1.
       11    1    1    2    0    0 -0.57283953159E-02 -0.61007186630E-02  0.51959688712E+00  0.51966452603E+00  0.51109989000E-03 0. -1.
     -623    1    1    2    0    0 -0.29359126247E-02 -0.16968380314E-02  0.89537233454E-03  0.17130000004E+03  0.17130000000E+03 0.  1.
      622    1    1    2    0    0  0.86643079406E-02  0.77975566943E-02  0.34795077079E+01  0.34803354381E+01  0.75000000000E-01 0. -1.
</event>
<event>
 5   0  0.5237200E+07  0.9118800E+02  0.7818608E-02  0.1180000E+00
       11   -1    0    0    0    0  0.00000000000E+00  0.00000000000E+00  0.39999999673E+01  0.40000000000E+01  0.51109989000E-03 0.  1.
     -623   -1    0    0    0    0  0.00000000000E+00  0.00000000000E+00  0.12525980253E-10  0.17130000000E+03  0.17130000000E+03 0.  1.
       11    1    1    2    0    0  0.53893189435E-02 -0.21468292628E-02  0.66282220494E-01  0.66537565415E-01  0.51109989000E-03 0.  1.
     -623    1    1    2    0    0  0.11276683559E-02  0.48535879389E-02  0.97680261486E-03  0.17130000008E+03  0.17130000000E+03 0.  1.
      622    1    1    2    0    0 -0.65169872994E-02 -0.27067586762E-02  0.39327409444E+01  0.39334623594E+01  0.75000000000E-01 0.  1.
</event>
<event>
 5   0  0.5237200E+07  0.9118800E+02  0.7818608E-02  0.1180000E+00
       11   -1    0    0    0    0  0.00000000000E+00  0.00000000000E+00  0.39999999673E+01  0.40000000000E+01  0.51109989000E-03 0. -1.
     -623   -1    0    0    0    0  0.00000000000E+00  0.00000000000E+00  0.12525980253E-10  0.17130000000E+03  0.17130000000E+03 0. -1.
       11    1    1    2    0    0 -0.36190220808E-02 -0.35165935685E-02  0.52539682422E-01  0.52783929400E-01  0.51109989000E-03 0. -1.
     -623    1    1    2    0    0 -0.21377650633E-02  0.33395486638E-02  0.96105745978E-03  0.17130000005E+03  0.17130000000E+03 0. -1.
      622    1    1    2    0    0  0.57567871441E-02  0.17704490472E-03  0.39464992275E+01  0.39472160220E+01  0.75000000000E-01 0. -1.
</event>
<event>
 5   0  0.5237200E+07  0.9118800E+02  0.7818608E-02  0.1180000E+00
       11   -1    0    0    0    0  0.00000000000E+00  0.00000000000E+00  0.39999999673E+01  0.40000000000E+01  0.51109989000E-03 0. -1.
     -623   -1    0    0    0    0  0.00000000000E+00  0.00000000000E+00  0.12525980253E-10  0.17130000000E+03  0.17130000000E+03 0. -1.
       11    1    1    2    0    0  0.14355855869E-02  0.45680913892E-02  0.22762076326E-01  0.23265891487E-01  0.51109989000E-03 0. -1.
     -623    1    1    2    0    0  0.55180739659E-02 -0.21013198460E-01  0.12525564425E-02  0.17130000138E+03  0.17130000000E+03 0. -1.
      622    1    1    2    0    0 -0.69536595528E-02  0.16445107071E-01  0.39759853347E+01  0.39767327263E+01  0.75000000000E-01 0. -1.
</event>
<event>
 5   0  0.5237200E+07  0.9118800E+02  0.7818608E-02  0.1180000E+00
       11   -1    0    0    0    0  0.00000000000E+00  0.00000000000E+00  0.39999999673E+01  0.40000000000E+01  0.51109989000E-03 0.  1.
     -623   -1    0    0    0    0  0.00000000000E+00  0.00000000000E+00  0.12525980253E-10  0.17130000000E+03  0.17130000000E+03 0. -1.
       11    1    1    2    0    0 -0.23407790110E-01  0.64225955807E-02  0.15734248986E+00  0.15920456874E+00  0.51109989000E-03 0.  1.
     -623    1    1    2    0    0  0.30713576318E-01 -0.37398702966E-02  0.26050876500E-02  0.17130000281E+03  0.17130000000E+03 0. -1.
      622    1    1    2    0    0 -0.73057862073E-02 -0.26827252841E-02  0.38400523899E+01  0.38407926172E+01  0.75000000000E-01 0.  0.
</event>
<event>
 5   0  0.5237200E+07  0.9118800E+02  0.7818608E-02  0.1180000E+00
       11   -1    0    0    0    0  0.00000000000E+00  0.00000000000E+00  0.39999999673E+01  0.40000000000E+01  0.51109989000E-03 0.  1.
     -623   -1    0    0    0    0  0.00000000000E+00  0.00000000000E+00  0.12525980253E-10  0.17130000000E+03  0.17130000000E+03 0.  1.
       11    1    1    2    0    0 -0.76484467226E-03  0.16642338375E-01  0.50889863517E+00  0.50917151777E+00  0.51109989000E-03 0.  1.
     -623    1    1    2    0    0 -0.23193556881E-02 -0.60476709752E-02  0.10961955755E-02  0.17130000013E+03  0.17130000000E+03 0.  1.
      622    1    1    2    0    0  0.30842003607E-02 -0.10594667399E-01  0.34900051371E+01  0.34908283568E+01  0.75000000000E-01 0.  1.
</event>
<event>
 5   0  0.5237200E+07  0.9118800E+02  0.7818608E-02  0.1180000E+00
       11   -1    0    0    0    0  0.00000000000E+00  0.00000000000E+00  0.39999999673E+01  0.40000000000E+01  0.51109989000E-03 0.  1.
     -623   -1    0    0    0    0  0.00000000000E+00  0.00000000000E+00  0.12525980253E-10  0.17130000000E+03  0.17130000000E+03 0.  1.
       11    1    1    2    0    0  0.13077517140E-01  0.45549732620E-02  0.29499833231E-01  0.32592493303E-01  0.51109989000E-03 0.  1.
     -623    1    1    2    0    0  0.25263204375E-02 -0.25490209114E-02  0.38328702853E-02  0.17130000008E+03  0.17130000000E+03 0.  1.
      622    1    1    2    0    0 -0.15603837577E-01 -0.20059523506E-02  0.39666672638E+01  0.39674074262E+01  0.75000000000E-01 0.  1.
</event>
<event>
 5   0  0.5237200E+07  0.9118800E+02  0.7818608E-02  0.1180000E+00
       11   -1    0    0    0    0  0.00000000000E+00  0.00000000000E+00  0.39999999673E+01  0.40000000000E+01  0.51109989000E-03 0. -1.
     -623   -1    0    0    0    0  0.00000000000E+00  0.00000000000E+00  0.12525980253E-10  0.17130000000E+03  0.17130000000E+03 0.  1.
       11    1    1    2    0    0 -0.37082642505E-02 -0.93247422720E-02  0.23922999697E-01  0.25947508139E-01  0.51109989000E-03 0. -1.
     -623    1    1    2    0    0  0.65227218340E-02  0.27986560721E-02  0.27387799011E-02  0.17130000017E+03  0.17130000000E+03 0.  1.
      622    1    1    2    0    0 -0.28144575835E-02  0.65260861999E-02  0.39733381878E+01  0.39740523229E+01  0.75000000000E-01 0. -1.
</event>
<event>
 5   0  0.5237200E+07  0.9118800E+02  0.7818608E-02  0.1180000E+00
       11   -1    0    0    0    0  0.00000000000E+00  0.00000000000E+00  0.39999999673E+01  0.40000000000E+01  0.51109989000E-03 0. -1.
     -623   -1    0    0    0    0  0.00000000000E+00  0.00000000000E+00  0.12525980253E-10  0.17130000000E+03  0.17130000000E+03 0. -1.
       11    1    1    2    0    0  0.62098035007E-02  0.96662206333E-02  0.10404676710E+00  0.10468041100E+00  0.51109989000E-03 0. -1.
     -623    1    1    2    0    0 -0.38230532551E-01 -0.17309026932E-01  0.14999830491E-02  0.17130000515E+03  0.17130000000E+03 0. -1.
      622    1    1    2    0    0  0.32020729050E-01  0.76428062990E-02  0.38944532172E+01  0.38953144418E+01  0.75000000000E-01 0. -1.
</event>
<event>
 5   0  0.5237200E+07  0.9118800E+02  0.7818608E-02  0.1180000E+00
       11   -1    0    0    0    0  0.00000000000E+00  0.00000000000E+00  0.39999999673E+01  0.40000000000E+01  0.51109989000E-03 0. -1.
     -623   -1    0    0    0    0  0.00000000000E+00  0.00000000000E+00  0.12525980253E-10  0.17130000000E+03  0.17130000000E+03 0.  1.
       11    1    1    2    0    0  0.13988358919E-01  0.17642650844E-01  0.44643986584E+00  0.44700755290E+00  0.51109989000E-03 0. -1.
     -623    1    1    2    0    0 -0.11931095422E-02  0.85842158921E-02  0.14794212862E-02  0.17130000023E+03  0.17130000000E+03 0.  1.
      622    1    1    2    0    0 -0.12795249377E-01 -0.26226866737E-01  0.35520806805E+01  0.35529922218E+01  0.75000000000E-01 0. -1.
</event>
<event>
 5   0  0.5237200E+07  0.9118800E+02  0.7818608E-02  0.1180000E+00
       11   -1    0    0    0    0  0.00000000000E+00  0.00000000000E+00  0.39999999673E+01  0.40000000000E+01  0.51109989000E-03 0.  1.
     -623   -1    0    0    0    0  0.00000000000E+00  0.00000000000E+00  0.12525980253E-10  0.17130000000E+03  0.17130000000E+03 0.  1.
       11    1    1    2    0    0  0.50971610415E-02 -0.36819726106E-02  0.22803568263E+00  0.22812293122E+00  0.51109989000E-03 0.  1.
     -623    1    1    2    0    0  0.30864457291E-02  0.26253133672E-02  0.84201716730E-03  0.17130000005E+03  0.17130000000E+03 0.  1.
      622    1    1    2    0    0 -0.81836067707E-02  0.10566592433E-02  0.37711222678E+01  0.37718770190E+01  0.75000000000E-01 0.  1.
</event>
<event>
 5   0  0.5237200E+07  0.9118800E+02  0.7818608E-02  0.1180000E+00
       11   -1    0    0    0    0  0.00000000000E+00  0.00000000000E+00  0.39999999673E+01  0.40000000000E+01  0.51109989000E-03 0. -1.
     -623   -1    0    0    0    0  0.00000000000E+00  0.00000000000E+00  0.12525980253E-10  0.17130000000E+03  0.17130000000E+03 0. -1.
       11    1    1    2    0    0  0.17692579634E-02  0.14011510219E-01  0.96914715598E-01  0.97939654967E-01  0.51109989000E-03 0. -1.
     -623    1    1    2    0    0  0.18879779675E-02 -0.28634964666E-02  0.17634316745E-02  0.17130000004E+03  0.17130000000E+03 0. -1.
      622    1    1    2    0    0 -0.36572359309E-02 -0.11148013752E-01  0.39013218202E+01  0.39020603018E+01  0.75000000000E-01 0. -1.
</event>
<event>
 5   0  0.5237200E+07  0.9118800E+02  0.7818608E-02  0.1180000E+00
       11   -1    0    0    0    0  0.00000000000E+00  0.00000000000E+00  0.39999999673E+01  0.40000000000E+01  0.51109989000E-03 0. -1.
     -623   -1    0    0    0    0  0.00000000000E+00  0.00000000000E+00  0.12525980253E-10  0.17130000000E+03  0.17130000000E+03 0.  1.
       11    1    1    2    0    0 -0.36190061493E-01 -0.12080452143E-01  0.48561236702E+00  0.48710911519E+00  0.51109989000E-03 0. -1.
     -623    1    1    2    0    0  0.53998119642E-01 -0.99922403933E-02  0.24207617582E-02  0.17130000882E+03  0.17130000000E+03 0.  1.
      622    1    1    2    0    0 -0.17808058151E-01  0.22072692537E-01  0.35119668387E+01  0.35128820656E+01  0.75000000000E-01 0. -1.
</event>
<event>
 5   0  0.5237200E+07  0.9118800E+02  0.7818608E-02  0.1180000E+00
       11   -1    0    0    0    0  0.00000000000E+00  0.00000000000E+00  0.39999999673E+01  0.40000000000E+01  0.51109989000E-03 0.  1.
     -623   -1    0    0    0    0  0.00000000000E+00  0.00000000000E+00  0.12525980253E-10  0.17130000000E+03  0.17130000000E+03 0.  1.
       11    1    1    2    0    0 -0.55073548078E-01  0.27716643422E-01  0.57426258860E+00  0.57756306142E+00  0.51109989000E-03 0.  1.
     -623    1    1    2    0    0 -0.12174817941E-01  0.92973147604E-02  0.49842397571E-02  0.17130000076E+03  0.17130000000E+03 0.  1.
      622    1    1    2    0    0  0.67248366019E-01 -0.37013958183E-01  0.34207531390E+01  0.34224361811E+01  0.75000000000E-01 0.  1.
</event>
<event>
 5   0  0.5237200E+07  0.9118800E+02  0.7818608E-02  0.1180000E+00
       11   -1    0    0    0    0  0.00000000000E+00  0.00000000000E+00  0.39999999673E+01  0.40000000000E+01  0.51109989000E-03 0.  1.
     -623   -1    0    0    0    0  0.00000000000E+00  0.00000000000E+00  0.12525980253E-10  0.17130000000E+03  0.17130000000E+03 0. -1.
       11    1    1    2    0    0  0.42832236912E-02 -0.19072858156E-02  0.55759977087E+00  0.55761971759E+00  0.51109989000E-03 0.  1.
     -623    1    1    2    0    0 -0.33409551196E-01  0.36120980539E-02  0.96400677718E-03  0.17130000330E+03  0.17130000000E+03 0. -1.
      622    1    1    2    0    0  0.29126327504E-01 -0.17048122383E-02  0.34414361897E+01  0.34423769836E+01  0.75000000000E-01 0.  1.
</event>
<event>
 5   0  0.5237200E+07  0.9118800E+02  0.7818608E-02  0.1180000E+00
       11   -1    0    0    0    0  0.00000000000E+00  0.00000000000E+00  0.39999999673E+01  0.40000000000E+01  0.51109989000E-03 0.  1.
     -623   -1    0    0    0    0  0.00000000000E+00  0.00000000000E+00  0.12525980253E-10  0.17130000000E+03  0.17130000000E+03 0. -1.
       11    1    1    2    0    0 -0.11654217142E-01 -0.25668964252E-02  0.25283270881E+00  0.25311469654E+00  0.51109989000E-03 0.  1.
     -623    1    1    2    0    0 -0.23375525053E-01  0.50904490737E-01  0.15174898296E-02  0.17130000917E+03  0.17130000000E+03 0. -1.
      622    1    1    2    0    0  0.35029742195E-01 -0.48337594312E-01  0.37456497687E+01  0.37468761383E+01  0.75000000000E-01 0.  0.
</event>
<event>
 5   0  0.5237200E+07  0.9118800E+02  0.7818608E-02  0.1180000E+00
       11   -1    0    0    0    0  0.00000000000E+00  0.00000000000E+00  0.39999999673E+01  0.40000000000E+01  0.51109989000E-03 0. -1.
     -623   -1    0    0    0    0  0.00000000000E+00  0.00000000000E+00  0.12525980253E-10  0.17130000000E+03  0.17130000000E+03 0.  1.
       11    1    1    2    0    0  0.68825452553E-02  0.13534542812E-01  0.67722788485E-01  0.69405983760E-01  0.51109989000E-03 0. -1.
     -623    1    1    2    0    0 -0.78754141426E-02 -0.61024370247E-02  0.24062283173E-02  0.17130000031E+03  0.17130000000E+03 0.  1.
      622    1    1    2    0    0  0.99286888733E-03 -0.74321057878E-02  0.39298709506E+01  0.39305937096E+01  0.75000000000E-01 0. -1.
</event>
<event>
 5   0  0.5237200E+07  0.9118800E+02  0.7818608E-02  0.1180000E+00
       11   -1    0    0    0    0  0.00000000000E+00  0.00000000000E+00  0.39999999673E+01  0.40000000000E+01  0.51109989000E-03 0. -1.
     -623   -1    0    0    0    0  0.00000000000E+00  0.00000000000E+00  0.12525980253E-10  0.17130000000E+03  0.17130000000E+03 0.  1.
       11    1    1    2    0    0  0.41072710108E-03 -0.25183357216E-02  0.14962208989E-01  0.15186824306E-01  0.51109989000E-03 0. -1.
     -623    1    1    2    0    0 -0.10584386135E-02 -0.15838063663E-04  0.93131433854E-03  0.17130000001E+03  0.17130000000E+03 0.  1.
      622    1    1    2    0    0  0.64771151248E-03  0.25341737853E-02  0.39841064444E+01  0.39848131703E+01  0.75000000000E-01 0. -1.
</event>
<event>
 5   0  0.5237200E+07  0.9118800E+02  0.7818608E-02  0.1180000E+00
       11   -1    0    0    0    0  0.00000000000E+00  0.00000000000E+00  0.39999999673E+01  0.40000000000E+01  0.51109989000E-03 0. -1.
     -623   -1    0    0    0    0  0.00000000000E+00  0.00000000000E+00  0.12525980253E-10  0.17130000000E+03  0.17130000000E+03 0. -1.
       11    1    1    2    0    0 -0.18702435516E-02 -0.13942593332E-01  0.27635730614E+00  0.27671558612E+00  0.51109989000E-03 0. -1.
     -623    1    1    2    0    0 -0.99368924911E-02  0.33980231521E-02  0.11476908476E-02  0.17130000033E+03  0.17130000000E+03 0. -1.
      622    1    1    2    0    0  0.11807136042E-01  0.10544570180E-01  0.37224949703E+01  0.37232840880E+01  0.75000000000E-01 0. -1.
</event>
<event>
 5   0  0.5237200E+07  0.9118800E+02  0.7818608E-02  0.1180000E+00
       11   -1    0    0    0    0  0.00000000000E+00  0.00000000000E+00  0.39999999673E+01  0.40000000000E+01  0.51109989000E-03 0.  1.
     -623   -1    0    0    0    0  0.00000000000E+00  0.00000000000E+00  0.12525980253E-10  0.17130000000E+03  0.17130000000E+03 0. -1.
       11    1    1    2    0    0  0.11723976839E-01  0.13584333777E-02  0.39479194227E+00  0.39496865177E+00  0.51109989000E-03 0.  1.
     -623    1    1    2    0    0 -0.49527193571E-03  0.94593086056E-03  0.97515472337E-03  0.17130000001E+03  0.17130000000E+03 0. -1.
      622    1    1    2    0    0 -0.11228704904E-01 -0.23043642383E-02  0.36042328707E+01  0.36050313425E+01  0.75000000000E-01 0.  1.
</event>
<event>
 5   0  0.5237200E+07  0.9118800E+02  0.7818608E-02  0.1180000E+00
       11   -1    0    0    0    0  0.00000000000E+00  0.00000000000E+00  0.39999999673E+01  0.40000000000E+01  0.51109989000E-03 0.  1.
     -623   -1    0    0    0    0  0.00000000000E+00  0.00000000000E+00  0.12525980253E-10  0.17130000000E+03  0.17130000000E+03 0. -1.
       11    1    1    2    0    0  0.17758649842E-01 -0.84652376889E-02  0.91298693391E+00  0.91319901041E+00  0.51109989000E-03 0.  1.
     -623    1    1    2    0    0 -0.22111790102E-02  0.44793036148E-02  0.11651331605E-02  0.17130000008E+03  0.17130000000E+03 0. -1.
      622    1    1    2    0    0 -0.15547470832E-01  0.39859340741E-02  0.30858479003E+01  0.30868009128E+01  0.75000000000E-01 0.  0.
</event>
<event>
 5   0  0.5237200E+07  0.9118800E+02  0.7818608E-02  0.1180000E+00
       11   -1    0    0    0    0  0.00000000000E+00  0.00000000000E+00  0.39999999673E+01  0.40000000000E+01  0.51109989000E-03 0.  1.
     -623   -1    0    0    0    0  0.00000000000E+00  0.00000000000E+00  0.12525980253E-10  0.17130000000E+03  0.17130000000E+03 0. -1.
       11    1    1    2    0    0 -0.29246285406E-01 -0.37582152761E-02  0.74686106294E+00  0.74744309346E+00  0.51109989000E-03 0.  1.
     -623    1    1    2    0    0  0.30891845526E-02 -0.91622324320E-02  0.15779752629E-02  0.17130000028E+03  0.17130000000E+03 0. -1.
      622    1    1    2    0    0  0.26157100853E-01  0.12920447709E-01  0.32515609294E+01  0.32525566266E+01  0.75000000000E-01 0.  1.
</event>
<event>
 5   0  0.5237200E+07  0.9118800E+02  0.7818608E-02  0.1180000E+00
       11   -1    0    0    0    0  0.00000000000E+00  0.00000000000E+00  0.39999999673E+01  0.40000000000E+01  0.51109989000E-03 0. -1.
     -623   -1    0    0    0    0  0.00000000000E+00  0.00000000000E+00  0.12525980253E-10  0.17130000000E+03  0.17130000000E+03 0. -1.
       11    1    1    2    0    0  0.44345556949E-03  0.11486357579E-01  0.47039337745E-01  0.48426166269E-01  0.51109989000E-03 0. -1.
     -623    1    1    2    0    0  0.84206789913E-02 -0.77833164634E-02  0.21106777589E-02  0.17130000040E+03  0.17130000000E+03 0. -1.
      622    1    1    2    0    0 -0.88641345608E-02 -0.37030411154E-02  0.39508499519E+01  0.39515734369E+01  0.75000000000E-01 0. -1.
</event>
<event>
 5   0  0.5237200E+07  0.9118800E+02  0.7818608E-02  0.1180000E+00
       11   -1    0    0    0    0  0.00000000000E+00  0.00000000000E+00  0.39999999673E+01  0.40000000000E+01  0.51109989000E-03 0. -1.
     -623   -1    0    0    0    0  0.00000000000E+00  0.00000000000E+00  0.12525980253E-10  0.17130000000E+03  0.17130000000E+03 0. -1.
       11    1    1    2    0    0 -0.26297009220E-02  0.22715615757E-02  0.13647958388E-02  0.37681837166E-02  0.51109989000E-03 0. -1.
     -623    1    1    2    0    0  0.42588389807E-02 -0.94901974929E-03  0.31078400169E-02  0.17130000008E+03  0.17130000000E+03 0. -1.
      622    1    1    2    0    0 -0.16291380587E-02 -0.13225418265E-02  0.39955273315E+01  0.39962317325E+01  0.75000000000E-01 0. -1.
</event>
<event>
 5   0  0.5237200E+07  0.9118800E+02  0.7818608E-02  0.1180000E+00
       11   -1    0    0    0    0  0.00000000000E+00  0.00000000000E+00  0.39999999673E+01  0.40000000000E+01  0.51109989000E-03 0.  1.
     -623   -1    0    0    0    0  0.00000000000E+00  0.00000000000E+00  0.12525980253E-10  0.17130000000E+03  0.17130000000E+03 0.  1.
       11    1    1    2    0    0 -0.18515851474E-01 -0.45265292319E-01  0.93155786242E+00  0.93284087373E+00  0.51109989000E-03 0.  1.
     -623    1    1    2    0    0  0.25443018319E-03  0.36970106961E-02  0.25363100325E-02  0.17130000006E+03  0.17130000000E+03 0.  1.
      622    1    1    2    0    0  0.18261421291E-01  0.41568281623E-01  0.30659057949E+01  0.30671590674E+01  0.75000000000E-01 0.  0.
</event>
<event>
 5   0  0.5237200E+07  0.9118800E+02  0.7818608E-02  0.1180000E+00
       11   -1    0    0    0    0  0.00000000000E+00  0.00000000000E+00  0.39999999673E+01  0.40000000000E+01  0.51109989000E-03 0. -1.
     -623   -1    0    0    0    0  0.00000000000E+00  0.00000000000E+00  0.12525980253E-10  0.17130000000E+03  0.17130000000E+03 0.  1.
       11    1    1    2    0    0 -0.14332529130E-02  0.32428635760E-02  0.76522747652E-02  0.84491958354E-02  0.51109989000E-03 0. -1.
     -623    1    1    2    0    0 -0.16881523098E-02 -0.26944324070E-02  0.15028584678E-02  0.17130000004E+03  0.17130000000E+03 0.  1.
      622    1    1    2    0    0  0.31214052229E-02 -0.54843116896E-03  0.39908448342E+01  0.39915507681E+01  0.75000000000E-01 0. -1.
</event>
<event>
 5   0  0.5237200E+07  0.9118800E+02  0.7818608E-02  0.1180000E+00
       11   -1    0    0    0    0  0.00000000000E+00  0.00000000000E+00  0.39999999673E+01  0.40000000000E+01  0.51109989000E-03 0.  1.
     -623   -1    0    0    0    0  0.00000000000E+00  0.00000000000E+00  0.12525980253E-10  0.17130000000E+03  0.17130000000E+03 0.  1.
       11    1    1    2    0    0 -0.10590511549E-01 -0.22724193923E-02  0.16801914984E-01  0.19997209680E-01  0.51109989000E-03 0.  1.
     -623    1    1    2    0    0  0.74472348256E-02  0.70166365161E-02  0.39064023287E-02  0.17130000035E+03  0.17130000000E+03 0.  1.
      622    1    1    2    0    0  0.31432767230E-02 -0.47442171239E-02  0.39792916501E+01  0.39800024402E+01  0.75000000000E-01 0.  1.
</event>
<event>
 5   0  0.5237200E+07  0.9118800E+02  0.7818608E-02  0.1180000E+00
       11   -1    0    0    0    0  0.00000000000E+00  0.00000000000E+00  0.39999999673E+01  0.40000000000E+01  0.51109989000E-03 0.  1.
     -623   -1    0    0    0    0  0.00000000000E+00  0.00000000000E+00  0.12525980253E-10  0.17130000000E+03  0.17130000000E+03 0.  1.
       11    1    1    2    0    0  0.12806724922E-01 -0.32778716360E-02  0.37900843971E-01  0.40143390991E-01  0.51109989000E-03 0.  1.
     -623    1    1    2    0    0  0.18293921586E-02  0.60440707257E-02  0.29809931892E-02  0.17130000014E+03  0.17130000000E+03 0.  1.
      622    1    1    2    0    0 -0.14636117081E-01 -0.27661990897E-02  0.39591181302E+01  0.39598564667E+01  0.75000000000E-01 0.  1.
</event>
<event>
 5   0  0.5237200E+07  0.9118800E+02  0.7818608E-02  0.1180000E+00
       11   -1    0    0    0    0  0.00000000000E+00  0.00000000000E+00  0.39999999673E+01  0.40000000000E+01  0.51109989000E-03 0. -1.
     -623   -1    0    0    0    0  0.00000000000E+00  0.00000000000E+00  0.12525980253E-10  0.17130000000E+03  0.17130000000E+03 0. -1.
       11    1    1    2    0    0 -0.20425920116E-02  0.11147895922E-02  0.52267107383E-02  0.57440983801E-02  0.51109989000E-03 0. -1.
     -623    1    1    2    0    0  0.16573755064E-02  0.64294360158E-03  0.12219722257E-02  0.17130000001E+03  0.17130000000E+03 0. -1.
      622    1    1    2    0    0  0.38521650530E-03 -0.17577331937E-02  0.39935512842E+01  0.39942558879E+01  0.75000000000E-01 0. -1.
</event>
<event>
 5   0  0.5237200E+07  0.9118800E+02  0.7818608E-02  0.1180000E+00
       11   -1    0    0    0    0  0.00000000000E+00  0.00000000000E+00  0.39999999673E+01  0.40000000000E+01  0.51109989000E-03 0. -1.
     -623   -1    0    0    0    0  0.00000000000E+00  0.00000000000E+00  0.12525980253E-10  0.17130000000E+03  0.17130000000E+03 0. -1.
       11    1    1    2    0    0  0.26427286684E-01 -0.77547189969E-01  0.28546206398E+00  0.29698622754E+00  0.51109989000E-03 0. -1.
     -623    1    1    2    0    0 -0.22132288978E-01 -0.27206728545E-01  0.13772647637E-01  0.17130000414E+03  0.17130000000E+03 0. -1.
      622    1    1    2    0    0 -0.42949977057E-02  0.10475391851E+00  0.37007652558E+01  0.37030096285E+01  0.75000000000E-01 0. -1.
</event>
<event>
 5   0  0.5237200E+07  0.9118800E+02  0.7818608E-02  0.1180000E+00
       11   -1    0    0    0    0  0.00000000000E+00  0.00000000000E+00  0.39999999673E+01  0.40000000000E+01  0.51109989000E-03 0. -1.
     -623   -1    0    0    0    0  0.00000000000E+00  0.00000000000E+00  0.12525980253E-10  0.17130000000E+03  0.17130000000E+03 0. -1.
       11    1    1    2    0    0  0.44355394538E-02 -0.17167268229E-01  0.22238774718E+00  0.22309406184E+00  0.51109989000E-03 0. -1.
     -623    1    1    2    0    0 -0.20247485734E-03 -0.13511456067E-01  0.15785495464E-02  0.17130000054E+03  0.17130000000E+03 0. -1.
      622    1    1    2    0    0 -0.42330645964E-02  0.30678724297E-01  0.37760336710E+01  0.37769053983E+01  0.75000000000E-01 0. -1.
</event>
<event>
 5   0  0.5237200E+07  0.9118800E+02  0.7818608E-02  0.1180000E+00
       11   -1    0    0    0    0  0.00000000000E+00  0.00000000000E+00  0.39999999673E+01  0.40000000000E+01  0.51109989000E-03 0.  1.
     -623   -1    0    0    0    0  0.00000000000E+00  0.00000000000E+00  0.12525980253E-10  0.17130000000E+03  0.17130000000E+03 0. -1.
       11    1    1    2    0    0 -0.58202926974E-02 -0.14130233497E-01  0.32702732136E+00  0.32738458950E+00  0.51109989000E-03 0.  1.
     -623    1    1    2    0    0 -0.42311950876E-02  0.61552815218E-02  0.11457033357E-02  0.17130000017E+03  0.17130000000E+03 0. -1.
      622    1    1    2    0    0  0.10051487785E-01  0.79749519750E-02  0.36718269429E+01  0.36726152441E+01  0.75000000000E-01 0.  1.
</event>
<event>
 5   0  0.5237200E+07  0.9118800E+02  0.7818608E-02  0.1180000E+00
       11   -1    0    0    0    0  0.00000000000E+00  0.00000000000E+00  0.39999999673E+01  0.40000000000E+01  0.51109989000E-03 0. -1.
     -623   -1    0    0    0    0  0.00000000000E+00  0.00000000000E+00  0.12525980253E-10  0.17130000000E+03  0.17130000000E+03 0. -1.
       11    1    1    2    0    0  0.46951161100E-02  0.87760978919E-02  0.88231327038E-01  0.88792411295E-01  0.51109989000E-03 0. -1.
     -623    1    1    2    0    0 -0.13269824143E-01 -0.20058552284E-01  0.13075758910E-02  0.17130000169E+03  0.17130000000E+03 0. -1.
      622    1    1    2    0    0  0.85747080339E-02  0.11282454393E-01  0.39104610648E+01  0.39112058957E+01  0.75000000000E-01 0. -1.
</event>
<event>
 5   0  0.5237200E+07  0.9118800E+02  0.7818608E-02  0.1180000E+00
       11   -1    0    0    0    0  0.00000000000E+00  0.00000000000E+00  0.39999999673E+01  0.40000000000E+01  0.51109989000E-03 0.  1.
     -623   -1    0    0    0    0  0.00000000000E+00  0.00000000000E+00  0.12525980253E-10  0.17130000000E+03  0.17130000000E+03 0. -1.
       11    1    1    2    0    0  0.70602403833E-02  0.12340022391E-01  0.10098455675E+00  0.10198168989E+00  0.51109989000E-03 0.  1.
     -623    1    1    2    0    0  0.48025565137E-03 -0.18384975049E-02  0.17401504032E-02  0.17130000002E+03  0.17130000000E+03 0. -1.
      622    1    1    2    0    0 -0.75404960346E-02 -0.10501524886E-01  0.38972752602E+01  0.38980182907E+01  0.75000000000E-01 0.  0.
</event>
<event>
 5   0  0.5237200E+07  0.9118800E+02  0.7818608E-02  0.1180000E+00
       11   -1    0    0    0    0  0.00000000000E+00  0.00000000000E+00  0.39999999673E+01  0.40000000000E+01  0.51109989000E-03 0.  1.
     -623   -1    0    0    0    0  0.00000000000E+00  0.00000000000E+00  0.12525980253E-10  0.17130000000E+03  0.17130000000E+03 0. -1.
       11    1    1    2    0    0 -0.36897879298E-01 -0.25454686548E-02  0.43053223107E+00  0.43211826635E+00  0.51109989000E-03 0.  1.
     -623    1    1    2    0    0  0.14367926180E-02  0.83340831951E-02  0.25555642797E-02  0.17130000023E+03  0.17130000000E+03 0. -1.
      622    1    1    2    0    0  0.35461086680E-01 -0.57886145404E-02  0.35669121721E+01  0.35678815059E+01  0.75000000000E-01 0.  1.
</event>
<event>
 5   0  0.5237200E+07  0.9118800E+02  0.7818608E-02  0.1180000E+00
       11   -1    0    0    0    0  0.00000000000E+00  0.00000000000E+00  0.39999999673E+01  0.40000000000E+01  0.51109989000E-03 0. -1.
     -623   -1    0    0    0    0  0.00000000000E+00  0.00000000000E+00  0.12525980253E-10  0.17130000000E+03  0.17130000000E+03 0. -1.
       11    1    1    2    0    0  0.22261815136E-02 -0.33340617454E-02  0.19183657721E-01  0.19604739185E-01  0.51109989000E-03 0. -1.
     -623    1    1    2    0    0 -0.16324002700E-02  0.34749679053E-02  0.11277932061E-02  0.17130000005E+03  0.17130000000E+03 0. -1.
      622    1    1    2    0    0 -0.59378124349E-03 -0.14090616023E-03  0.39796885167E+01  0.39803952144E+01  0.75000000000E-01 0. -1.
</event>
<event>
 5   0  0.5237200E+07  0.9118800E+02  0.7818608E-02  0.1180000E+00
       11   -1    0    0    0    0  0.00000000000E+00  0.00000000000E+00  0.39999999673E+01  0.40000000000E+01  0.51109989000E-03 0. -1.
     -623   -1    0    0    0    0  0.00000000000E+00  0.00000000000E+00  0.12525980253E-10  0.17130000000E+03  0.17130000000E+03 0.  1.
       11    1    1    2    0    0 -0.69195431272E-02 -0.55893900384E-02  0.12835986732E-01  0.15625144334E-01  0.51109989000E-03 0. -1.
     -623    1    1    2    0    0  0.96875279855E-03  0.90994009107E-02  0.35013411050E-02  0.17130000028E+03  0.17130000000E+03 0.  1.
      622    1    1    2    0    0  0.59507903286E-02 -0.35100108723E-02  0.39836626395E+01  0.39843745755E+01  0.75000000000E-01 0. -1.
</event>
<event>
 5   0  0.5237200E+07  0.9118800E+02  0.7818608E-02  0.1180000E+00
       11   -1    0    0    0    0  0.00000000000E+00  0.00000000000E+00  0.39999999673E+01  0.40000000000E+01  0.51109989000E-03 0. -1.
     -623   -1    0    0    0    0  0.00000000000E+00  0.00000000000E+00  0.12525980253E-10  0.17130000000E+03  0.17130000000E+03 0.  1.
       11    1    1    2    0    0 -0.35702171795E-02 -0.30570923898E-03  0.99947886959E-02  0.10630001512E-01  0.51109989000E-03 0. -1.
     -623    1    1    2    0    0  0.40426689454E-02  0.64489329427E-02  0.13451742111E-02  0.17130000017E+03  0.17130000000E+03 0.  1.
      622    1    1    2    0    0 -0.47245176587E-03 -0.61432237037E-02  0.39886600045E+01  0.39893698241E+01  0.75000000000E-01 0. -1.
</event>
<event>
 5   0  0.5237200E+07  0.9118800E+02  0.7818608E-02  0.1180000E+00
       11   -1    0    0    0    0  0.00000000000E+00  0.00000000000E+00  0.39999999673E+01  0.40000000000E+01  0.51109989000E-03 0. -1.
     -623   -1    0    0    0    0  0.00000000000E+00  0.00000000000E+00  0.12525980253E-10  0.17130000000E+03  0.17130000000E+03 0.  1.
       11    1    1    2    0    0 -0.16782141730E-01  0.71827320655E-02  0.89542548346E-01  0.91385781754E-01  0.51109989000E-03 0. -1.
     -623    1    1    2    0    0  0.10857187493E-01 -0.12444482119E-01  0.25716809475E-02  0.17130000082E+03  0.17130000000E+03 0.  1.
      622    1    1    2    0    0  0.59249542369E-02  0.52617500532E-02  0.39078857381E+01  0.39086134028E+01  0.75000000000E-01 0. -1.
</event>
<event>
 5   0  0.5237200E+07  0.9118800E+02  0.7818608E-02  0.1180000E+00
       11   -1    0    0    0    0  0.00000000000E+00  0.00000000000E+00  0.39999999673E+01  0.40000000000E+01  0.51109989000E-03 0. -1.
     -623   -1    0    0    0    0  0.00000000000E+00  0.00000000000E+00  0.12525980253E-10  0.17130000000E+03  0.17130000000E+03 0.  1.
       11    1    1    2    0    0  0.95317873469E-02  0.27340856569E-02  0.39750434229E-02  0.10695437706E-01  0.51109989000E-03 0. -1.
     -623    1    1    2    0    0 -0.23393276738E-01 -0.33260275701E-02  0.74513563161E-02  0.17130000179E+03  0.17130000000E+03 0.  1.
      622    1    1    2    0    0  0.13861489391E-01  0.59194191317E-03  0.39885735676E+01  0.39893027706E+01  0.75000000000E-01 0. -1.
</event>
<event>
 5   0  0.5237200E+07  0.9118800E+02  0.7818608E-02  0.1180000E+00
       11   -1    0    0    0    0  0.00000000000E+00  0.00000000000E+00  0.39999999673E+01  0.40000000000E+01  0.51109989000E-03 0. -1.
     -623   -1    0    0    0    0  0.00000000000E+00  0.00000000000E+00  0.12525980253E-10  0.17130000000E+03  0.17130000000E+03 0.  1.
       11    1    1    2    0    0  0.76839391141E-01  0.25087429532E-01  0.23994225927E+00  0.25319206180E+00  0.51109989000E-03 0. -1.
     -623    1    1    2    0    0 -0.41938589056E-01  0.41701952929E-01  0.14769393647E-01  0.17130001085E+03  0.17130000000E+03 0.  1.
      622    1    1    2    0    0 -0.34900802084E-01 -0.66789382461E-01  0.37452883145E+01  0.37467970917E+01  0.75000000000E-01 0. -1.
</event>
<event>
 5   0  0.5237200E+07  0.9118800E+02  0.7818608E-02  0.1180000E+00
       11   -1    0    0    0    0  0.00000000000E+00  0.00000000000E+00  0.39999999673E+01  0.40000000000E+01  0.51109989000E-03 0.  1.
     -623   -1    0    0    0    0  0.00000000000E+00  0.00000000000E+00  0.12525980253E-10  0.17130000000E+03  0.17130000000E+03 0.  1.
       11    1    1    2    0    0  0.58623990383E-03  0.30330099217E-01  0.10179871480E+00  0.10622381162E+00  0.51109989000E-03 0.  1.
     -623    1    1    2    0    0  0.20105914485E-02 -0.65303395907E-02  0.52212690219E-02  0.17130000022E+03  0.17130000000E+03 0.  1.
      622    1    1    2    0    0 -0.25968313524E-02 -0.23799759626E-01  0.38929799836E+01  0.38937759726E+01  0.75000000000E-01 0.  1.
</event>
<event>
 5   0  0.5237200E+07  0.9118800E+02  0.7818608E-02  0.1180000E+00
       11   -1    0    0    0    0  0.00000000000E+00  0.00000000000E+00  0.39999999673E+01  0.40000000000E+01  0.51109989000E-03 0. -1.
     -623   -1    0    0    0    0  0.00000000000E+00  0.00000000000E+00  0.12525980253E-10  0.17130000000E+03  0.17130000000E+03 0.  1.
       11    1    1    2    0    0 -0.13861843953E-02 -0.27983742124E-02  0.61803396160E-01  0.61884355094E-01  0.51109989000E-03 0. -1.
     -623    1    1    2    0    0  0.15118685544E-02 -0.10184696886E-02  0.79702866430E-03  0.17130000001E+03  0.17130000000E+03 0.  1.
      622    1    1    2    0    0 -0.12568415909E-03  0.38168439010E-02  0.39373995426E+01  0.39381156334E+01  0.75000000000E-01 0. -1.
</event>
<event>
 5   0  0.5237200E+07  0.9118800E+02  0.7818608E-02  0.1180000E+00
       11   -1    0    0    0    0  0.00000000000E+00  0.00000000000E+00  0.39999999673E+01  0.40000000000E+01  0.51109989000E-03 0. -1.
     -623   -1    0    0    0    0  0.00000000000E+00  0.00000000000E+00  0.12525980253E-10  0.17130000000E+03  0.17130000000E+03 0.  1.
       11    1    1    2    0    0 -0.77395170131E-02 -0.51843461336E-02  0.67950624681E-01  0.68588090701E-01  0.51109989000E-03 0. -1.
     -623    1    1    2    0    0  0.90222082241E-02  0.59369987326E-02  0.13535175586E-02  0.17130000035E+03  0.17130000000E+03 0.  1.
      622    1    1    2    0    0 -0.12826912108E-02 -0.75265259882E-03  0.39306958250E+01  0.39314115633E+01  0.75000000000E-01 0. -1.
</event>
<event>
 5   0  0.5237200E+07  0.9118800E+02  0.7818608E-02  0.1180000E+00
       11   -1    0    0    0    0  0.00000000000E+00  0.00000000000E+00  0.39999999673E+01  0.40000000000E+01  0.51109989000E-03 0. -1.
     -623   -1    0    0    0    0  0.00000000000E+00  0.00000000000E+00  0.12525980253E-10  0.17130000000E+03  0.17130000000E+03 0. -1.
       11    1    1    2    0    0  0.28709030438E-01  0.45630532153E-02  0.78927473699E+00  0.78981004144E+00  0.51109989000E-03 0. -1.
     -623    1    1    2    0    0  0.19569286538E-01 -0.89778420329E-02  0.17790579748E-02  0.17130000136E+03  0.17130000000E+03 0. -1.
      622    1    1    2    0    0 -0.48278316976E-01  0.44147888176E-02  0.32089461724E+01  0.32101885963E+01  0.75000000000E-01 0.  0.
</event>
<event>
 5   0  0.5237200E+07  0.9118800E+02  0.7818608E-02  0.1180000E+00
       11   -1    0    0    0    0  0.00000000000E+00  0.00000000000E+00  0.39999999673E+01  0.40000000000E+01  0.51109989000E-03 0.  1.
     -623   -1    0    0    0    0  0.00000000000E+00  0.00000000000E+00  0.12525980253E-10  0.17130000000E+03  0.17130000000E+03 0.  1.
       11    1    1    2    0    0 -0.26322541304E-02 -0.36649945093E-02  0.68339312220E-02  0.82051680302E-02  0.51109989000E-03 0.  1.
     -623    1    1    2    0    0  0.27190439706E-03  0.98657775436E-02  0.20816485663E-02  0.17130000030E+03  0.17130000000E+03 0.  1.
      622    1    1    2    0    0  0.23603497334E-02 -0.62007830343E-02  0.39910843876E+01  0.39917945350E+01  0.75000000000E-01 0.  1.
</event>
<event>
 5   0  0.5237200E+07  0.9118800E+02  0.7818608E-02  0.1180000E+00
       11   -1    0    0    0    0  0.00000000000E+00  0.00000000000E+00  0.39999999673E+01  0.40000000000E+01  0.51109989000E-03 0.  1.
     -623   -1    0    0    0    0  0.00000000000E+00  0.00000000000E+00  0.12525980253E-10  0.17130000000E+03  0.17130000000E+03 0.  1.
       11    1    1    2    0    0  0.10475242889E-02  0.39342762744E-03  0.54498275277E-02  0.55869430575E-02  0.51109989000E-03 0.  1.
     -623    1    1    2    0    0 -0.18384878691E-02  0.87620023742E-03  0.84154772618E-03  0.17130000001E+03  0.17130000000E+03 0.  1.
      622    1    1    2    0    0  0.79096358020E-03 -0.12696278649E-02  0.39937085921E+01  0.39944130428E+01  0.75000000000E-01 0.  1.
</event>
<event>
 5   0  0.5237200E+07  0.9118800E+02  0.7818608E-02  0.1180000E+00
       11   -1    0    0    0    0  0.00000000000E+00  0.00000000000E+00  0.39999999673E+01  0.40000000000E+01  0.51109989000E-03 0.  1.
     -623   -1    0    0    0    0  0.00000000000E+00  0.00000000000E+00  0.12525980253E-10  0.17130000000E+03  0.17130000000E+03 0. -1.
       11    1    1    2    0    0  0.94017633838E-02 -0.92868699964E-02  0.39322155377E-01  0.41486530774E-01  0.51109989000E-03 0.  1.
     -623    1    1    2    0    0  0.57428155746E-02  0.46327538011E-01  0.30836010857E-02  0.17130000639E+03  0.17130000000E+03 0. -1.
      622    1    1    2    0    0 -0.15144578959E-01 -0.37040668015E-01  0.39575942109E+01  0.39585070807E+01  0.75000000000E-01 0.  1.
</event>
<event>
 5   0  0.5237200E+07  0.9118800E+02  0.7818608E-02  0.1180000E+00
       11   -1    0    0    0    0  0.00000000000E+00  0.00000000000E+00  0.39999999673E+01  0.40000000000E+01  0.51109989000E-03 0.  1.
     -623   -1    0    0    0    0  0.00000000000E+00  0.00000000000E+00  0.12525980253E-10  0.17130000000E+03  0.17130000000E+03 0.  1.
       11    1    1    2    0    0  0.15421285066E-02  0.39479949295E-02  0.44240886277E-01  0.44446395421E-01  0.51109989000E-03 0.  1.
     -623    1    1    2    0    0 -0.98853439346E-02 -0.93304341452E-02  0.92957121929E-03  0.17130000054E+03  0.17130000000E+03 0.  1.
      622    1    1    2    0    0  0.83432154276E-02  0.53824392154E-02  0.39548295097E+01  0.39555530626E+01  0.75000000000E-01 0.  1.
</event>
<event>
 5   0  0.5237200E+07  0.9118800E+02  0.7818608E-02  0.1180000E+00
       11   -1    0    0    0    0  0.00000000000E+00  0.00000000000E+00  0.39999999673E+01  0.40000000000E+01  0.51109989000E-03 0.  1.
     -623   -1    0    0    0    0  0.00000000000E+00  0.00000000000E+00  0.12525980253E-10  0.17130000000E+03  0.17130000000E+03 0.  1.
       11    1    1    2    0    0  0.14182519110E-01  0.18568155049E-01  0.95788818853E+00  0.95817324278E+00  0.51109989000E-03 0.  1.
     -623    1    1    2    0    0 -0.93163332736E-03  0.13855347753E-02  0.13041220502E-02  0.17130000001E+03  0.17130000000E+03 0.  1.
      622    1    1    2    0    0 -0.13250885782E-01 -0.19953689824E-01  0.30408076569E+01  0.30418267443E+01  0.75000000000E-01 0.  1.
</event>
<event>
 5   0  0.5237200E+07  0.9118800E+02  0.7818608E-02  0.1180000E+00
       11   -1    0    0    0    0  0.00000000000E+00  0.00000000000E+00  0.39999999673E+01  0.40000000000E+01  0.51109989000E-03 0. -1.
     -623   -1    0    0    0    0  0.00000000000E+00  0.00000000000E+00  0.12525980253E-10  0.17130000000E+03  0.17130000000E+03 0.  1.
       11    1    1    2    0    0 -0.15266324814E-02  0.83187858424E-02  0.40435461811E-01  0.41313685379E-01  0.51109989000E-03 0. -1.
     -623    1    1    2    0    0 -0.16803984832E-02  0.29189712806E-03  0.15993992956E-02  0.17130000002E+03  0.17130000000E+03 0.  1.
      622    1    1    2    0    0  0.32070309647E-02 -0.86106829705E-02  0.39579651064E+01  0.39586862988E+01  0.75000000000E-01 0. -1.
</event>
<event>
 5   0  0.5237200E+07  0.9118800E+02  0.7818608E-02  0.1180000E+00
       11   -1    0    0    0    0  0.00000000000E+00  0.00000000000E+00  0.39999999673E+01  0.40000000000E+01  0.51109989000E-03 0.  1.
     -623   -1    0    0    0    0  0.00000000000E+00  0.00000000000E+00  0.12525980253E-10  0.17130000000E+03  0.17130000000E+03 0. -1.
       11    1    1    2    0    0 -0.85866502273E-02 -0.72441663761E-02  0.80837005317E-01  0.81615508081E-01  0.51109989000E-03 0.  1.
     -623    1    1    2    0    0  0.22094454721E-02  0.95998074988E-02  0.15024946971E-02  0.17130000029E+03  0.17130000000E+03 0. -1.
      622    1    1    2    0    0  0.63772047552E-02 -0.23556411226E-02  0.39176604673E+01  0.39183842021E+01  0.75000000000E-01 0.  1.
</event>
<event>
 5   0  0.5237200E+07  0.9118800E+02  0.7818608E-02  0.1180000E+00
       11   -1    0    0    0    0  0.00000000000E+00  0.00000000000E+00  0.39999999673E+01  0.40000000000E+01  0.51109989000E-03 0.  1.
     -623   -1    0    0    0    0  0.00000000000E+00  0.00000000000E+00  0.12525980253E-10  0.17130000000E+03  0.17130000000E+03 0.  1.
       11    1    1    2    0    0  0.43820849615E-02 -0.78557336132E-02  0.51825996390E+00  0.51833827432E+00  0.51109989000E-03 0.  1.
     -623    1    1    2    0    0  0.21143129994E-02  0.83104672040E-02  0.89248434363E-03  0.17130000022E+03  0.17130000000E+03 0.  1.
      622    1    1    2    0    0 -0.64963979611E-02 -0.45473359183E-03  0.34808475196E+01  0.34816615092E+01  0.75000000000E-01 0.  1.
</event>
<event>
 5   0  0.5237200E+07  0.9118800E+02  0.7818608E-02  0.1180000E+00
       11   -1    0    0    0    0  0.00000000000E+00  0.00000000000E+00  0.39999999673E+01  0.40000000000E+01  0.51109989000E-03 0.  1.
     -623   -1    0    0    0    0  0.00000000000E+00  0.00000000000E+00  0.12525980253E-10  0.17130000000E+03  0.17130000000E+03 0.  1.
       11    1    1    2    0    0 -0.45430130794E-01 -0.28044434613E-01  0.67621924120E+00  0.67832375050E+00  0.51109989000E-03 0.  1.
     -623    1    1    2    0    0 -0.18266668804E-01  0.37147695193E-01  0.35797567032E-02  0.17130000504E+03  0.17130000000E+03 0.  1.
      622    1    1    2    0    0  0.63696799599E-01 -0.91032605801E-02  0.33202009694E+01  0.33216712102E+01  0.75000000000E-01 0.  1.
</event>
<event>
 5   0  0.5237200E+07  0.9118800E+02  0.7818608E-02  0.1180000E+00
       11   -1    0    0    0    0  0.00000000000E+00  0.00000000000E+00  0.39999999673E+01  0.40000000000E+01  0.51109989000E-03 0. -1.
     -623   -1    0    0    0    0  0.00000000000E+00  0.00000000000E+00  0.12525980253E-10  0.17130000000E+03  0.17130000000E+03 0.  1.
       11    1    1    2    0    0  0.32578489067E-01 -0.15326373192E-01  0.32909445793E+00  0.33105842252E+00  0.51109989000E-03 0. -1.
     -623    1    1    2    0    0 -0.82331582677E-02  0.65717421052E-02  0.28221662114E-02  0.17130000035E+03  0.17130000000E+03 0.  1.
      622    1    1    2    0    0 -0.24345330799E-01  0.87546310871E-02  0.36680833432E+01  0.36689412303E+01  0.75000000000E-01 0. -1.
</event>
<event>
 5   0  0.5237200E+07  0.9118800E+02  0.7818608E-02  0.1180000E+00
       11   -1    0    0    0    0  0.00000000000E+00  0.00000000000E+00  0.39999999673E+01  0.40000000000E+01  0.51109989000E-03 0.  1.
     -623   -1    0    0    0    0  0.00000000000E+00  0.00000000000E+00  0.12525980253E-10  0.17130000000E+03  0.17130000000E+03 0. -1.
       11    1    1    2    0    0  0.63926918577E-02 -0.49715020695E-04  0.11854837646E-01  0.13478404189E-01  0.51109989000E-03 0.  1.
     -623    1    1    2    0    0  0.96934587318E-03  0.35319835345E-02  0.23374739515E-02  0.17130000006E+03  0.17130000000E+03 0. -1.
      622    1    1    2    0    0 -0.73620377309E-02 -0.34822685138E-02  0.39858076558E+01  0.39865215407E+01  0.75000000000E-01 0.  1.
</event>
<event>
 5   0  0.5237200E+07  0.9118800E+02  0.7818608E-02  0.1180000E+00
       11   -1    0    0    0    0  0.00000000000E+00  0.00000000000E+00  0.39999999673E+01  0.40000000000E+01  0.51109989000E-03 0.  1.
     -623   -1    0    0    0    0  0.00000000000E+00  0.00000000000E+00  0.12525980253E-10  0.17130000000E+03  0.17130000000E+03 0. -1.
       11    1    1    2    0    0 -0.63666010524E-03 -0.17849749945E-01  0.19789936880E+00  0.19870440433E+00  0.51109989000E-03 0.  1.
     -623    1    1    2    0    0  0.13729187913E-01  0.16967076766E-01  0.15690059463E-02  0.17130000140E+03  0.17130000000E+03 0. -1.
      622    1    1    2    0    0 -0.13092527808E-01  0.88267317845E-03  0.38005315927E+01  0.38012941981E+01  0.75000000000E-01 0.  1.
</event>
<event>
 5   0  0.5237200E+07  0.9118800E+02  0.7818608E-02  0.1180000E+00
       11   -1    0    0    0    0  0.00000000000E+00  0.00000000000E+00  0.39999999673E+01  0.40000000000E+01  0.51109989000E-03 0.  1.
     -623   -1    0    0    0    0  0.00000000000E+00  0.00000000000E+00  0.12525980253E-10  0.17130000000E+03  0.17130000000E+03 0. -1.
       11    1    1    2    0    0  0.12839833405E-01  0.85964707289E-02  0.25114848418E+00  0.25162389187E+00  0.51109989000E-03 0.  1.
     -623    1    1    2    0    0  0.40856566661E-03 -0.64095941595E-03  0.12576430596E-02  0.17130000001E+03  0.17130000000E+03 0. -1.
      622    1    1    2    0    0 -0.13248399071E-01 -0.79555113129E-02  0.37475938399E+01  0.37483761016E+01  0.75000000000E-01 0.  1.
</event>
<event>
 5   0  0.5237200E+07  0.9118800E+02  0.7818608E-02  0.1180000E+00
       11   -1    0    0    0    0  0.00000000000E+00  0.00000000000E+00  0.39999999673E+01  0.40000000000E+01  0.51109989000E-03 0.  1.
     -623   -1    0    0    0    0  0.00000000000E+00  0.00000000000E+00  0.12525980253E-10  0.17130000000E+03  0.17130000000E+03 0.  1.
       11    1    1    2    0    0  0.14247688133E-02 -0.15703695199E-02  0.81464436263E-02  0.84333737883E-02  0.51109989000E-03 0.  1.
     -623    1    1    2    0    0 -0.29366198151E-04  0.39663806142E-02  0.99258229429E-03  0.17130000005E+03  0.17130000000E+03 0.  1.
      622    1    1    2    0    0 -0.13954026152E-02 -0.23960110941E-02  0.39908609412E+01  0.39915665772E+01  0.75000000000E-01 0.  1.
</event>
<event>
 5   0  0.5237200E+07  0.9118800E+02  0.7818608E-02  0.1180000E+00
       11   -1    0    0    0    0  0.00000000000E+00  0.00000000000E+00  0.39999999673E+01  0.40000000000E+01  0.51109989000E-03 0.  1.
     -623   -1    0    0    0    0  0.00000000000E+00  0.00000000000E+00  0.12525980253E-10  0.17130000000E+03  0.17130000000E+03 0.  1.
       11    1    1    2    0    0  0.75262131830E-02  0.13097847440E-03  0.16478056386E+00  0.16495319484E+00  0.51109989000E-03 0.  1.
     -623    1    1    2    0    0 -0.11819589437E-02  0.90535523163E-03  0.91143386471E-03  0.17130000001E+03  0.17130000000E+03 0.  1.
      622    1    1    2    0    0 -0.63442542393E-02 -0.10363337060E-02  0.38343079696E+01  0.38350467963E+01  0.75000000000E-01 0.  1.
</event>
<event>
 5   0  0.5237200E+07  0.9118800E+02  0.7818608E-02  0.1180000E+00
       11   -1    0    0    0    0  0.00000000000E+00  0.00000000000E+00  0.39999999673E+01  0.40000000000E+01  0.51109989000E-03 0. -1.
     -623   -1    0    0    0    0  0.00000000000E+00  0.00000000000E+00  0.12525980253E-10  0.17130000000E+03  0.17130000000E+03 0.  1.
       11    1    1    2    0    0  0.35346579000E-01 -0.19178224363E-01  0.24704807690E+00  0.25030021666E+00  0.51109989000E-03 0. -1.
     -623    1    1    2    0    0 -0.39147552497E-01  0.34034465446E-01  0.40415087573E-02  0.17130000790E+03  0.17130000000E+03 0.  1.
      622    1    1    2    0    0  0.38009734970E-02 -0.14856241084E-01  0.37489103817E+01  0.37496918814E+01  0.75000000000E-01 0. -1.
</event>
<event>
 5   0  0.5237200E+07  0.9118800E+02  0.7818608E-02  0.1180000E+00
       11   -1    0    0    0    0  0.00000000000E+00  0.00000000000E+00  0.39999999673E+01  0.40000000000E+01  0.51109989000E-03 0. -1.
     -623   -1    0    0    0    0  0.00000000000E+00  0.00000000000E+00  0.12525980253E-10  0.17130000000E+03  0.17130000000E+03 0. -1.
       11    1    1    2    0    0 -0.38056647277E-02 -0.89484515630E-03  0.12494341190E+00  0.12500560481E+00  0.51109989000E-03 0. -1.
     -623    1    1    2    0    0  0.64324392759E-03 -0.61641821950E-03  0.78962532621E-03  0.17130000000E+03  0.17130000000E+03 0. -1.
      622    1    1    2    0    0  0.31624208000E-02  0.15112633759E-02  0.38742669307E+01  0.38749943917E+01  0.75000000000E-01 0. -1.
</event>
<event>
 5   0  0.5237200E+07  0.9118800E+02  0.7818608E-02  0.1180000E+00
       11   -1    0    0    0    0  0.00000000000E+00  0.00000000000E+00  0.39999999673E+01  0.40000000000E+01  0.51109989000E-03 0. -1.
     -623   -1    0    0    0    0  0.00000000000E+00  0.00000000000E+00  0.12525980253E-10  0.17130000000E+03  0.17130000000E+03 0.  1.
       11    1    1    2    0    0  0.11884055873E-01  0.44252778682E-02  0.87297770421E-01  0.88215507773E-01  0.51109989000E-03 0. -1.
     -623    1    1    2    0    0  0.20928077444E-02 -0.47987958352E-02  0.16618324787E-02  0.17130000009E+03  0.17130000000E+03 0.  1.
      622    1    1    2    0    0 -0.13976863617E-01  0.37351796698E-03  0.39110403645E+01  0.39117844042E+01  0.75000000000E-01 0. -1.
</event>
<event>
 5   0  0.5237200E+07  0.9118800E+02  0.7818608E-02  0.1180000E+00
       11   -1    0    0    0    0  0.00000000000E+00  0.00000000000E+00  0.39999999673E+01  0.40000000000E+01  0.51109989000E-03 0.  1.
     -623   -1    0    0    0    0  0.00000000000E+00  0.00000000000E+00  0.12525980253E-10  0.17130000000E+03  0.17130000000E+03 0.  1.
       11    1    1    2    0    0 -0.20224502471E-01 -0.91343479060E-01  0.63289956740E+00  0.63977713722E+00  0.51109989000E-03 0.  1.
     -623    1    1    2    0    0  0.55507288497E-02 -0.52627847687E-01  0.10841711374E-01  0.17130000852E+03  0.17130000000E+03 0.  1.
      622    1    1    2    0    0  0.14673773622E-01  0.14397132675E+00  0.33562586886E+01  0.33602143454E+01  0.75000000000E-01 0.  1.
</event>
<event>
 5   0  0.5237200E+07  0.9118800E+02  0.7818608E-02  0.1180000E+00
       11   -1    0    0    0    0  0.00000000000E+00  0.00000000000E+00  0.39999999673E+01  0.40000000000E+01  0.51109989000E-03 0. -1.
     -623   -1    0    0    0    0  0.00000000000E+00  0.00000000000E+00  0.12525980253E-10  0.17130000000E+03  0.17130000000E+03 0. -1.
       11    1    1    2    0    0 -0.47099369681E-03  0.38602858745E-03  0.33507365381E-02  0.34437639331E-02  0.51109989000E-03 0. -1.
     -623    1    1    2    0    0 -0.95601098758E-04 -0.91998613883E-03  0.79686779195E-03  0.17130000000E+03  0.17130000000E+03 0. -1.
      622    1    1    2    0    0  0.56659479556E-03  0.53395755138E-03  0.39958523630E+01  0.39965562317E+01  0.75000000000E-01 0. -1.
</event>
<event>
 5   0  0.5237200E+07  0.9118800E+02  0.7818608E-02  0.1180000E+00
       11   -1    0    0    0    0  0.00000000000E+00  0.00000000000E+00  0.39999999673E+01  0.40000000000E+01  0.51109989000E-03 0. -1.
     -623   -1    0    0    0    0  0.00000000000E+00  0.00000000000E+00  0.12525980253E-10  0.17130000000E+03  0.17130000000E+03 0. -1.
       11    1    1    2    0    0  0.83384948977E-03  0.14348534897E-03  0.30207479956E-03  0.10336166967E-02  0.51109989000E-03 0. -1.
     -623    1    1    2    0    0 -0.20246376851E-02  0.21915952209E-02  0.14357690541E-02  0.17130000003E+03  0.17130000000E+03 0. -1.
      622    1    1    2    0    0  0.11907881954E-02 -0.23350805698E-02  0.39982621235E+01  0.39989663513E+01  0.75000000000E-01 0. -1.
</event>
<event>
 5   0  0.5237200E+07  0.9118800E+02  0.7818608E-02  0.1180000E+00
       11   -1    0    0    0    0  0.00000000000E+00  0.00000000000E+00  0.39999999673E+01  0.40000000000E+01  0.51109989000E-03 0.  1.
     -623   -1    0    0    0    0  0.00000000000E+00  0.00000000000E+00  0.12525980253E-10  0.17130000000E+03  0.17130000000E+03 0. -1.
       11    1    1    2    0    0 -0.12643012159E-02  0.37620347246E-02  0.18181097470E-03  0.40057007343E-02  0.51109989000E-03 0.  1.
     -623    1    1    2    0    0 -0.31397360547E-02 -0.11316367823E-03  0.45319312707E-02  0.17130000009E+03  0.17130000000E+03 0. -1.
      622    1    1    2    0    0  0.44040372707E-02 -0.36488710464E-02  0.39952862251E+01  0.39959942105E+01  0.75000000000E-01 0.  1.
</event>
<event>
 5   0  0.5237200E+07  0.9118800E+02  0.7818608E-02  0.1180000E+00
       11   -1    0    0    0    0  0.00000000000E+00  0.00000000000E+00  0.39999999673E+01  0.40000000000E+01  0.51109989000E-03 0.  1.
     -623   -1    0    0    0    0  0.00000000000E+00  0.00000000000E+00  0.12525980253E-10  0.17130000000E+03  0.17130000000E+03 0. -1.
       11    1    1    2    0    0 -0.25069031732E-02  0.16629513449E-02  0.28991389389E-02  0.42090616982E-02  0.51109989000E-03 0.  1.
     -623    1    1    2    0    0  0.42875078923E-02  0.21097796791E-02  0.20160744864E-02  0.17130000008E+03  0.17130000000E+03 0. -1.
      622    1    1    2    0    0 -0.17806047191E-02 -0.37727310240E-02  0.39950847539E+01  0.39957908597E+01  0.75000000000E-01 0.  1.
</event>
<event>
 5   0  0.5237200E+07  0.9118800E+02  0.7818608E-02  0.1180000E+00
       11   -1    0    0    0    0  0.00000000000E+00  0.00000000000E+00  0.39999999673E+01  0.40000000000E+01  0.51109989000E-03 0.  1.
     -623   -1    0    0    0    0  0.00000000000E+00  0.00000000000E+00  0.12525980253E-10  0.17130000000E+03  0.17130000000E+03 0.  1.
       11    1    1    2    0    0 -0.16931789909E-02  0.17292357582E-02  0.82989555778E-04  0.24749181699E-02  0.51109989000E-03 0.  1.
     -623    1    1    2    0    0 -0.16146875086E-02 -0.33783247331E-02  0.30972961911E-02  0.17130000007E+03  0.17130000000E+03 0.  1.
      622    1    1    2    0    0  0.33078664995E-02  0.16490889749E-02  0.39968196816E+01  0.39975250129E+01  0.75000000000E-01 0.  1.
</event>
<event>
 5   0  0.5237200E+07  0.9118800E+02  0.7818608E-02  0.1180000E+00
       11   -1    0    0    0    0  0.00000000000E+00  0.00000000000E+00  0.39999999673E+01  0.40000000000E+01  0.51109989000E-03 0.  1.
     -623   -1    0    0    0    0  0.00000000000E+00  0.00000000000E+00  0.12525980253E-10  0.17130000000E+03  0.17130000000E+03 0.  1.
       11    1    1    2    0    0  0.95775541295E-02 -0.19795032664E-02  0.33780737156E+00  0.33794930016E+00  0.51109989000E-03 0.  1.
     -623    1    1    2    0    0  0.14457452023E-02  0.22250191986E-02  0.92661448642E-03  0.17130000002E+03  0.17130000000E+03 0.  1.
      622    1    1    2    0    0 -0.11023299332E-01 -0.24551593220E-03  0.36612659813E+01  0.36620506768E+01  0.75000000000E-01 0. -1.
</event>
<event>
 5   0  0.5237200E+07  0.9118800E+02  0.7818608E-02  0.1180000E+00
       11   -1    0    0    0    0  0.00000000000E+00  0.00000000000E+00  0.39999999673E+01  0.40000000000E+01  0.51109989000E-03 0.  1.
     -623   -1    0    0    0    0  0.00000000000E+00  0.00000000000E+00  0.12525980253E-10  0.17130000000E+03  0.17130000000E+03 0.  1.
       11    1    1    2    0    0  0.10673253859E-03 -0.31610276006E-02  0.31793804349E-01  0.31954822882E-01  0.51109989000E-03 0.  1.
     -623    1    1    2    0    0  0.11212944361E-03  0.94567575076E-03  0.87046592057E-03  0.17130000000E+03  0.17130000000E+03 0.  1.
      622    1    1    2    0    0 -0.21886198219E-03  0.22153518499E-02  0.39673356969E+01  0.39680451720E+01  0.75000000000E-01 0.  1.
</event>
<event>
 5   0  0.5237200E+07  0.9118800E+02  0.7818608E-02  0.1180000E+00
       11   -1    0    0    0    0  0.00000000000E+00  0.00000000000E+00  0.39999999673E+01  0.40000000000E+01  0.51109989000E-03 0. -1.
     -623   -1    0    0    0    0  0.00000000000E+00  0.00000000000E+00  0.12525980253E-10  0.17130000000E+03  0.17130000000E+03 0.  1.
       11    1    1    2    0    0 -0.84717399289E-04  0.79539870336E-03  0.36448399855E-03  0.10168125775E-02  0.51109989000E-03 0.  1.
     -623    1    1    2    0    0 -0.29423422758E-03  0.96918114670E-03  0.13560772839E-02  0.17130000001E+03  0.17130000000E+03 0.  1.
      622    1    1    2    0    0  0.37895162688E-03 -0.17645798501E-02  0.39982794063E+01  0.39989831792E+01  0.75000000000E-01 0. -1.
</event>
<event>
 5   0  0.5237200E+07  0.9118800E+02  0.7818608E-02  0.1180000E+00
       11   -1    0    0    0    0  0.00000000000E+00  0.00000000000E+00  0.39999999673E+01  0.40000000000E+01  0.51109989000E-03 0.  1.
     -623   -1    0    0    0    0  0.00000000000E+00  0.00000000000E+00  0.12525980253E-10  0.17130000000E+03  0.17130000000E+03 0. -1.
       11    1    1    2    0    0  0.81404976468E-02  0.54565421642E-02  0.24704686280E+00  0.24724169389E+00  0.51109989000E-03 0.  1.
     -623    1    1    2    0    0 -0.21419198536E-01 -0.83001885763E-02  0.97044026311E-03  0.17130000154E+03  0.17130000000E+03 0. -1.
      622    1    1    2    0    0  0.13278700888E-01  0.28436464119E-02  0.37519826642E+01  0.37527567630E+01  0.75000000000E-01 0.  1.
</event>
<event>
 5   0  0.5237200E+07  0.9118800E+02  0.7818608E-02  0.1180000E+00
       11   -1    0    0    0    0  0.00000000000E+00  0.00000000000E+00  0.39999999673E+01  0.40000000000E+01  0.51109989000E-03 0. -1.
     -623   -1    0    0    0    0  0.00000000000E+00  0.00000000000E+00  0.12525980253E-10  0.17130000000E+03  0.17130000000E+03 0.  1.
       11    1    1    2    0    0  0.20448413061E-02  0.18643199508E-01  0.25041960123E+00  0.25112146099E+00  0.51109989000E-03 0. -1.
     -623    1    1    2    0    0 -0.15196255494E-01 -0.68527111120E-02  0.14945620698E-02  0.17130000082E+03  0.17130000000E+03 0.  1.
      622    1    1    2    0    0  0.13151414187E-01 -0.11790488396E-01  0.37480858039E+01  0.37488777212E+01  0.75000000000E-01 0. -1.
</event>
<event>
 5   0  0.5237200E+07  0.9118800E+02  0.7818608E-02  0.1180000E+00
       11   -1    0    0    0    0  0.00000000000E+00  0.00000000000E+00  0.39999999673E+01  0.40000000000E+01  0.51109989000E-03 0.  1.
     -623   -1    0    0    0    0  0.00000000000E+00  0.00000000000E+00  0.12525980253E-10  0.17130000000E+03  0.17130000000E+03 0.  1.
       11    1    1    2    0    0 -0.11279897833E-01  0.51476564046E-02  0.73633936936E-01  0.74672299773E-01  0.51109989000E-03 0.  1.
     -623    1    1    2    0    0  0.11635371912E-01 -0.11943892331E-01  0.17616176655E-02  0.17130000082E+03  0.17130000000E+03 0.  1.
      622    1    1    2    0    0 -0.35547407933E-03  0.67962359256E-02  0.39246044126E+01  0.39253268795E+01  0.75000000000E-01 0.  1.
</event>
<event>
 5   0  0.5237200E+07  0.9118800E+02  0.7818608E-02  0.1180000E+00
       11   -1    0    0    0    0  0.00000000000E+00  0.00000000000E+00  0.39999999673E+01  0.40000000000E+01  0.51109989000E-03 0. -1.
     -623   -1    0    0    0    0  0.00000000000E+00  0.00000000000E+00  0.12525980253E-10  0.17130000000E+03  0.17130000000E+03 0. -1.
       11    1    1    2    0    0  0.22858776338E-02 -0.82036502545E-03  0.33761270079E-01  0.33852367915E-01  0.51109989000E-03 0. -1.
     -623    1    1    2    0    0 -0.17075903789E-02  0.36498333657E-03  0.80033408818E-03  0.17130000001E+03  0.17130000000E+03 0. -1.
      622    1    1    2    0    0 -0.57828725489E-03  0.45538168888E-03  0.39654383632E+01  0.39661476213E+01  0.75000000000E-01 0.  0.
</event>
<event>
 5   0  0.5237200E+07  0.9118800E+02  0.7818608E-02  0.1180000E+00
       11   -1    0    0    0    0  0.00000000000E+00  0.00000000000E+00  0.39999999673E+01  0.40000000000E+01  0.51109989000E-03 0.  1.
     -623   -1    0    0    0    0  0.00000000000E+00  0.00000000000E+00  0.12525980253E-10  0.17130000000E+03  0.17130000000E+03 0.  1.
       11    1    1    2    0    0  0.22032915490E-01  0.80463935537E-02  0.15664920608E+00  0.15839642926E+00  0.51109989000E-03 0.  1.
     -623    1    1    2    0    0 -0.16181042319E-01  0.28129631551E-01  0.26572991435E-02  0.17130000309E+03  0.17130000000E+03 0.  1.
      622    1    1    2    0    0 -0.58518731703E-02 -0.36176025106E-01  0.38406934623E+01  0.38416004764E+01  0.75000000000E-01 0.  1.
</event>
<event>
 5   0  0.5237200E+07  0.9118800E+02  0.7818608E-02  0.1180000E+00
       11   -1    0    0    0    0  0.00000000000E+00  0.00000000000E+00  0.39999999673E+01  0.40000000000E+01  0.51109989000E-03 0. -1.
     -623   -1    0    0    0    0  0.00000000000E+00  0.00000000000E+00  0.12525980253E-10  0.17130000000E+03  0.17130000000E+03 0.  1.
       11    1    1    2    0    0 -0.57581730425E-02 -0.78246822619E-02  0.37905275842E-01  0.39133788058E-01  0.51109989000E-03 0. -1.
     -623    1    1    2    0    0  0.77113431712E-02  0.17508433162E-01  0.19520163279E-02  0.17130000108E+03  0.17130000000E+03 0.  1.
      622    1    1    2    0    0 -0.19531701287E-02 -0.96837509002E-02  0.39601426752E+01  0.39608651325E+01  0.75000000000E-01 0. -1.
</event>
<event>
 5   0  0.5237200E+07  0.9118800E+02  0.7818608E-02  0.1180000E+00
       11   -1    0    0    0    0  0.00000000000E+00  0.00000000000E+00  0.39999999673E+01  0.40000000000E+01  0.51109989000E-03 0.  1.
     -623   -1    0    0    0    0  0.00000000000E+00  0.00000000000E+00  0.12525980253E-10  0.17130000000E+03  0.17130000000E+03 0. -1.
       11    1    1    2    0    0  0.61375409699E-01 -0.13600666721E-01  0.38726397351E+00  0.39233348755E+00  0.51109989000E-03 0.  1.
     -623    1    1    2    0    0 -0.19999982349E-01 -0.60288702085E-01  0.68553611616E-02  0.17130001191E+03  0.17130000000E+03 0. -1.
      622    1    1    2    0    0 -0.41375427350E-01  0.73889368806E-01  0.36058806327E+01  0.36076545985E+01  0.75000000000E-01 0.  1.
</event>
<event>
 5   0  0.5237200E+07  0.9118800E+02  0.7818608E-02  0.1180000E+00
       11   -1    0    0    0    0  0.00000000000E+00  0.00000000000E+00  0.39999999673E+01  0.40000000000E+01  0.51109989000E-03 0.  1.
     -623   -1    0    0    0    0  0.00000000000E+00  0.00000000000E+00  0.12525980253E-10  0.17130000000E+03  0.17130000000E+03 0.  1.
       11    1    1    2    0    0  0.26928189541E-01 -0.11687462127E-01  0.55692936589E+00  0.55770270214E+00  0.51109989000E-03 0.  1.
     -623    1    1    2    0    0 -0.78259493633E-02  0.11503006929E-01  0.16440348825E-02  0.17130000057E+03  0.17130000000E+03 0.  1.
      622    1    1    2    0    0 -0.19102240178E-01  0.18445519711E-03  0.34414265666E+01  0.34422967250E+01  0.75000000000E-01 0.  1.
</event>
<event>
 5   0  0.5237200E+07  0.9118800E+02  0.7818608E-02  0.1180000E+00
       11   -1    0    0    0    0  0.00000000000E+00  0.00000000000E+00  0.39999999673E+01  0.40000000000E+01  0.51109989000E-03 0. -1.
     -623   -1    0    0    0    0  0.00000000000E+00  0.00000000000E+00  0.12525980253E-10  0.17130000000E+03  0.17130000000E+03 0. -1.
       11    1    1    2    0    0  0.38684767764E-04  0.29382721132E-02  0.11175218418E-01  0.11566402494E-01  0.51109989000E-03 0. -1.
     -623    1    1    2    0    0 -0.31848029704E-02 -0.12073887823E-02  0.10980319360E-02  0.17130000004E+03  0.17130000000E+03 0. -1.
      622    1    1    2    0    0  0.31461182026E-02 -0.17308833309E-02  0.39877267170E+01  0.39884335601E+01  0.75000000000E-01 0. -1.
</event>
<event>
 5   0  0.5237200E+07  0.9118800E+02  0.7818608E-02  0.1180000E+00
       11   -1    0    0    0    0  0.00000000000E+00  0.00000000000E+00  0.39999999673E+01  0.40000000000E+01  0.51109989000E-03 0.  1.
     -623   -1    0    0    0    0  0.00000000000E+00  0.00000000000E+00  0.12525980253E-10  0.17130000000E+03  0.17130000000E+03 0.  1.
       11    1    1    2    0    0  0.10350176574E-01  0.64819315438E-02  0.16027893236E-01  0.20156789832E-01  0.51109989000E-03 0.  1.
     -623    1    1    2    0    0  0.28116077288E-01 -0.19066292841E-01  0.50448876278E-02  0.17130000344E+03  0.17130000000E+03 0.  1.
      622    1    1    2    0    0 -0.38466253863E-01  0.12584361297E-01  0.39789271865E+01  0.39798397675E+01  0.75000000000E-01 0.  1.
</event>
<event>
 5   0  0.5237200E+07  0.9118800E+02  0.7818608E-02  0.1180000E+00
       11   -1    0    0    0    0  0.00000000000E+00  0.00000000000E+00  0.39999999673E+01  0.40000000000E+01  0.51109989000E-03 0. -1.
     -623   -1    0    0    0    0  0.00000000000E+00  0.00000000000E+00  0.12525980253E-10  0.17130000000E+03  0.17130000000E+03 0.  1.
       11    1    1    2    0    0 -0.60325919540E-02 -0.34845486724E-03  0.80299268695E-01  0.80527929066E-01  0.51109989000E-03 0. -1.
     -623    1    1    2    0    0  0.37200606590E-03 -0.31649535714E-02  0.95196016909E-03  0.17130000003E+03  0.17130000000E+03 0.  1.
      622    1    1    2    0    0  0.56605858881E-02  0.35134084386E-02  0.39187487385E+01  0.39194720386E+01  0.75000000000E-01 0. -1.
</event>
<event>
 5   0  0.5237200E+07  0.9118800E+02  0.7818608E-02  0.1180000E+00
       11   -1    0    0    0    0  0.00000000000E+00  0.00000000000E+00  0.39999999673E+01  0.40000000000E+01  0.51109989000E-03 0.  1.
     -623   -1    0    0    0    0  0.00000000000E+00  0.00000000000E+00  0.12525980253E-10  0.17130000000E+03  0.17130000000E+03 0.  1.
       11    1    1    2    0    0  0.58249780583E-02 -0.12102487657E-01  0.42079956166E+00  0.42101417184E+00  0.51109989000E-03 0.  1.
     -623    1    1    2    0    0  0.15017055917E-01  0.73736621419E-02  0.10651462851E-02  0.17130000082E+03  0.17130000000E+03 0.  1.
      622    1    1    2    0    0 -0.20842033976E-01  0.47288255148E-02  0.35781352594E+01  0.35789850079E+01  0.75000000000E-01 0.  1.
</event>
<event>
 5   0  0.5237200E+07  0.9118800E+02  0.7818608E-02  0.1180000E+00
       11   -1    0    0    0    0  0.00000000000E+00  0.00000000000E+00  0.39999999673E+01  0.40000000000E+01  0.51109989000E-03 0. -1.
     -623   -1    0    0    0    0  0.00000000000E+00  0.00000000000E+00  0.12525980253E-10  0.17130000000E+03  0.17130000000E+03 0. -1.
       11    1    1    2    0    0  0.19162869637E-02  0.39061149175E-02  0.65726954644E-01  0.65872784057E-01  0.51109989000E-03 0. -1.
     -623    1    1    2    0    0  0.35325891463E-02 -0.46217638153E-02  0.86470000859E-03  0.17130000010E+03  0.17130000000E+03 0. -1.
      622    1    1    2    0    0 -0.54488761101E-02  0.71564889795E-03  0.39334083128E+01  0.39341271151E+01  0.75000000000E-01 0. -1.
</event>
<event>
 5   0  0.5237200E+07  0.9118800E+02  0.7818608E-02  0.1180000E+00
       11   -1    0    0    0    0  0.00000000000E+00  0.00000000000E+00  0.39999999673E+01  0.40000000000E+01  0.51109989000E-03 0.  1.
     -623   -1    0    0    0    0  0.00000000000E+00  0.00000000000E+00  0.12525980253E-10  0.17130000000E+03  0.17130000000E+03 0.  1.
       11    1    1    2    0    0 -0.55365003962E-02  0.17041169737E-02  0.25856975979E+00  0.25863514602E+00  0.51109989000E-03 0.  1.
     -623    1    1    2    0    0 -0.11568136470E-02 -0.20208911850E-02  0.82317974158E-03  0.17130000002E+03  0.17130000000E+03 0.  1.
      622    1    1    2    0    0  0.66933140434E-02  0.31677421155E-03  0.37406070284E+01  0.37413648367E+01  0.75000000000E-01 0.  0.
</event>
<event>
 5   0  0.5237200E+07  0.9118800E+02  0.7818608E-02  0.1180000E+00
       11   -1    0    0    0    0  0.00000000000E+00  0.00000000000E+00  0.39999999673E+01  0.40000000000E+01  0.51109989000E-03 0.  1.
     -623   -1    0    0    0    0  0.00000000000E+00  0.00000000000E+00  0.12525980253E-10  0.17130000000E+03  0.17130000000E+03 0. -1.
       11    1    1    2    0    0  0.14880682623E-01  0.93026457241E-02  0.12581831818E+00  0.12703733445E+00  0.51109989000E-03 0.  1.
     -623    1    1    2    0    0 -0.27393656561E-01  0.19224876519E-02  0.19839409258E-02  0.17130000221E+03  0.17130000000E+03 0. -1.
      622    1    1    2    0    0  0.12512973939E-01 -0.11225133376E-01  0.38721977082E+01  0.38729604529E+01  0.75000000000E-01 0.  1.
</event>
<event>
 5   0  0.5237200E+07  0.9118800E+02  0.7818608E-02  0.1180000E+00
       11   -1    0    0    0    0  0.00000000000E+00  0.00000000000E+00  0.39999999673E+01  0.40000000000E+01  0.51109989000E-03 0. -1.
     -623   -1    0    0    0    0  0.00000000000E+00  0.00000000000E+00  0.12525980253E-10  0.17130000000E+03  0.17130000000E+03 0. -1.
       11    1    1    2    0    0 -0.15292535234E-02  0.25062992817E-02  0.44843176478E-01  0.44942094434E-01  0.51109989000E-03 0. -1.
     -623    1    1    2    0    0  0.10036853257E-02 -0.21271285136E-02  0.81013517436E-03  0.17130000002E+03  0.17130000000E+03 0. -1.
      622    1    1    2    0    0  0.52556819752E-03 -0.37917076778E-03  0.39543466564E+01  0.39550578882E+01  0.75000000000E-01 0. -1.
</event>
<event>
 5   0  0.5237200E+07  0.9118800E+02  0.7818608E-02  0.1180000E+00
       11   -1    0    0    0    0  0.00000000000E+00  0.00000000000E+00  0.39999999673E+01  0.40000000000E+01  0.51109989000E-03 0.  1.
     -623   -1    0    0    0    0  0.00000000000E+00  0.00000000000E+00  0.12525980253E-10  0.17130000000E+03  0.17130000000E+03 0.  1.
       11    1    1    2    0    0  0.32898712582E-02 -0.30628275201E-03  0.60869031008E-02  0.69446867803E-02  0.51109989000E-03 0.  1.
     -623    1    1    2    0    0 -0.38690003882E-02 -0.17981332352E-02  0.15628179458E-02  0.17130000006E+03  0.17130000000E+03 0.  1.
      622    1    1    2    0    0  0.57912913008E-03  0.21044159872E-02  0.39923502464E+01  0.39930552531E+01  0.75000000000E-01 0.  1.
</event>
<event>
 5   0  0.5237200E+07  0.9118800E+02  0.7818608E-02  0.1180000E+00
       11   -1    0    0    0    0  0.00000000000E+00  0.00000000000E+00  0.39999999673E+01  0.40000000000E+01  0.51109989000E-03 0. -1.
     -623   -1    0    0    0    0  0.00000000000E+00  0.00000000000E+00  0.12525980253E-10  0.17130000000E+03  0.17130000000E+03 0.  1.
       11    1    1    2    0    0 -0.96802818550E-02 -0.43940707337E-02  0.95554469782E-01  0.96145377595E-01  0.51109989000E-03 0. -1.
     -623    1    1    2    0    0  0.33983912922E-02 -0.64940941602E-02  0.13317874918E-02  0.17130000016E+03  0.17130000000E+03 0.  1.
      622    1    1    2    0    0  0.62818905629E-02  0.10888164894E-01  0.39031137100E+01  0.39038544604E+01  0.75000000000E-01 0. -1.
</event>
<event>
 5   0  0.5237200E+07  0.9118800E+02  0.7818608E-02  0.1180000E+00
       11   -1    0    0    0    0  0.00000000000E+00  0.00000000000E+00  0.39999999673E+01  0.40000000000E+01  0.51109989000E-03 0. -1.
     -623   -1    0    0    0    0  0.00000000000E+00  0.00000000000E+00  0.12525980253E-10  0.17130000000E+03  0.17130000000E+03 0.  1.
       11    1    1    2    0    0 -0.13619478897E-01 -0.18077483536E-02  0.43130119500E+00  0.43152026626E+00  0.51109989000E-03 0. -1.
     -623    1    1    2    0    0  0.18577540359E-02 -0.29025762378E-02  0.10298113562E-02  0.17130000004E+03  0.17130000000E+03 0.  1.
      622    1    1    2    0    0  0.11761724861E-01  0.47103245915E-02  0.35676689610E+01  0.35684796960E+01  0.75000000000E-01 0. -1.
</event>
<event>
 5   0  0.5237200E+07  0.9118800E+02  0.7818608E-02  0.1180000E+00
       11   -1    0    0    0    0  0.00000000000E+00  0.00000000000E+00  0.39999999673E+01  0.40000000000E+01  0.51109989000E-03 0.  1.
     -623   -1    0    0    0    0  0.00000000000E+00  0.00000000000E+00  0.12525980253E-10  0.17130000000E+03  0.17130000000E+03 0.  1.
       11    1    1    2    0    0 -0.11386757352E-01 -0.13358260062E-02  0.68097270050E-01  0.69057527346E-01  0.51109989000E-03 0.  1.
     -623    1    1    2    0    0 -0.34279903759E-02 -0.58411526161E-02  0.17103842291E-02  0.17130000014E+03  0.17130000000E+03 0.  1.
      622    1    1    2    0    0  0.14814747727E-01  0.71769786222E-02  0.39301923131E+01  0.39309423302E+01  0.75000000000E-01 0.  1.
</event>
<event>
 5   0  0.5237200E+07  0.9118800E+02  0.7818608E-02  0.1180000E+00
       11   -1    0    0    0    0  0.00000000000E+00  0.00000000000E+00  0.39999999673E+01  0.40000000000E+01  0.51109989000E-03 0. -1.
     -623   -1    0    0    0    0  0.00000000000E+00  0.00000000000E+00  0.12525980253E-10  0.17130000000E+03  0.17130000000E+03 0.  1.
       11    1    1    2    0    0 -0.65382683585E-02  0.76587476248E-02  0.11995234153E+00  0.12037537468E+00  0.51109989000E-03 0. -1.
     -623    1    1    2    0    0 -0.63667320616E-02 -0.51122734998E-02  0.11705114041E-02  0.17130000020E+03  0.17130000000E+03 0.  1.
      622    1    1    2    0    0  0.12905000420E-01 -0.25464741250E-02  0.38788771144E+01  0.38796244267E+01  0.75000000000E-01 0. -1.
</event>
<event>
 5   0  0.5237200E+07  0.9118800E+02  0.7818608E-02  0.1180000E+00
       11   -1    0    0    0    0  0.00000000000E+00  0.00000000000E+00  0.39999999673E+01  0.40000000000E+01  0.51109989000E-03 0.  1.
     -623   -1    0    0    0    0  0.00000000000E+00  0.00000000000E+00  0.12525980253E-10  0.17130000000E+03  0.17130000000E+03 0. -1.
       11    1    1    2    0    0  0.18399588663E-01  0.32282753880E-01  0.11639918322E+01  0.11645848908E+01  0.51109989000E-03 0.  1.
     -623    1    1    2    0    0 -0.12867308795E-01  0.38129842819E-02  0.18208976280E-02  0.17130000054E+03  0.17130000000E+03 0. -1.
      622    1    1    2    0    0 -0.55322798681E-02 -0.36095738162E-01  0.28341872376E+01  0.28354145740E+01  0.75000000000E-01 0.  1.
</event>
<event>
 5   0  0.5237200E+07  0.9118800E+02  0.7818608E-02  0.1180000E+00
       11   -1    0    0    0    0  0.00000000000E+00  0.00000000000E+00  0.39999999673E+01  0.40000000000E+01  0.51109989000E-03 0.  1.
     -623   -1    0    0    0    0  0.00000000000E+00  0.00000000000E+00  0.12525980253E-10  0.17130000000E+03  0.17130000000E+03 0.  1.
       11    1    1    2    0    0 -0.40450639736E-02 -0.11205750343E-01  0.74161234028E-01  0.75113788607E-01  0.51109989000E-03 0.  1.
     -623    1    1    2    0    0  0.69430173480E-02  0.61687444725E-02  0.16737314190E-02  0.17130000026E+03  0.17130000000E+03 0.  1.
      622    1    1    2    0    0 -0.28979533743E-02  0.50370058702E-02  0.39241650019E+01  0.39248859514E+01  0.75000000000E-01 0.  1.
</event>
<event>
 5   0  0.5237200E+07  0.9118800E+02  0.7818608E-02  0.1180000E+00
       11   -1    0    0    0    0  0.00000000000E+00  0.00000000000E+00  0.39999999673E+01  0.40000000000E+01  0.51109989000E-03 0.  1.
     -623   -1    0    0    0    0  0.00000000000E+00  0.00000000000E+00  0.12525980253E-10  0.17130000000E+03  0.17130000000E+03 0.  1.
       11    1    1    2    0    0 -0.14726721547E-01 -0.74771087494E-03  0.16179168972E+00  0.16246306498E+00  0.51109989000E-03 0.  1.
     -623    1    1    2    0    0  0.34208993183E-01 -0.55436993909E-03  0.14574123565E-02  0.17130000342E+03  0.17130000000E+03 0.  1.
      622    1    1    2    0    0 -0.19482271638E-01  0.13020808140E-02  0.38367508654E+01  0.38375335122E+01  0.75000000000E-01 0.  1.
</event>
<event>
 5   0  0.5237200E+07  0.9118800E+02  0.7818608E-02  0.1180000E+00
       11   -1    0    0    0    0  0.00000000000E+00  0.00000000000E+00  0.39999999673E+01  0.40000000000E+01  0.51109989000E-03 0. -1.
     -623   -1    0    0    0    0  0.00000000000E+00  0.00000000000E+00  0.12525980253E-10  0.17130000000E+03  0.17130000000E+03 0. -1.
       11    1    1    2    0    0 -0.87381192713E-02  0.43854869350E-02  0.10523898317E+00  0.10569338686E+00  0.51109989000E-03 0. -1.
     -623    1    1    2    0    0  0.11007147193E-01  0.39074192054E-02  0.11865412267E-02  0.17130000040E+03  0.17130000000E+03 0. -1.
      622    1    1    2    0    0 -0.22690279223E-02 -0.82929061406E-02  0.38935744432E+01  0.38943062110E+01  0.75000000000E-01 0. -1.
</event>
<event>
 5   0  0.5237200E+07  0.9118800E+02  0.7818608E-02  0.1180000E+00
       11   -1    0    0    0    0  0.00000000000E+00  0.00000000000E+00  0.39999999673E+01  0.40000000000E+01  0.51109989000E-03 0. -1.
     -623   -1    0    0    0    0  0.00000000000E+00  0.00000000000E+00  0.12525980253E-10  0.17130000000E+03  0.17130000000E+03 0.  1.
       11    1    1    2    0    0  0.49756740805E-02  0.50288208159E-02  0.48689369840E-01  0.49203275601E-01  0.51109989000E-03 0. -1.
     -623    1    1    2    0    0 -0.13803329336E-02 -0.13101025815E-02  0.12292206618E-02  0.17130000001E+03  0.17130000000E+03 0.  1.
      622    1    1    2    0    0 -0.35953411468E-02 -0.37187182344E-02  0.39500813769E+01  0.39507967095E+01  0.75000000000E-01 0. -1.
</event>
<event>
 5   0  0.5237200E+07  0.9118800E+02  0.7818608E-02  0.1180000E+00
       11   -1    0    0    0    0  0.00000000000E+00  0.00000000000E+00  0.39999999673E+01  0.40000000000E+01  0.51109989000E-03 0. -1.
     -623   -1    0    0    0    0  0.00000000000E+00  0.00000000000E+00  0.12525980253E-10  0.17130000000E+03  0.17130000000E+03 0.  1.
       11    1    1    2    0    0 -0.33063213663E-02  0.11254234745E-01  0.23279166566E+00  0.23308755948E+00  0.51109989000E-03 0. -1.
     -623    1    1    2    0    0  0.86548758611E-03  0.25064715567E-02  0.10685220122E-02  0.17130000002E+03  0.17130000000E+03 0.  1.
      622    1    1    2    0    0  0.24408337802E-02 -0.13760706302E-01  0.37661397797E+01  0.37669124167E+01  0.75000000000E-01 0. -1.
</event>
<event>
 5   0  0.5237200E+07  0.9118800E+02  0.7818608E-02  0.1180000E+00
       11   -1    0    0    0    0  0.00000000000E+00  0.00000000000E+00  0.39999999673E+01  0.40000000000E+01  0.51109989000E-03 0.  1.
     -623   -1    0    0    0    0  0.00000000000E+00  0.00000000000E+00  0.12525980253E-10  0.17130000000E+03  0.17130000000E+03 0. -1.
       11    1    1    2    0    0  0.11827056174E-01 -0.15870833621E-02  0.43169089277E-01  0.44790954260E-01  0.51109989000E-03 0.  1.
     -623    1    1    2    0    0 -0.11932566787E-01  0.13303458539E-01  0.23512904164E-02  0.17130000095E+03  0.17130000000E+03 0. -1.
      622    1    1    2    0    0  0.10551061278E-03 -0.11716375177E-01  0.39544795876E+01  0.39552080974E+01  0.75000000000E-01 0.  1.
</event>
<event>
 5   0  0.5237200E+07  0.9118800E+02  0.7818608E-02  0.1180000E+00
       11   -1    0    0    0    0  0.00000000000E+00  0.00000000000E+00  0.39999999673E+01  0.40000000000E+01  0.51109989000E-03 0.  1.
     -623   -1    0    0    0    0  0.00000000000E+00  0.00000000000E+00  0.12525980253E-10  0.17130000000E+03  0.17130000000E+03 0.  1.
       11    1    1    2    0    0 -0.22851325534E-02  0.32708344462E-01  0.47113428969E+00  0.47227411296E+00  0.51109989000E-03 0.  1.
     -623    1    1    2    0    0 -0.83286099995E-02  0.35804431931E-02  0.21400547133E-02  0.17130000025E+03  0.17130000000E+03 0.  1.
      622    1    1    2    0    0  0.10613742553E-01 -0.36288787655E-01  0.35267256230E+01  0.35277256338E+01  0.75000000000E-01 0.  1.
</event>
<event>
 5   0  0.5237200E+07  0.9118800E+02  0.7818608E-02  0.1180000E+00
       11   -1    0    0    0    0  0.00000000000E+00  0.00000000000E+00  0.39999999673E+01  0.40000000000E+01  0.51109989000E-03 0.  1.
     -623   -1    0    0    0    0  0.00000000000E+00  0.00000000000E+00  0.12525980253E-10  0.17130000000E+03  0.17130000000E+03 0. -1.
       11    1    1    2    0    0 -0.12232690809E-02  0.41704249039E-02  0.13076000199E-01  0.13788830092E-01  0.51109989000E-03 0.  1.
     -623    1    1    2    0    0 -0.21082325465E-02 -0.22663637263E-02  0.14202980059E-02  0.17130000003E+03  0.17130000000E+03 0. -1.
      622    1    1    2    0    0  0.33315016274E-02 -0.19040611775E-02  0.39855036692E+01  0.39862111361E+01  0.75000000000E-01 0.  1.
</event>
<event>
 5   0  0.5237200E+07  0.9118800E+02  0.7818608E-02  0.1180000E+00
       11   -1    0    0    0    0  0.00000000000E+00  0.00000000000E+00  0.39999999673E+01  0.40000000000E+01  0.51109989000E-03 0.  1.
     -623   -1    0    0    0    0  0.00000000000E+00  0.00000000000E+00  0.12525980253E-10  0.17130000000E+03  0.17130000000E+03 0. -1.
       11    1    1    2    0    0  0.75020401480E-01  0.13130807616E+00  0.10354029946E+01  0.10463887872E+01  0.51109989000E-03 0.  1.
     -623    1    1    2    0    0 -0.32119359476E-01 -0.13092032377E-01  0.14621678917E-01  0.17130000414E+03  0.17130000000E+03 0. -1.
      622    1    1    2    0    0 -0.42901042004E-01 -0.11821604379E+00  0.29499752939E+01  0.29536070773E+01  0.75000000000E-01 0.  1.
</event>
<event>
 5   0  0.5237200E+07  0.9118800E+02  0.7818608E-02  0.1180000E+00
       11   -1    0    0    0    0  0.00000000000E+00  0.00000000000E+00  0.39999999673E+01  0.40000000000E+01  0.51109989000E-03 0. -1.
     -623   -1    0    0    0    0  0.00000000000E+00  0.00000000000E+00  0.12525980253E-10  0.17130000000E+03  0.17130000000E+03 0.  1.
       11    1    1    2    0    0 -0.15847056431E-02 -0.51775805351E-02  0.14883493037E+00  0.14893426857E+00  0.51109989000E-03 0. -1.
     -623    1    1    2    0    0  0.65226536548E-02  0.74482206365E-02  0.83381624823E-03  0.17130000029E+03  0.17130000000E+03 0.  1.
      622    1    1    2    0    0 -0.49379480118E-02 -0.22706401014E-02  0.38503312207E+01  0.38510654433E+01  0.75000000000E-01 0. -1.
</event>
<event>
 5   0  0.5237200E+07  0.9118800E+02  0.7818608E-02  0.1180000E+00
       11   -1    0    0    0    0  0.00000000000E+00  0.00000000000E+00  0.39999999673E+01  0.40000000000E+01  0.51109989000E-03 0. -1.
     -623   -1    0    0    0    0  0.00000000000E+00  0.00000000000E+00  0.12525980253E-10  0.17130000000E+03  0.17130000000E+03 0. -1.
       11    1    1    2    0    0  0.82520525451E-02  0.68842360930E-02  0.69775845439E-01  0.70600417180E-01  0.51109989000E-03 0. -1.
     -623    1    1    2    0    0 -0.13410783257E-01  0.13304117206E-01  0.15966700952E-02  0.17130000105E+03  0.17130000000E+03 0. -1.
      622    1    1    2    0    0  0.51587307119E-02 -0.20188353299E-01  0.39286274518E+01  0.39293985338E+01  0.75000000000E-01 0. -1.
</event>
<event>
 5   0  0.5237200E+07  0.9118800E+02  0.7818608E-02  0.1180000E+00
       11   -1    0    0    0    0  0.00000000000E+00  0.00000000000E+00  0.39999999673E+01  0.40000000000E+01  0.51109989000E-03 0.  1.
     -623   -1    0    0    0    0  0.00000000000E+00  0.00000000000E+00  0.12525980253E-10  0.17130000000E+03  0.17130000000E+03 0.  1.
       11    1    1    2    0    0  0.56953347608E-02 -0.13517930599E-01  0.86740163163E-01  0.87973225554E-01  0.51109989000E-03 0.  1.
     -623    1    1    2    0    0 -0.75328952069E-02  0.30926644834E-01  0.19941759845E-02  0.17130000297E+03  0.17130000000E+03 0.  1.
      622    1    1    2    0    0  0.18375604463E-02 -0.17408714236E-01  0.39112656283E+01  0.39120238055E+01  0.75000000000E-01 0.  1.
</event>
<event>
 5   0  0.5237200E+07  0.9118800E+02  0.7818608E-02  0.1180000E+00
       11   -1    0    0    0    0  0.00000000000E+00  0.00000000000E+00  0.39999999673E+01  0.40000000000E+01  0.51109989000E-03 0. -1.
     -623   -1    0    0    0    0  0.00000000000E+00  0.00000000000E+00  0.12525980253E-10  0.17130000000E+03  0.17130000000E+03 0. -1.
       11    1    1    2    0    0 -0.90298494647E-02  0.56661461448E-02  0.80626954541E-01  0.81330255213E-01  0.51109989000E-03 0. -1.
     -623    1    1    2    0    0  0.51727444058E-03  0.15345427835E-02  0.14369301820E-02  0.17130000001E+03  0.17130000000E+03 0. -1.
      622    1    1    2    0    0  0.85125750241E-02 -0.72006889283E-02  0.39179360826E+01  0.39186697311E+01  0.75000000000E-01 0. -1.
</event>
<event>
 5   0  0.5237200E+07  0.9118800E+02  0.7818608E-02  0.1180000E+00
       11   -1    0    0    0    0  0.00000000000E+00  0.00000000000E+00  0.39999999673E+01  0.40000000000E+01  0.51109989000E-03 0.  1.
     -623   -1    0    0    0    0  0.00000000000E+00  0.00000000000E+00  0.12525980253E-10  0.17130000000E+03  0.17130000000E+03 0. -1.
       11    1    1    2    0    0 -0.71328202088E-02 -0.19994622352E-02  0.10572291482E-01  0.12919347647E-01  0.51109989000E-03 0.  1.
     -623    1    1    2    0    0 -0.30053498056E-02  0.95242798321E-03  0.30655749751E-02  0.17130000006E+03  0.17130000000E+03 0. -1.
      622    1    1    2    0    0  0.10138170014E-01  0.10470342520E-02  0.39863621009E+01  0.39870805959E+01  0.75000000000E-01 0.  1.
</event>
<event>
 5   0  0.5237200E+07  0.9118800E+02  0.7818608E-02  0.1180000E+00
       11   -1    0    0    0    0  0.00000000000E+00  0.00000000000E+00  0.39999999673E+01  0.40000000000E+01  0.51109989000E-03 0. -1.
     -623   -1    0    0    0    0  0.00000000000E+00  0.00000000000E+00  0.12525980253E-10  0.17130000000E+03  0.17130000000E+03 0. -1.
       11    1    1    2    0    0  0.72487699890E-02 -0.44772495851E-02  0.15112781053E+00  0.15136864527E+00  0.51109989000E-03 0. -1.
     -623    1    1    2    0    0  0.16981177980E-03 -0.26955353987E-02  0.98551157255E-03  0.17130000002E+03  0.17130000000E+03 0. -1.
      622    1    1    2    0    0 -0.74185817688E-02  0.71727849841E-02  0.38478866458E+01  0.38486313311E+01  0.75000000000E-01 0. -1.
</event>
<event>
 5   0  0.5237200E+07  0.9118800E+02  0.7818608E-02  0.1180000E+00
       11   -1    0    0    0    0  0.00000000000E+00  0.00000000000E+00  0.39999999673E+01  0.40000000000E+01  0.51109989000E-03 0.  1.
     -623   -1    0    0    0    0  0.00000000000E+00  0.00000000000E+00  0.12525980253E-10  0.17130000000E+03  0.17130000000E+03 0. -1.
       11    1    1    2    0    0  0.10710230869E-02  0.10287466346E-01  0.18516119055E-02  0.10519921293E-01  0.51109989000E-03 0.  1.
     -623    1    1    2    0    0 -0.17531922265E-01 -0.46527809156E-02  0.94124828272E-02  0.17130000122E+03  0.17130000000E+03 0. -1.
      622    1    1    2    0    0  0.16460899178E-01 -0.56346854301E-02  0.39887358727E+01  0.39894788598E+01  0.75000000000E-01 0.  1.
</event>
<event>
 5   0  0.5237200E+07  0.9118800E+02  0.7818608E-02  0.1180000E+00
       11   -1    0    0    0    0  0.00000000000E+00  0.00000000000E+00  0.39999999673E+01  0.40000000000E+01  0.51109989000E-03 0. -1.
     -623   -1    0    0    0    0  0.00000000000E+00  0.00000000000E+00  0.12525980253E-10  0.17130000000E+03  0.17130000000E+03 0. -1.
       11    1    1    2    0    0  0.69870411295E-03 -0.36460892846E-02  0.36218728440E-01  0.36412081339E-01  0.51109989000E-03 0. -1.
     -623    1    1    2    0    0 -0.12529072086E-02  0.11407438343E-02  0.90380961058E-03  0.17130000001E+03  0.17130000000E+03 0. -1.
      622    1    1    2    0    0  0.55420309570E-03  0.25053454502E-02  0.39628774296E+01  0.39635879082E+01  0.75000000000E-01 0. -1.
</event>
<event>
 5   0  0.5237200E+07  0.9118800E+02  0.7818608E-02  0.1180000E+00
       11   -1    0    0    0    0  0.00000000000E+00  0.00000000000E+00  0.39999999673E+01  0.40000000000E+01  0.51109989000E-03 0. -1.
     -623   -1    0    0    0    0  0.00000000000E+00  0.00000000000E+00  0.12525980253E-10  0.17130000000E+03  0.17130000000E+03 0.  1.
       11    1    1    2    0    0 -0.72584015039E-02  0.80744259825E-03  0.13809015898E+00  0.13828409013E+00  0.51109989000E-03 0. -1.
     -623    1    1    2    0    0  0.57711859097E-02  0.33045030198E-02  0.92487804091E-03  0.17130000013E+03  0.17130000000E+03 0.  1.
      622    1    1    2    0    0  0.14872155942E-02 -0.41119456180E-02  0.38609849303E+01  0.38617157783E+01  0.75000000000E-01 0. -1.
</event>
<event>
 5   0  0.5237200E+07  0.9118800E+02  0.7818608E-02  0.1180000E+00
       11   -1    0    0    0    0  0.00000000000E+00  0.00000000000E+00  0.39999999673E+01  0.40000000000E+01  0.51109989000E-03 0.  1.
     -623   -1    0    0    0    0  0.00000000000E+00  0.00000000000E+00  0.12525980253E-10  0.17130000000E+03  0.17130000000E+03 0.  1.
       11    1    1    2    0    0 -0.10334169461E-03  0.13177555290E-01  0.66863170420E+00  0.66876174810E+00  0.51109989000E-03 0.  1.
     -623    1    1    2    0    0 -0.13432690026E-02 -0.13587027574E-02  0.99569801560E-03  0.17130000001E+03  0.17130000000E+03 0.  1.
      622    1    1    2    0    0  0.14466106972E-02 -0.11818852533E-01  0.33303725649E+01  0.33312382381E+01  0.75000000000E-01 0.  1.
</event>
<event>
 5   0  0.5237200E+07  0.9118800E+02  0.7818608E-02  0.1180000E+00
       11   -1    0    0    0    0  0.00000000000E+00  0.00000000000E+00  0.39999999673E+01  0.40000000000E+01  0.51109989000E-03 0.  1.
     -623   -1    0    0    0    0  0.00000000000E+00  0.00000000000E+00  0.12525980253E-10  0.17130000000E+03  0.17130000000E+03 0.  1.
       11    1    1    2    0    0  0.95742567701E-03  0.14377885739E-01  0.39837426181E+00  0.39863511380E+00  0.51109989000E-03 0.  1.
     -623    1    1    2    0    0  0.45461561356E-02 -0.67395104174E-02  0.10543624791E-02  0.17130000020E+03  0.17130000000E+03 0.  1.
      622    1    1    2    0    0 -0.55035818126E-02 -0.76383753215E-02  0.36005713431E+01  0.36013646901E+01  0.75000000000E-01 0.  1.
</event>
<event>
 5   0  0.5237200E+07  0.9118800E+02  0.7818608E-02  0.1180000E+00
       11   -1    0    0    0    0  0.00000000000E+00  0.00000000000E+00  0.39999999673E+01  0.40000000000E+01  0.51109989000E-03 0. -1.
     -623   -1    0    0    0    0  0.00000000000E+00  0.00000000000E+00  0.12525980253E-10  0.17130000000E+03  0.17130000000E+03 0.  1.
       11    1    1    2    0    0  0.67955050424E-02  0.49648951170E-02  0.43343354762E-01  0.44155822889E-01  0.51109989000E-03 0. -1.
     -623    1    1    2    0    0  0.11477480209E-01 -0.16870546946E-01  0.15848263603E-02  0.17130000122E+03  0.17130000000E+03 0.  1.
      622    1    1    2    0    0 -0.18272985251E-01  0.11905651828E-01  0.39550717862E+01  0.39558429545E+01  0.75000000000E-01 0. -1.
</event>
<event>
 5   0  0.5237200E+07  0.9118800E+02  0.7818608E-02  0.1180000E+00
       11   -1    0    0    0    0  0.00000000000E+00  0.00000000000E+00  0.39999999673E+01  0.40000000000E+01  0.51109989000E-03 0. -1.
     -623   -1    0    0    0    0  0.00000000000E+00  0.00000000000E+00  0.12525980253E-10  0.17130000000E+03  0.17130000000E+03 0. -1.
       11    1    1    2    0    0 -0.35936102517E-03  0.15594567724E-01  0.60758635641E-01  0.62731114376E-01  0.51109989000E-03 0. -1.
     -623    1    1    2    0    0 -0.19356234435E-01  0.16056558153E-01  0.28653266514E-02  0.17130000187E+03  0.17130000000E+03 0. -1.
      622    1    1    2    0    0  0.19715595461E-01 -0.31651125878E-01  0.39363760052E+01  0.39372670157E+01  0.75000000000E-01 0. -1.
</event>
<event>
 5   0  0.5237200E+07  0.9118800E+02  0.7818608E-02  0.1180000E+00
       11   -1    0    0    0    0  0.00000000000E+00  0.00000000000E+00  0.39999999673E+01  0.40000000000E+01  0.51109989000E-03 0.  1.
     -623   -1    0    0    0    0  0.00000000000E+00  0.00000000000E+00  0.12525980253E-10  0.17130000000E+03  0.17130000000E+03 0. -1.
       11    1    1    2    0    0 -0.54138901033E-02  0.12111700331E-03  0.34723639219E-01  0.35147079809E-01  0.51109989000E-03 0.  1.
     -623    1    1    2    0    0  0.24810807581E-02 -0.14790850476E-02  0.11341749869E-02  0.17130000003E+03  0.17130000000E+03 0. -1.
      622    1    1    2    0    0  0.29328093452E-02  0.13579680443E-02  0.39641421532E+01  0.39648528922E+01  0.75000000000E-01 0.  1.
</event>
<event>
 5   0  0.5237200E+07  0.9118800E+02  0.7818608E-02  0.1180000E+00
       11   -1    0    0    0    0  0.00000000000E+00  0.00000000000E+00  0.39999999673E+01  0.40000000000E+01  0.51109989000E-03 0. -1.
     -623   -1    0    0    0    0  0.00000000000E+00  0.00000000000E+00  0.12525980253E-10  0.17130000000E+03  0.17130000000E+03 0.  1.
       11    1    1    2    0    0 -0.96981212981E-01 -0.37815168928E-01  0.29229101137E+00  0.31027349101E+00  0.51109989000E-03 0. -1.
     -623    1    1    2    0    0  0.48840885786E-01  0.40398983890E-01  0.19072599095E-01  0.17130001279E+03  0.17130000000E+03 0.  1.
      622    1    1    2    0    0  0.48140327195E-01 -0.25838149623E-02  0.36886363569E+01  0.36897137207E+01  0.75000000000E-01 0. -1.
</event>
<event>
 5   0  0.5237200E+07  0.9118800E+02  0.7818608E-02  0.1180000E+00
       11   -1    0    0    0    0  0.00000000000E+00  0.00000000000E+00  0.39999999673E+01  0.40000000000E+01  0.51109989000E-03 0. -1.
     -623   -1    0    0    0    0  0.00000000000E+00  0.00000000000E+00  0.12525980253E-10  0.17130000000E+03  0.17130000000E+03 0.  1.
       11    1    1    2    0    0  0.26577234837E-02  0.13055885430E-01  0.12408422060E+00  0.12479853629E+00  0.51109989000E-03 0. -1.
     -623    1    1    2    0    0 -0.25391959381E-01 -0.13990409172E-01  0.15093921961E-02  0.17130000246E+03  0.17130000000E+03 0.  1.
      622    1    1    2    0    0  0.22734235898E-01  0.93452374299E-03  0.38744063546E+01  0.38751990038E+01  0.75000000000E-01 0. -1.
</event>
<event>
 5   0  0.5237200E+07  0.9118800E+02  0.7818608E-02  0.1180000E+00
       11   -1    0    0    0    0  0.00000000000E+00  0.00000000000E+00  0.39999999673E+01  0.40000000000E+01  0.51109989000E-03 0. -1.
     -623   -1    0    0    0    0  0.00000000000E+00  0.00000000000E+00  0.12525980253E-10  0.17130000000E+03  0.17130000000E+03 0.  1.
       11    1    1    2    0    0  0.35013126473E-01  0.37819014620E-01  0.68657775057E+00  0.68850959739E+00  0.51109989000E-03 0. -1.
     -623    1    1    2    0    0 -0.34611545053E-02  0.48673801733E-02  0.32069453935E-02  0.17130000013E+03  0.17130000000E+03 0.  1.
      622    1    1    2    0    0 -0.31551971967E-01 -0.42686394794E-01  0.33102152714E+01  0.33114902685E+01  0.75000000000E-01 0. -1.
</event>
<event>
 5   0  0.5237200E+07  0.9118800E+02  0.7818608E-02  0.1180000E+00
       11   -1    0    0    0    0  0.00000000000E+00  0.00000000000E+00  0.39999999673E+01  0.40000000000E+01  0.51109989000E-03 0. -1.
     -623   -1    0    0    0    0  0.00000000000E+00  0.00000000000E+00  0.12525980253E-10  0.17130000000E+03  0.17130000000E+03 0.  1.
       11    1    1    2    0    0 -0.16970802182E-02 -0.80273664301E-03  0.11479128887E-02  0.22590693842E-02  0.51109989000E-03 0. -1.
     -623    1    1    2    0    0  0.13405080716E-01  0.14306786276E-02  0.18324451981E-02  0.17130000054E+03  0.17130000000E+03 0.  1.
      622    1    1    2    0    0 -0.11708000498E-01 -0.62794198463E-03  0.39970196094E+01  0.39977403905E+01  0.75000000000E-01 0. -1.
</event>
<event>
 5   0  0.5237200E+07  0.9118800E+02  0.7818608E-02  0.1180000E+00
       11   -1    0    0    0    0  0.00000000000E+00  0.00000000000E+00  0.39999999673E+01  0.40000000000E+01  0.51109989000E-03 0. -1.
     -623   -1    0    0    0    0  0.00000000000E+00  0.00000000000E+00  0.12525980253E-10  0.17130000000E+03  0.17130000000E+03 0.  1.
       11    1    1    2    0    0  0.40521577625E-02 -0.31997152142E-02  0.72284950185E-02  0.88977819322E-02  0.51109989000E-03 0. -1.
     -623    1    1    2    0    0 -0.56922712608E-02  0.76143808921E-02  0.23770684763E-02  0.17130000028E+03  0.17130000000E+03 0.  1.
      622    1    1    2    0    0  0.16401134981E-02 -0.44146656777E-02  0.39903944037E+01  0.39911019376E+01  0.75000000000E-01 0. -1.
</event>
<event>
 5   0  0.5237200E+07  0.9118800E+02  0.7818608E-02  0.1180000E+00
       11   -1    0    0    0    0  0.00000000000E+00  0.00000000000E+00  0.39999999673E+01  0.40000000000E+01  0.51109989000E-03 0.  1.
     -623   -1    0    0    0    0  0.00000000000E+00  0.00000000000E+00  0.12525980253E-10  0.17130000000E+03  0.17130000000E+03 0. -1.
       11    1    1    2    0    0  0.14182942046E-01  0.85286139228E-02  0.70241240387E-01  0.72166378423E-01  0.51109989000E-03 0.  1.
     -623    1    1    2    0    0 -0.11258084698E-01  0.11914432906E-01  0.26963187594E-02  0.17130000081E+03  0.17130000000E+03 0. -1.
      622    1    1    2    0    0 -0.29248573480E-02 -0.20443046829E-01  0.39270624083E+01  0.39278328161E+01  0.75000000000E-01 0.  1.
</event>
<event>
 5   0  0.5237200E+07  0.9118800E+02  0.7818608E-02  0.1180000E+00
       11   -1    0    0    0    0  0.00000000000E+00  0.00000000000E+00  0.39999999673E+01  0.40000000000E+01  0.51109989000E-03 0.  1.
     -623   -1    0    0    0    0  0.00000000000E+00  0.00000000000E+00  0.12525980253E-10  0.17130000000E+03  0.17130000000E+03 0.  1.
       11    1    1    2    0    0  0.19400860090E-02  0.81508831474E-02  0.47572633382E-01  0.48307530446E-01  0.51109989000E-03 0.  1.
     -623    1    1    2    0    0  0.52917546442E-04 -0.29552445671E-02  0.14505994066E-02  0.17130000003E+03  0.17130000000E+03 0.  1.
      622    1    1    2    0    0 -0.19930035554E-02 -0.51956385803E-02  0.39509767346E+01  0.39516924379E+01  0.75000000000E-01 0.  0.
</event>
<event>
 5   0  0.5237200E+07  0.9118800E+02  0.7818608E-02  0.1180000E+00
       11   -1    0    0    0    0  0.00000000000E+00  0.00000000000E+00  0.39999999673E+01  0.40000000000E+01  0.51109989000E-03 0. -1.
     -623   -1    0    0    0    0  0.00000000000E+00  0.00000000000E+00  0.12525980253E-10  0.17130000000E+03  0.17130000000E+03 0. -1.
       11    1    1    2    0    0 -0.27974241142E-02  0.22326036583E-01  0.19659193501E+00  0.19787604106E+00  0.51109989000E-03 0. -1.
     -623    1    1    2    0    0  0.16464034146E-01  0.21559731351E-02  0.21280855467E-02  0.17130000082E+03  0.17130000000E+03 0. -1.
      622    1    1    2    0    0 -0.13666610031E-01 -0.24482009718E-01  0.38012799468E+01  0.38021231410E+01  0.75000000000E-01 0. -1.
</event>
<event>
 5   0  0.5237200E+07  0.9118800E+02  0.7818608E-02  0.1180000E+00
       11   -1    0    0    0    0  0.00000000000E+00  0.00000000000E+00  0.39999999673E+01  0.40000000000E+01  0.51109989000E-03 0.  1.
     -623   -1    0    0    0    0  0.00000000000E+00  0.00000000000E+00  0.12525980253E-10  0.17130000000E+03  0.17130000000E+03 0. -1.
       11    1    1    2    0    0  0.49198631677E-02 -0.31350022661E-02  0.29587196880E-01  0.30161179235E-01  0.51109989000E-03 0.  1.
     -623    1    1    2    0    0 -0.24248364836E-02  0.11832344916E-01  0.12932239893E-02  0.17130000043E+03  0.17130000000E+03 0. -1.
      622    1    1    2    0    0 -0.24950266841E-02 -0.86973426500E-02  0.39691195465E+01  0.39698383901E+01  0.75000000000E-01 0.  1.
</event>
<event>
 5   0  0.5237200E+07  0.9118800E+02  0.7818608E-02  0.1180000E+00
       11   -1    0    0    0    0  0.00000000000E+00  0.00000000000E+00  0.39999999673E+01  0.40000000000E+01  0.51109989000E-03 0.  1.
     -623   -1    0    0    0    0  0.00000000000E+00  0.00000000000E+00  0.12525980253E-10  0.17130000000E+03  0.17130000000E+03 0.  1.
       11    1    1    2    0    0  0.87918611875E-03 -0.22307958441E-03  0.35488786943E-03  0.10999551035E-02  0.51109989000E-03 0.  1.
     -623    1    1    2    0    0  0.44097744762E-03  0.26545488323E-02  0.14493994220E-02  0.17130000003E+03  0.17130000000E+03 0.  1.
      622    1    1    2    0    0 -0.13201635664E-02 -0.24314692478E-02  0.39981956799E+01  0.39989000175E+01  0.75000000000E-01 0.  1.
</event>
<event>
 5   0  0.5237200E+07  0.9118800E+02  0.7818608E-02  0.1180000E+00
       11   -1    0    0    0    0  0.00000000000E+00  0.00000000000E+00  0.39999999673E+01  0.40000000000E+01  0.51109989000E-03 0.  1.
     -623   -1    0    0    0    0  0.00000000000E+00  0.00000000000E+00  0.12525980253E-10  0.17130000000E+03  0.17130000000E+03 0.  1.
       11    1    1    2    0    0 -0.11787374886E-01 -0.26120798219E-02  0.38502122904E+00  0.38521081656E+00  0.51109989000E-03 0.  1.
     -623    1    1    2    0    0  0.85984781455E-02  0.79230151631E-03  0.96977779397E-03  0.17130000022E+03  0.17130000000E+03 0.  1.
      622    1    1    2    0    0  0.31888967404E-02  0.18197783056E-02  0.36140089605E+01  0.36147889631E+01  0.75000000000E-01 0.  1.
</event>
<event>
 5   0  0.5237200E+07  0.9118800E+02  0.7818608E-02  0.1180000E+00
       11   -1    0    0    0    0  0.00000000000E+00  0.00000000000E+00  0.39999999673E+01  0.40000000000E+01  0.51109989000E-03 0.  1.
     -623   -1    0    0    0    0  0.00000000000E+00  0.00000000000E+00  0.12525980253E-10  0.17130000000E+03  0.17130000000E+03 0. -1.
       11    1    1    2    0    0 -0.57950243838E-03  0.73293897336E-02  0.26042245491E-01  0.27065024474E-01  0.51109989000E-03 0.  1.
     -623    1    1    2    0    0 -0.19445977202E-02 -0.19307186743E-03  0.17379566718E-02  0.17130000002E+03  0.17130000000E+03 0. -1.
      622    1    1    2    0    0  0.25241001586E-02 -0.71363178662E-02  0.39722197652E+01  0.39729349556E+01  0.75000000000E-01 0.  1.
</event>
<event>
 5   0  0.5237200E+07  0.9118800E+02  0.7818608E-02  0.1180000E+00
       11   -1    0    0    0    0  0.00000000000E+00  0.00000000000E+00  0.39999999673E+01  0.40000000000E+01  0.51109989000E-03 0.  1.
     -623   -1    0    0    0    0  0.00000000000E+00  0.00000000000E+00  0.12525980253E-10  0.17130000000E+03  0.17130000000E+03 0.  1.
       11    1    1    2    0    0  0.32631449506E-01 -0.50028425338E-02  0.22080647230E+00  0.22326128048E+00  0.51109989000E-03 0.  1.
     -623    1    1    2    0    0 -0.59657722048E-02 -0.14962655162E-02  0.32994307725E-02  0.17130000014E+03  0.17130000000E+03 0.  1.
      622    1    1    2    0    0 -0.26665677302E-01  0.64991080501E-02  0.37758940643E+01  0.37767385773E+01  0.75000000000E-01 0.  1.
</event>
<event>
 5   0  0.5237200E+07  0.9118800E+02  0.7818608E-02  0.1180000E+00
       11   -1    0    0    0    0  0.00000000000E+00  0.00000000000E+00  0.39999999673E+01  0.40000000000E+01  0.51109989000E-03 0.  1.
     -623   -1    0    0    0    0  0.00000000000E+00  0.00000000000E+00  0.12525980253E-10  0.17130000000E+03  0.17130000000E+03 0. -1.
       11    1    1    2    0    0  0.18524071143E-02 -0.59835072728E-04  0.47386344327E-01  0.47425329113E-01  0.51109989000E-03 0.  1.
     -623    1    1    2    0    0  0.20788131256E-03 -0.14143967355E-02  0.75139737219E-03  0.17130000001E+03  0.17130000000E+03 0. -1.
      622    1    1    2    0    0 -0.20602884269E-02  0.14742318083E-02  0.39518622257E+01  0.39525746633E+01  0.75000000000E-01 0.  1.
</event>
<event>
 5   0  0.5237200E+07  0.9118800E+02  0.7818608E-02  0.1180000E+00
       11   -1    0    0    0    0  0.00000000000E+00  0.00000000000E+00  0.39999999673E+01  0.40000000000E+01  0.51109989000E-03 0. -1.
     -623   -1    0    0    0    0  0.00000000000E+00  0.00000000000E+00  0.12525980253E-10  0.17130000000E+03  0.17130000000E+03 0.  1.
       11    1    1    2    0    0  0.21658015886E-01 -0.40914243964E-02  0.36236253020E+00  0.36303260724E+00  0.51109989000E-03 0. -1.
     -623    1    1    2    0    0 -0.35184301560E-02  0.49641809982E-02  0.14889010573E-02  0.17130000011E+03  0.17130000000E+03 0.  1.
      622    1    1    2    0    0 -0.18139585730E-01 -0.87275660184E-03  0.36361485361E+01  0.36369672782E+01  0.75000000000E-01 0. -1.
</event>
<event>
 5   0  0.5237200E+07  0.9118800E+02  0.7818608E-02  0.1180000E+00
       11   -1    0    0    0    0  0.00000000000E+00  0.00000000000E+00  0.39999999673E+01  0.40000000000E+01  0.51109989000E-03 0.  1.
     -623   -1    0    0    0    0  0.00000000000E+00  0.00000000000E+00  0.12525980253E-10  0.17130000000E+03  0.17130000000E+03 0. -1.
       11    1    1    2    0    0 -0.25735240671E-02  0.30576310022E-02  0.13548389851E-02  0.42507579737E-02  0.51109989000E-03 0.  1.
     -623    1    1    2    0    0  0.34749950098E-02 -0.55939612003E-03  0.36007781935E-02  0.17130000007E+03  0.17130000000E+03 0. -1.
      622    1    1    2    0    0 -0.90147094267E-03 -0.24982348822E-02  0.39950443502E+01  0.39957491680E+01  0.75000000000E-01 0.  1.
</event>
<event>
 5   0  0.5237200E+07  0.9118800E+02  0.7818608E-02  0.1180000E+00
       11   -1    0    0    0    0  0.00000000000E+00  0.00000000000E+00  0.39999999673E+01  0.40000000000E+01  0.51109989000E-03 0. -1.
     -623   -1    0    0    0    0  0.00000000000E+00  0.00000000000E+00  0.12525980253E-10  0.17130000000E+03  0.17130000000E+03 0.  1.
       11    1    1    2    0    0  0.22390547701E-01 -0.73501779893E-02  0.92469275347E+00  0.92499314121E+00  0.51109989000E-03 0. -1.
     -623    1    1    2    0    0 -0.52425347851E-02  0.35308254531E-02  0.12654454846E-02  0.17130000012E+03  0.17130000000E+03 0.  1.
      622    1    1    2    0    0 -0.17148012916E-01  0.38193525360E-02  0.30740417687E+01  0.30750067378E+01  0.75000000000E-01 0. -1.
</event>
<event>
 5   0  0.5237200E+07  0.9118800E+02  0.7818608E-02  0.1180000E+00
       11   -1    0    0    0    0  0.00000000000E+00  0.00000000000E+00  0.39999999673E+01  0.40000000000E+01  0.51109989000E-03 0. -1.
     -623   -1    0    0    0    0  0.00000000000E+00  0.00000000000E+00  0.12525980253E-10  0.17130000000E+03  0.17130000000E+03 0. -1.
       11    1    1    2    0    0  0.34579119044E-02 -0.64746686185E-02  0.21572308122E-01  0.22792634539E-01  0.51109989000E-03 0. -1.
     -623    1    1    2    0    0 -0.43973750082E-02  0.61218755614E-02  0.19278144714E-02  0.17130000018E+03  0.17130000000E+03 0. -1.
      622    1    1    2    0    0  0.93946310394E-03  0.35279305685E-03  0.39764998449E+01  0.39772071889E+01  0.75000000000E-01 0. -1.
</event>
<event>
 5   0  0.5237200E+07  0.9118800E+02  0.7818608E-02  0.1180000E+00
       11   -1    0    0    0    0  0.00000000000E+00  0.00000000000E+00  0.39999999673E+01  0.40000000000E+01  0.51109989000E-03 0.  1.
     -623   -1    0    0    0    0  0.00000000000E+00  0.00000000000E+00  0.12525980253E-10  0.17130000000E+03  0.17130000000E+03 0. -1.
       11    1    1    2    0    0 -0.55100795956E-01  0.43441279497E-01  0.44491634464E+00  0.45041542761E+00  0.51109989000E-03 0.  1.
     -623    1    1    2    0    0 -0.23177870419E-01  0.30687033419E-01  0.79339034788E-02  0.17130000450E+03  0.17130000000E+03 0. -1.
      622    1    1    2    0    0  0.78278666375E-01 -0.74128312916E-01  0.35471497192E+01  0.35495800719E+01  0.75000000000E-01 0.  1.
</event>
<event>
 5   0  0.5237200E+07  0.9118800E+02  0.7818608E-02  0.1180000E+00
       11   -1    0    0    0    0  0.00000000000E+00  0.00000000000E+00  0.39999999673E+01  0.40000000000E+01  0.51109989000E-03 0.  1.
     -623   -1    0    0    0    0  0.00000000000E+00  0.00000000000E+00  0.12525980253E-10  0.17130000000E+03  0.17130000000E+03 0.  1.
       11    1    1    2    0    0  0.95011458943E-02 -0.36678173043E-01  0.10483313398E+00  0.11147110547E+00  0.51109989000E-03 0.  1.
     -623    1    1    2    0    0 -0.22374754450E-01  0.21705385771E-01  0.74144309441E-02  0.17130000300E+03  0.17130000000E+03 0.  1.
      622    1    1    2    0    0  0.12873608556E-01  0.14972787272E-01  0.38877524025E+01  0.38885258978E+01  0.75000000000E-01 0.  1.
</event>
<event>
 5   0  0.5237200E+07  0.9118800E+02  0.7818608E-02  0.1180000E+00
       11   -1    0    0    0    0  0.00000000000E+00  0.00000000000E+00  0.39999999673E+01  0.40000000000E+01  0.51109989000E-03 0. -1.
     -623   -1    0    0    0    0  0.00000000000E+00  0.00000000000E+00  0.12525980253E-10  0.17130000000E+03  0.17130000000E+03 0.  1.
       11    1    1    2    0    0  0.66738212492E-02  0.12298256267E-01  0.84885665988E-01  0.86032694421E-01  0.51109989000E-03 0. -1.
     -623    1    1    2    0    0 -0.21707021442E-02  0.16353819555E-02  0.18930714722E-02  0.17130000003E+03  0.17130000000E+03 0.  1.
      622    1    1    2    0    0 -0.45031191051E-02 -0.13933638222E-01  0.39132212299E+01  0.39139672736E+01  0.75000000000E-01 0. -1.
</event>
<event>
 5   0  0.5237200E+07  0.9118800E+02  0.7818608E-02  0.1180000E+00
       11   -1    0    0    0    0  0.00000000000E+00  0.00000000000E+00  0.39999999673E+01  0.40000000000E+01  0.51109989000E-03 0.  1.
     -623   -1    0    0    0    0  0.00000000000E+00  0.00000000000E+00  0.12525980253E-10  0.17130000000E+03  0.17130000000E+03 0.  1.
       11    1    1    2    0    0 -0.10426567619E-01 -0.12927710527E-01  0.70949250178E-01  0.72869035506E-01  0.51109989000E-03 0.  1.
     -623    1    1    2    0    0  0.13485549361E-01  0.42558699719E-02  0.26473618249E-02  0.17130000060E+03  0.17130000000E+03 0.  1.
      622    1    1    2    0    0 -0.30589817417E-02  0.86718405551E-02  0.39264033553E+01  0.39271303603E+01  0.75000000000E-01 0.  1.
</event>
<event>
 5   0  0.5237200E+07  0.9118800E+02  0.7818608E-02  0.1180000E+00
       11   -1    0    0    0    0  0.00000000000E+00  0.00000000000E+00  0.39999999673E+01  0.40000000000E+01  0.51109989000E-03 0. -1.
     -623   -1    0    0    0    0  0.00000000000E+00  0.00000000000E+00  0.12525980253E-10  0.17130000000E+03  0.17130000000E+03 0. -1.
       11    1    1    2    0    0 -0.37995233081E-01  0.61388659246E-02  0.23655287795E+00  0.23966403297E+00  0.51109989000E-03 0. -1.
     -623    1    1    2    0    0  0.58662349905E-01  0.18844644569E-01  0.40100851392E-02  0.17130001113E+03  0.17130000000E+03 0. -1.
      622    1    1    2    0    0 -0.20667116824E-01 -0.24983510493E-01  0.37594370043E+01  0.37603248390E+01  0.75000000000E-01 0. -1.
</event>
<event>
 5   0  0.5237200E+07  0.9118800E+02  0.7818608E-02  0.1180000E+00
       11   -1    0    0    0    0  0.00000000000E+00  0.00000000000E+00  0.39999999673E+01  0.40000000000E+01  0.51109989000E-03 0. -1.
     -623   -1    0    0    0    0  0.00000000000E+00  0.00000000000E+00  0.12525980253E-10  0.17130000000E+03  0.17130000000E+03 0. -1.
       11    1    1    2    0    0 -0.77617306760E-02  0.13191733892E-01  0.28653953059E+00  0.28694847990E+00  0.51109989000E-03 0. -1.
     -623    1    1    2    0    0  0.87769624728E-02  0.63975634852E-02  0.12186301936E-02  0.17130000035E+03  0.17130000000E+03 0. -1.
      622    1    1    2    0    0 -0.10152317968E-02 -0.19589297377E-01  0.37122418066E+01  0.37130511714E+01  0.75000000000E-01 0. -1.
</event>
<event>
 5   0  0.5237200E+07  0.9118800E+02  0.7818608E-02  0.1180000E+00
       11   -1    0    0    0    0  0.00000000000E+00  0.00000000000E+00  0.39999999673E+01  0.40000000000E+01  0.51109989000E-03 0.  1.
     -623   -1    0    0    0    0  0.00000000000E+00  0.00000000000E+00  0.12525980253E-10  0.17130000000E+03  0.17130000000E+03 0. -1.
       11    1    1    2    0    0 -0.20784969907E-02  0.26239562439E-02  0.70083761514E-02  0.77835631614E-02  0.51109989000E-03 0.  1.
     -623    1    1    2    0    0  0.44588046684E-03 -0.29773510580E-02  0.14800948003E-02  0.17130000003E+03  0.17130000000E+03 0. -1.
      622    1    1    2    0    0  0.16326165239E-02  0.35339481416E-03  0.39915114965E+01  0.39922164041E+01  0.75000000000E-01 0.  1.
</event>
<event>
 5   0  0.5237200E+07  0.9118800E+02  0.7818608E-02  0.1180000E+00
       11   -1    0    0    0    0  0.00000000000E+00  0.00000000000E+00  0.39999999673E+01  0.40000000000E+01  0.51109989000E-03 0. -1.
     -623   -1    0    0    0    0  0.00000000000E+00  0.00000000000E+00  0.12525980253E-10  0.17130000000E+03  0.17130000000E+03 0. -1.
       11    1    1    2    0    0  0.43108506137E-02  0.17975057897E-01  0.25173433254E+00  0.25241260178E+00  0.51109989000E-03 0. -1.
     -623    1    1    2    0    0 -0.31710190837E-02 -0.21683765050E-02  0.14623590604E-02  0.17130000005E+03  0.17130000000E+03 0. -1.
      622    1    1    2    0    0 -0.11398315300E-02 -0.15806681392E-01  0.37468032758E+01  0.37475873489E+01  0.75000000000E-01 0. -1.
</event>
<event>
 5   0  0.5237200E+07  0.9118800E+02  0.7818608E-02  0.1180000E+00
       11   -1    0    0    0    0  0.00000000000E+00  0.00000000000E+00  0.39999999673E+01  0.40000000000E+01  0.51109989000E-03 0.  1.
     -623   -1    0    0    0    0  0.00000000000E+00  0.00000000000E+00  0.12525980253E-10  0.17130000000E+03  0.17130000000E+03 0.  1.
       11    1    1    2    0    0  0.17803516109E-01  0.23958858585E-01  0.23673203590E+00  0.23860702030E+00  0.51109989000E-03 0.  1.
     -623    1    1    2    0    0 -0.27716170924E-01 -0.83464222386E-03  0.27091812977E-02  0.17130000227E+03  0.17130000000E+03 0.  1.
      622    1    1    2    0    0  0.99126548146E-02 -0.23124216361E-01  0.37605587502E+01  0.37613907140E+01  0.75000000000E-01 0.  1.
</event>
<event>
 5   0  0.5237200E+07  0.9118800E+02  0.7818608E-02  0.1180000E+00
       11   -1    0    0    0    0  0.00000000000E+00  0.00000000000E+00  0.39999999673E+01  0.40000000000E+01  0.51109989000E-03 0. -1.
     -623   -1    0    0    0    0  0.00000000000E+00  0.00000000000E+00  0.12525980253E-10  0.17130000000E+03  0.17130000000E+03 0. -1.
       11    1    1    2    0    0  0.27188204585E-02 -0.21416101144E-02  0.14458510478E-01  0.14875759709E-01  0.51109989000E-03 0. -1.
     -623    1    1    2    0    0 -0.74439159070E-02 -0.36775300981E-02  0.11302848029E-02  0.17130000020E+03  0.17130000000E+03 0. -1.
      622    1    1    2    0    0  0.47250954487E-02  0.58191402125E-02  0.39844111721E+01  0.39851240354E+01  0.75000000000E-01 0. -1.
</event>
<event>
 5   0  0.5237200E+07  0.9118800E+02  0.7818608E-02  0.1180000E+00
       11   -1    0    0    0    0  0.00000000000E+00  0.00000000000E+00  0.39999999673E+01  0.40000000000E+01  0.51109989000E-03 0. -1.
     -623   -1    0    0    0    0  0.00000000000E+00  0.00000000000E+00  0.12525980253E-10  0.17130000000E+03  0.17130000000E+03 0. -1.
       11    1    1    2    0    0 -0.13147814169E-01  0.41758864774E-01  0.10803680385E+01  0.10812548394E+01  0.51109989000E-03 0. -1.
     -623    1    1    2    0    0  0.12406919358E-01 -0.66947136339E-02  0.20619108099E-02  0.17130000059E+03  0.17130000000E+03 0. -1.
      622    1    1    2    0    0  0.74089481061E-03 -0.35064151140E-01  0.29175700181E+01  0.29187445682E+01  0.75000000000E-01 0. -1.
</event>
<event>
 5   0  0.5237200E+07  0.9118800E+02  0.7818608E-02  0.1180000E+00
       11   -1    0    0    0    0  0.00000000000E+00  0.00000000000E+00  0.39999999673E+01  0.40000000000E+01  0.51109989000E-03 0. -1.
     -623   -1    0    0    0    0  0.00000000000E+00  0.00000000000E+00  0.12525980253E-10  0.17130000000E+03  0.17130000000E+03 0. -1.
       11    1    1    2    0    0  0.45953638358E-01  0.22348623961E-01  0.29558161239E+00  0.29996657927E+00  0.51109989000E-03 0. -1.
     -623    1    1    2    0    0  0.10669655484E-01  0.16922457684E-01  0.57882665249E-02  0.17130000127E+03  0.17130000000E+03 0. -1.
      622    1    1    2    0    0 -0.56623293842E-01 -0.39271081646E-01  0.36986300884E+01  0.37000321548E+01  0.75000000000E-01 0.  0.
</event>
<event>
 5   0  0.5237200E+07  0.9118800E+02  0.7818608E-02  0.1180000E+00
       11   -1    0    0    0    0  0.00000000000E+00  0.00000000000E+00  0.39999999673E+01  0.40000000000E+01  0.51109989000E-03 0.  1.
     -623   -1    0    0    0    0  0.00000000000E+00  0.00000000000E+00  0.12525980253E-10  0.17130000000E+03  0.17130000000E+03 0.  1.
       11    1    1    2    0    0  0.29351358655E-02 -0.74288836847E-03  0.31388834513E-04  0.30706862479E-02  0.51109989000E-03 0.  1.
     -623    1    1    2    0    0  0.17330177705E-01  0.11521537940E-01  0.38102191597E-02  0.17130000131E+03  0.17130000000E+03 0.  1.
      622    1    1    2    0    0 -0.20265313571E-01 -0.10778649572E-01  0.39961583594E+01  0.39969280073E+01  0.75000000000E-01 0.  1.
</event>
<event>
 5   0  0.5237200E+07  0.9118800E+02  0.7818608E-02  0.1180000E+00
       11   -1    0    0    0    0  0.00000000000E+00  0.00000000000E+00  0.39999999673E+01  0.40000000000E+01  0.51109989000E-03 0. -1.
     -623   -1    0    0    0    0  0.00000000000E+00  0.00000000000E+00  0.12525980253E-10  0.17130000000E+03  0.17130000000E+03 0.  1.
       11    1    1    2    0    0 -0.16648535500E-02  0.30257025641E-03  0.38454725590E-01  0.38495329950E-01  0.51109989000E-03 0. -1.
     -623    1    1    2    0    0  0.29750240134E-03  0.12313557531E-02  0.75113223905E-03  0.17130000001E+03  0.17130000000E+03 0.  1.
      622    1    1    2    0    0  0.13673511486E-02 -0.15339260095E-02  0.39607941095E+01  0.39615046637E+01  0.75000000000E-01 0. -1.
</event>
<event>
 5   0  0.5237200E+07  0.9118800E+02  0.7818608E-02  0.1180000E+00
       11   -1    0    0    0    0  0.00000000000E+00  0.00000000000E+00  0.39999999673E+01  0.40000000000E+01  0.51109989000E-03 0.  1.
     -623   -1    0    0    0    0  0.00000000000E+00  0.00000000000E+00  0.12525980253E-10  0.17130000000E+03  0.17130000000E+03 0.  1.
       11    1    1    2    0    0 -0.99332038935E-02 -0.12253252025E-01  0.21241011118E-01  0.26462284471E-01  0.51109989000E-03 0.  1.
     -623    1    1    2    0    0  0.15456544745E-01  0.10869207482E-01  0.59343370533E-02  0.17130000114E+03  0.17130000000E+03 0.  1.
      622    1    1    2    0    0 -0.55233408516E-02  0.13840445424E-02  0.39728246192E+01  0.39735365706E+01  0.75000000000E-01 0.  1.
</event>
<event>
 5   0  0.5237200E+07  0.9118800E+02  0.7818608E-02  0.1180000E+00
       11   -1    0    0    0    0  0.00000000000E+00  0.00000000000E+00  0.39999999673E+01  0.40000000000E+01  0.51109989000E-03 0.  1.
     -623   -1    0    0    0    0  0.00000000000E+00  0.00000000000E+00  0.12525980253E-10  0.17130000000E+03  0.17130000000E+03 0. -1.
       11    1    1    2    0    0 -0.41235399212E-02  0.28182454178E-02  0.48525179620E-02  0.69824238188E-02  0.51109989000E-03 0.  1.
     -623    1    1    2    0    0  0.47073496768E-02 -0.34895133548E-02  0.28345126904E-02  0.17130000012E+03  0.17130000000E+03 0. -1.
      622    1    1    2    0    0 -0.58380975558E-03  0.67126793694E-03  0.39923129367E+01  0.39930174525E+01  0.75000000000E-01 0.  1.
</event>
<event>
 5   0  0.5237200E+07  0.9118800E+02  0.7818608E-02  0.1180000E+00
       11   -1    0    0    0    0  0.00000000000E+00  0.00000000000E+00  0.39999999673E+01  0.40000000000E+01  0.51109989000E-03 0. -1.
     -623   -1    0    0    0    0  0.00000000000E+00  0.00000000000E+00  0.12525980253E-10  0.17130000000E+03  0.17130000000E+03 0. -1.
       11    1    1    2    0    0 -0.68421567493E-02 -0.53170493722E-02  0.44172536125E-02  0.97395829266E-02  0.51109989000E-03 0. -1.
     -623    1    1    2    0    0  0.13756691010E-01  0.23391163807E-01  0.60763911473E-02  0.17130000226E+03  0.17130000000E+03 0. -1.
      622    1    1    2    0    0 -0.69145342608E-02 -0.18074114436E-01  0.39895063227E+01  0.39902581599E+01  0.75000000000E-01 0. -1.
</event>
<event>
 5   0  0.5237200E+07  0.9118800E+02  0.7818608E-02  0.1180000E+00
       11   -1    0    0    0    0  0.00000000000E+00  0.00000000000E+00  0.39999999673E+01  0.40000000000E+01  0.51109989000E-03 0. -1.
     -623   -1    0    0    0    0  0.00000000000E+00  0.00000000000E+00  0.12525980253E-10  0.17130000000E+03  0.17130000000E+03 0. -1.
       11    1    1    2    0    0  0.19240125020E-02  0.10045883604E-02  0.10470159980E+00  0.10472534193E+00  0.51109989000E-03 0. -1.
     -623    1    1    2    0    0  0.10615858511E-02 -0.59037061118E-02  0.75013758543E-03  0.17130000011E+03  0.17130000000E+03 0. -1.
      622    1    1    2    0    0 -0.29855983531E-02  0.48991177514E-02  0.38945482300E+01  0.38952745514E+01  0.75000000000E-01 0. -1.
</event>
<event>
 5   0  0.5237200E+07  0.9118800E+02  0.7818608E-02  0.1180000E+00
       11   -1    0    0    0    0  0.00000000000E+00  0.00000000000E+00  0.39999999673E+01  0.40000000000E+01  0.51109989000E-03 0.  1.
     -623   -1    0    0    0    0  0.00000000000E+00  0.00000000000E+00  0.12525980253E-10  0.17130000000E+03  0.17130000000E+03 0.  1.
       11    1    1    2    0    0  0.74038505917E-02 -0.29139800822E-01  0.52241491251E+00  0.52327960693E+00  0.51109989000E-03 0.  1.
     -623    1    1    2    0    0  0.38371518965E-02  0.36061799031E-01  0.17026250771E-02  0.17130000385E+03  0.17130000000E+03 0.  1.
      622    1    1    2    0    0 -0.11241002488E-01 -0.69219982096E-02  0.34758824298E+01  0.34767165458E+01  0.75000000000E-01 0.  1.
</event>
<event>
 5   0  0.5237200E+07  0.9118800E+02  0.7818608E-02  0.1180000E+00
       11   -1    0    0    0    0  0.00000000000E+00  0.00000000000E+00  0.39999999673E+01  0.40000000000E+01  0.51109989000E-03 0. -1.
     -623   -1    0    0    0    0  0.00000000000E+00  0.00000000000E+00  0.12525980253E-10  0.17130000000E+03  0.17130000000E+03 0.  1.
       11    1    1    2    0    0  0.27132183139E-02 -0.32168025487E-02  0.24011325032E-02  0.48719639420E-02  0.51109989000E-03 0. -1.
     -623    1    1    2    0    0 -0.88201824223E-02  0.50892066140E-02  0.31802827678E-02  0.17130000033E+03  0.17130000000E+03 0.  1.
      622    1    1    2    0    0  0.61069641087E-02 -0.18724040655E-02  0.39944185523E+01  0.39951277040E+01  0.75000000000E-01 0. -1.
</event>
<event>
 5   0  0.5237200E+07  0.9118800E+02  0.7818608E-02  0.1180000E+00
       11   -1    0    0    0    0  0.00000000000E+00  0.00000000000E+00  0.39999999673E+01  0.40000000000E+01  0.51109989000E-03 0.  1.
     -623   -1    0    0    0    0  0.00000000000E+00  0.00000000000E+00  0.12525980253E-10  0.17130000000E+03  0.17130000000E+03 0.  1.
       11    1    1    2    0    0  0.39588667588E-02  0.12836959425E-01  0.19062413962E+00  0.19109757712E+00  0.51109989000E-03 0.  1.
     -623    1    1    2    0    0 -0.38774411148E-02 -0.55809565640E-03  0.12317239843E-02  0.17130000005E+03  0.17130000000E+03 0.  1.
      622    1    1    2    0    0 -0.81425643983E-04 -0.12278863768E-01  0.38081441038E+01  0.38089023737E+01  0.75000000000E-01 0.  1.
</event>
<event>
 5   0  0.5237200E+07  0.9118800E+02  0.7818608E-02  0.1180000E+00
       11   -1    0    0    0    0  0.00000000000E+00  0.00000000000E+00  0.39999999673E+01  0.40000000000E+01  0.51109989000E-03 0. -1.
     -623   -1    0    0    0    0  0.00000000000E+00  0.00000000000E+00  0.12525980253E-10  0.17130000000E+03  0.17130000000E+03 0.  1.
       11    1    1    2    0    0 -0.17802498653E-01 -0.54076103201E-01  0.10578091790E+01  0.10593402071E+01  0.51109989000E-03 0. -1.
     -623    1    1    2    0    0  0.93923836107E-02 -0.87002408600E-02  0.31704699498E-02  0.17130000051E+03  0.17130000000E+03 0.  1.
      622    1    1    2    0    0  0.84101150426E-02  0.62776344061E-01  0.29390203184E+01  0.29406592851E+01  0.75000000000E-01 0. -1.
</event>
<event>
 5   0  0.5237200E+07  0.9118800E+02  0.7818608E-02  0.1180000E+00
       11   -1    0    0    0    0  0.00000000000E+00  0.00000000000E+00  0.39999999673E+01  0.40000000000E+01  0.51109989000E-03 0.  1.
     -623   -1    0    0    0    0  0.00000000000E+00  0.00000000000E+00  0.12525980253E-10  0.17130000000E+03  0.17130000000E+03 0. -1.
       11    1    1    2    0    0 -0.53985060149E-02  0.46029615431E-02  0.84248018628E-02  0.11025861894E-01  0.51109989000E-03 0.  1.
     -623    1    1    2    0    0  0.45366970168E-02 -0.64455756421E-02  0.33068902722E-02  0.17130000021E+03  0.17130000000E+03 0. -1.
      622    1    1    2    0    0  0.86180899804E-03  0.18426140990E-02  0.39882682752E+01  0.39889739248E+01  0.75000000000E-01 0.  1.
</event>
<event>
 5   0  0.5237200E+07  0.9118800E+02  0.7818608E-02  0.1180000E+00
       11   -1    0    0    0    0  0.00000000000E+00  0.00000000000E+00  0.39999999673E+01  0.40000000000E+01  0.51109989000E-03 0. -1.
     -623   -1    0    0    0    0  0.00000000000E+00  0.00000000000E+00  0.12525980253E-10  0.17130000000E+03  0.17130000000E+03 0. -1.
       11    1    1    2    0    0  0.87463273905E-02 -0.14998993549E-02  0.13250559599E+00  0.13280339654E+00  0.51109989000E-03 0. -1.
     -623    1    1    2    0    0 -0.74462661240E-02 -0.19018587993E-02  0.10269978521E-02  0.17130000018E+03  0.17130000000E+03 0. -1.
      622    1    1    2    0    0 -0.13000612670E-02  0.34017581540E-02  0.38664673732E+01  0.38671964277E+01  0.75000000000E-01 0. -1.
</event>
<event>
 5   0  0.5237200E+07  0.9118800E+02  0.7818608E-02  0.1180000E+00
       11   -1    0    0    0    0  0.00000000000E+00  0.00000000000E+00  0.39999999673E+01  0.40000000000E+01  0.51109989000E-03 0. -1.
     -623   -1    0    0    0    0  0.00000000000E+00  0.00000000000E+00  0.12525980253E-10  0.17130000000E+03  0.17130000000E+03 0.  1.
       11    1    1    2    0    0  0.45170168074E-01 -0.49580333695E-01  0.85193767665E+00  0.85457394044E+00  0.51109989000E-03 0. -1.
     -623    1    1    2    0    0  0.51768595658E-02 -0.96358226118E-02  0.44916851264E-02  0.17130000041E+03  0.17130000000E+03 0.  1.
      622    1    1    2    0    0 -0.50347027640E-01  0.59216156306E-01  0.31435706056E+01  0.31454256514E+01  0.75000000000E-01 0.  0.
</event>
<event>
 5   0  0.5237200E+07  0.9118800E+02  0.7818608E-02  0.1180000E+00
       11   -1    0    0    0    0  0.00000000000E+00  0.00000000000E+00  0.39999999673E+01  0.40000000000E+01  0.51109989000E-03 0.  1.
     -623   -1    0    0    0    0  0.00000000000E+00  0.00000000000E+00  0.12525980253E-10  0.17130000000E+03  0.17130000000E+03 0. -1.
       11    1    1    2    0    0  0.53380312288E-02  0.14611868570E-01  0.25586567912E+00  0.25633865931E+00  0.51109989000E-03 0.  1.
     -623    1    1    2    0    0 -0.23401354332E-02  0.10988678329E-02  0.12584903405E-02  0.17130000002E+03  0.17130000000E+03 0. -1.
      622    1    1    2    0    0 -0.29978957958E-02 -0.15710736403E-01  0.37428757977E+01  0.37436613163E+01  0.75000000000E-01 0.  1.
</event>
<event>
 5   0  0.5237200E+07  0.9118800E+02  0.7818608E-02  0.1180000E+00
       11   -1    0    0    0    0  0.00000000000E+00  0.00000000000E+00  0.39999999673E+01  0.40000000000E+01  0.51109989000E-03 0. -1.
     -623   -1    0    0    0    0  0.00000000000E+00  0.00000000000E+00  0.12525980253E-10  0.17130000000E+03  0.17130000000E+03 0.  1.
       11    1    1    2    0    0  0.10544832526E-01 -0.20153445037E-02  0.13260982978E+00  0.13304466650E+00  0.51109989000E-03 0. -1.
     -623    1    1    2    0    0 -0.10370124074E-01 -0.81452332961E-02  0.11760557018E-02  0.17130000051E+03  0.17130000000E+03 0.  1.
      622    1    1    2    0    0 -0.17470845152E-03  0.10160577801E-01  0.38662140823E+01  0.38669548223E+01  0.75000000000E-01 0. -1.
</event>
<event>
 5   0  0.5237200E+07  0.9118800E+02  0.7818608E-02  0.1180000E+00
       11   -1    0    0    0    0  0.00000000000E+00  0.00000000000E+00  0.39999999673E+01  0.40000000000E+01  0.51109989000E-03 0. -1.
     -623   -1    0    0    0    0  0.00000000000E+00  0.00000000000E+00  0.12525980253E-10  0.17130000000E+03  0.17130000000E+03 0. -1.
       11    1    1    2    0    0  0.66314632650E-02 -0.16418692281E-01  0.74147898553E-01  0.76234649892E-01  0.51109989000E-03 0. -1.
     -623    1    1    2    0    0  0.28438370011E-02  0.82104091599E-03  0.28460697756E-02  0.17130000005E+03  0.17130000000E+03 0. -1.
      622    1    1    2    0    0 -0.94753002661E-02  0.15597651365E-01  0.39230059991E+01  0.39237653010E+01  0.75000000000E-01 0. -1.
</event>
<event>
 5   0  0.5237200E+07  0.9118800E+02  0.7818608E-02  0.1180000E+00
       11   -1    0    0    0    0  0.00000000000E+00  0.00000000000E+00  0.39999999673E+01  0.40000000000E+01  0.51109989000E-03 0. -1.
     -623   -1    0    0    0    0  0.00000000000E+00  0.00000000000E+00  0.12525980253E-10  0.17130000000E+03  0.17130000000E+03 0.  1.
       11    1    1    2    0    0 -0.25155853391E-01 -0.29981305829E-01  0.10918237721E+01  0.10925251055E+01  0.51109989000E-03 0. -1.
     -623    1    1    2    0    0  0.14064328158E-01 -0.20515216320E-02  0.18670840198E-02  0.17130000060E+03  0.17130000000E+03 0.  1.
      622    1    1    2    0    0  0.11091525234E-01  0.32032827461E-01  0.29063091113E+01  0.29074742947E+01  0.75000000000E-01 0. -1.
</event>
<event>
 5   0  0.5237200E+07  0.9118800E+02  0.7818608E-02  0.1180000E+00
       11   -1    0    0    0    0  0.00000000000E+00  0.00000000000E+00  0.39999999673E+01  0.40000000000E+01  0.51109989000E-03 0. -1.
     -623   -1    0    0    0    0  0.00000000000E+00  0.00000000000E+00  0.12525980253E-10  0.17130000000E+03  0.17130000000E+03 0. -1.
       11    1    1    2    0    0 -0.75720001186E-02 -0.13686934812E-02  0.19683444393E-01  0.21140191908E-01  0.51109989000E-03 0. -1.
     -623    1    1    2    0    0  0.18875641722E-01  0.22620647016E-01  0.22390127694E-02  0.17130000255E+03  0.17130000000E+03 0. -1.
      622    1    1    2    0    0 -0.11303641605E-01 -0.21251953536E-01  0.39780775104E+01  0.39788572601E+01  0.75000000000E-01 0. -1.
</event>
<event>
 5   0  0.5237200E+07  0.9118800E+02  0.7818608E-02  0.1180000E+00
       11   -1    0    0    0    0  0.00000000000E+00  0.00000000000E+00  0.39999999673E+01  0.40000000000E+01  0.51109989000E-03 0. -1.
     -623   -1    0    0    0    0  0.00000000000E+00  0.00000000000E+00  0.12525980253E-10  0.17130000000E+03  0.17130000000E+03 0. -1.
       11    1    1    2    0    0 -0.76943995190E-03 -0.11077271312E-02  0.14713350542E-01  0.14783876461E-01  0.51109989000E-03 0. -1.
     -623    1    1    2    0    0  0.35716383809E-02  0.14064073129E-02  0.77733047616E-03  0.17130000004E+03  0.17130000000E+03 0. -1.
      622    1    1    2    0    0 -0.28021984291E-02 -0.29868018163E-03  0.39845092863E+01  0.39852160788E+01  0.75000000000E-01 0. -1.
</event>
<event>
 5   0  0.5237200E+07  0.9118800E+02  0.7818608E-02  0.1180000E+00
       11   -1    0    0    0    0  0.00000000000E+00  0.00000000000E+00  0.39999999673E+01  0.40000000000E+01  0.51109989000E-03 0. -1.
     -623   -1    0    0    0    0  0.00000000000E+00  0.00000000000E+00  0.12525980253E-10  0.17130000000E+03  0.17130000000E+03 0.  1.
       11    1    1    2    0    0  0.18995362064E-02 -0.79355834716E-02  0.47893552613E+00  0.47900530387E+00  0.51109989000E-03 0. -1.
     -623    1    1    2    0    0 -0.23220166520E-02 -0.22303185630E-03  0.87811363498E-03  0.17130000002E+03  0.17130000000E+03 0.  1.
      622    1    1    2    0    0  0.42248044550E-03  0.81586153279E-02  0.35201863274E+01  0.35209946778E+01  0.75000000000E-01 0. -1.
</event>
<event>
 5   0  0.5237200E+07  0.9118800E+02  0.7818608E-02  0.1180000E+00
       11   -1    0    0    0    0  0.00000000000E+00  0.00000000000E+00  0.39999999673E+01  0.40000000000E+01  0.51109989000E-03 0.  1.
     -623   -1    0    0    0    0  0.00000000000E+00  0.00000000000E+00  0.12525980253E-10  0.17130000000E+03  0.17130000000E+03 0. -1.
       11    1    1    2    0    0 -0.17753150756E-02 -0.40988184583E-02  0.36113001081E-01  0.36391786503E-01  0.51109989000E-03 0.  1.
     -623    1    1    2    0    0  0.21573258079E-02 -0.11798922095E-02  0.99195168261E-03  0.17130000002E+03  0.17130000000E+03 0. -1.
      622    1    1    2    0    0 -0.38201073230E-03  0.52787106678E-02  0.39628950146E+01  0.39636081930E+01  0.75000000000E-01 0.  1.
</event>
<event>
 5   0  0.5237200E+07  0.9118800E+02  0.7818608E-02  0.1180000E+00
       11   -1    0    0    0    0  0.00000000000E+00  0.00000000000E+00  0.39999999673E+01  0.40000000000E+01  0.51109989000E-03 0.  1.
     -623   -1    0    0    0    0  0.00000000000E+00  0.00000000000E+00  0.12525980253E-10  0.17130000000E+03  0.17130000000E+03 0.  1.
       11    1    1    2    0    0  0.21424148711E-02  0.41474418035E-02  0.22059759639E-01  0.22554055769E-01  0.51109989000E-03 0.  1.
     -623    1    1    2    0    0 -0.96630917347E-03 -0.23015457909E-02  0.12020631485E-02  0.17130000002E+03  0.17130000000E+03 0.  1.
      622    1    1    2    0    0 -0.11761056976E-02 -0.18458960127E-02  0.39767381446E+01  0.39774459218E+01  0.75000000000E-01 0.  1.
</event>
<event>
 5   0  0.5237200E+07  0.9118800E+02  0.7818608E-02  0.1180000E+00
       11   -1    0    0    0    0  0.00000000000E+00  0.00000000000E+00  0.39999999673E+01  0.40000000000E+01  0.51109989000E-03 0.  1.
     -623   -1    0    0    0    0  0.00000000000E+00  0.00000000000E+00  0.12525980253E-10  0.17130000000E+03  0.17130000000E+03 0.  1.
       11    1    1    2    0    0  0.28746401148E-01  0.20932742366E-01  0.91730044619E-01  0.98382913099E-01  0.51109989000E-03 0.  1.
     -623    1    1    2    0    0 -0.98551126499E-02 -0.45560876582E-02  0.74543840830E-02  0.17130000051E+03  0.17130000000E+03 0.  1.
      622    1    1    2    0    0 -0.18891288499E-01 -0.16376654707E-01  0.39008155387E+01  0.39016165806E+01  0.75000000000E-01 0.  1.
</event>
<event>
 5   0  0.5237200E+07  0.9118800E+02  0.7818608E-02  0.1180000E+00
       11   -1    0    0    0    0  0.00000000000E+00  0.00000000000E+00  0.39999999673E+01  0.40000000000E+01  0.51109989000E-03 0. -1.
     -623   -1    0    0    0    0  0.00000000000E+00  0.00000000000E+00  0.12525980253E-10  0.17130000000E+03  0.17130000000E+03 0. -1.
       11    1    1    2    0    0 -0.27789382433E-02 -0.44698638982E-02  0.24882337017E-01  0.25438044322E-01  0.51109989000E-03 0. -1.
     -623    1    1    2    0    0 -0.18055305544E-02  0.67925568621E-02  0.12668349730E-02  0.17130000015E+03  0.17130000000E+03 0. -1.
      622    1    1    2    0    0  0.45844687977E-02 -0.23226929640E-02  0.39738507954E+01  0.39745618068E+01  0.75000000000E-01 0. -1.
</event>
<event>
 5   0  0.5237200E+07  0.9118800E+02  0.7818608E-02  0.1180000E+00
       11   -1    0    0    0    0  0.00000000000E+00  0.00000000000E+00  0.39999999673E+01  0.40000000000E+01  0.51109989000E-03 0.  1.
     -623   -1    0    0    0    0  0.00000000000E+00  0.00000000000E+00  0.12525980253E-10  0.17130000000E+03  0.17130000000E+03 0. -1.
       11    1    1    2    0    0 -0.37475717593E-02 -0.40201227931E-03  0.86147950896E-02  0.94171028186E-02  0.51109989000E-03 0.  1.
     -623    1    1    2    0    0  0.68220528407E-02 -0.14464068957E-01  0.15367549061E-02  0.17130000075E+03  0.17130000000E+03 0. -1.
      622    1    1    2    0    0 -0.30744810814E-02  0.14866081236E-01  0.39898484173E+01  0.39905821438E+01  0.75000000000E-01 0.  1.
</event>
<event>
 5   0  0.5237200E+07  0.9118800E+02  0.7818608E-02  0.1180000E+00
       11   -1    0    0    0    0  0.00000000000E+00  0.00000000000E+00  0.39999999673E+01  0.40000000000E+01  0.51109989000E-03 0. -1.
     -623   -1    0    0    0    0  0.00000000000E+00  0.00000000000E+00  0.12525980253E-10  0.17130000000E+03  0.17130000000E+03 0.  1.
       11    1    1    2    0    0 -0.51709564823E-02  0.11977724396E-01  0.59085277158E-01  0.60510626113E-01  0.51109989000E-03 0. -1.
     -623    1    1    2    0    0 -0.36508854222E-02 -0.10801507056E-01  0.21497540092E-02  0.17130000039E+03  0.17130000000E+03 0.  1.
      622    1    1    2    0    0  0.88218419045E-02 -0.11762173402E-02  0.39387649362E+01  0.39394889809E+01  0.75000000000E-01 0. -1.
</event>
<event>
 5   0  0.5237200E+07  0.9118800E+02  0.7818608E-02  0.1180000E+00
       11   -1    0    0    0    0  0.00000000000E+00  0.00000000000E+00  0.39999999673E+01  0.40000000000E+01  0.51109989000E-03 0.  1.
     -623   -1    0    0    0    0  0.00000000000E+00  0.00000000000E+00  0.12525980253E-10  0.17130000000E+03  0.17130000000E+03 0. -1.
       11    1    1    2    0    0  0.16546202998E-02 -0.23307800445E-02  0.53594668521E-01  0.53673270994E-01  0.51109989000E-03 0.  1.
     -623    1    1    2    0    0 -0.24477640287E-02  0.28341626250E-03  0.79195273310E-03  0.17130000002E+03  0.17130000000E+03 0. -1.
      622    1    1    2    0    0  0.79314372884E-03  0.20473637820E-02  0.39456133461E+01  0.39463267095E+01  0.75000000000E-01 0.  1.
</event>
<event>
 5   0  0.5237200E+07  0.9118800E+02  0.7818608E-02  0.1180000E+00
       11   -1    0    0    0    0  0.00000000000E+00  0.00000000000E+00  0.39999999673E+01  0.40000000000E+01  0.51109989000E-03 0. -1.
     -623   -1    0    0    0    0  0.00000000000E+00  0.00000000000E+00  0.12525980253E-10  0.17130000000E+03  0.17130000000E+03 0. -1.
       11    1    1    2    0    0  0.91975092457E-03 -0.47200103880E-03  0.15471162794E-01  0.15514084827E-01  0.51109989000E-03 0. -1.
     -623    1    1    2    0    0 -0.55774561960E-03 -0.53717761820E-03  0.74896228999E-03  0.17130000000E+03  0.17130000000E+03 0. -1.
      622    1    1    2    0    0 -0.36200530488E-03  0.10091786571E-02  0.39837798429E+01  0.39844859124E+01  0.75000000000E-01 0. -1.
</event>
<event>
 5   0  0.5237200E+07  0.9118800E+02  0.7818608E-02  0.1180000E+00
       11   -1    0    0    0    0  0.00000000000E+00  0.00000000000E+00  0.39999999673E+01  0.40000000000E+01  0.51109989000E-03 0.  1.
     -623   -1    0    0    0    0  0.00000000000E+00  0.00000000000E+00  0.12525980253E-10  0.17130000000E+03  0.17130000000E+03 0. -1.
       11    1    1    2    0    0 -0.11341130745E-01  0.27365699170E-02  0.10266152925E+00  0.10332357365E+00  0.51109989000E-03 0.  1.
     -623    1    1    2    0    0  0.33396785616E-02 -0.76046319529E-02  0.13953126434E-02  0.17130000021E+03  0.17130000000E+03 0. -1.
      622    1    1    2    0    0  0.80014521829E-02  0.48680620361E-02  0.38959431255E+01  0.38966762194E+01  0.75000000000E-01 0.  1.
</event>
<event>
 5   0  0.5237200E+07  0.9118800E+02  0.7818608E-02  0.1180000E+00
       11   -1    0    0    0    0  0.00000000000E+00  0.00000000000E+00  0.39999999673E+01  0.40000000000E+01  0.51109989000E-03 0.  1.
     -623   -1    0    0    0    0  0.00000000000E+00  0.00000000000E+00  0.12525980253E-10  0.17130000000E+03  0.17130000000E+03 0.  1.
       11    1    1    2    0    0 -0.89659418636E-02 -0.13570476307E-02  0.60038198440E+00  0.60045067916E+00  0.51109989000E-03 0.  1.
     -623    1    1    2    0    0  0.22117124069E-02 -0.25851833629E-02  0.90511217395E-03  0.17130000004E+03  0.17130000000E+03 0.  1.
      622    1    1    2    0    0  0.67542294567E-02  0.39422309935E-02  0.33987128708E+01  0.33995492847E+01  0.75000000000E-01 0.  1.
</event>
<event>
 5   0  0.5237200E+07  0.9118800E+02  0.7818608E-02  0.1180000E+00
       11   -1    0    0    0    0  0.00000000000E+00  0.00000000000E+00  0.39999999673E+01  0.40000000000E+01  0.51109989000E-03 0.  1.
     -623   -1    0    0    0    0  0.00000000000E+00  0.00000000000E+00  0.12525980253E-10  0.17130000000E+03  0.17130000000E+03 0.  1.
       11    1    1    2    0    0  0.46536062989E-02 -0.17503335490E-03  0.21496200235E-01  0.22000784893E-01  0.51109989000E-03 0.  1.
     -623    1    1    2    0    0 -0.59354518302E-02 -0.12991011547E-02  0.12122203861E-02  0.17130000011E+03  0.17130000000E+03 0.  1.
      622    1    1    2    0    0  0.12818455311E-02  0.14741345095E-02  0.39772915467E+01  0.39779991030E+01  0.75000000000E-01 0.  1.
</event>
<event>
 5   0  0.5237200E+07  0.9118800E+02  0.7818608E-02  0.1180000E+00
       11   -1    0    0    0    0  0.00000000000E+00  0.00000000000E+00  0.39999999673E+01  0.40000000000E+01  0.51109989000E-03 0. -1.
     -623   -1    0    0    0    0  0.00000000000E+00  0.00000000000E+00  0.12525980253E-10  0.17130000000E+03  0.17130000000E+03 0. -1.
       11    1    1    2    0    0  0.40375673241E-02  0.17757469880E-01  0.39257351315E-01  0.43278522871E-01  0.51109989000E-03 0. -1.
     -623    1    1    2    0    0 -0.11607364174E-01 -0.11740724617E-02  0.47744834310E-02  0.17130000046E+03  0.17130000000E+03 0. -1.
      622    1    1    2    0    0  0.75697968495E-02 -0.16583397418E-01  0.39559681326E+01  0.39567210133E+01  0.75000000000E-01 0. -1.
</event>
<event>
 5   0  0.5237200E+07  0.9118800E+02  0.7818608E-02  0.1180000E+00
       11   -1    0    0    0    0  0.00000000000E+00  0.00000000000E+00  0.39999999673E+01  0.40000000000E+01  0.51109989000E-03 0.  1.
     -623   -1    0    0    0    0  0.00000000000E+00  0.00000000000E+00  0.12525980253E-10  0.17130000000E+03  0.17130000000E+03 0.  1.
       11    1    1    2    0    0  0.84357583829E-02 -0.25756051395E-02  0.29019008336E+00  0.29032454506E+00  0.51109989000E-03 0.  1.
     -623    1    1    2    0    0  0.85399883949E-03 -0.49496691611E-03  0.90556949989E-03  0.17130000001E+03  0.17130000000E+03 0.  1.
      622    1    1    2    0    0 -0.92897572225E-02  0.30705720556E-02  0.37089043148E+01  0.37096754500E+01  0.75000000000E-01 0.  1.
</event>
<event>
 5   0  0.5237200E+07  0.9118800E+02  0.7818608E-02  0.1180000E+00
       11   -1    0    0    0    0  0.00000000000E+00  0.00000000000E+00  0.39999999673E+01  0.40000000000E+01  0.51109989000E-03 0.  1.
     -623   -1    0    0    0    0  0.00000000000E+00  0.00000000000E+00  0.12525980253E-10  0.17130000000E+03  0.17130000000E+03 0. -1.
       11    1    1    2    0    0 -0.18974732594E-02 -0.10370827621E-02  0.73324805706E-02  0.76617517475E-02  0.51109989000E-03 0.  1.
     -623    1    1    2    0    0  0.19595971158E-03  0.46822659386E-02  0.10358693808E-02  0.17130000007E+03  0.17130000000E+03 0. -1.
      622    1    1    2    0    0  0.17015135478E-02 -0.36451831771E-02  0.39916316179E+01  0.39923381815E+01  0.75000000000E-01 0.  1.
</event>
<event>
 5   0  0.5237200E+07  0.9118800E+02  0.7818608E-02  0.1180000E+00
       11   -1    0    0    0    0  0.00000000000E+00  0.00000000000E+00  0.39999999673E+01  0.40000000000E+01  0.51109989000E-03 0. -1.
     -623   -1    0    0    0    0  0.00000000000E+00  0.00000000000E+00  0.12525980253E-10  0.17130000000E+03  0.17130000000E+03 0. -1.
       11    1    1    2    0    0  0.31901101092E-01  0.68971615944E-01  0.10144601528E+01  0.10173025248E+01  0.51109989000E-03 0. -1.
     -623    1    1    2    0    0  0.11583488109E-01 -0.63410761328E-02  0.47610063256E-02  0.17130000058E+03  0.17130000000E+03 0. -1.
      622    1    1    2    0    0 -0.43484589201E-01 -0.62630539811E-01  0.29807788082E+01  0.29826969000E+01  0.75000000000E-01 0. -1.
</event>
<event>
 5   0  0.5237200E+07  0.9118800E+02  0.7818608E-02  0.1180000E+00
       11   -1    0    0    0    0  0.00000000000E+00  0.00000000000E+00  0.39999999673E+01  0.40000000000E+01  0.51109989000E-03 0. -1.
     -623   -1    0    0    0    0  0.00000000000E+00  0.00000000000E+00  0.12525980253E-10  0.17130000000E+03  0.17130000000E+03 0.  1.
       11    1    1    2    0    0 -0.88289817297E-02  0.48649930686E-02  0.11181002256E+00  0.11226469366E+00  0.51109989000E-03 0. -1.
     -623    1    1    2    0    0 -0.17887324495E-02 -0.79224912359E-02  0.11940355542E-02  0.17130000020E+03  0.17130000000E+03 0.  1.
      622    1    1    2    0    0  0.10617714179E-01  0.30574981674E-02  0.38869959093E+01  0.38877351097E+01  0.75000000000E-01 0. -1.
</event>
<event>
 5   0  0.5237200E+07  0.9118800E+02  0.7818608E-02  0.1180000E+00
       11   -1    0    0    0    0  0.00000000000E+00  0.00000000000E+00  0.39999999673E+01  0.40000000000E+01  0.51109989000E-03 0. -1.
     -623   -1    0    0    0    0  0.00000000000E+00  0.00000000000E+00  0.12525980253E-10  0.17130000000E+03  0.17130000000E+03 0.  1.
       11    1    1    2    0    0  0.48226184675E-02  0.32157539788E-02  0.21248716369E+00  0.21256682403E+00  0.51109989000E-03 0. -1.
     -623    1    1    2    0    0  0.23285593531E-02  0.44918882437E-02  0.83696147198E-03  0.17130000008E+03  0.17130000000E+03 0.  1.
      622    1    1    2    0    0 -0.71511778206E-02 -0.77076422225E-02  0.37866758422E+01  0.37874330992E+01  0.75000000000E-01 0.  0.
</event>
<event>
 5   0  0.5237200E+07  0.9118800E+02  0.7818608E-02  0.1180000E+00
       11   -1    0    0    0    0  0.00000000000E+00  0.00000000000E+00  0.39999999673E+01  0.40000000000E+01  0.51109989000E-03 0. -1.
     -623   -1    0    0    0    0  0.00000000000E+00  0.00000000000E+00  0.12525980253E-10  0.17130000000E+03  0.17130000000E+03 0. -1.
       11    1    1    2    0    0  0.28074402916E-02 -0.73306797093E-02  0.12066639471E+00  0.12092253975E+00  0.51109989000E-03 0. -1.
     -623    1    1    2    0    0 -0.12624002502E-02  0.46950569568E-02  0.98249883224E-03  0.17130000007E+03  0.17130000000E+03 0. -1.
      622    1    1    2    0    0 -0.15450400414E-02  0.26356227527E-02  0.38783510736E+01  0.38790773883E+01  0.75000000000E-01 0. -1.
</event>
<event>
 5   0  0.5237200E+07  0.9118800E+02  0.7818608E-02  0.1180000E+00
       11   -1    0    0    0    0  0.00000000000E+00  0.00000000000E+00  0.39999999673E+01  0.40000000000E+01  0.51109989000E-03 0. -1.
     -623   -1    0    0    0    0  0.00000000000E+00  0.00000000000E+00  0.12525980253E-10  0.17130000000E+03  0.17130000000E+03 0. -1.
       11    1    1    2    0    0 -0.27999654462E-01 -0.13586995456E-01  0.51831653262E+00  0.51925030217E+00  0.51109989000E-03 0. -1.
     -623    1    1    2    0    0 -0.15198664257E-01  0.82222642688E-02  0.20149974015E-02  0.17130000088E+03  0.17130000000E+03 0. -1.
      622    1    1    2    0    0  0.43198318719E-01  0.53647311865E-02  0.34796684374E+01  0.34807488145E+01  0.75000000000E-01 0.  0.
</event>
<event>
 5   0  0.5237200E+07  0.9118800E+02  0.7818608E-02  0.1180000E+00
       11   -1    0    0    0    0  0.00000000000E+00  0.00000000000E+00  0.39999999673E+01  0.40000000000E+01  0.51109989000E-03 0. -1.
     -623   -1    0    0    0    0  0.00000000000E+00  0.00000000000E+00  0.12525980253E-10  0.17130000000E+03  0.17130000000E+03 0.  1.
       11    1    1    2    0    0  0.23069316119E-01  0.90739107810E-02  0.25657890239E+00  0.25777417166E+00  0.51109989000E-03 0. -1.
     -623    1    1    2    0    0 -0.12138767503E-01  0.18075566016E-02  0.19791115087E-02  0.17130000045E+03  0.17130000000E+03 0.  1.
      622    1    1    2    0    0 -0.10930548616E-01 -0.10881467383E-01  0.37414419535E+01  0.37422253773E+01  0.75000000000E-01 0. -1.
</event>
<event>
 5   0  0.5237200E+07  0.9118800E+02  0.7818608E-02  0.1180000E+00
       11   -1    0    0    0    0  0.00000000000E+00  0.00000000000E+00  0.39999999673E+01  0.40000000000E+01  0.51109989000E-03 0. -1.
     -623   -1    0    0    0    0  0.00000000000E+00  0.00000000000E+00  0.12525980253E-10  0.17130000000E+03  0.17130000000E+03 0.  1.
       11    1    1    2    0    0 -0.20555977429E-02  0.53967609359E-03  0.10499399523E-01  0.10724520661E-01  0.51109989000E-03 0. -1.
     -623    1    1    2    0    0  0.68034540551E-03  0.17573715261E-02  0.93107747885E-03  0.17130000001E+03  0.17130000000E+03 0.  1.
      622    1    1    2    0    0  0.13752523374E-02 -0.22970476197E-02  0.39885694904E+01  0.39892754664E+01  0.75000000000E-01 0. -1.
</event>
<event>
 5   0  0.5237200E+07  0.9118800E+02  0.7818608E-02  0.1180000E+00
       11   -1    0    0    0    0  0.00000000000E+00  0.00000000000E+00  0.39999999673E+01  0.40000000000E+01  0.51109989000E-03 0.  1.
     -623   -1    0    0    0    0  0.00000000000E+00  0.00000000000E+00  0.12525980253E-10  0.17130000000E+03  0.17130000000E+03 0. -1.
       11    1    1    2    0    0  0.28695793203E-02 -0.89774773703E-02  0.35863961790E-01  0.37085233770E-01  0.51109989000E-03 0.  1.
     -623    1    1    2    0    0 -0.68839127661E-02  0.10080499158E-01  0.19336408178E-02  0.17130000045E+03  0.17130000000E+03 0. -1.
      622    1    1    2    0    0  0.40143334459E-02 -0.11030217880E-02  0.39622023648E+01  0.39629143204E+01  0.75000000000E-01 0.  1.
</event>
<event>
 5   0  0.5237200E+07  0.9118800E+02  0.7818608E-02  0.1180000E+00
       11   -1    0    0    0    0  0.00000000000E+00  0.00000000000E+00  0.39999999673E+01  0.40000000000E+01  0.51109989000E-03 0. -1.
     -623   -1    0    0    0    0  0.00000000000E+00  0.00000000000E+00  0.12525980253E-10  0.17130000000E+03  0.17130000000E+03 0. -1.
       11    1    1    2    0    0  0.27778730893E-03 -0.50120250161E-02  0.11611341940E-01  0.12660254551E-01  0.51109989000E-03 0. -1.
     -623    1    1    2    0    0 -0.11199186054E-01  0.87855597440E-02  0.17716460785E-02  0.17130000060E+03  0.17130000000E+03 0. -1.
      622    1    1    2    0    0  0.10921398745E-01 -0.37735347280E-02  0.39866169794E+01  0.39873391450E+01  0.75000000000E-01 0. -1.
</event>
<event>
 5   0  0.5237200E+07  0.9118800E+02  0.7818608E-02  0.1180000E+00
       11   -1    0    0    0    0  0.00000000000E+00  0.00000000000E+00  0.39999999673E+01  0.40000000000E+01  0.51109989000E-03 0. -1.
     -623   -1    0    0    0    0  0.00000000000E+00  0.00000000000E+00  0.12525980253E-10  0.17130000000E+03  0.17130000000E+03 0. -1.
       11    1    1    2    0    0  0.79575772819E-03  0.82414384759E-02  0.34100368420E-01  0.35094884071E-01  0.51109989000E-03 0. -1.
     -623    1    1    2    0    0 -0.77520563991E-02  0.11017758537E-02  0.17211966779E-02  0.17130000019E+03  0.17130000000E+03 0. -1.
      622    1    1    2    0    0  0.69562986708E-02 -0.93432143296E-02  0.39641784022E+01  0.39649049283E+01  0.75000000000E-01 0. -1.
</event>
<event>
 5   0  0.5237200E+07  0.9118800E+02  0.7818608E-02  0.1180000E+00
       11   -1    0    0    0    0  0.00000000000E+00  0.00000000000E+00  0.39999999673E+01  0.40000000000E+01  0.51109989000E-03 0.  1.
     -623   -1    0    0    0    0  0.00000000000E+00  0.00000000000E+00  0.12525980253E-10  0.17130000000E+03  0.17130000000E+03 0. -1.
       11    1    1    2    0    0  0.34767368307E-02  0.90660898097E-03  0.44107579528E-01  0.44256631523E-01  0.51109989000E-03 0.  1.
     -623    1    1    2    0    0 -0.38250815431E-02 -0.42934261034E-02  0.86163893914E-03  0.17130000010E+03  0.17130000000E+03 0. -1.
      622    1    1    2    0    0  0.34834471319E-03  0.33868171232E-02  0.39550307497E+01  0.39557432706E+01  0.75000000000E-01 0.  1.
</event>
<event>
 5   0  0.5237200E+07  0.9118800E+02  0.7818608E-02  0.1180000E+00
       11   -1    0    0    0    0  0.00000000000E+00  0.00000000000E+00  0.39999999673E+01  0.40000000000E+01  0.51109989000E-03 0.  1.
     -623   -1    0    0    0    0  0.00000000000E+00  0.00000000000E+00  0.12525980253E-10  0.17130000000E+03  0.17130000000E+03 0. -1.
       11    1    1    2    0    0  0.42944200162E-02  0.14587135872E-02  0.11586740206E-01  0.12453259024E-01  0.51109989000E-03 0.  1.
     -623    1    1    2    0    0 -0.76265242830E-03 -0.15756351952E-02  0.15734516601E-02  0.17130000002E+03  0.17130000000E+03 0. -1.
      622    1    1    2    0    0 -0.35317675879E-02  0.11692160800E-03  0.39868397755E+01  0.39875467248E+01  0.75000000000E-01 0.  1.
</event>
<event>
 5   0  0.5237200E+07  0.9118800E+02  0.7818608E-02  0.1180000E+00
       11   -1    0    0    0    0  0.00000000000E+00  0.00000000000E+00  0.39999999673E+01  0.40000000000E+01  0.51109989000E-03 0.  1.
     -623   -1    0    0    0    0  0.00000000000E+00  0.00000000000E+00  0.12525980253E-10  0.17130000000E+03  0.17130000000E+03 0.  1.
       11    1    1    2    0    0 -0.41918527679E-03  0.42833206587E-02  0.58343206750E-02  0.72679482192E-02  0.51109989000E-03 0.  1.
     -623    1    1    2    0    0 -0.37258250432E-02 -0.71689012966E-02  0.21414607253E-02  0.17130000020E+03  0.17130000000E+03 0.  1.
      622    1    1    2    0    0  0.41450103200E-02  0.28855806379E-02  0.39920241860E+01  0.39927318479E+01  0.75000000000E-01 0.  1.
</event>
<event>
 5   0  0.5237200E+07  0.9118800E+02  0.7818608E-02  0.1180000E+00
       11   -1    0    0    0    0  0.00000000000E+00  0.00000000000E+00  0.39999999673E+01  0.40000000000E+01  0.51109989000E-03 0.  1.
     -623   -1    0    0    0    0  0.00000000000E+00  0.00000000000E+00  0.12525980253E-10  0.17130000000E+03  0.17130000000E+03 0. -1.
       11    1    1    2    0    0  0.17578384028E-01 -0.20383222981E-01  0.59867007988E+00  0.59927506299E+00  0.51109989000E-03 0.  1.
     -623    1    1    2    0    0  0.18628198084E-02  0.40348638217E-02  0.15270359122E-02  0.17130000006E+03  0.17130000000E+03 0. -1.
      622    1    1    2    0    0 -0.19441203836E-01  0.16348359159E-01  0.33998028516E+01  0.34007248726E+01  0.75000000000E-01 0.  1.
</event>
<event>
 5   0  0.5237200E+07  0.9118800E+02  0.7818608E-02  0.1180000E+00
       11   -1    0    0    0    0  0.00000000000E+00  0.00000000000E+00  0.39999999673E+01  0.40000000000E+01  0.51109989000E-03 0. -1.
     -623   -1    0    0    0    0  0.00000000000E+00  0.00000000000E+00  0.12525980253E-10  0.17130000000E+03  0.17130000000E+03 0. -1.
       11    1    1    2    0    0 -0.58454459959E-03  0.55760785118E-03  0.21477717407E-02  0.23509069600E-02  0.51109989000E-03 0. -1.
     -623    1    1    2    0    0  0.21289038264E-03 -0.24902170627E-02  0.90720813268E-03  0.17130000002E+03  0.17130000000E+03 0. -1.
      622    1    1    2    0    0  0.37165421695E-03  0.19326092115E-02  0.39969449875E+01  0.39976490724E+01  0.75000000000E-01 0. -1.
</event>
<event>
 5   0  0.5237200E+07  0.9118800E+02  0.7818608E-02  0.1180000E+00
       11   -1    0    0    0    0  0.00000000000E+00  0.00000000000E+00  0.39999999673E+01  0.40000000000E+01  0.51109989000E-03 0. -1.
     -623   -1    0    0    0    0  0.00000000000E+00  0.00000000000E+00  0.12525980253E-10  0.17130000000E+03  0.17130000000E+03 0. -1.
       11    1    1    2    0    0 -0.10604693489E-02 -0.41557811184E-02  0.51432952871E-02  0.67163845521E-02  0.51109989000E-03 0. -1.
     -623    1    1    2    0    0  0.24397610754E-02  0.46750296605E-02  0.22777946888E-02  0.17130000010E+03  0.17130000000E+03 0. -1.
      622    1    1    2    0    0 -0.13792917264E-02 -0.51924854204E-03  0.39925788773E+01  0.39932835190E+01  0.75000000000E-01 0. -1.
</event>
<event>
 5   0  0.5237200E+07  0.9118800E+02  0.7818608E-02  0.1180000E+00
       11   -1    0    0    0    0  0.00000000000E+00  0.00000000000E+00  0.39999999673E+01  0.40000000000E+01  0.51109989000E-03 0.  1.
     -623   -1    0    0    0    0  0.00000000000E+00  0.00000000000E+00  0.12525980253E-10  0.17130000000E+03  0.17130000000E+03 0. -1.
       11    1    1    2    0    0 -0.26554782329E-02 -0.63535391011E-02  0.83755242355E-02  0.10854936713E-01  0.51109989000E-03 0.  1.
     -623    1    1    2    0    0  0.31481831704E-02  0.87947613551E-02  0.31855423430E-02  0.17130000028E+03  0.17130000000E+03 0. -1.
      622    1    1    2    0    0 -0.49270493754E-03 -0.24412222540E-02  0.39884389008E+01  0.39891447790E+01  0.75000000000E-01 0.  1.
</event>
<event>
 5   0  0.5237200E+07  0.9118800E+02  0.7818608E-02  0.1180000E+00
       11   -1    0    0    0    0  0.00000000000E+00  0.00000000000E+00  0.39999999673E+01  0.40000000000E+01  0.51109989000E-03 0.  1.
     -623   -1    0    0    0    0  0.00000000000E+00  0.00000000000E+00  0.12525980253E-10  0.17130000000E+03  0.17130000000E+03 0.  1.
       11    1    1    2    0    0  0.34030711137E-02  0.11288125009E-01  0.91066207619E-01  0.91827654061E-01  0.51109989000E-03 0.  1.
     -623    1    1    2    0    0  0.51419378874E-02 -0.49389865745E-02  0.14957824940E-02  0.17130000015E+03  0.17130000000E+03 0.  1.
      622    1    1    2    0    0 -0.85450090010E-02 -0.63491384344E-02  0.39074379772E+01  0.39081721910E+01  0.75000000000E-01 0.  1.
</event>
<event>
 5   0  0.5237200E+07  0.9118800E+02  0.7818608E-02  0.1180000E+00
       11   -1    0    0    0    0  0.00000000000E+00  0.00000000000E+00  0.39999999673E+01  0.40000000000E+01  0.51109989000E-03 0. -1.
     -623   -1    0    0    0    0  0.00000000000E+00  0.00000000000E+00  0.12525980253E-10  0.17130000000E+03  0.17130000000E+03 0. -1.
       11    1    1    2    0    0  0.32431697190E-03 -0.29168219739E-03  0.15471628708E-01  0.15486212463E-01  0.51109989000E-03 0. -1.
     -623    1    1    2    0    0  0.23883160513E-02  0.28624674781E-02  0.72226651968E-03  0.17130000004E+03  0.17130000000E+03 0. -1.
      622    1    1    2    0    0 -0.27126330232E-02 -0.25707852807E-02  0.39838060721E+01  0.39845137454E+01  0.75000000000E-01 0. -1.
</event>
<event>
 5   0  0.5237200E+07  0.9118800E+02  0.7818608E-02  0.1180000E+00
       11   -1    0    0    0    0  0.00000000000E+00  0.00000000000E+00  0.39999999673E+01  0.40000000000E+01  0.51109989000E-03 0.  1.
     -623   -1    0    0    0    0  0.00000000000E+00  0.00000000000E+00  0.12525980253E-10  0.17130000000E+03  0.17130000000E+03 0. -1.
       11    1    1    2    0    0 -0.86826579414E-02  0.41739835870E-01  0.16126546312E+00  0.16680651445E+00  0.51109989000E-03 0.  1.
     -623    1    1    2    0    0 -0.19692869855E-01  0.56653965542E-01  0.76538505578E-02  0.17130001067E+03  0.17130000000E+03 0. -1.
      622    1    1    2    0    0  0.28375527797E-01 -0.98393801412E-01  0.38310806537E+01  0.38331828140E+01  0.75000000000E-01 0.  1.
</event>
<event>
 5   0  0.5237200E+07  0.9118800E+02  0.7818608E-02  0.1180000E+00
       11   -1    0    0    0    0  0.00000000000E+00  0.00000000000E+00  0.39999999673E+01  0.40000000000E+01  0.51109989000E-03 0.  1.
     -623   -1    0    0    0    0  0.00000000000E+00  0.00000000000E+00  0.12525980253E-10  0.17130000000E+03  0.17130000000E+03 0. -1.
       11    1    1    2    0    0 -0.13712104188E-02  0.65203045768E-02  0.18401835626E-01  0.19577624148E-01  0.51109989000E-03 0.  1.
     -623    1    1    2    0    0 -0.62369240813E-02 -0.10519763793E-01  0.18921310049E-02  0.17130000045E+03  0.17130000000E+03 0. -1.
      622    1    1    2    0    0  0.76081345001E-02  0.39994592159E-02  0.39797060007E+01  0.39804219288E+01  0.75000000000E-01 0.  1.
</event>
<event>
 5   0  0.5237200E+07  0.9118800E+02  0.7818608E-02  0.1180000E+00
       11   -1    0    0    0    0  0.00000000000E+00  0.00000000000E+00  0.39999999673E+01  0.40000000000E+01  0.51109989000E-03 0. -1.
     -623   -1    0    0    0    0  0.00000000000E+00  0.00000000000E+00  0.12525980253E-10  0.17130000000E+03  0.17130000000E+03 0.  1.
       11    1    1    2    0    0 -0.19385142862E-02  0.48323673298E-02  0.72693566390E-02  0.89562480444E-02  0.51109989000E-03 0. -1.
     -623    1    1    2    0    0  0.58211937212E-02 -0.11624805196E-01  0.23998042019E-02  0.17130000051E+03  0.17130000000E+03 0.  1.
      622    1    1    2    0    0 -0.38826794349E-02  0.67924378663E-02  0.39903308065E+01  0.39910432418E+01  0.75000000000E-01 0. -1.
</event>
<event>
 5   0  0.5237200E+07  0.9118800E+02  0.7818608E-02  0.1180000E+00
       11   -1    0    0    0    0  0.00000000000E+00  0.00000000000E+00  0.39999999673E+01  0.40000000000E+01  0.51109989000E-03 0.  1.
     -623   -1    0    0    0    0  0.00000000000E+00  0.00000000000E+00  0.12525980253E-10  0.17130000000E+03  0.17130000000E+03 0. -1.
       11    1    1    2    0    0  0.19576766875E-01  0.99212039193E-02  0.12873441940E+00  0.13059284838E+00  0.51109989000E-03 0.  1.
     -623    1    1    2    0    0 -0.58265942455E-03  0.61252030649E-02  0.26653584712E-02  0.17130000013E+03  0.17130000000E+03 0. -1.
      622    1    1    2    0    0 -0.18994107451E-01 -0.16046406984E-01  0.38686001895E+01  0.38694070204E+01  0.75000000000E-01 0.  1.
</event>
<event>
 5   0  0.5237200E+07  0.9118800E+02  0.7818608E-02  0.1180000E+00
       11   -1    0    0    0    0  0.00000000000E+00  0.00000000000E+00  0.39999999673E+01  0.40000000000E+01  0.51109989000E-03 0. -1.
     -623   -1    0    0    0    0  0.00000000000E+00  0.00000000000E+00  0.12525980253E-10  0.17130000000E+03  0.17130000000E+03 0. -1.
       11    1    1    2    0    0  0.24080312413E-02 -0.51293651017E-02  0.41933159020E-01  0.42317372901E-01  0.51109989000E-03 0. -1.
     -623    1    1    2    0    0 -0.11797761707E-02  0.35917050148E-03  0.10979620537E-02  0.17130000001E+03  0.17130000000E+03 0. -1.
      622    1    1    2    0    0 -0.12282550704E-02  0.47701946001E-02  0.39569688465E+01  0.39576826194E+01  0.75000000000E-01 0. -1.
</event>
<event>
 5   0  0.5237200E+07  0.9118800E+02  0.7818608E-02  0.1180000E+00
       11   -1    0    0    0    0  0.00000000000E+00  0.00000000000E+00  0.39999999673E+01  0.40000000000E+01  0.51109989000E-03 0. -1.
     -623   -1    0    0    0    0  0.00000000000E+00  0.00000000000E+00  0.12525980253E-10  0.17130000000E+03  0.17130000000E+03 0.  1.
       11    1    1    2    0    0 -0.74004695865E-02  0.26654385029E-02  0.12076523086E+00  0.12102220342E+00  0.51109989000E-03 0. -1.
     -623    1    1    2    0    0  0.40836722666E-03 -0.38728259409E-02  0.98860795852E-03  0.17130000005E+03  0.17130000000E+03 0.  1.
      622    1    1    2    0    0  0.69921023599E-02  0.12073874378E-02  0.38782461283E+01  0.38789777493E+01  0.75000000000E-01 0. -1.
</event>
<event>
 5   0  0.5237200E+07  0.9118800E+02  0.7818608E-02  0.1180000E+00
       11   -1    0    0    0    0  0.00000000000E+00  0.00000000000E+00  0.39999999673E+01  0.40000000000E+01  0.51109989000E-03 0.  1.
     -623   -1    0    0    0    0  0.00000000000E+00  0.00000000000E+00  0.12525980253E-10  0.17130000000E+03  0.17130000000E+03 0. -1.
       11    1    1    2    0    0 -0.97762290360E-02  0.28748141153E-02  0.16339338222E+00  0.16371162996E+00  0.51109989000E-03 0.  1.
     -623    1    1    2    0    0  0.10473662847E-02 -0.72344696143E-03  0.10619595191E-02  0.17130000001E+03  0.17130000000E+03 0. -1.
      622    1    1    2    0    0  0.87288627512E-02 -0.21513671539E-02  0.38355446256E+01  0.38362883620E+01  0.75000000000E-01 0.  1.
</event>
<event>
 5   0  0.5237200E+07  0.9118800E+02  0.7818608E-02  0.1180000E+00
       11   -1    0    0    0    0  0.00000000000E+00  0.00000000000E+00  0.39999999673E+01  0.40000000000E+01  0.51109989000E-03 0. -1.
     -623   -1    0    0    0    0  0.00000000000E+00  0.00000000000E+00  0.12525980253E-10  0.17130000000E+03  0.17130000000E+03 0. -1.
       11    1    1    2    0    0  0.48952502281E-02 -0.30507077670E-02  0.55314274372E-02  0.80080088203E-02  0.51109989000E-03 0. -1.
     -623    1    1    2    0    0 -0.48066155740E-02  0.32974155455E-02  0.31812837509E-02  0.17130000013E+03  0.17130000000E+03 0. -1.
      622    1    1    2    0    0 -0.88634654217E-04 -0.24670777837E-03  0.39912872561E+01  0.39919918624E+01  0.75000000000E-01 0. -1.
</event>
<event>
 5   0  0.5237200E+07  0.9118800E+02  0.7818608E-02  0.1180000E+00
       11   -1    0    0    0    0  0.00000000000E+00  0.00000000000E+00  0.39999999673E+01  0.40000000000E+01  0.51109989000E-03 0.  1.
     -623   -1    0    0    0    0  0.00000000000E+00  0.00000000000E+00  0.12525980253E-10  0.17130000000E+03  0.17130000000E+03 0. -1.
       11    1    1    2    0    0  0.26637579814E-02 -0.22480750353E-02  0.12048030535E-01  0.12552518107E-01  0.51109989000E-03 0.  1.
     -623    1    1    2    0    0 -0.12494972693E-02  0.11226539245E-03  0.12106875979E-02  0.17130000001E+03  0.17130000000E+03 0. -1.
      622    1    1    2    0    0 -0.14142607120E-02  0.21358096428E-02  0.39867412495E+01  0.39874474733E+01  0.75000000000E-01 0.  1.
</event>
<event>
 5   0  0.5237200E+07  0.9118800E+02  0.7818608E-02  0.1180000E+00
       11   -1    0    0    0    0  0.00000000000E+00  0.00000000000E+00  0.39999999673E+01  0.40000000000E+01  0.51109989000E-03 0.  1.
     -623   -1    0    0    0    0  0.00000000000E+00  0.00000000000E+00  0.12525980253E-10  0.17130000000E+03  0.17130000000E+03 0. -1.
       11    1    1    2    0    0  0.17379122091E-02  0.41435766832E-02  0.35936198452E-01  0.36219623809E-01  0.51109989000E-03 0.  1.
     -623    1    1    2    0    0  0.17296433642E-02 -0.12001188676E-02  0.99563205949E-03  0.17130000002E+03  0.17130000000E+03 0. -1.
      622    1    1    2    0    0 -0.34675555734E-02 -0.29434578155E-02  0.39630681371E+01  0.39637803606E+01  0.75000000000E-01 0.  1.
</event>
<event>
 5   0  0.5237200E+07  0.9118800E+02  0.7818608E-02  0.1180000E+00
       11   -1    0    0    0    0  0.00000000000E+00  0.00000000000E+00  0.39999999673E+01  0.40000000000E+01  0.51109989000E-03 0. -1.
     -623   -1    0    0    0    0  0.00000000000E+00  0.00000000000E+00  0.12525980253E-10  0.17130000000E+03  0.17130000000E+03 0. -1.
       11    1    1    2    0    0 -0.16022812193E-02 -0.49894071150E-03  0.13957635181E-01  0.14067446386E-01  0.51109989000E-03 0. -1.
     -623    1    1    2    0    0  0.31096362798E-02  0.20112046524E-02  0.81606152828E-03  0.17130000004E+03  0.17130000000E+03 0. -1.
      622    1    1    2    0    0 -0.15073550605E-02 -0.15122639409E-02  0.39852262707E+01  0.39859325116E+01  0.75000000000E-01 0. -1.
</event>
<event>
 5   0  0.5237200E+07  0.9118800E+02  0.7818608E-02  0.1180000E+00
       11   -1    0    0    0    0  0.00000000000E+00  0.00000000000E+00  0.39999999673E+01  0.40000000000E+01  0.51109989000E-03 0.  1.
     -623   -1    0    0    0    0  0.00000000000E+00  0.00000000000E+00  0.12525980253E-10  0.17130000000E+03  0.17130000000E+03 0.  1.
       11    1    1    2    0    0 -0.70383015562E-02  0.56739665644E-02  0.34950197172E+00  0.34961925153E+00  0.51109989000E-03 0.  1.
     -623    1    1    2    0    0  0.20049171006E-02  0.64813480533E-04  0.89579301824E-03  0.17130000001E+03  0.17130000000E+03 0.  1.
      622    1    1    2    0    0  0.50333844556E-02 -0.57387800450E-02  0.36496022026E+01  0.36503807344E+01  0.75000000000E-01 0.  1.
</event>
<event>
 5   0  0.5237200E+07  0.9118800E+02  0.7818608E-02  0.1180000E+00
       11   -1    0    0    0    0  0.00000000000E+00  0.00000000000E+00  0.39999999673E+01  0.40000000000E+01  0.51109989000E-03 0. -1.
     -623   -1    0    0    0    0  0.00000000000E+00  0.00000000000E+00  0.12525980253E-10  0.17130000000E+03  0.17130000000E+03 0.  1.
       11    1    1    2    0    0  0.10701517515E-01 -0.46930129081E-02  0.56886811462E+00  0.56898834777E+00  0.51109989000E-03 0. -1.
     -623    1    1    2    0    0  0.79706858234E-03  0.18609669722E-02  0.96048396166E-03  0.17130000001E+03  0.17130000000E+03 0.  1.
      622    1    1    2    0    0 -0.11498586097E-01  0.28320459359E-02  0.34301713688E+01  0.34310116376E+01  0.75000000000E-01 0. -1.
</event>
<event>
 5   0  0.5237200E+07  0.9118800E+02  0.7818608E-02  0.1180000E+00
       11   -1    0    0    0    0  0.00000000000E+00  0.00000000000E+00  0.39999999673E+01  0.40000000000E+01  0.51109989000E-03 0.  1.
     -623   -1    0    0    0    0  0.00000000000E+00  0.00000000000E+00  0.12525980253E-10  0.17130000000E+03  0.17130000000E+03 0.  1.
       11    1    1    2    0    0  0.83457342579E-02 -0.57281386553E-02  0.34828019114E-01  0.36272785821E-01  0.51109989000E-03 0.  1.
     -623    1    1    2    0    0 -0.31108328278E-02 -0.49020077101E-02  0.21721835366E-02  0.17130000011E+03  0.17130000000E+03 0.  1.
      622    1    1    2    0    0 -0.52349014300E-02  0.10630146365E-01  0.39629997647E+01  0.39637271020E+01  0.75000000000E-01 0.  1.
</event>
<event>
 5   0  0.5237200E+07  0.9118800E+02  0.7818608E-02  0.1180000E+00
       11   -1    0    0    0    0  0.00000000000E+00  0.00000000000E+00  0.39999999673E+01  0.40000000000E+01  0.51109989000E-03 0.  1.
     -623   -1    0    0    0    0  0.00000000000E+00  0.00000000000E+00  0.12525980253E-10  0.17130000000E+03  0.17130000000E+03 0.  1.
       11    1    1    2    0    0 -0.68813085315E-02 -0.48018842952E-02  0.72974961799E+00  0.72979803828E+00  0.51109989000E-03 0.  1.
     -623    1    1    2    0    0 -0.21921595795E-02 -0.59105675864E-03  0.92559584263E-03  0.17130000002E+03  0.17130000000E+03 0.  1.
      622    1    1    2    0    0  0.90734681110E-02  0.53929410538E-02  0.32693247535E+01  0.32702019442E+01  0.75000000000E-01 0.  1.
</event>
<event>
 5   0  0.5237200E+07  0.9118800E+02  0.7818608E-02  0.1180000E+00
       11   -1    0    0    0    0  0.00000000000E+00  0.00000000000E+00  0.39999999673E+01  0.40000000000E+01  0.51109989000E-03 0.  1.
     -623   -1    0    0    0    0  0.00000000000E+00  0.00000000000E+00  0.12525980253E-10  0.17130000000E+03  0.17130000000E+03 0. -1.
       11    1    1    2    0    0  0.14878957874E-01  0.12129759613E-01  0.11241532556E+00  0.11404376835E+00  0.51109989000E-03 0.  1.
     -623    1    1    2    0    0  0.48808236556E-02  0.59891826678E-02  0.24449275140E-02  0.17130000019E+03  0.17130000000E+03 0. -1.
      622    1    1    2    0    0 -0.19759781530E-01 -0.18118942281E-01  0.38851397142E+01  0.38859560399E+01  0.75000000000E-01 0.  1.
</event>
<event>
 5   0  0.5237200E+07  0.9118800E+02  0.7818608E-02  0.1180000E+00
       11   -1    0    0    0    0  0.00000000000E+00  0.00000000000E+00  0.39999999673E+01  0.40000000000E+01  0.51109989000E-03 0. -1.
     -623   -1    0    0    0    0  0.00000000000E+00  0.00000000000E+00  0.12525980253E-10  0.17130000000E+03  0.17130000000E+03 0.  1.
       11    1    1    2    0    0 -0.41583817857E-03  0.22652451473E-02  0.56859231757E-02  0.61559079286E-02  0.51109989000E-03 0. -1.
     -623    1    1    2    0    0  0.38535152391E-02  0.19522592214E-02  0.11779884784E-02  0.17130000006E+03  0.17130000000E+03 0.  1.
      622    1    1    2    0    0 -0.34376770608E-02 -0.42175043689E-02  0.39931360560E+01  0.39938440338E+01  0.75000000000E-01 0. -1.
</event>
<event>
 5   0  0.5237200E+07  0.9118800E+02  0.7818608E-02  0.1180000E+00
       11   -1    0    0    0    0  0.00000000000E+00  0.00000000000E+00  0.39999999673E+01  0.40000000000E+01  0.51109989000E-03 0.  1.
     -623   -1    0    0    0    0  0.00000000000E+00  0.00000000000E+00  0.12525980253E-10  0.17130000000E+03  0.17130000000E+03 0.  1.
       11    1    1    2    0    0  0.11071808978E-01  0.18273390709E-02  0.24574479364E-01  0.27020184664E-01  0.51109989000E-03 0.  1.
     -623    1    1    2    0    0  0.54925640513E-02 -0.18833693943E-02  0.31883080502E-02  0.17130000013E+03  0.17130000000E+03 0.  1.
      622    1    1    2    0    0 -0.16564373029E-01  0.56030323374E-04  0.39722371799E+01  0.39729796873E+01  0.75000000000E-01 0.  1.
</event>
<event>
 5   0  0.5237200E+07  0.9118800E+02  0.7818608E-02  0.1180000E+00
       11   -1    0    0    0    0  0.00000000000E+00  0.00000000000E+00  0.39999999673E+01  0.40000000000E+01  0.51109989000E-03 0.  1.
     -623   -1    0    0    0    0  0.00000000000E+00  0.00000000000E+00  0.12525980253E-10  0.17130000000E+03  0.17130000000E+03 0. -1.
       11    1    1    2    0    0 -0.29339234716E-01  0.10348098682E-01  0.40518064156E+00  0.40637358103E+00  0.51109989000E-03 0.  1.
     -623    1    1    2    0    0 -0.10220334286E-02 -0.18159105569E-01  0.21133835688E-02  0.17130000098E+03  0.17130000000E+03 0. -1.
      622    1    1    2    0    0  0.30361268145E-01  0.78110068875E-02  0.35927059423E+01  0.35936254405E+01  0.75000000000E-01 0.  1.
</event>
<event>
 5   0  0.5237200E+07  0.9118800E+02  0.7818608E-02  0.1180000E+00
       11   -1    0    0    0    0  0.00000000000E+00  0.00000000000E+00  0.39999999673E+01  0.40000000000E+01  0.51109989000E-03 0.  1.
     -623   -1    0    0    0    0  0.00000000000E+00  0.00000000000E+00  0.12525980253E-10  0.17130000000E+03  0.17130000000E+03 0. -1.
       11    1    1    2    0    0 -0.10291856271E-02 -0.13193933307E-02  0.27358462951E-01  0.27414352809E-01  0.51109989000E-03 0.  1.
     -623    1    1    2    0    0 -0.35278617625E-02  0.10906314342E-03  0.76673420954E-03  0.17130000004E+03  0.17130000000E+03 0. -1.
      622    1    1    2    0    0  0.45570473891E-02  0.12103301873E-02  0.39718747697E+01  0.39725856086E+01  0.75000000000E-01 0.  1.
</event>
<event>
 5   0  0.5237200E+07  0.9118800E+02  0.7818608E-02  0.1180000E+00
       11   -1    0    0    0    0  0.00000000000E+00  0.00000000000E+00  0.39999999673E+01  0.40000000000E+01  0.51109989000E-03 0. -1.
     -623   -1    0    0    0    0  0.00000000000E+00  0.00000000000E+00  0.12525980253E-10  0.17130000000E+03  0.17130000000E+03 0. -1.
       11    1    1    2    0    0 -0.15077639534E-01  0.19604783997E-01  0.41277312003E+00  0.41351371514E+00  0.51109989000E-03 0. -1.
     -623    1    1    2    0    0  0.47727562728E-02 -0.20868943833E-01  0.15412172403E-02  0.17130000134E+03  0.17130000000E+03 0. -1.
      622    1    1    2    0    0  0.10304883261E-01  0.12641598361E-02  0.35856856301E+01  0.35864849402E+01  0.75000000000E-01 0. -1.
</event>
<event>
 5   0  0.5237200E+07  0.9118800E+02  0.7818608E-02  0.1180000E+00
       11   -1    0    0    0    0  0.00000000000E+00  0.00000000000E+00  0.39999999673E+01  0.40000000000E+01  0.51109989000E-03 0. -1.
     -623   -1    0    0    0    0  0.00000000000E+00  0.00000000000E+00  0.12525980253E-10  0.17130000000E+03  0.17130000000E+03 0. -1.
       11    1    1    2    0    0  0.63707330977E-02  0.22191543512E-01  0.43757844855E-01  0.49477884485E-01  0.51109989000E-03 0. -1.
     -623    1    1    2    0    0 -0.38827901381E-02 -0.12392001610E-01  0.64455559650E-02  0.17130000061E+03  0.17130000000E+03 0. -1.
      622    1    1    2    0    0 -0.24879429596E-02 -0.97995419022E-02  0.39497965666E+01  0.39505215021E+01  0.75000000000E-01 0.  0.
</event>
<event>
 5   0  0.5237200E+07  0.9118800E+02  0.7818608E-02  0.1180000E+00
       11   -1    0    0    0    0  0.00000000000E+00  0.00000000000E+00  0.39999999673E+01  0.40000000000E+01  0.51109989000E-03 0.  1.
     -623   -1    0    0    0    0  0.00000000000E+00  0.00000000000E+00  0.12525980253E-10  0.17130000000E+03  0.17130000000E+03 0. -1.
       11    1    1    2    0    0 -0.33054680984E-01  0.16974329142E-01  0.17930415179E+00  0.18311466314E+00  0.51109989000E-03 0.  1.
     -623    1    1    2    0    0 -0.23365429712E-01 -0.93020262243E-02  0.49741357724E-02  0.17130000192E+03  0.17130000000E+03 0. -1.
      622    1    1    2    0    0  0.56420110696E-01 -0.76723029173E-02  0.38157216798E+01  0.38168834185E+01  0.75000000000E-01 0.  1.
</event>
<event>
 5   0  0.5237200E+07  0.9118800E+02  0.7818608E-02  0.1180000E+00
       11   -1    0    0    0    0  0.00000000000E+00  0.00000000000E+00  0.39999999673E+01  0.40000000000E+01  0.51109989000E-03 0. -1.
     -623   -1    0    0    0    0  0.00000000000E+00  0.00000000000E+00  0.12525980253E-10  0.17130000000E+03  0.17130000000E+03 0.  1.
       11    1    1    2    0    0 -0.21593364511E-02 -0.12321728883E-01  0.47913666529E+00  0.47930021175E+00  0.51109989000E-03 0. -1.
     -623    1    1    2    0    0 -0.18408734408E-02 -0.13930045316E-02  0.99146155514E-03  0.17130000002E+03  0.17130000000E+03 0.  1.
      622    1    1    2    0    0  0.40002098920E-02  0.13714733414E-01  0.35198718409E+01  0.35206997702E+01  0.75000000000E-01 0. -1.
</event>
<event>
 5   0  0.5237200E+07  0.9118800E+02  0.7818608E-02  0.1180000E+00
       11   -1    0    0    0    0  0.00000000000E+00  0.00000000000E+00  0.39999999673E+01  0.40000000000E+01  0.51109989000E-03 0. -1.
     -623   -1    0    0    0    0  0.00000000000E+00  0.00000000000E+00  0.12525980253E-10  0.17130000000E+03  0.17130000000E+03 0.  1.
       11    1    1    2    0    0  0.25865028167E-01  0.57981242144E-01  0.49586276240E+00  0.49991095656E+00  0.51109989000E-03 0. -1.
     -623    1    1    2    0    0  0.54443562389E-02 -0.38556488600E-01  0.50502938251E-02  0.17130000450E+03  0.17130000000E+03 0.  1.
      622    1    1    2    0    0 -0.31309384406E-01 -0.19424753545E-01  0.34990869111E+01  0.35000845433E+01  0.75000000000E-01 0. -1.
</event>
<event>
 5   0  0.5237200E+07  0.9118800E+02  0.7818608E-02  0.1180000E+00
       11   -1    0    0    0    0  0.00000000000E+00  0.00000000000E+00  0.39999999673E+01  0.40000000000E+01  0.51109989000E-03 0.  1.
     -623   -1    0    0    0    0  0.00000000000E+00  0.00000000000E+00  0.12525980253E-10  0.17130000000E+03  0.17130000000E+03 0. -1.
       11    1    1    2    0    0  0.67616546928E-02  0.41388493608E-02  0.67207783683E-01  0.67675678489E-01  0.51109989000E-03 0.  1.
     -623    1    1    2    0    0  0.27957221600E-04 -0.74208848895E-03  0.11904887511E-02  0.17130000001E+03  0.17130000000E+03 0. -1.
      622    1    1    2    0    0 -0.67896119144E-02 -0.33967608717E-02  0.39316016954E+01  0.39323243162E+01  0.75000000000E-01 0.  1.
</event>
<event>
 5   0  0.5237200E+07  0.9118800E+02  0.7818608E-02  0.1180000E+00
       11   -1    0    0    0    0  0.00000000000E+00  0.00000000000E+00  0.39999999673E+01  0.40000000000E+01  0.51109989000E-03 0. -1.
     -623   -1    0    0    0    0  0.00000000000E+00  0.00000000000E+00  0.12525980253E-10  0.17130000000E+03  0.17130000000E+03 0. -1.
       11    1    1    2    0    0  0.27644281669E-02 -0.53362790713E-02  0.14765033258E-01  0.15949462926E-01  0.51109989000E-03 0. -1.
     -623    1    1    2    0    0  0.20488749511E-02  0.63210811217E-02  0.18935686244E-02  0.17130000014E+03  0.17130000000E+03 0. -1.
      622    1    1    2    0    0 -0.48133031179E-02 -0.98480205025E-03  0.39833413654E+01  0.39840503976E+01  0.75000000000E-01 0. -1.
</event>
<event>
 5   0  0.5237200E+07  0.9118800E+02  0.7818608E-02  0.1180000E+00
       11   -1    0    0    0    0  0.00000000000E+00  0.00000000000E+00  0.39999999673E+01  0.40000000000E+01  0.51109989000E-03 0. -1.
     -623   -1    0    0    0    0  0.00000000000E+00  0.00000000000E+00  0.12525980253E-10  0.17130000000E+03  0.17130000000E+03 0. -1.
       11    1    1    2    0    0 -0.32526150539E-02  0.18737186051E-02  0.50916499817E-01  0.51057237513E-01  0.51109989000E-03 0. -1.
     -623    1    1    2    0    0 -0.41413798800E-03  0.40586698389E-03  0.85534910915E-03  0.17130000000E+03  0.17130000000E+03 0. -1.
      622    1    1    2    0    0  0.36667530419E-02 -0.22795855890E-02  0.39482281184E+01  0.39489427594E+01  0.75000000000E-01 0. -1.
</event>
<event>
 5   0  0.5237200E+07  0.9118800E+02  0.7818608E-02  0.1180000E+00
       11   -1    0    0    0    0  0.00000000000E+00  0.00000000000E+00  0.39999999673E+01  0.40000000000E+01  0.51109989000E-03 0.  1.
     -623   -1    0    0    0    0  0.00000000000E+00  0.00000000000E+00  0.12525980253E-10  0.17130000000E+03  0.17130000000E+03 0.  1.
       11    1    1    2    0    0 -0.10280191120E-01 -0.11393875651E-02  0.60682246607E-02  0.12002712490E-01  0.51109989000E-03 0.  1.
     -623    1    1    2    0    0  0.67180697762E-02 -0.91765863045E-02  0.66552016462E-02  0.17130000051E+03  0.17130000000E+03 0.  1.
      622    1    1    2    0    0  0.35621213435E-02  0.10315973869E-01  0.39872765410E+01  0.39879967806E+01  0.75000000000E-01 0.  1.
</event>
<event>
 5   0  0.5237200E+07  0.9118800E+02  0.7818608E-02  0.1180000E+00
       11   -1    0    0    0    0  0.00000000000E+00  0.00000000000E+00  0.39999999673E+01  0.40000000000E+01  0.51109989000E-03 0.  1.
     -623   -1    0    0    0    0  0.00000000000E+00  0.00000000000E+00  0.12525980253E-10  0.17130000000E+03  0.17130000000E+03 0.  1.
       11    1    1    2    0    0  0.66270915310E-02  0.63877468233E-01  0.47562318183E+00  0.47993949786E+00  0.51109989000E-03 0.  1.
     -623    1    1    2    0    0 -0.14471301737E-01 -0.61166443868E-02  0.55989610630E-02  0.17130000081E+03  0.17130000000E+03 0.  1.
      622    1    1    2    0    0  0.78442102060E-02 -0.57760823846E-01  0.35187778245E+01  0.35200596902E+01  0.75000000000E-01 0.  1.
</event>
<event>
 5   0  0.5237200E+07  0.9118800E+02  0.7818608E-02  0.1180000E+00
       11   -1    0    0    0    0  0.00000000000E+00  0.00000000000E+00  0.39999999673E+01  0.40000000000E+01  0.51109989000E-03 0.  1.
     -623   -1    0    0    0    0  0.00000000000E+00  0.00000000000E+00  0.12525980253E-10  0.17130000000E+03  0.17130000000E+03 0.  1.
       11    1    1    2    0    0 -0.27764223708E-01  0.57379025388E-01  0.11733149530E+01  0.11750452948E+01  0.51109989000E-03 0.  1.
     -623    1    1    2    0    0  0.55356592982E-03 -0.74090848565E-02  0.32995320514E-02  0.17130000019E+03  0.17130000000E+03 0.  1.
      622    1    1    2    0    0  0.27210657778E-01 -0.49969940532E-01  0.28233854823E+01  0.28249545123E+01  0.75000000000E-01 0.  1.
</event>
<event>
 5   0  0.5237200E+07  0.9118800E+02  0.7818608E-02  0.1180000E+00
       11   -1    0    0    0    0  0.00000000000E+00  0.00000000000E+00  0.39999999673E+01  0.40000000000E+01  0.51109989000E-03 0.  1.
     -623   -1    0    0    0    0  0.00000000000E+00  0.00000000000E+00  0.12525980253E-10  0.17130000000E+03  0.17130000000E+03 0.  1.
       11    1    1    2    0    0  0.20540135353E-02  0.23167135966E-02  0.11618690645E-01  0.12035004316E-01  0.51109989000E-03 0.  1.
     -623    1    1    2    0    0 -0.51461566661E-03 -0.48162879703E-03  0.11223148933E-02  0.17130000001E+03  0.17130000000E+03 0.  1.
      622    1    1    2    0    0 -0.15393978687E-02 -0.18350847995E-02  0.39872589618E+01  0.39879649906E+01  0.75000000000E-01 0.  1.
</event>
<event>
 5   0  0.5237200E+07  0.9118800E+02  0.7818608E-02  0.1180000E+00
       11   -1    0    0    0    0  0.00000000000E+00  0.00000000000E+00  0.39999999673E+01  0.40000000000E+01  0.51109989000E-03 0.  1.
     -623   -1    0    0    0    0  0.00000000000E+00  0.00000000000E+00  0.12525980253E-10  0.17130000000E+03  0.17130000000E+03 0.  1.
       11    1    1    2    0    0  0.56277225456E-01  0.15636401641E-01  0.67184379041E+00  0.67437820479E+00  0.51109989000E-03 0.  1.
     -623    1    1    2    0    0  0.34532437833E-02 -0.74463186846E-02  0.39271067763E-02  0.17130000024E+03  0.17130000000E+03 0.  1.
      622    1    1    2    0    0 -0.59730469239E-01 -0.81900829567E-02  0.33242290702E+01  0.33256215535E+01  0.75000000000E-01 0.  1.
</event>
<event>
 5   0  0.5237200E+07  0.9118800E+02  0.7818608E-02  0.1180000E+00
       11   -1    0    0    0    0  0.00000000000E+00  0.00000000000E+00  0.39999999673E+01  0.40000000000E+01  0.51109989000E-03 0.  1.
     -623   -1    0    0    0    0  0.00000000000E+00  0.00000000000E+00  0.12525980253E-10  0.17130000000E+03  0.17130000000E+03 0. -1.
       11    1    1    2    0    0  0.10170219334E+00 -0.32802852219E-01  0.82380970166E+00  0.83071177253E+00  0.51109989000E-03 0.  1.
     -623    1    1    2    0    0 -0.42954348750E-01  0.31393808314E-01  0.83430604990E-02  0.17130000847E+03  0.17130000000E+03 0. -1.
      622    1    1    2    0    0 -0.58747844585E-01  0.14090439055E-02  0.31678472052E+01  0.31692797621E+01  0.75000000000E-01 0.  1.
</event>
<event>
 5   0  0.5237200E+07  0.9118800E+02  0.7818608E-02  0.1180000E+00
       11   -1    0    0    0    0  0.00000000000E+00  0.00000000000E+00  0.39999999673E+01  0.40000000000E+01  0.51109989000E-03 0.  1.
     -623   -1    0    0    0    0  0.00000000000E+00  0.00000000000E+00  0.12525980253E-10  0.17130000000E+03  0.17130000000E+03 0. -1.
       11    1    1    2    0    0  0.72356943446E-03  0.39298471468E-02  0.11071530668E-01  0.11781649436E-01  0.51109989000E-03 0.  1.
     -623    1    1    2    0    0  0.30154691801E-02 -0.29972322264E-02  0.14172713204E-02  0.17130000006E+03  0.17130000000E+03 0. -1.
      622    1    1    2    0    0 -0.37390386146E-02 -0.93261492044E-03  0.39875111654E+01  0.39882182919E+01  0.75000000000E-01 0.  1.
</event>
<event>
 5   0  0.5237200E+07  0.9118800E+02  0.7818608E-02  0.1180000E+00
       11   -1    0    0    0    0  0.00000000000E+00  0.00000000000E+00  0.39999999673E+01  0.40000000000E+01  0.51109989000E-03 0.  1.
     -623   -1    0    0    0    0  0.00000000000E+00  0.00000000000E+00  0.12525980253E-10  0.17130000000E+03  0.17130000000E+03 0. -1.
       11    1    1    2    0    0  0.15784296052E+00  0.17988410469E-01  0.81396188367E+00  0.82932031954E+00  0.51109989000E-03 0.  1.
     -623    1    1    2    0    0  0.10266944831E-01  0.34464750754E-01  0.21146277023E-01  0.17130000508E+03  0.17130000000E+03 0. -1.
      622    1    1    2    0    0 -0.16810990536E+00 -0.52453161223E-01  0.31648918067E+01  0.31706746005E+01  0.75000000000E-01 0.  1.
</event>
<event>
 5   0  0.5237200E+07  0.9118800E+02  0.7818608E-02  0.1180000E+00
       11   -1    0    0    0    0  0.00000000000E+00  0.00000000000E+00  0.39999999673E+01  0.40000000000E+01  0.51109989000E-03 0. -1.
     -623   -1    0    0    0    0  0.00000000000E+00  0.00000000000E+00  0.12525980253E-10  0.17130000000E+03  0.17130000000E+03 0. -1.
       11    1    1    2    0    0  0.12835905361E-01  0.57217659933E-02  0.25591299490E+00  0.25629908555E+00  0.51109989000E-03 0. -1.
     -623    1    1    2    0    0  0.24590320675E-02 -0.24753569485E-01  0.12188427529E-02  0.17130000181E+03  0.17130000000E+03 0. -1.
      622    1    1    2    0    0 -0.15294937429E-01  0.19031803491E-01  0.37428681295E+01  0.37436991038E+01  0.75000000000E-01 0. -1.
</event>
<event>
 5   0  0.5237200E+07  0.9118800E+02  0.7818608E-02  0.1180000E+00
       11   -1    0    0    0    0  0.00000000000E+00  0.00000000000E+00  0.39999999673E+01  0.40000000000E+01  0.51109989000E-03 0.  1.
     -623   -1    0    0    0    0  0.00000000000E+00  0.00000000000E+00  0.12525980253E-10  0.17130000000E+03  0.17130000000E+03 0. -1.
       11    1    1    2    0    0 -0.46610050423E-02  0.15175523693E-01  0.81980679481E+00  0.81996064755E+00  0.51109989000E-03 0.  1.
     -623    1    1    2    0    0  0.19119683969E-02 -0.86084624025E-03  0.10717981737E-02  0.17130000002E+03  0.17130000000E+03 0. -1.
      622    1    1    2    0    0  0.27490366454E-02 -0.14314677453E-01  0.31791213744E+01  0.31800393363E+01  0.75000000000E-01 0.  1.
</event>
<event>
 5   0  0.5237200E+07  0.9118800E+02  0.7818608E-02  0.1180000E+00
       11   -1    0    0    0    0  0.00000000000E+00  0.00000000000E+00  0.39999999673E+01  0.40000000000E+01  0.51109989000E-03 0. -1.
     -623   -1    0    0    0    0  0.00000000000E+00  0.00000000000E+00  0.12525980253E-10  0.17130000000E+03  0.17130000000E+03 0. -1.
       11    1    1    2    0    0 -0.46962217548E-02 -0.17338729085E-01  0.29057949103E-02  0.18204144919E-01  0.51109989000E-03 0. -1.
     -623    1    1    2    0    0 -0.16793918132E-01 -0.50482197261E-02  0.16127325554E-01  0.17130000166E+03  0.17130000000E+03 0. -1.
      622    1    1    2    0    0  0.21490139887E-01  0.22386948811E-01  0.39809668469E+01  0.39817941983E+01  0.75000000000E-01 0. -1.
</event>
<event>
 5   0  0.5237200E+07  0.9118800E+02  0.7818608E-02  0.1180000E+00
       11   -1    0    0    0    0  0.00000000000E+00  0.00000000000E+00  0.39999999673E+01  0.40000000000E+01  0.51109989000E-03 0. -1.
     -623   -1    0    0    0    0  0.00000000000E+00  0.00000000000E+00  0.12525980253E-10  0.17130000000E+03  0.17130000000E+03 0. -1.
       11    1    1    2    0    0  0.47078139341E-02  0.26150721034E-02  0.14429994601E+00  0.14440130801E+00  0.51109989000E-03 0. -1.
     -623    1    1    2    0    0 -0.32686504814E-02 -0.60876738934E-02  0.83283125225E-03  0.17130000014E+03  0.17130000000E+03 0. -1.
      622    1    1    2    0    0 -0.14391634527E-02  0.34726017900E-02  0.38548671901E+01  0.38555985506E+01  0.75000000000E-01 0. -1.
</event>
<event>
 5   0  0.5237200E+07  0.9118800E+02  0.7818608E-02  0.1180000E+00
       11   -1    0    0    0    0  0.00000000000E+00  0.00000000000E+00  0.39999999673E+01  0.40000000000E+01  0.51109989000E-03 0.  1.
     -623   -1    0    0    0    0  0.00000000000E+00  0.00000000000E+00  0.12525980253E-10  0.17130000000E+03  0.17130000000E+03 0. -1.
       11    1    1    2    0    0 -0.35865204188E-02 -0.34288767758E-01  0.94230462263E+00  0.94293522883E+00  0.51109989000E-03 0.  1.
     -623    1    1    2    0    0 -0.18019516806E-02  0.65957383746E-02  0.16810792464E-02  0.17130000014E+03  0.17130000000E+03 0. -1.
      622    1    1    2    0    0  0.53884720994E-02  0.27693029383E-01  0.30560142655E+01  0.30570646265E+01  0.75000000000E-01 0.  0.
</event>
<event>
 5   0  0.5237200E+07  0.9118800E+02  0.7818608E-02  0.1180000E+00
       11   -1    0    0    0    0  0.00000000000E+00  0.00000000000E+00  0.39999999673E+01  0.40000000000E+01  0.51109989000E-03 0.  1.
     -623   -1    0    0    0    0  0.00000000000E+00  0.00000000000E+00  0.12525980253E-10  0.17130000000E+03  0.17130000000E+03 0.  1.
       11    1    1    2    0    0  0.39190954124E-02 -0.24589825599E-02  0.54021030093E-02  0.71309076632E-02  0.51109989000E-03 0.  1.
     -623    1    1    2    0    0 -0.92441543682E-02  0.20850642710E-01  0.24806679064E-02  0.17130000154E+03  0.17130000000E+03 0.  1.
      622    1    1    2    0    0  0.53250589560E-02 -0.18391660151E-01  0.39921171965E+01  0.39928675561E+01  0.75000000000E-01 0.  1.
</event>
<event>
 5   0  0.5237200E+07  0.9118800E+02  0.7818608E-02  0.1180000E+00
       11   -1    0    0    0    0  0.00000000000E+00  0.00000000000E+00  0.39999999673E+01  0.40000000000E+01  0.51109989000E-03 0. -1.
     -623   -1    0    0    0    0  0.00000000000E+00  0.00000000000E+00  0.12525980253E-10  0.17130000000E+03  0.17130000000E+03 0. -1.
       11    1    1    2    0    0  0.60705020195E-02  0.21744931746E-01  0.15697501931E+00  0.15859101791E+00  0.51109989000E-03 0. -1.
     -623    1    1    2    0    0 -0.25886222019E-02  0.62475097854E-02  0.24519299912E-02  0.17130000015E+03  0.17130000000E+03 0. -1.
      622    1    1    2    0    0 -0.34818798176E-02 -0.27992441531E-01  0.38405730180E+01  0.38414088310E+01  0.75000000000E-01 0. -1.
</event>
<event>
 5   0  0.5237200E+07  0.9118800E+02  0.7818608E-02  0.1180000E+00
       11   -1    0    0    0    0  0.00000000000E+00  0.00000000000E+00  0.39999999673E+01  0.40000000000E+01  0.51109989000E-03 0. -1.
     -623   -1    0    0    0    0  0.00000000000E+00  0.00000000000E+00  0.12525980253E-10  0.17130000000E+03  0.17130000000E+03 0. -1.
       11    1    1    2    0    0  0.17901330704E-02 -0.28432376400E-01  0.25679604858E+00  0.25837197292E+00  0.51109989000E-03 0. -1.
     -623    1    1    2    0    0  0.71442345617E-02  0.89782758043E-04  0.24458509866E-02  0.17130000017E+03  0.17130000000E+03 0. -1.
      622    1    1    2    0    0 -0.89343676322E-02  0.28342593642E-01  0.37407580679E+01  0.37416278607E+01  0.75000000000E-01 0. -1.
</event>
<event>
 5   0  0.5237200E+07  0.9118800E+02  0.7818608E-02  0.1180000E+00
       11   -1    0    0    0    0  0.00000000000E+00  0.00000000000E+00  0.39999999673E+01  0.40000000000E+01  0.51109989000E-03 0. -1.
     -623   -1    0    0    0    0  0.00000000000E+00  0.00000000000E+00  0.12525980253E-10  0.17130000000E+03  0.17130000000E+03 0.  1.
       11    1    1    2    0    0 -0.52989284401E-03 -0.13480852351E-01  0.36860827234E+00  0.36885543757E+00  0.51109989000E-03 0. -1.
     -623    1    1    2    0    0 -0.99277787364E-03 -0.44649049179E-03  0.10488055086E-02  0.17130000001E+03  0.17130000000E+03 0.  1.
      622    1    1    2    0    0  0.15226707177E-02  0.13927342843E-01  0.36303428895E+01  0.36311445558E+01  0.75000000000E-01 0. -1.
</event>
<event>
 5   0  0.5237200E+07  0.9118800E+02  0.7818608E-02  0.1180000E+00
       11   -1    0    0    0    0  0.00000000000E+00  0.00000000000E+00  0.39999999673E+01  0.40000000000E+01  0.51109989000E-03 0. -1.
     -623   -1    0    0    0    0  0.00000000000E+00  0.00000000000E+00  0.12525980253E-10  0.17130000000E+03  0.17130000000E+03 0. -1.
       11    1    1    2    0    0  0.16909613426E-02  0.52772434294E-02  0.97843333880E-02  0.11256244996E-01  0.51109989000E-03 0. -1.
     -623    1    1    2    0    0  0.34357386652E-02 -0.26929249989E-02  0.21812526240E-02  0.17130000007E+03  0.17130000000E+03 0. -1.
      622    1    1    2    0    0 -0.51267000078E-02 -0.25843184305E-02  0.39880343813E+01  0.39887436855E+01  0.75000000000E-01 0. -1.
</event>
<event>
 5   0  0.5237200E+07  0.9118800E+02  0.7818608E-02  0.1180000E+00
       11   -1    0    0    0    0  0.00000000000E+00  0.00000000000E+00  0.39999999673E+01  0.40000000000E+01  0.51109989000E-03 0. -1.
     -623   -1    0    0    0    0  0.00000000000E+00  0.00000000000E+00  0.12525980253E-10  0.17130000000E+03  0.17130000000E+03 0. -1.
       11    1    1    2    0    0 -0.60974833986E-03 -0.27799425694E-02  0.53349457755E-02  0.60681746228E-02  0.51109989000E-03 0. -1.
     -623    1    1    2    0    0 -0.19456284014E-02  0.28466868496E-02  0.14383105243E-02  0.17130000004E+03  0.17130000000E+03 0. -1.
      622    1    1    2    0    0  0.25553767414E-02 -0.66744280293E-04  0.39932267112E+01  0.39939317848E+01  0.75000000000E-01 0. -1.
</event>
<event>
 5   0  0.5237200E+07  0.9118800E+02  0.7818608E-02  0.1180000E+00
       11   -1    0    0    0    0  0.00000000000E+00  0.00000000000E+00  0.39999999673E+01  0.40000000000E+01  0.51109989000E-03 0.  1.
     -623   -1    0    0    0    0  0.00000000000E+00  0.00000000000E+00  0.12525980253E-10  0.17130000000E+03  0.17130000000E+03 0. -1.
       11    1    1    2    0    0  0.59934724610E-03  0.16794798685E-02  0.41491305440E-01  0.41532752376E-01  0.51109989000E-03 0.  1.
     -623    1    1    2    0    0 -0.69868575661E-03 -0.52297475886E-03  0.75215444453E-03  0.17130000000E+03  0.17130000000E+03 0. -1.
      622    1    1    2    0    0  0.99338510586E-04 -0.11565051095E-02  0.39577565079E+01  0.39584672442E+01  0.75000000000E-01 0.  1.
</event>
<event>
 5   0  0.5237200E+07  0.9118800E+02  0.7818608E-02  0.1180000E+00
       11   -1    0    0    0    0  0.00000000000E+00  0.00000000000E+00  0.39999999673E+01  0.40000000000E+01  0.51109989000E-03 0. -1.
     -623   -1    0    0    0    0  0.00000000000E+00  0.00000000000E+00  0.12525980253E-10  0.17130000000E+03  0.17130000000E+03 0.  1.
       11    1    1    2    0    0 -0.19300897166E-01 -0.21115858834E-01  0.28241807222E+00  0.28386375757E+00  0.51109989000E-03 0. -1.
     -623    1    1    2    0    0 -0.94046430713E-02  0.13144012126E-02  0.23665058532E-02  0.17130000028E+03  0.17130000000E+03 0.  1.
      622    1    1    2    0    0  0.28705540237E-01  0.19801457621E-01  0.37152153893E+01  0.37161359629E+01  0.75000000000E-01 0. -1.
</event>
<event>
 5   0  0.5237200E+07  0.9118800E+02  0.7818608E-02  0.1180000E+00
       11   -1    0    0    0    0  0.00000000000E+00  0.00000000000E+00  0.39999999673E+01  0.40000000000E+01  0.51109989000E-03 0.  1.
     -623   -1    0    0    0    0  0.00000000000E+00  0.00000000000E+00  0.12525980253E-10  0.17130000000E+03  0.17130000000E+03 0. -1.
       11    1    1    2    0    0 -0.46377168113E-02 -0.27945162805E-02  0.38398331334E-01  0.38781578240E-01  0.51109989000E-03 0.  1.
     -623    1    1    2    0    0 -0.13326119316E-02  0.16270032670E-02  0.10979752750E-02  0.17130000002E+03  0.17130000000E+03 0. -1.
      622    1    1    2    0    0  0.59703287430E-02  0.11675130134E-02  0.39605036610E+01  0.39612184056E+01  0.75000000000E-01 0.  1.
</event>
<event>
 5   0  0.5237200E+07  0.9118800E+02  0.7818608E-02  0.1180000E+00
       11   -1    0    0    0    0  0.00000000000E+00  0.00000000000E+00  0.39999999673E+01  0.40000000000E+01  0.51109989000E-03 0.  1.
     -623   -1    0    0    0    0  0.00000000000E+00  0.00000000000E+00  0.12525980253E-10  0.17130000000E+03  0.17130000000E+03 0. -1.
       11    1    1    2    0    0 -0.11847760803E-01 -0.16573912017E-01  0.85443008035E-01  0.87839813521E-01  0.51109989000E-03 0.  1.
     -623    1    1    2    0    0 -0.48875634450E-02  0.28537721627E-02  0.31757391583E-02  0.17130000012E+03  0.17130000000E+03 0. -1.
      622    1    1    2    0    0  0.16735324248E-01  0.13720139855E-01  0.39113812202E+01  0.39121600635E+01  0.75000000000E-01 0.  1.
</event>
<event>
 5   0  0.5237200E+07  0.9118800E+02  0.7818608E-02  0.1180000E+00
       11   -1    0    0    0    0  0.00000000000E+00  0.00000000000E+00  0.39999999673E+01  0.40000000000E+01  0.51109989000E-03 0. -1.
     -623   -1    0    0    0    0  0.00000000000E+00  0.00000000000E+00  0.12525980253E-10  0.17130000000E+03  0.17130000000E+03 0. -1.
       11    1    1    2    0    0 -0.50634510130E-02 -0.65054157897E-02  0.11478211011E+00  0.11507889900E+00  0.51109989000E-03 0. -1.
     -623    1    1    2    0    0  0.51056435278E-02  0.15028135544E-01  0.10308657130E-02  0.17130000074E+03  0.17130000000E+03 0. -1.
      622    1    1    2    0    0 -0.42192514782E-04 -0.85227197539E-02  0.38841869915E+01  0.38849203625E+01  0.75000000000E-01 0. -1.
</event>
<event>
 5   0  0.5237200E+07  0.9118800E+02  0.7818608E-02  0.1180000E+00
       11   -1    0    0    0    0  0.00000000000E+00  0.00000000000E+00  0.39999999673E+01  0.40000000000E+01  0.51109989000E-03 0.  1.
     -623   -1    0    0    0    0  0.00000000000E+00  0.00000000000E+00  0.12525980253E-10  0.17130000000E+03  0.17130000000E+03 0.  1.
       11    1    1    2    0    0  0.81137116200E-02 -0.29277011704E-02  0.55009511060E+00  0.55016297192E+00  0.51109989000E-03 0.  1.
     -623    1    1    2    0    0 -0.38013823665E-03 -0.15055036012E-02  0.89470975757E-03  0.17130000001E+03  0.17130000000E+03 0.  1.
      622    1    1    2    0    0 -0.77335733833E-02  0.44332047717E-02  0.34490101470E+01  0.34498370187E+01  0.75000000000E-01 0.  1.
</event>
<event>
 5   0  0.5237200E+07  0.9118800E+02  0.7818608E-02  0.1180000E+00
       11   -1    0    0    0    0  0.00000000000E+00  0.00000000000E+00  0.39999999673E+01  0.40000000000E+01  0.51109989000E-03 0.  1.
     -623   -1    0    0    0    0  0.00000000000E+00  0.00000000000E+00  0.12525980253E-10  0.17130000000E+03  0.17130000000E+03 0. -1.
       11    1    1    2    0    0  0.65517712947E-02 -0.10884744181E-01  0.20980378320E+00  0.21018870576E+00  0.51109989000E-03 0.  1.
     -623    1    1    2    0    0  0.54684193734E-03  0.51229156788E-03  0.11479360762E-02  0.17130000001E+03  0.17130000000E+03 0. -1.
      622    1    1    2    0    0 -0.70986132321E-02  0.10372452613E-01  0.37890482481E+01  0.37898112888E+01  0.75000000000E-01 0.  1.
</event>
<event>
 5   0  0.5237200E+07  0.9118800E+02  0.7818608E-02  0.1180000E+00
       11   -1    0    0    0    0  0.00000000000E+00  0.00000000000E+00  0.39999999673E+01  0.40000000000E+01  0.51109989000E-03 0.  1.
     -623   -1    0    0    0    0  0.00000000000E+00  0.00000000000E+00  0.12525980253E-10  0.17130000000E+03  0.17130000000E+03 0.  1.
       11    1    1    2    0    0 -0.37349309246E-02 -0.46616543340E-02  0.51369113378E+00  0.51372611659E+00  0.51109989000E-03 0.  1.
     -623    1    1    2    0    0 -0.21707744436E-02  0.54901553449E-03  0.84922511851E-03  0.17130000002E+03  0.17130000000E+03 0.  1.
      622    1    1    2    0    0  0.59057053681E-02  0.41126387995E-02  0.34854596085E+01  0.34862738667E+01  0.75000000000E-01 0.  1.
</event>
<event>
 5   0  0.5237200E+07  0.9118800E+02  0.7818608E-02  0.1180000E+00
       11   -1    0    0    0    0  0.00000000000E+00  0.00000000000E+00  0.39999999673E+01  0.40000000000E+01  0.51109989000E-03 0. -1.
     -623   -1    0    0    0    0  0.00000000000E+00  0.00000000000E+00  0.12525980253E-10  0.17130000000E+03  0.17130000000E+03 0. -1.
       11    1    1    2    0    0  0.52064837347E-02  0.18492166696E-01  0.83405324186E-01  0.85590753167E-01  0.51109989000E-03 0. -1.
     -623    1    1    2    0    0  0.80185145254E-02  0.19851019144E-02  0.29801028363E-02  0.17130000023E+03  0.17130000000E+03 0. -1.
      622    1    1    2    0    0 -0.13224998260E-01 -0.20477268610E-01  0.39136145404E+01  0.39144090218E+01  0.75000000000E-01 0. -1.
</event>
<event>
 5   0  0.5237200E+07  0.9118800E+02  0.7818608E-02  0.1180000E+00
       11   -1    0    0    0    0  0.00000000000E+00  0.00000000000E+00  0.39999999673E+01  0.40000000000E+01  0.51109989000E-03 0. -1.
     -623   -1    0    0    0    0  0.00000000000E+00  0.00000000000E+00  0.12525980253E-10  0.17130000000E+03  0.17130000000E+03 0. -1.
       11    1    1    2    0    0 -0.38332804511E-01  0.22967840211E-01  0.29072245432E+00  0.29413726771E+00  0.51109989000E-03 0. -1.
     -623    1    1    2    0    0  0.21104935269E-01 -0.43924840288E-02  0.42618179475E-02  0.17130000141E+03  0.17130000000E+03 0. -1.
      622    1    1    2    0    0  0.17227869242E-01 -0.18575356182E-01  0.37050156951E+01  0.37058613228E+01  0.75000000000E-01 0. -1.
</event>
<event>
 5   0  0.5237200E+07  0.9118800E+02  0.7818608E-02  0.1180000E+00
       11   -1    0    0    0    0  0.00000000000E+00  0.00000000000E+00  0.39999999673E+01  0.40000000000E+01  0.51109989000E-03 0. -1.
     -623   -1    0    0    0    0  0.00000000000E+00  0.00000000000E+00  0.12525980253E-10  0.17130000000E+03  0.17130000000E+03 0.  1.
       11    1    1    2    0    0 -0.25836348057E-02  0.52315647404E-02  0.10641656619E+00  0.10657763003E+00  0.51109989000E-03 0. -1.
     -623    1    1    2    0    0 -0.48122039633E-02 -0.45711774292E-02  0.89068311424E-03  0.17130000013E+03  0.17130000000E+03 0.  1.
      622    1    1    2    0    0  0.73958387695E-02 -0.66038731076E-03  0.38926927185E+01  0.38934222395E+01  0.75000000000E-01 0. -1.
</event>
<event>
 5   0  0.5237200E+07  0.9118800E+02  0.7818608E-02  0.1180000E+00
       11   -1    0    0    0    0  0.00000000000E+00  0.00000000000E+00  0.39999999673E+01  0.40000000000E+01  0.51109989000E-03 0. -1.
     -623   -1    0    0    0    0  0.00000000000E+00  0.00000000000E+00  0.12525980253E-10  0.17130000000E+03  0.17130000000E+03 0. -1.
       11    1    1    2    0    0 -0.14895142624E-01  0.36383063315E-01  0.25078381243E+00  0.25384714765E+00  0.51109989000E-03 0. -1.
     -623    1    1    2    0    0  0.72045818025E-02  0.60541722005E-03  0.40048916168E-02  0.17130000020E+03  0.17130000000E+03 0. -1.
      622    1    1    2    0    0  0.76905608216E-02 -0.36988480535E-01  0.37452112633E+01  0.37461526529E+01  0.75000000000E-01 0. -1.
</event>
<event>
 5   0  0.5237200E+07  0.9118800E+02  0.7818608E-02  0.1180000E+00
       11   -1    0    0    0    0  0.00000000000E+00  0.00000000000E+00  0.39999999673E+01  0.40000000000E+01  0.51109989000E-03 0. -1.
     -623   -1    0    0    0    0  0.00000000000E+00  0.00000000000E+00  0.12525980253E-10  0.17130000000E+03  0.17130000000E+03 0. -1.
       11    1    1    2    0    0  0.25701217705E-01 -0.78606073732E-02  0.42808973864E+00  0.42893289369E+00  0.51109989000E-03 0. -1.
     -623    1    1    2    0    0 -0.31468378016E-02 -0.20651654132E-02  0.17158782671E-02  0.17130000005E+03  0.17130000000E+03 0. -1.
      622    1    1    2    0    0 -0.22554379904E-01  0.99257727864E-02  0.35701943505E+01  0.35710670564E+01  0.75000000000E-01 0. -1.
</event>
<event>
 5   0  0.5237200E+07  0.9118800E+02  0.7818608E-02  0.1180000E+00
       11   -1    0    0    0    0  0.00000000000E+00  0.00000000000E+00  0.39999999673E+01  0.40000000000E+01  0.51109989000E-03 0. -1.
     -623   -1    0    0    0    0  0.00000000000E+00  0.00000000000E+00  0.12525980253E-10  0.17130000000E+03  0.17130000000E+03 0.  1.
       11    1    1    2    0    0 -0.17282232598E-01 -0.10329610762E-01  0.10106373778E+00  0.10305103949E+00  0.51109989000E-03 0. -1.
     -623    1    1    2    0    0  0.21658040980E-01  0.16125080158E-01  0.27179719106E-02  0.17130000215E+03  0.17130000000E+03 0.  1.
      622    1    1    2    0    0 -0.43758083831E-02 -0.57954693963E-02  0.38962182578E+01  0.38969468110E+01  0.75000000000E-01 0. -1.
</event>
<event>
 5   0  0.5237200E+07  0.9118800E+02  0.7818608E-02  0.1180000E+00
       11   -1    0    0    0    0  0.00000000000E+00  0.00000000000E+00  0.39999999673E+01  0.40000000000E+01  0.51109989000E-03 0. -1.
     -623   -1    0    0    0    0  0.00000000000E+00  0.00000000000E+00  0.12525980253E-10  0.17130000000E+03  0.17130000000E+03 0.  1.
       11    1    1    2    0    0  0.20486036317E-01  0.23295456274E-01  0.40474321440E+00  0.40593064283E+00  0.51109989000E-03 0. -1.
     -623    1    1    2    0    0 -0.27102982284E-01  0.19367047480E-01  0.22326388536E-02  0.17130000325E+03  0.17130000000E+03 0.  1.
      622    1    1    2    0    0  0.66169459667E-02 -0.42662503754E-01  0.35930241141E+01  0.35940661037E+01  0.75000000000E-01 0. -1.
</event>
<event>
 5   0  0.5237200E+07  0.9118800E+02  0.7818608E-02  0.1180000E+00
       11   -1    0    0    0    0  0.00000000000E+00  0.00000000000E+00  0.39999999673E+01  0.40000000000E+01  0.51109989000E-03 0.  1.
     -623   -1    0    0    0    0  0.00000000000E+00  0.00000000000E+00  0.12525980253E-10  0.17130000000E+03  0.17130000000E+03 0. -1.
       11    1    1    2    0    0  0.34083816113E-02 -0.29832403170E-03  0.14918738887E-01  0.15314569986E-01  0.51109989000E-03 0.  1.
     -623    1    1    2    0    0  0.33851285578E-03 -0.24180369752E-02  0.11043973047E-02  0.17130000002E+03  0.17130000000E+03 0. -1.
      622    1    1    2    0    0 -0.37468944670E-02  0.27163610069E-02  0.39839768312E+01  0.39846854091E+01  0.75000000000E-01 0.  1.
</event>
<event>
 5   0  0.5237200E+07  0.9118800E+02  0.7818608E-02  0.1180000E+00
       11   -1    0    0    0    0  0.00000000000E+00  0.00000000000E+00  0.39999999673E+01  0.40000000000E+01  0.51109989000E-03 0.  1.
     -623   -1    0    0    0    0  0.00000000000E+00  0.00000000000E+00  0.12525980253E-10  0.17130000000E+03  0.17130000000E+03 0. -1.
       11    1    1    2    0    0  0.18464526560E-01  0.93243925224E-02  0.19987611732E+00  0.20094428714E+00  0.51109989000E-03 0.  1.
     -623    1    1    2    0    0  0.30245353678E-02 -0.67604216526E-02  0.18703485421E-02  0.17130000017E+03  0.17130000000E+03 0. -1.
      622    1    1    2    0    0 -0.21489061928E-01 -0.25639708698E-02  0.37982535015E+01  0.37990555425E+01  0.75000000000E-01 0.  1.
</event>
<event>
 5   0  0.5237200E+07  0.9118800E+02  0.7818608E-02  0.1180000E+00
       11   -1    0    0    0    0  0.00000000000E+00  0.00000000000E+00  0.39999999673E+01  0.40000000000E+01  0.51109989000E-03 0.  1.
     -623   -1    0    0    0    0  0.00000000000E+00  0.00000000000E+00  0.12525980253E-10  0.17130000000E+03  0.17130000000E+03 0.  1.
       11    1    1    2    0    0 -0.46028574685E-03 -0.20111713720E-02  0.44976363754E-01  0.45026560971E-01  0.51109989000E-03 0.  1.
     -623    1    1    2    0    0  0.21327284489E-02  0.21018282276E-02  0.76174104141E-03  0.17130000003E+03  0.17130000000E+03 0.  1.
      622    1    1    2    0    0 -0.16724427021E-02 -0.90656855537E-04  0.39542618625E+01  0.39549734111E+01  0.75000000000E-01 0.  1.
</event>
<event>
 5   0  0.5237200E+07  0.9118800E+02  0.7818608E-02  0.1180000E+00
       11   -1    0    0    0    0  0.00000000000E+00  0.00000000000E+00  0.39999999673E+01  0.40000000000E+01  0.51109989000E-03 0.  1.
     -623   -1    0    0    0    0  0.00000000000E+00  0.00000000000E+00  0.12525980253E-10  0.17130000000E+03  0.17130000000E+03 0. -1.
       11    1    1    2    0    0 -0.12985876119E-01  0.38528412455E-01  0.12340724790E+00  0.12993337370E+00  0.51109989000E-03 0.  1.
     -623    1    1    2    0    0  0.35257983958E-01 -0.25183062030E-01  0.73456460716E-02  0.17130000564E+03  0.17130000000E+03 0. -1.
      622    1    1    2    0    0 -0.22272107839E-01 -0.13345350425E-01  0.38692470734E+01  0.38700609892E+01  0.75000000000E-01 0.  1.
</event>
<event>
 5   0  0.5237200E+07  0.9118800E+02  0.7818608E-02  0.1180000E+00
       11   -1    0    0    0    0  0.00000000000E+00  0.00000000000E+00  0.39999999673E+01  0.40000000000E+01  0.51109989000E-03 0. -1.
     -623   -1    0    0    0    0  0.00000000000E+00  0.00000000000E+00  0.12525980253E-10  0.17130000000E+03  0.17130000000E+03 0.  1.
       11    1    1    2    0    0  0.19990775127E-01  0.13467835352E-01  0.10574517782E+01  0.10577265895E+01  0.51109989000E-03 0. -1.
     -623    1    1    2    0    0 -0.14652236198E-02  0.17767305196E-02  0.13286958351E-02  0.17130000002E+03  0.17130000000E+03 0.  1.
      622    1    1    2    0    0 -0.18525551508E-01 -0.15244565872E-01  0.29412194933E+01  0.29422733899E+01  0.75000000000E-01 0. -1.
</event>
<event>
 5   0  0.5237200E+07  0.9118800E+02  0.7818608E-02  0.1180000E+00
       11   -1    0    0    0    0  0.00000000000E+00  0.00000000000E+00  0.39999999673E+01  0.40000000000E+01  0.51109989000E-03 0.  1.
     -623   -1    0    0    0    0  0.00000000000E+00  0.00000000000E+00  0.12525980253E-10  0.17130000000E+03  0.17130000000E+03 0. -1.
       11    1    1    2    0    0 -0.15864108538E-02  0.44649326940E-04  0.89001190209E-03  0.18899833975E-02  0.51109989000E-03 0.  1.
     -623    1    1    2    0    0  0.48943967585E-02  0.12277620102E-02  0.17051121992E-02  0.17130000008E+03  0.17130000000E+03 0. -1.
      622    1    1    2    0    0 -0.33079859048E-02 -0.12724113371E-02  0.39974048434E+01  0.39981099339E+01  0.75000000000E-01 0.  1.
</event>
<event>
 5   0  0.5237200E+07  0.9118800E+02  0.7818608E-02  0.1180000E+00
       11   -1    0    0    0    0  0.00000000000E+00  0.00000000000E+00  0.39999999673E+01  0.40000000000E+01  0.51109989000E-03 0. -1.
     -623   -1    0    0    0    0  0.00000000000E+00  0.00000000000E+00  0.12525980253E-10  0.17130000000E+03  0.17130000000E+03 0. -1.
       11    1    1    2    0    0 -0.26128418866E-02  0.25522446820E-02  0.10508689496E-01  0.11137085487E-01  0.51109989000E-03 0. -1.
     -623    1    1    2    0    0  0.24849045672E-02  0.20299155157E-02  0.13361834745E-02  0.17130000004E+03  0.17130000000E+03 0. -1.
      622    1    1    2    0    0  0.12793731945E-03 -0.45821601977E-02  0.39881550944E+01  0.39888628793E+01  0.75000000000E-01 0. -1.
</event>
<event>
 5   0  0.5237200E+07  0.9118800E+02  0.7818608E-02  0.1180000E+00
       11   -1    0    0    0    0  0.00000000000E+00  0.00000000000E+00  0.39999999673E+01  0.40000000000E+01  0.51109989000E-03 0. -1.
     -623   -1    0    0    0    0  0.00000000000E+00  0.00000000000E+00  0.12525980253E-10  0.17130000000E+03  0.17130000000E+03 0. -1.
       11    1    1    2    0    0  0.33995192908E-03  0.32074764569E-03  0.34036774523E-02  0.34734262138E-02  0.51109989000E-03 0. -1.
     -623    1    1    2    0    0 -0.10019474813E-02 -0.10296053368E-02  0.77363967100E-03  0.17130000001E+03  0.17130000000E+03 0. -1.
      622    1    1    2    0    0  0.66199555221E-03  0.70885769112E-03  0.39958226502E+01  0.39965265660E+01  0.75000000000E-01 0. -1.
</event>
<event>
 5   0  0.5237200E+07  0.9118800E+02  0.7818608E-02  0.1180000E+00
       11   -1    0    0    0    0  0.00000000000E+00  0.00000000000E+00  0.39999999673E+01  0.40000000000E+01  0.51109989000E-03 0.  1.
     -623   -1    0    0    0    0  0.00000000000E+00  0.00000000000E+00  0.12525980253E-10  0.17130000000E+03  0.17130000000E+03 0. -1.
       11    1    1    2    0    0 -0.57611585602E-02  0.28664147748E-01  0.22481158606E+00  0.22670539201E+00  0.51109989000E-03 0.  1.
     -623    1    1    2    0    0 -0.42891284016E-02  0.12573843246E-01  0.28785387442E-02  0.17130000054E+03  0.17130000000E+03 0. -1.
      622    1    1    2    0    0  0.10050286962E-01 -0.41237990995E-01  0.37723098426E+01  0.37732940686E+01  0.75000000000E-01 0.  1.
</event>
<event>
 5   0  0.5237200E+07  0.9118800E+02  0.7818608E-02  0.1180000E+00
       11   -1    0    0    0    0  0.00000000000E+00  0.00000000000E+00  0.39999999673E+01  0.40000000000E+01  0.51109989000E-03 0. -1.
     -623   -1    0    0    0    0  0.00000000000E+00  0.00000000000E+00  0.12525980253E-10  0.17130000000E+03  0.17130000000E+03 0.  1.
       11    1    1    2    0    0 -0.14362532364E-01 -0.37008002747E-01  0.35876314631E+00  0.36095308694E+00  0.51109989000E-03 0. -1.
     -623    1    1    2    0    0 -0.48471571790E-02  0.27334108518E-02  0.31751388369E-02  0.17130000012E+03  0.17130000000E+03 0.  1.
      622    1    1    2    0    0  0.19209689543E-01  0.34274591895E-01  0.36380616822E+01  0.36390467932E+01  0.75000000000E-01 0. -1.
</event>
<event>
 5   0  0.5237200E+07  0.9118800E+02  0.7818608E-02  0.1180000E+00
       11   -1    0    0    0    0  0.00000000000E+00  0.00000000000E+00  0.39999999673E+01  0.40000000000E+01  0.51109989000E-03 0. -1.
     -623   -1    0    0    0    0  0.00000000000E+00  0.00000000000E+00  0.12525980253E-10  0.17130000000E+03  0.17130000000E+03 0.  1.
       11    1    1    2    0    0  0.28852950769E-02  0.13765663077E-02  0.12757773135E+00  0.12761880199E+00  0.51109989000E-03 0. -1.
     -623    1    1    2    0    0 -0.10534004276E-02  0.39686201427E-02  0.77157753014E-03  0.17130000005E+03  0.17130000000E+03 0.  1.
      622    1    1    2    0    0 -0.18318946493E-02 -0.53451864504E-02  0.38716506585E+01  0.38723811471E+01  0.75000000000E-01 0. -1.
</event>
<event>
 5   0  0.5237200E+07  0.9118800E+02  0.7818608E-02  0.1180000E+00
       11   -1    0    0    0    0  0.00000000000E+00  0.00000000000E+00  0.39999999673E+01  0.40000000000E+01  0.51109989000E-03 0. -1.
     -623   -1    0    0    0    0  0.00000000000E+00  0.00000000000E+00  0.12525980253E-10  0.17130000000E+03  0.17130000000E+03 0.  1.
       11    1    1    2    0    0 -0.25922012058E-01 -0.43873821603E-01  0.35565369149E+00  0.35928633765E+00  0.51109989000E-03 0. -1.
     -623    1    1    2    0    0  0.61892096380E-02  0.91799275244E-02  0.46244648373E-02  0.17130000042E+03  0.17130000000E+03 0.  1.
      622    1    1    2    0    0  0.19732802420E-01  0.34693894079E-01  0.36397218111E+01  0.36407132422E+01  0.75000000000E-01 0. -1.
</event>
<event>
 5   0  0.5237200E+07  0.9118800E+02  0.7818608E-02  0.1180000E+00
       11   -1    0    0    0    0  0.00000000000E+00  0.00000000000E+00  0.39999999673E+01  0.40000000000E+01  0.51109989000E-03 0.  1.
     -623   -1    0    0    0    0  0.00000000000E+00  0.00000000000E+00  0.12525980253E-10  0.17130000000E+03  0.17130000000E+03 0.  1.
       11    1    1    2    0    0  0.21619091877E-03 -0.84621940658E-02  0.40937136027E+00  0.40945918881E+00  0.51109989000E-03 0.  1.
     -623    1    1    2    0    0  0.14402560474E-02 -0.85026060787E-03  0.88366124646E-03  0.17130000001E+03  0.17130000000E+03 0.  1.
      622    1    1    2    0    0 -0.16564469662E-02  0.93124546737E-02  0.35897449458E+01  0.35905408007E+01  0.75000000000E-01 0.  1.
</event>
<event>
 5   0  0.5237200E+07  0.9118800E+02  0.7818608E-02  0.1180000E+00
       11   -1    0    0    0    0  0.00000000000E+00  0.00000000000E+00  0.39999999673E+01  0.40000000000E+01  0.51109989000E-03 0.  1.
     -623   -1    0    0    0    0  0.00000000000E+00  0.00000000000E+00  0.12525980253E-10  0.17130000000E+03  0.17130000000E+03 0.  1.
       11    1    1    2    0    0  0.24824797513E-02  0.29409598138E-02  0.18587582203E-01  0.18988717323E-01  0.51109989000E-03 0.  1.
     -623    1    1    2    0    0 -0.80915719341E-03 -0.38618727042E-02  0.11081512633E-02  0.17130000005E+03  0.17130000000E+03 0.  1.
      622    1    1    2    0    0 -0.16733225579E-02  0.92091289043E-03  0.39803042339E+01  0.39810112337E+01  0.75000000000E-01 0.  1.
</event>
<event>
 5   0  0.5237200E+07  0.9118800E+02  0.7818608E-02  0.1180000E+00
       11   -1    0    0    0    0  0.00000000000E+00  0.00000000000E+00  0.39999999673E+01  0.40000000000E+01  0.51109989000E-03 0.  1.
     -623   -1    0    0    0    0  0.00000000000E+00  0.00000000000E+00  0.12525980253E-10  0.17130000000E+03  0.17130000000E+03 0.  1.
       11    1    1    2    0    0 -0.14502806357E-01  0.52321347709E-02  0.73539123115E-01  0.75139673131E-01  0.51109989000E-03 0.  1.
     -623    1    1    2    0    0 -0.98571867983E-02  0.56410275415E-02  0.24082372719E-02  0.17130000039E+03  0.17130000000E+03 0.  1.
      622    1    1    2    0    0  0.24359993156E-01 -0.10873162312E-01  0.39240526070E+01  0.39248599335E+01  0.75000000000E-01 0.  1.
</event>
<event>
 5   0  0.5237200E+07  0.9118800E+02  0.7818608E-02  0.1180000E+00
       11   -1    0    0    0    0  0.00000000000E+00  0.00000000000E+00  0.39999999673E+01  0.40000000000E+01  0.51109989000E-03 0.  1.
     -623   -1    0    0    0    0  0.00000000000E+00  0.00000000000E+00  0.12525980253E-10  0.17130000000E+03  0.17130000000E+03 0. -1.
       11    1    1    2    0    0 -0.17378951451E-02  0.29449612401E-03  0.63941576084E-02  0.66523290331E-02  0.51109989000E-03 0.  1.
     -623    1    1    2    0    0 -0.24219161647E-04 -0.13363243748E-02  0.96302990009E-03  0.17130000001E+03  0.17130000000E+03 0. -1.
      622    1    1    2    0    0  0.17621143067E-02  0.10418282507E-02  0.39926427799E+01  0.39933476630E+01  0.75000000000E-01 0.  1.
</event>
<event>
 5   0  0.5237200E+07  0.9118800E+02  0.7818608E-02  0.1180000E+00
       11   -1    0    0    0    0  0.00000000000E+00  0.00000000000E+00  0.39999999673E+01  0.40000000000E+01  0.51109989000E-03 0. -1.
     -623   -1    0    0    0    0  0.00000000000E+00  0.00000000000E+00  0.12525980253E-10  0.17130000000E+03  0.17130000000E+03 0. -1.
       11    1    1    2    0    0  0.19920342927E-01  0.16734083396E-01  0.83798639982E+00  0.83839031311E+00  0.51109989000E-03 0. -1.
     -623    1    1    2    0    0  0.88630323763E-03  0.31907686117E-02  0.14249109578E-02  0.17130000004E+03  0.17130000000E+03 0. -1.
      622    1    1    2    0    0 -0.20806646165E-01 -0.19924852007E-01  0.31605886566E+01  0.31616096490E+01  0.75000000000E-01 0. -1.
</event>
<event>
 5   0  0.5237200E+07  0.9118800E+02  0.7818608E-02  0.1180000E+00
       11   -1    0    0    0    0  0.00000000000E+00  0.00000000000E+00  0.39999999673E+01  0.40000000000E+01  0.51109989000E-03 0.  1.
     -623   -1    0    0    0    0  0.00000000000E+00  0.00000000000E+00  0.12525980253E-10  0.17130000000E+03  0.17130000000E+03 0. -1.
       11    1    1    2    0    0  0.17672275330E-01 -0.15641742411E-01  0.49034880938E+00  0.49091668286E+00  0.51109989000E-03 0.  1.
     -623    1    1    2    0    0 -0.52864102641E-02  0.53653028795E-02  0.14065101354E-02  0.17130000017E+03  0.17130000000E+03 0. -1.
      622    1    1    2    0    0 -0.12385865065E-01  0.10276439532E-01  0.35082446478E+01  0.35090831458E+01  0.75000000000E-01 0.  0.
</event>
<event>
 5   0  0.5237200E+07  0.9118800E+02  0.7818608E-02  0.1180000E+00
       11   -1    0    0    0    0  0.00000000000E+00  0.00000000000E+00  0.39999999673E+01  0.40000000000E+01  0.51109989000E-03 0. -1.
     -623   -1    0    0    0    0  0.00000000000E+00  0.00000000000E+00  0.12525980253E-10  0.17130000000E+03  0.17130000000E+03 0. -1.
       11    1    1    2    0    0 -0.92982703108E-02  0.80023085781E-02  0.72689707436E+00  0.72700076527E+00  0.51109989000E-03 0. -1.
     -623    1    1    2    0    0 -0.34405381811E-03 -0.46709035826E-02  0.97904442629E-03  0.17130000007E+03  0.17130000000E+03 0. -1.
      622    1    1    2    0    0  0.96423241289E-02 -0.33314049955E-02  0.32721238486E+01  0.32729991679E+01  0.75000000000E-01 0. -1.
</event>
<event>
 5   0  0.5237200E+07  0.9118800E+02  0.7818608E-02  0.1180000E+00
       11   -1    0    0    0    0  0.00000000000E+00  0.00000000000E+00  0.39999999673E+01  0.40000000000E+01  0.51109989000E-03 0. -1.
     -623   -1    0    0    0    0  0.00000000000E+00  0.00000000000E+00  0.12525980253E-10  0.17130000000E+03  0.17130000000E+03 0. -1.
       11    1    1    2    0    0  0.34426939729E-02 -0.11092331346E-02  0.52305198314E-01  0.52432599914E-01  0.51109989000E-03 0. -1.
     -623    1    1    2    0    0 -0.76369404920E-03 -0.76073616572E-03  0.84125500276E-03  0.17130000001E+03  0.17130000000E+03 0. -1.
      622    1    1    2    0    0 -0.26789999236E-02  0.18699693004E-02  0.39468535145E+01  0.39475673951E+01  0.75000000000E-01 0. -1.
</event>
<event>
 5   0  0.5237200E+07  0.9118800E+02  0.7818608E-02  0.1180000E+00
       11   -1    0    0    0    0  0.00000000000E+00  0.00000000000E+00  0.39999999673E+01  0.40000000000E+01  0.51109989000E-03 0.  1.
     -623   -1    0    0    0    0  0.00000000000E+00  0.00000000000E+00  0.12525980253E-10  0.17130000000E+03  0.17130000000E+03 0.  1.
       11    1    1    2    0    0  0.24783851158E-02 -0.26159217728E-02  0.18979290419E+00  0.18982779866E+00  0.51109989000E-03 0.  1.
     -623    1    1    2    0    0 -0.63516399226E-03  0.54293962732E-03  0.77410270181E-03  0.17130000000E+03  0.17130000000E+03 0.  1.
      622    1    1    2    0    0 -0.18432211234E-02  0.20729821454E-02  0.38094329611E+01  0.38101721982E+01  0.75000000000E-01 0.  1.
</event>
<event>
 5   0  0.5237200E+07  0.9118800E+02  0.7818608E-02  0.1180000E+00
       11   -1    0    0    0    0  0.00000000000E+00  0.00000000000E+00  0.39999999673E+01  0.40000000000E+01  0.51109989000E-03 0. -1.
     -623   -1    0    0    0    0  0.00000000000E+00  0.00000000000E+00  0.12525980253E-10  0.17130000000E+03  0.17130000000E+03 0.  1.
       11    1    1    2    0    0 -0.39509377063E-02 -0.56162466353E-02  0.41408619041E-01  0.41977221061E-01  0.51109989000E-03 0. -1.
     -623    1    1    2    0    0 -0.43771687580E-02  0.28143336078E-02  0.12890542769E-02  0.17130000008E+03  0.17130000000E+03 0.  1.
      622    1    1    2    0    0  0.83281064643E-02  0.28019130276E-02  0.39573022940E+01  0.39580226950E+01  0.75000000000E-01 0. -1.
</event>
<event>
 5   0  0.5237200E+07  0.9118800E+02  0.7818608E-02  0.1180000E+00
       11   -1    0    0    0    0  0.00000000000E+00  0.00000000000E+00  0.39999999673E+01  0.40000000000E+01  0.51109989000E-03 0. -1.
     -623   -1    0    0    0    0  0.00000000000E+00  0.00000000000E+00  0.12525980253E-10  0.17130000000E+03  0.17130000000E+03 0. -1.
       11    1    1    2    0    0 -0.11995048050E-01  0.88519765560E-02  0.17294977114E+00  0.17359182938E+00  0.51109989000E-03 0. -1.
     -623    1    1    2    0    0 -0.39803928941E-02 -0.18959034940E-01  0.14249280442E-02  0.17130000110E+03  0.17130000000E+03 0. -1.
      622    1    1    2    0    0  0.15975440944E-01  0.10107058384E-01  0.38256252682E+01  0.38264070693E+01  0.75000000000E-01 0. -1.
</event>
<event>
 5   0  0.5237200E+07  0.9118800E+02  0.7818608E-02  0.1180000E+00
       11   -1    0    0    0    0  0.00000000000E+00  0.00000000000E+00  0.39999999673E+01  0.40000000000E+01  0.51109989000E-03 0. -1.
     -623   -1    0    0    0    0  0.00000000000E+00  0.00000000000E+00  0.12525980253E-10  0.17130000000E+03  0.17130000000E+03 0.  1.
       11    1    1    2    0    0 -0.44616481834E-02  0.33526149429E-02  0.52137210111E-03  0.56284441397E-02  0.51109989000E-03 0. -1.
     -623    1    1    2    0    0  0.17716333674E-02 -0.16183991787E-01  0.58336095786E-02  0.17130000087E+03  0.17130000000E+03 0.  1.
      622    1    1    2    0    0  0.26900148160E-02  0.12831376844E-01  0.39936449857E+01  0.39943706829E+01  0.75000000000E-01 0. -1.
</event>
<event>
 5   0  0.5237200E+07  0.9118800E+02  0.7818608E-02  0.1180000E+00
       11   -1    0    0    0    0  0.00000000000E+00  0.00000000000E+00  0.39999999673E+01  0.40000000000E+01  0.51109989000E-03 0.  1.
     -623   -1    0    0    0    0  0.00000000000E+00  0.00000000000E+00  0.12525980253E-10  0.17130000000E+03  0.17130000000E+03 0. -1.
       11    1    1    2    0    0 -0.16971996086E-02  0.83882941024E-02  0.61811592905E-01  0.62403350897E-01  0.51109989000E-03 0.  1.
     -623    1    1    2    0    0  0.25638296261E-02  0.11775013910E-02  0.13178034742E-02  0.17130000003E+03  0.17130000000E+03 0. -1.
      622    1    1    2    0    0 -0.86663001754E-03 -0.95657954935E-02  0.39368705710E+01  0.39375966208E+01  0.75000000000E-01 0.  1.
</event>
<event>
 5   0  0.5237200E+07  0.9118800E+02  0.7818608E-02  0.1180000E+00
       11   -1    0    0    0    0  0.00000000000E+00  0.00000000000E+00  0.39999999673E+01  0.40000000000E+01  0.51109989000E-03 0. -1.
     -623   -1    0    0    0    0  0.00000000000E+00  0.00000000000E+00  0.12525980253E-10  0.17130000000E+03  0.17130000000E+03 0. -1.
       11    1    1    2    0    0  0.19321004687E-03  0.16885922893E-02  0.16902182576E-01  0.16995107324E-01  0.51109989000E-03 0. -1.
     -623    1    1    2    0    0  0.17871696369E-03 -0.47962413519E-02  0.80037892028E-03  0.17130000007E+03  0.17130000000E+03 0. -1.
      622    1    1    2    0    0 -0.37192701056E-03  0.31076490627E-02  0.39822974060E+01  0.39830048237E+01  0.75000000000E-01 0. -1.
</event>
<event>
 5   0  0.5237200E+07  0.9118800E+02  0.7818608E-02  0.1180000E+00
       11   -1    0    0    0    0  0.00000000000E+00  0.00000000000E+00  0.39999999673E+01  0.40000000000E+01  0.51109989000E-03 0. -1.
     -623   -1    0    0    0    0  0.00000000000E+00  0.00000000000E+00  0.12525980253E-10  0.17130000000E+03  0.17130000000E+03 0.  1.
       11    1    1    2    0    0  0.24508990490E-02 -0.18121994004E-01  0.80395435027E-01  0.82450595929E-01  0.51109989000E-03 0. -1.
     -623    1    1    2    0    0 -0.46041572119E-01  0.52032080181E-02  0.30432879272E-02  0.17130000629E+03  0.17130000000E+03 0.  1.
      622    1    1    2    0    0  0.43590673069E-01  0.12918785986E-01  0.39165612443E+01  0.39175431105E+01  0.75000000000E-01 0. -1.
</event>
<event>
 5   0  0.5237200E+07  0.9118800E+02  0.7818608E-02  0.1180000E+00
       11   -1    0    0    0    0  0.00000000000E+00  0.00000000000E+00  0.39999999673E+01  0.40000000000E+01  0.51109989000E-03 0.  1.
     -623   -1    0    0    0    0  0.00000000000E+00  0.00000000000E+00  0.12525980253E-10  0.17130000000E+03  0.17130000000E+03 0.  1.
       11    1    1    2    0    0  0.80722513306E-03  0.45632838648E-02  0.10075501415E+00  0.10086282402E+00  0.51109989000E-03 0.  1.
     -623    1    1    2    0    0 -0.13148905067E-02 -0.65105832072E-03  0.83116178727E-03  0.17130000001E+03  0.17130000000E+03 0.  1.
      622    1    1    2    0    0  0.50766537367E-03 -0.39122255441E-02  0.38984137914E+01  0.38991371677E+01  0.75000000000E-01 0.  1.
</event>
<event>
 5   0  0.5237200E+07  0.9118800E+02  0.7818608E-02  0.1180000E+00
       11   -1    0    0    0    0  0.00000000000E+00  0.00000000000E+00  0.39999999673E+01  0.40000000000E+01  0.51109989000E-03 0. -1.
     -623   -1    0    0    0    0  0.00000000000E+00  0.00000000000E+00  0.12525980253E-10  0.17130000000E+03  0.17130000000E+03 0.  1.
       11    1    1    2    0    0 -0.80249264812E-02 -0.44846713792E-02  0.98904503591E-02  0.13512732971E-01  0.51109989000E-03 0. -1.
     -623    1    1    2    0    0  0.79866901215E-02  0.11514097188E-01  0.43346476796E-02  0.17130000063E+03  0.17130000000E+03 0.  1.
      622    1    1    2    0    0  0.38236359717E-04 -0.70294258090E-02  0.39857748693E+01  0.39864866390E+01  0.75000000000E-01 0. -1.
</event>
<event>
 5   0  0.5237200E+07  0.9118800E+02  0.7818608E-02  0.1180000E+00
       11   -1    0    0    0    0  0.00000000000E+00  0.00000000000E+00  0.39999999673E+01  0.40000000000E+01  0.51109989000E-03 0.  1.
     -623   -1    0    0    0    0  0.00000000000E+00  0.00000000000E+00  0.12525980253E-10  0.17130000000E+03  0.17130000000E+03 0. -1.
       11    1    1    2    0    0 -0.95053858583E-02 -0.39001084291E-02  0.41029260450E-01  0.42299227442E-01  0.51109989000E-03 0.  1.
     -623    1    1    2    0    0  0.22325270739E-01 -0.21463001899E-01  0.20855039570E-02  0.17130000281E+03  0.17130000000E+03 0. -1.
      622    1    1    2    0    0 -0.12819884881E-01  0.25363110328E-01  0.39568852029E+01  0.39576979604E+01  0.75000000000E-01 0.  1.
</event>
<event>
 5   0  0.5237200E+07  0.9118800E+02  0.7818608E-02  0.1180000E+00
       11   -1    0    0    0    0  0.00000000000E+00  0.00000000000E+00  0.39999999673E+01  0.40000000000E+01  0.51109989000E-03 0. -1.
     -623   -1    0    0    0    0  0.00000000000E+00  0.00000000000E+00  0.12525980253E-10  0.17130000000E+03  0.17130000000E+03 0. -1.
       11    1    1    2    0    0  0.73623990907E-02 -0.10650642836E-01  0.98469378435E+00  0.98477903677E+00  0.51109989000E-03 0. -1.
     -623    1    1    2    0    0  0.64158806458E-02  0.20436541150E-01  0.10668500820E-02  0.17130000134E+03  0.17130000000E+03 0. -1.
      622    1    1    2    0    0 -0.13778279736E-01 -0.97858983138E-02  0.30142393329E+01  0.30152196207E+01  0.75000000000E-01 0. -1.
</event>
<event>
 5   0  0.5237200E+07  0.9118800E+02  0.7818608E-02  0.1180000E+00
       11   -1    0    0    0    0  0.00000000000E+00  0.00000000000E+00  0.39999999673E+01  0.40000000000E+01  0.51109989000E-03 0.  1.
     -623   -1    0    0    0    0  0.00000000000E+00  0.00000000000E+00  0.12525980253E-10  0.17130000000E+03  0.17130000000E+03 0. -1.
       11    1    1    2    0    0  0.64696789938E-02  0.34728500967E-01  0.43172023489E+00  0.43316341946E+00  0.51109989000E-03 0.  1.
     -623    1    1    2    0    0 -0.57578753026E-03 -0.44571923230E-02  0.23651842603E-02  0.17130000008E+03  0.17130000000E+03 0. -1.
      622    1    1    2    0    0 -0.58938914636E-02 -0.30271308644E-01  0.35659145482E+01  0.35668365053E+01  0.75000000000E-01 0.  0.
</event>
<event>
 5   0  0.5237200E+07  0.9118800E+02  0.7818608E-02  0.1180000E+00
       11   -1    0    0    0    0  0.00000000000E+00  0.00000000000E+00  0.39999999673E+01  0.40000000000E+01  0.51109989000E-03 0. -1.
     -623   -1    0    0    0    0  0.00000000000E+00  0.00000000000E+00  0.12525980253E-10  0.17130000000E+03  0.17130000000E+03 0.  1.
       11    1    1    2    0    0  0.12690217246E-01 -0.39320866235E-04  0.11704497414E+00  0.11773202773E+00  0.51109989000E-03 0. -1.
     -623    1    1    2    0    0 -0.10263374416E-02 -0.55890265572E-02  0.14332419219E-02  0.17130000010E+03  0.17130000000E+03 0.  1.
      622    1    1    2    0    0 -0.11663879804E-01  0.56283474234E-02  0.38815217513E+01  0.38822678720E+01  0.75000000000E-01 0. -1.
</event>
<event>
 5   0  0.5237200E+07  0.9118800E+02  0.7818608E-02  0.1180000E+00
       11   -1    0    0    0    0  0.00000000000E+00  0.00000000000E+00  0.39999999673E+01  0.40000000000E+01  0.51109989000E-03 0.  1.
     -623   -1    0    0    0    0  0.00000000000E+00  0.00000000000E+00  0.12525980253E-10  0.17130000000E+03  0.17130000000E+03 0.  1.
       11    1    1    2    0    0 -0.69609079468E-03  0.70554196329E-03  0.28327940058E-02  0.30443841391E-02  0.51109989000E-03 0.  1.
     -623    1    1    2    0    0  0.17004702014E-02 -0.23865913971E-02  0.91578730303E-03  0.17130000003E+03  0.17130000000E+03 0.  1.
      622    1    1    2    0    0 -0.10043794067E-02  0.16810494338E-02  0.39962513861E+01  0.39969555883E+01  0.75000000000E-01 0.  1.
</event>
<event>
 5   0  0.5237200E+07  0.9118800E+02  0.7818608E-02  0.1180000E+00
       11   -1    0    0    0    0  0.00000000000E+00  0.00000000000E+00  0.39999999673E+01  0.40000000000E+01  0.51109989000E-03 0.  1.
     -623   -1    0    0    0    0  0.00000000000E+00  0.00000000000E+00  0.12525980253E-10  0.17130000000E+03  0.17130000000E+03 0.  1.
       11    1    1    2    0    0  0.30707159850E-02  0.22336670492E-01  0.65096197631E-01  0.68892178888E-01  0.51109989000E-03 0.  1.
     -623    1    1    2    0    0 -0.12192956722E-01 -0.20046538611E-01  0.45243812352E-02  0.17130000167E+03  0.17130000000E+03 0.  1.
      622    1    1    2    0    0  0.91222407366E-02 -0.22901318811E-02  0.39303793885E+01  0.39311061544E+01  0.75000000000E-01 0.  1.
</event>
<event>
 5   0  0.5237200E+07  0.9118800E+02  0.7818608E-02  0.1180000E+00
       11   -1    0    0    0    0  0.00000000000E+00  0.00000000000E+00  0.39999999673E+01  0.40000000000E+01  0.51109989000E-03 0. -1.
     -623   -1    0    0    0    0  0.00000000000E+00  0.00000000000E+00  0.12525980253E-10  0.17130000000E+03  0.17130000000E+03 0.  1.
       11    1    1    2    0    0  0.46014332455E-03 -0.23220850767E-02  0.12663801561E-01  0.12893289084E-01  0.51109989000E-03 0. -1.
     -623    1    1    2    0    0  0.22626088761E-02  0.12669029108E-02  0.93600769431E-03  0.17130000002E+03  0.17130000000E+03 0.  1.
      622    1    1    2    0    0 -0.27227522007E-02  0.10551821659E-02  0.39864001581E+01  0.39871066887E+01  0.75000000000E-01 0. -1.
</event>
<event>
 5   0  0.5237200E+07  0.9118800E+02  0.7818608E-02  0.1180000E+00
       11   -1    0    0    0    0  0.00000000000E+00  0.00000000000E+00  0.39999999673E+01  0.40000000000E+01  0.51109989000E-03 0. -1.
     -623   -1    0    0    0    0  0.00000000000E+00  0.00000000000E+00  0.12525980253E-10  0.17130000000E+03  0.17130000000E+03 0.  1.
       11    1    1    2    0    0 -0.12531959224E-01  0.28030629260E-01  0.12891843163E+00  0.13252542931E+00  0.51109989000E-03 0. -1.
     -623    1    1    2    0    0  0.36269468945E-03 -0.25617433523E-01  0.43561262018E-02  0.17130000197E+03  0.17130000000E+03 0.  1.
      622    1    1    2    0    0  0.12169264535E-01 -0.24131957365E-02  0.38667254095E+01  0.38674725994E+01  0.75000000000E-01 0. -1.
</event>
<event>
 5   0  0.5237200E+07  0.9118800E+02  0.7818608E-02  0.1180000E+00
       11   -1    0    0    0    0  0.00000000000E+00  0.00000000000E+00  0.39999999673E+01  0.40000000000E+01  0.51109989000E-03 0. -1.
     -623   -1    0    0    0    0  0.00000000000E+00  0.00000000000E+00  0.12525980253E-10  0.17130000000E+03  0.17130000000E+03 0. -1.
       11    1    1    2    0    0 -0.13456161842E-01  0.29187615436E-01  0.30715484929E+00  0.30883223253E+00  0.51109989000E-03 0. -1.
     -623    1    1    2    0    0  0.71197191632E-02 -0.87734192883E-02  0.25016771514E-02  0.17130000039E+03  0.17130000000E+03 0. -1.
      622    1    1    2    0    0  0.63364426787E-02 -0.20414196148E-01  0.36903434410E+01  0.36911673766E+01  0.75000000000E-01 0.  0.
</event>
<event>
 5   0  0.5237200E+07  0.9118800E+02  0.7818608E-02  0.1180000E+00
       11   -1    0    0    0    0  0.00000000000E+00  0.00000000000E+00  0.39999999673E+01  0.40000000000E+01  0.51109989000E-03 0.  1.
     -623   -1    0    0    0    0  0.00000000000E+00  0.00000000000E+00  0.12525980253E-10  0.17130000000E+03  0.17130000000E+03 0. -1.
       11    1    1    2    0    0 -0.28510029882E-02  0.11123124355E-02  0.13798734889E-02  0.33956929979E-02  0.51109989000E-03 0.  1.
     -623    1    1    2    0    0 -0.47588939615E-02 -0.41231277145E-03  0.27269671253E-02  0.17130000009E+03  0.17130000000E+03 0. -1.
      622    1    1    2    0    0  0.76098969498E-02 -0.69999966407E-03  0.39958931268E+01  0.39966042188E+01  0.75000000000E-01 0.  1.
</event>
<event>
 5   0  0.5237200E+07  0.9118800E+02  0.7818608E-02  0.1180000E+00
       11   -1    0    0    0    0  0.00000000000E+00  0.00000000000E+00  0.39999999673E+01  0.40000000000E+01  0.51109989000E-03 0. -1.
     -623   -1    0    0    0    0  0.00000000000E+00  0.00000000000E+00  0.12525980253E-10  0.17130000000E+03  0.17130000000E+03 0. -1.
       11    1    1    2    0    0 -0.22759315494E-01 -0.10518932594E-01  0.15809874581E-01  0.29645366243E-01  0.51109989000E-03 0. -1.
     -623    1    1    2    0    0  0.24253066197E-01 -0.16831460279E-01  0.14641570074E-01  0.17130000317E+03  0.17130000000E+03 0. -1.
      622    1    1    2    0    0 -0.14937507029E-02  0.27350392873E-01  0.39695485227E+01  0.39703514642E+01  0.75000000000E-01 0. -1.
</event>
<event>
 5   0  0.5237200E+07  0.9118800E+02  0.7818608E-02  0.1180000E+00
       11   -1    0    0    0    0  0.00000000000E+00  0.00000000000E+00  0.39999999673E+01  0.40000000000E+01  0.51109989000E-03 0. -1.
     -623   -1    0    0    0    0  0.00000000000E+00  0.00000000000E+00  0.12525980253E-10  0.17130000000E+03  0.17130000000E+03 0.  1.
       11    1    1    2    0    0  0.55142341231E-01  0.35882945420E-02  0.36473784167E+00  0.36890040394E+00  0.51109989000E-03 0. -1.
     -623    1    1    2    0    0 -0.18257189093E-01  0.15240556277E-01  0.51751185243E-02  0.17130000173E+03  0.17130000000E+03 0.  1.
      622    1    1    2    0    0 -0.36885152138E-01 -0.18828850819E-01  0.36300870072E+01  0.36310978670E+01  0.75000000000E-01 0. -1.
</event>
<event>
 5   0  0.5237200E+07  0.9118800E+02  0.7818608E-02  0.1180000E+00
       11   -1    0    0    0    0  0.00000000000E+00  0.00000000000E+00  0.39999999673E+01  0.40000000000E+01  0.51109989000E-03 0.  1.
     -623   -1    0    0    0    0  0.00000000000E+00  0.00000000000E+00  0.12525980253E-10  0.17130000000E+03  0.17130000000E+03 0.  1.
       11    1    1    2    0    0 -0.16242311885E-02 -0.65151391896E-02  0.14630541485E-01  0.16105872601E-01  0.51109989000E-03 0.  1.
     -623    1    1    2    0    0 -0.17748437269E-01  0.43449017949E-02  0.22300199105E-02  0.17130000099E+03  0.17130000000E+03 0.  1.
      622    1    1    2    0    0  0.19372668458E-01  0.21702373947E-02  0.39831394060E+01  0.39838931383E+01  0.75000000000E-01 0.  1.
</event>
<event>
 5   0  0.5237200E+07  0.9118800E+02  0.7818608E-02  0.1180000E+00
       11   -1    0    0    0    0  0.00000000000E+00  0.00000000000E+00  0.39999999673E+01  0.40000000000E+01  0.51109989000E-03 0.  1.
     -623   -1    0    0    0    0  0.00000000000E+00  0.00000000000E+00  0.12525980253E-10  0.17130000000E+03  0.17130000000E+03 0.  1.
       11    1    1    2    0    0  0.52476583610E-02 -0.17542651043E-02  0.38839982875E+00  0.38843957517E+00  0.51109989000E-03 0.  1.
     -623    1    1    2    0    0 -0.89089445203E-02 -0.30632826510E-02  0.82387817925E-03  0.17130000026E+03  0.17130000000E+03 0.  1.
      622    1    1    2    0    0  0.36612861592E-02  0.48175477554E-02  0.36107762604E+01  0.36115601638E+01  0.75000000000E-01 0.  1.
</event>
<event>
 5   0  0.5237200E+07  0.9118800E+02  0.7818608E-02  0.1180000E+00
       11   -1    0    0    0    0  0.00000000000E+00  0.00000000000E+00  0.39999999673E+01  0.40000000000E+01  0.51109989000E-03 0. -1.
     -623   -1    0    0    0    0  0.00000000000E+00  0.00000000000E+00  0.12525980253E-10  0.17130000000E+03  0.17130000000E+03 0.  1.
       11    1    1    2    0    0 -0.95689658216E-02 -0.38050969813E-02  0.10357481073E+00  0.10408672591E+00  0.51109989000E-03 0. -1.
     -623    1    1    2    0    0  0.34647919426E-04  0.79336408665E-02  0.12479046719E-02  0.17130000019E+03  0.17130000000E+03 0.  1.
      622    1    1    2    0    0  0.95343179021E-02 -0.41285438855E-02  0.38951772521E+01  0.38959130860E+01  0.75000000000E-01 0. -1.
</event>
<event>
 5   0  0.5237200E+07  0.9118800E+02  0.7818608E-02  0.1180000E+00
       11   -1    0    0    0    0  0.00000000000E+00  0.00000000000E+00  0.39999999673E+01  0.40000000000E+01  0.51109989000E-03 0. -1.
     -623   -1    0    0    0    0  0.00000000000E+00  0.00000000000E+00  0.12525980253E-10  0.17130000000E+03  0.17130000000E+03 0. -1.
       11    1    1    2    0    0  0.73778554258E-02  0.33965161467E-01  0.76245878630E-01  0.83795943662E-01  0.51109989000E-03 0. -1.
     -623    1    1    2    0    0 -0.24748835470E-02 -0.47288638520E-01  0.83007538169E-02  0.17130000675E+03  0.17130000000E+03 0. -1.
      622    1    1    2    0    0 -0.49029718788E-02  0.13323477053E-01  0.39154533349E+01  0.39161973102E+01  0.75000000000E-01 0. -1.
</event>
<event>
 5   0  0.5237200E+07  0.9118800E+02  0.7818608E-02  0.1180000E+00
       11   -1    0    0    0    0  0.00000000000E+00  0.00000000000E+00  0.39999999673E+01  0.40000000000E+01  0.51109989000E-03 0.  1.
     -623   -1    0    0    0    0  0.00000000000E+00  0.00000000000E+00  0.12525980253E-10  0.17130000000E+03  0.17130000000E+03 0. -1.
       11    1    1    2    0    0  0.14467260029E-01  0.14696079302E-01  0.39893968869E+00  0.39947266839E+00  0.51109989000E-03 0.  1.
     -623    1    1    2    0    0  0.27773441727E-02  0.12326146424E-02  0.13907478297E-02  0.17130000003E+03  0.17130000000E+03 0. -1.
      622    1    1    2    0    0 -0.17244604202E-01 -0.15928693945E-01  0.35996695308E+01  0.36005272990E+01  0.75000000000E-01 0.  1.
</event>
<event>
 5   0  0.5237200E+07  0.9118800E+02  0.7818608E-02  0.1180000E+00
       11   -1    0    0    0    0  0.00000000000E+00  0.00000000000E+00  0.39999999673E+01  0.40000000000E+01  0.51109989000E-03 0.  1.
     -623   -1    0    0    0    0  0.00000000000E+00  0.00000000000E+00  0.12525980253E-10  0.17130000000E+03  0.17130000000E+03 0.  1.
       11    1    1    2    0    0 -0.15114351381E-02  0.11800064720E-01  0.35687526131E-01  0.37621625537E-01  0.51109989000E-03 0.  1.
     -623    1    1    2    0    0 -0.18907419749E-02  0.20607062636E-02  0.26696833753E-02  0.17130000004E+03  0.17130000000E+03 0.  1.
      622    1    1    2    0    0  0.34021771129E-02 -0.13860770983E-01  0.39616427578E+01  0.39623783307E+01  0.75000000000E-01 0.  1.
</event>
<event>
 5   0  0.5237200E+07  0.9118800E+02  0.7818608E-02  0.1180000E+00
       11   -1    0    0    0    0  0.00000000000E+00  0.00000000000E+00  0.39999999673E+01  0.40000000000E+01  0.51109989000E-03 0.  1.
     -623   -1    0    0    0    0  0.00000000000E+00  0.00000000000E+00  0.12525980253E-10  0.17130000000E+03  0.17130000000E+03 0. -1.
       11    1    1    2    0    0 -0.10340187673E-01 -0.63983769874E-02  0.64580406929E+00  0.64591873780E+00  0.51109989000E-03 0.  1.
     -623    1    1    2    0    0  0.16659610988E-03  0.16713102136E-01  0.98538736957E-03  0.17130000082E+03  0.17130000000E+03 0. -1.
      622    1    1    2    0    0  0.10173591563E-01 -0.10314725148E-01  0.33532105107E+01  0.33540804440E+01  0.75000000000E-01 0.  1.
</event>
<event>
 5   0  0.5237200E+07  0.9118800E+02  0.7818608E-02  0.1180000E+00
       11   -1    0    0    0    0  0.00000000000E+00  0.00000000000E+00  0.39999999673E+01  0.40000000000E+01  0.51109989000E-03 0. -1.
     -623   -1    0    0    0    0  0.00000000000E+00  0.00000000000E+00  0.12525980253E-10  0.17130000000E+03  0.17130000000E+03 0. -1.
       11    1    1    2    0    0  0.13470713651E-02  0.15944611462E-02  0.26334991420E-02  0.33990363984E-02  0.51109989000E-03 0. -1.
     -623    1    1    2    0    0  0.12820944490E-02 -0.61310874205E-02  0.14728506661E-02  0.17130000012E+03  0.17130000000E+03 0. -1.
      622    1    1    2    0    0 -0.26291658142E-02  0.45366262748E-02  0.39958936178E+01  0.39966008430E+01  0.75000000000E-01 0. -1.
</event>
<event>
 5   0  0.5237200E+07  0.9118800E+02  0.7818608E-02  0.1180000E+00
       11   -1    0    0    0    0  0.00000000000E+00  0.00000000000E+00  0.39999999673E+01  0.40000000000E+01  0.51109989000E-03 0. -1.
     -623   -1    0    0    0    0  0.00000000000E+00  0.00000000000E+00  0.12525980253E-10  0.17130000000E+03  0.17130000000E+03 0. -1.
       11    1    1    2    0    0  0.36633866086E-02  0.65401633729E-03  0.13223417222E-01  0.13746567751E-01  0.51109989000E-03 0. -1.
     -623    1    1    2    0    0 -0.11193378287E-01 -0.67300122082E-02  0.12409773236E-02  0.17130000050E+03  0.17130000000E+03 0. -1.
      622    1    1    2    0    0  0.75299916782E-02  0.60759958710E-02  0.39855355729E+01  0.39862529299E+01  0.75000000000E-01 0. -1.
</event>
<event>
 5   0  0.5237200E+07  0.9118800E+02  0.7818608E-02  0.1180000E+00
       11   -1    0    0    0    0  0.00000000000E+00  0.00000000000E+00  0.39999999673E+01  0.40000000000E+01  0.51109989000E-03 0.  1.
     -623   -1    0    0    0    0  0.00000000000E+00  0.00000000000E+00  0.12525980253E-10  0.17130000000E+03  0.17130000000E+03 0. -1.
       11    1    1    2    0    0 -0.67562463011E-02  0.29080123333E-02  0.55374386350E+00  0.55379294956E+00  0.51109989000E-03 0.  1.
     -623    1    1    2    0    0  0.26508035088E-01 -0.41007908127E-02  0.92419144516E-03  0.17130000210E+03  0.17130000000E+03 0. -1.
      622    1    1    2    0    0 -0.19751788786E-01  0.11927784795E-02  0.34453319124E+01  0.34462049479E+01  0.75000000000E-01 0.  1.
</event>
<event>
 5   0  0.5237200E+07  0.9118800E+02  0.7818608E-02  0.1180000E+00
       11   -1    0    0    0    0  0.00000000000E+00  0.00000000000E+00  0.39999999673E+01  0.40000000000E+01  0.51109989000E-03 0. -1.
     -623   -1    0    0    0    0  0.00000000000E+00  0.00000000000E+00  0.12525980253E-10  0.17130000000E+03  0.17130000000E+03 0.  1.
       11    1    1    2    0    0 -0.39766843475E-02  0.79419071875E-02  0.30993217324E+00  0.31005983477E+00  0.51109989000E-03 0. -1.
     -623    1    1    2    0    0 -0.83702116252E-02 -0.86985133724E-02  0.91108183784E-03  0.17130000043E+03  0.17130000000E+03 0.  1.
      622    1    1    2    0    0  0.12346895973E-01  0.75660618491E-03  0.36891567123E+01  0.36899397375E+01  0.75000000000E-01 0. -1.
</event>
<event>
 5   0  0.5237200E+07  0.9118800E+02  0.7818608E-02  0.1180000E+00
       11   -1    0    0    0    0  0.00000000000E+00  0.00000000000E+00  0.39999999673E+01  0.40000000000E+01  0.51109989000E-03 0.  1.
     -623   -1    0    0    0    0  0.00000000000E+00  0.00000000000E+00  0.12525980253E-10  0.17130000000E+03  0.17130000000E+03 0.  1.
       11    1    1    2    0    0  0.54517380496E-02 -0.53265277717E-02  0.16403555268E+00  0.16421332806E+00  0.51109989000E-03 0.  1.
     -623    1    1    2    0    0 -0.89702061087E-02 -0.31280503307E-01  0.10904663218E-02  0.17130000309E+03  0.17130000000E+03 0.  1.
      622    1    1    2    0    0  0.35184680584E-02  0.36607031076E-01  0.38348739481E+01  0.38357835773E+01  0.75000000000E-01 0.  0.
</event>
<event>
 5   0  0.5237200E+07  0.9118800E+02  0.7818608E-02  0.1180000E+00
       11   -1    0    0    0    0  0.00000000000E+00  0.00000000000E+00  0.39999999673E+01  0.40000000000E+01  0.51109989000E-03 0. -1.
     -623   -1    0    0    0    0  0.00000000000E+00  0.00000000000E+00  0.12525980253E-10  0.17130000000E+03  0.17130000000E+03 0.  1.
       11    1    1    2    0    0 -0.36720062900E-02  0.11330825044E-02  0.13811419959E-01  0.14345175166E-01  0.51109989000E-03 0. -1.
     -623    1    1    2    0    0  0.42501330577E-03  0.11193445174E-02  0.12414088403E-02  0.17130000001E+03  0.17130000000E+03 0.  1.
      622    1    1    2    0    0  0.32469929842E-02 -0.22524270218E-02  0.39849471387E+01  0.39856548163E+01  0.75000000000E-01 0. -1.
</event>
<event>
 5   0  0.5237200E+07  0.9118800E+02  0.7818608E-02  0.1180000E+00
       11   -1    0    0    0    0  0.00000000000E+00  0.00000000000E+00  0.39999999673E+01  0.40000000000E+01  0.51109989000E-03 0. -1.
     -623   -1    0    0    0    0  0.00000000000E+00  0.00000000000E+00  0.12525980253E-10  0.17130000000E+03  0.17130000000E+03 0. -1.
       11    1    1    2    0    0  0.87760639727E-01 -0.16660448560E-02  0.10873081384E+00  0.13974031878E+00  0.51109989000E-03 0. -1.
     -623    1    1    2    0    0  0.36214910220E-01  0.42410900505E-01  0.33957440384E-01  0.17130001244E+03  0.17130000000E+03 0. -1.
      622    1    1    2    0    0 -0.12397554995E+00 -0.40744855649E-01  0.38573117131E+01  0.38602472372E+01  0.75000000000E-01 0. -1.
</event>
<event>
 5   0  0.5237200E+07  0.9118800E+02  0.7818608E-02  0.1180000E+00
       11   -1    0    0    0    0  0.00000000000E+00  0.00000000000E+00  0.39999999673E+01  0.40000000000E+01  0.51109989000E-03 0.  1.
     -623   -1    0    0    0    0  0.00000000000E+00  0.00000000000E+00  0.12525980253E-10  0.17130000000E+03  0.17130000000E+03 0.  1.
       11    1    1    2    0    0 -0.91925339066E-02  0.80720351867E-03  0.32899765812E+00  0.32912744421E+00  0.51109989000E-03 0.  1.
     -623    1    1    2    0    0  0.22178237504E-02 -0.71981437183E-02  0.90835992558E-03  0.17130000017E+03  0.17130000000E+03 0.  1.
      622    1    1    2    0    0  0.69747101562E-02  0.63909401996E-02  0.36700939493E+01  0.36708723878E+01  0.75000000000E-01 0.  1.
</event>
<event>
 5   0  0.5237200E+07  0.9118800E+02  0.7818608E-02  0.1180000E+00
       11   -1    0    0    0    0  0.00000000000E+00  0.00000000000E+00  0.39999999673E+01  0.40000000000E+01  0.51109989000E-03 0.  1.
     -623   -1    0    0    0    0  0.00000000000E+00  0.00000000000E+00  0.12525980253E-10  0.17130000000E+03  0.17130000000E+03 0. -1.
       11    1    1    2    0    0 -0.97697854876E-02  0.59288538056E-02  0.30580751478E-01  0.32650323122E-01  0.51109989000E-03 0.  1.
     -623    1    1    2    0    0  0.90340421458E-02 -0.38303414853E-02  0.27794408787E-02  0.17130000030E+03  0.17130000000E+03 0. -1.
      622    1    1    2    0    0  0.73574334168E-03 -0.20985123203E-02  0.39666397751E+01  0.39673493733E+01  0.75000000000E-01 0.  1.
</event>
<event>
 5   0  0.5237200E+07  0.9118800E+02  0.7818608E-02  0.1180000E+00
       11   -1    0    0    0    0  0.00000000000E+00  0.00000000000E+00  0.39999999673E+01  0.40000000000E+01  0.51109989000E-03 0. -1.
     -623   -1    0    0    0    0  0.00000000000E+00  0.00000000000E+00  0.12525980253E-10  0.17130000000E+03  0.17130000000E+03 0.  1.
       11    1    1    2    0    0 -0.14277983905E-01  0.70622915322E-02  0.62989757705E-01  0.64974668794E-01  0.51109989000E-03 0. -1.
     -623    1    1    2    0    0  0.33461790677E-02  0.53071346429E-02  0.27344473082E-02  0.17130000014E+03  0.17130000000E+03 0.  1.
      622    1    1    2    0    0  0.10931804838E-01 -0.12369426175E-01  0.39342757625E+01  0.39350251946E+01  0.75000000000E-01 0. -1.
</event>
<event>
 5   0  0.5237200E+07  0.9118800E+02  0.7818608E-02  0.1180000E+00
       11   -1    0    0    0    0  0.00000000000E+00  0.00000000000E+00  0.39999999673E+01  0.40000000000E+01  0.51109989000E-03 0. -1.
     -623   -1    0    0    0    0  0.00000000000E+00  0.00000000000E+00  0.12525980253E-10  0.17130000000E+03  0.17130000000E+03 0. -1.
       11    1    1    2    0    0 -0.20255698458E-02  0.64344084401E-02  0.53326166924E-01  0.53753565888E-01  0.51109989000E-03 0. -1.
     -623    1    1    2    0    0  0.48000112669E-03 -0.36281639910E-02  0.11414768611E-02  0.17130000004E+03  0.17130000000E+03 0. -1.
      622    1    1    2    0    0  0.15455687191E-02 -0.28062444490E-02  0.39455323236E+01  0.39462463912E+01  0.75000000000E-01 0. -1.
</event>
<event>
 5   0  0.5237200E+07  0.9118800E+02  0.7818608E-02  0.1180000E+00
       11   -1    0    0    0    0  0.00000000000E+00  0.00000000000E+00  0.39999999673E+01  0.40000000000E+01  0.51109989000E-03 0.  1.
     -623   -1    0    0    0    0  0.00000000000E+00  0.00000000000E+00  0.12525980253E-10  0.17130000000E+03  0.17130000000E+03 0.  1.
       11    1    1    2    0    0 -0.27715028351E-02 -0.86263619753E-03  0.39502536187E-02  0.49285995440E-02  0.51109989000E-03 0.  1.
     -623    1    1    2    0    0  0.33472935949E-02  0.31589275492E-02  0.16831394088E-02  0.17130000007E+03  0.17130000000E+03 0.  1.
      622    1    1    2    0    0 -0.57579075974E-03 -0.22962913517E-02  0.39943665743E+01  0.39950713304E+01  0.75000000000E-01 0.  1.
</event>
<event>
 5   0  0.5237200E+07  0.9118800E+02  0.7818608E-02  0.1180000E+00
       11   -1    0    0    0    0  0.00000000000E+00  0.00000000000E+00  0.39999999673E+01  0.40000000000E+01  0.51109989000E-03 0. -1.
     -623   -1    0    0    0    0  0.00000000000E+00  0.00000000000E+00  0.12525980253E-10  0.17130000000E+03  0.17130000000E+03 0.  1.
       11    1    1    2    0    0  0.23118416169E-02  0.25674628922E-02  0.42787712757E+00  0.42789138107E+00  0.51109989000E-03 0. -1.
     -623    1    1    2    0    0  0.24073703497E-02  0.29290054866E-02  0.80904933612E-03  0.17130000004E+03  0.17130000000E+03 0.  1.
      622    1    1    2    0    0 -0.47192119666E-02 -0.54964683788E-02  0.35713137905E+01  0.35721085751E+01  0.75000000000E-01 0.  0.
</event>
<event>
 5   0  0.5237200E+07  0.9118800E+02  0.7818608E-02  0.1180000E+00
       11   -1    0    0    0    0  0.00000000000E+00  0.00000000000E+00  0.39999999673E+01  0.40000000000E+01  0.51109989000E-03 0. -1.
     -623   -1    0    0    0    0  0.00000000000E+00  0.00000000000E+00  0.12525980253E-10  0.17130000000E+03  0.17130000000E+03 0. -1.
       11    1    1    2    0    0  0.32911774741E-03 -0.31221718749E-03  0.16252265424E-01  0.16266626904E-01  0.51109989000E-03 0. -1.
     -623    1    1    2    0    0 -0.12672811948E-02  0.74370090129E-03  0.72052913055E-03  0.17130000001E+03  0.17130000000E+03 0. -1.
      622    1    1    2    0    0  0.93816344735E-03 -0.43148371380E-03  0.39830271728E+01  0.39837333653E+01  0.75000000000E-01 0. -1.
</event>
<event>
 5   0  0.5237200E+07  0.9118800E+02  0.7818608E-02  0.1180000E+00
       11   -1    0    0    0    0  0.00000000000E+00  0.00000000000E+00  0.39999999673E+01  0.40000000000E+01  0.51109989000E-03 0. -1.
     -623   -1    0    0    0    0  0.00000000000E+00  0.00000000000E+00  0.12525980253E-10  0.17130000000E+03  0.17130000000E+03 0.  1.
       11    1    1    2    0    0 -0.65602233390E-03  0.73570063976E-03  0.51576743811E-02  0.52758361135E-02  0.51109989000E-03 0. -1.
     -623    1    1    2    0    0  0.13536486868E-03 -0.54608385859E-03  0.82228609988E-03  0.17130000000E+03  0.17130000000E+03 0.  1.
      622    1    1    2    0    0  0.52065746521E-03 -0.18961678117E-03  0.39940200069E+01  0.39947241610E+01  0.75000000000E-01 0. -1.
</event>
<event>
 5   0  0.5237200E+07  0.9118800E+02  0.7818608E-02  0.1180000E+00
       11   -1    0    0    0    0  0.00000000000E+00  0.00000000000E+00  0.39999999673E+01  0.40000000000E+01  0.51109989000E-03 0. -1.
     -623   -1    0    0    0    0  0.00000000000E+00  0.00000000000E+00  0.12525980253E-10  0.17130000000E+03  0.17130000000E+03 0.  1.
       11    1    1    2    0    0  0.15402192989E-01  0.26606881054E-02  0.24499991407E+00  0.24549852531E+00  0.51109989000E-03 0. -1.
     -623    1    1    2    0    0 -0.22712748269E-01  0.34459617007E-01  0.14433954774E-02  0.17130000498E+03  0.17130000000E+03 0.  1.
      622    1    1    2    0    0  0.73105552781E-02 -0.37120305111E-01  0.37535566576E+01  0.37544964966E+01  0.75000000000E-01 0. -1.
</event>
<event>
 5   0  0.5237200E+07  0.9118800E+02  0.7818608E-02  0.1180000E+00
       11   -1    0    0    0    0  0.00000000000E+00  0.00000000000E+00  0.39999999673E+01  0.40000000000E+01  0.51109989000E-03 0. -1.
     -623   -1    0    0    0    0  0.00000000000E+00  0.00000000000E+00  0.12525980253E-10  0.17130000000E+03  0.17130000000E+03 0. -1.
       11    1    1    2    0    0  0.28393182764E-03  0.10487241460E-01  0.13684986998E+00  0.13725236240E+00  0.51109989000E-03 0. -1.
     -623    1    1    2    0    0  0.33355669852E-02  0.11065013885E-03  0.11469105820E-02  0.17130000004E+03  0.17130000000E+03 0. -1.
      622    1    1    2    0    0 -0.36194988129E-02 -0.10597891599E-01  0.38620031868E+01  0.38627476012E+01  0.75000000000E-01 0. -1.
</event>
<event>
 5   0  0.5237200E+07  0.9118800E+02  0.7818608E-02  0.1180000E+00
       11   -1    0    0    0    0  0.00000000000E+00  0.00000000000E+00  0.39999999673E+01  0.40000000000E+01  0.51109989000E-03 0. -1.
     -623   -1    0    0    0    0  0.00000000000E+00  0.00000000000E+00  0.12525980253E-10  0.17130000000E+03  0.17130000000E+03 0. -1.
       11    1    1    2    0    0  0.84169310419E-02  0.14167264719E-02  0.12212265963E+00  0.12242163641E+00  0.51109989000E-03 0. -1.
     -623    1    1    2    0    0 -0.31935821407E-02 -0.28775667368E-02  0.10281868389E-02  0.17130000006E+03  0.17130000000E+03 0. -1.
      622    1    1    2    0    0 -0.52233489012E-02  0.14608402648E-02  0.38768491208E+01  0.38775783065E+01  0.75000000000E-01 0. -1.
</event>
<event>
 5   0  0.5237200E+07  0.9118800E+02  0.7818608E-02  0.1180000E+00
       11   -1    0    0    0    0  0.00000000000E+00  0.00000000000E+00  0.39999999673E+01  0.40000000000E+01  0.51109989000E-03 0. -1.
     -623   -1    0    0    0    0  0.00000000000E+00  0.00000000000E+00  0.12525980253E-10  0.17130000000E+03  0.17130000000E+03 0. -1.
       11    1    1    2    0    0  0.12044943835E-01  0.11205547203E-01  0.44821925912E+00  0.44852136005E+00  0.51109989000E-03 0. -1.
     -623    1    1    2    0    0  0.29044089901E-03 -0.36660168104E-02  0.11235553782E-02  0.17130000004E+03  0.17130000000E+03 0. -1.
      622    1    1    2    0    0 -0.12335384734E-01 -0.75395303921E-02  0.35506571529E+01  0.35514785968E+01  0.75000000000E-01 0.  0.
</event>
<event>
 5   0  0.5237200E+07  0.9118800E+02  0.7818608E-02  0.1180000E+00
       11   -1    0    0    0    0  0.00000000000E+00  0.00000000000E+00  0.39999999673E+01  0.40000000000E+01  0.51109989000E-03 0.  1.
     -623   -1    0    0    0    0  0.00000000000E+00  0.00000000000E+00  0.12525980253E-10  0.17130000000E+03  0.17130000000E+03 0.  1.
       11    1    1    2    0    0 -0.19650651981E-02 -0.82506768841E-03  0.51355601378E-01  0.51402346580E-01  0.51109989000E-03 0.  1.
     -623    1    1    2    0    0  0.52913969774E-02  0.25247898211E-03  0.76058146457E-03  0.17130000008E+03  0.17130000000E+03 0.  1.
      622    1    1    2    0    0 -0.33263317795E-02  0.57258870629E-03  0.39478837847E+01  0.39485975700E+01  0.75000000000E-01 0.  1.
</event>
<event>
 5   0  0.5237200E+07  0.9118800E+02  0.7818608E-02  0.1180000E+00
       11   -1    0    0    0    0  0.00000000000E+00  0.00000000000E+00  0.39999999673E+01  0.40000000000E+01  0.51109989000E-03 0. -1.
     -623   -1    0    0    0    0  0.00000000000E+00  0.00000000000E+00  0.12525980253E-10  0.17130000000E+03  0.17130000000E+03 0. -1.
       11    1    1    2    0    0  0.11397622829E-01 -0.58680440935E-02  0.10818842427E+01  0.10819603115E+01  0.51109989000E-03 0. -1.
     -623    1    1    2    0    0  0.72175466734E-03  0.57873138678E-03  0.10700044699E-02  0.17130000001E+03  0.17130000000E+03 0. -1.
      622    1    1    2    0    0 -0.12119377497E-01  0.52893127067E-02  0.29170457202E+01  0.29180396827E+01  0.75000000000E-01 0. -1.
</event>
<event>
 5   0  0.5237200E+07  0.9118800E+02  0.7818608E-02  0.1180000E+00
       11   -1    0    0    0    0  0.00000000000E+00  0.00000000000E+00  0.39999999673E+01  0.40000000000E+01  0.51109989000E-03 0. -1.
     -623   -1    0    0    0    0  0.00000000000E+00  0.00000000000E+00  0.12525980253E-10  0.17130000000E+03  0.17130000000E+03 0. -1.
       11    1    1    2    0    0  0.16609671972E-02  0.23856144913E-02  0.11230119873E-01  0.11611493485E-01  0.51109989000E-03 0. -1.
     -623    1    1    2    0    0  0.45434348527E-02 -0.31447648553E-02  0.10915669131E-02  0.17130000009E+03  0.17130000000E+03 0. -1.
      622    1    1    2    0    0 -0.62044020499E-02  0.75915036398E-03  0.39876782806E+01  0.39883884139E+01  0.75000000000E-01 0. -1.
</event>
<event>
 5   0  0.5237200E+07  0.9118800E+02  0.7818608E-02  0.1180000E+00
       11   -1    0    0    0    0  0.00000000000E+00  0.00000000000E+00  0.39999999673E+01  0.40000000000E+01  0.51109989000E-03 0. -1.
     -623   -1    0    0    0    0  0.00000000000E+00  0.00000000000E+00  0.12525980253E-10  0.17130000000E+03  0.17130000000E+03 0.  1.
       11    1    1    2    0    0  0.75238724831E-03  0.41663078789E-03 -0.48733415028E-03  0.11128276850E-02  0.51109989000E-03 0. -1.
     -623    1    1    2    0    0 -0.14757922010E-02  0.12219778614E-02  0.23039391646E-02  0.17130000003E+03  0.17130000000E+03 0.  1.
      622    1    1    2    0    0  0.72340495278E-03 -0.16386086494E-02  0.39981833625E+01  0.39988871463E+01  0.75000000000E-01 0. -1.
</event>
<event>
 5   0  0.5237200E+07  0.9118800E+02  0.7818608E-02  0.1180000E+00
       11   -1    0    0    0    0  0.00000000000E+00  0.00000000000E+00  0.39999999673E+01  0.40000000000E+01  0.51109989000E-03 0.  1.
     -623   -1    0    0    0    0  0.00000000000E+00  0.00000000000E+00  0.12525980253E-10  0.17130000000E+03  0.17130000000E+03 0. -1.
       11    1    1    2    0    0  0.36898349169E-02  0.52073673426E-02  0.20096935277E-01  0.21092168854E-01  0.51109989000E-03 0.  1.
     -623    1    1    2    0    0 -0.21198542053E-01 -0.23166470756E-01  0.17840712418E-02  0.17130000289E+03  0.17130000000E+03 0. -1.
      622    1    1    2    0    0  0.17508707136E-01  0.17959103413E-01  0.39781189608E+01  0.39789049436E+01  0.75000000000E-01 0.  1.
</event>
<event>
 5   0  0.5237200E+07  0.9118800E+02  0.7818608E-02  0.1180000E+00
       11   -1    0    0    0    0  0.00000000000E+00  0.00000000000E+00  0.39999999673E+01  0.40000000000E+01  0.51109989000E-03 0.  1.
     -623   -1    0    0    0    0  0.00000000000E+00  0.00000000000E+00  0.12525980253E-10  0.17130000000E+03  0.17130000000E+03 0.  1.
       11    1    1    2    0    0  0.26285567559E-03  0.10367001151E-02  0.97518913516E-02  0.98236676714E-02  0.51109989000E-03 0.  1.
     -623    1    1    2    0    0  0.28843968374E-02 -0.20796863301E-02  0.77807845084E-03  0.17130000004E+03  0.17130000000E+03 0.  1.
      622    1    1    2    0    0 -0.31472525130E-02  0.10429862150E-02  0.39894699976E+01  0.39901762937E+01  0.75000000000E-01 0.  1.
</event>
<event>
 5   0  0.5237200E+07  0.9118800E+02  0.7818608E-02  0.1180000E+00
       11   -1    0    0    0    0  0.00000000000E+00  0.00000000000E+00  0.39999999673E+01  0.40000000000E+01  0.51109989000E-03 0.  1.
     -623   -1    0    0    0    0  0.00000000000E+00  0.00000000000E+00  0.12525980253E-10  0.17130000000E+03  0.17130000000E+03 0.  1.
       11    1    1    2    0    0  0.17197481814E-02  0.63404695162E-02  0.23822399234E-02  0.70068093768E-02  0.51109989000E-03 0.  1.
     -623    1    1    2    0    0 -0.45651278054E-02  0.15904094343E-01  0.53928284818E-02  0.17130000088E+03  0.17130000000E+03 0.  1.
      622    1    1    2    0    0  0.28453796240E-02 -0.22244563860E-01  0.39922248990E+01  0.39929923067E+01  0.75000000000E-01 0.  1.
</event>
<event>
 5   0  0.5237200E+07  0.9118800E+02  0.7818608E-02  0.1180000E+00
       11   -1    0    0    0    0  0.00000000000E+00  0.00000000000E+00  0.39999999673E+01  0.40000000000E+01  0.51109989000E-03 0.  1.
     -623   -1    0    0    0    0  0.00000000000E+00  0.00000000000E+00  0.12525980253E-10  0.17130000000E+03  0.17130000000E+03 0. -1.
       11    1    1    2    0    0 -0.35143387838E-02 -0.13450634230E-03  0.11450614912E+00  0.11456128524E+00  0.51109989000E-03 0.  1.
     -623    1    1    2    0    0  0.75506187102E-02  0.43856946195E-02  0.78367478679E-03  0.17130000022E+03  0.17130000000E+03 0. -1.
      622    1    1    2    0    0 -0.40362799264E-02 -0.42511882772E-02  0.38847101435E+01  0.38854384904E+01  0.75000000000E-01 0.  1.
</event>
<event>
 5   0  0.5237200E+07  0.9118800E+02  0.7818608E-02  0.1180000E+00
       11   -1    0    0    0    0  0.00000000000E+00  0.00000000000E+00  0.39999999673E+01  0.40000000000E+01  0.51109989000E-03 0. -1.
     -623   -1    0    0    0    0  0.00000000000E+00  0.00000000000E+00  0.12525980253E-10  0.17130000000E+03  0.17130000000E+03 0.  1.
       11    1    1    2    0    0  0.12206933913E-01  0.10427644905E-01  0.22239007739E+00  0.22296939871E+00  0.51109989000E-03 0. -1.
     -623    1    1    2    0    0  0.42238193287E-02 -0.18995655091E-01  0.13705713145E-02  0.17130000111E+03  0.17130000000E+03 0.  1.
      622    1    1    2    0    0 -0.16430753242E-01  0.85680101858E-02  0.37762393186E+01  0.37770294905E+01  0.75000000000E-01 0. -1.
</event>
<event>
 5   0  0.5237200E+07  0.9118800E+02  0.7818608E-02  0.1180000E+00
       11   -1    0    0    0    0  0.00000000000E+00  0.00000000000E+00  0.39999999673E+01  0.40000000000E+01  0.51109989000E-03 0.  1.
     -623   -1    0    0    0    0  0.00000000000E+00  0.00000000000E+00  0.12525980253E-10  0.17130000000E+03  0.17130000000E+03 0.  1.
       11    1    1    2    0    0  0.15912324384E-01  0.16610905519E-03  0.25879252591E+00  0.25928182032E+00  0.51109989000E-03 0.  1.
     -623    1    1    2    0    0 -0.16570342979E-02  0.12698660383E-02  0.12686593128E-02  0.17130000002E+03  0.17130000000E+03 0.  1.
      622    1    1    2    0    0 -0.14255290086E-01 -0.14359750935E-02  0.37399387821E+01  0.37407181623E+01  0.75000000000E-01 0.  1.
</event>
<event>
 5   0  0.5237200E+07  0.9118800E+02  0.7818608E-02  0.1180000E+00
       11   -1    0    0    0    0  0.00000000000E+00  0.00000000000E+00  0.39999999673E+01  0.40000000000E+01  0.51109989000E-03 0. -1.
     -623   -1    0    0    0    0  0.00000000000E+00  0.00000000000E+00  0.12525980253E-10  0.17130000000E+03  0.17130000000E+03 0. -1.
       11    1    1    2    0    0  0.15976112912E-02 -0.63831761168E-02  0.20318998998E-01  0.21363994011E-01  0.51109989000E-03 0. -1.
     -623    1    1    2    0    0 -0.54937044320E-02  0.62111535530E-02  0.17540471442E-02  0.17130000021E+03  0.17130000000E+03 0. -1.
      622    1    1    2    0    0  0.38960931408E-02  0.17202256386E-03  0.39779269212E+01  0.39786357963E+01  0.75000000000E-01 0. -1.
</event>
<event>
 5   0  0.5237200E+07  0.9118800E+02  0.7818608E-02  0.1180000E+00
       11   -1    0    0    0    0  0.00000000000E+00  0.00000000000E+00  0.39999999673E+01  0.40000000000E+01  0.51109989000E-03 0.  1.
     -623   -1    0    0    0    0  0.00000000000E+00  0.00000000000E+00  0.12525980253E-10  0.17130000000E+03  0.17130000000E+03 0. -1.
       11    1    1    2    0    0 -0.64383652137E-02 -0.62962235043E-02  0.13103621637E+00  0.13134628355E+00  0.51109989000E-03 0.  1.
     -623    1    1    2    0    0  0.99274247034E-02  0.89700543887E-03  0.10427352130E-02  0.17130000029E+03  0.17130000000E+03 0. -1.
      622    1    1    2    0    0 -0.34890594907E-02  0.53992180653E-02  0.38679210162E+01  0.38686534236E+01  0.75000000000E-01 0.  1.
</event>
<event>
 5   0  0.5237200E+07  0.9118800E+02  0.7818608E-02  0.1180000E+00
       11   -1    0    0    0    0  0.00000000000E+00  0.00000000000E+00  0.39999999673E+01  0.40000000000E+01  0.51109989000E-03 0. -1.
     -623   -1    0    0    0    0  0.00000000000E+00  0.00000000000E+00  0.12525980253E-10  0.17130000000E+03  0.17130000000E+03 0. -1.
       11    1    1    2    0    0 -0.46344574208E-02  0.73318078310E-03  0.94279399719E-01  0.94397469157E-01  0.51109989000E-03 0. -1.
     -623    1    1    2    0    0  0.37568302549E-02  0.82352055027E-02  0.84886139098E-03  0.17130000024E+03  0.17130000000E+03 0. -1.
      622    1    1    2    0    0  0.87762716596E-03 -0.89683862858E-02  0.39048717063E+01  0.39056022896E+01  0.75000000000E-01 0. -1.
</event>
<event>
 5   0  0.5237200E+07  0.9118800E+02  0.7818608E-02  0.1180000E+00
       11   -1    0    0    0    0  0.00000000000E+00  0.00000000000E+00  0.39999999673E+01  0.40000000000E+01  0.51109989000E-03 0.  1.
     -623   -1    0    0    0    0  0.00000000000E+00  0.00000000000E+00  0.12525980253E-10  0.17130000000E+03  0.17130000000E+03 0. -1.
       11    1    1    2    0    0  0.26899982954E-02 -0.29964102442E-02  0.33348705975E-01  0.33594820709E-01  0.51109989000E-03 0.  1.
     -623    1    1    2    0    0 -0.55076685170E-02  0.20057942355E-02  0.95645353647E-03  0.17130000010E+03  0.17130000000E+03 0. -1.
      622    1    1    2    0    0  0.28176702217E-02  0.99061600862E-03  0.39656948079E+01  0.39664050764E+01  0.75000000000E-01 0.  1.
</event>
<event>
 5   0  0.5237200E+07  0.9118800E+02  0.7818608E-02  0.1180000E+00
       11   -1    0    0    0    0  0.00000000000E+00  0.00000000000E+00  0.39999999673E+01  0.40000000000E+01  0.51109989000E-03 0. -1.
     -623   -1    0    0    0    0  0.00000000000E+00  0.00000000000E+00  0.12525980253E-10  0.17130000000E+03  0.17130000000E+03 0.  1.
       11    1    1    2    0    0  0.28462060711E-02  0.51549672484E-02  0.10126081673E+00  0.10143317408E+00  0.51109989000E-03 0. -1.
     -623    1    1    2    0    0 -0.34242730079E-03 -0.29507374234E-02  0.89526592271E-03  0.17130000003E+03  0.17130000000E+03 0.  1.
      622    1    1    2    0    0 -0.25037787703E-02 -0.22042298248E-02  0.38978438850E+01  0.38985667981E+01  0.75000000000E-01 0. -1.
</event>
<event>
 5   0  0.5237200E+07  0.9118800E+02  0.7818608E-02  0.1180000E+00
       11   -1    0    0    0    0  0.00000000000E+00  0.00000000000E+00  0.39999999673E+01  0.40000000000E+01  0.51109989000E-03 0. -1.
     -623   -1    0    0    0    0  0.00000000000E+00  0.00000000000E+00  0.12525980253E-10  0.17130000000E+03  0.17130000000E+03 0. -1.
       11    1    1    2    0    0 -0.17519282534E-02 -0.27374658751E-02  0.11276230113E-01  0.11746385004E-01  0.51109989000E-03 0. -1.
     -623    1    1    2    0    0 -0.16617375850E-02  0.85338402763E-03  0.11773010124E-02  0.17130000001E+03  0.17130000000E+03 0. -1.
      622    1    1    2    0    0  0.34136658385E-02  0.18840818475E-02  0.39875464363E+01  0.39882536008E+01  0.75000000000E-01 0. -1.
</event>
<event>
 5   0  0.5237200E+07  0.9118800E+02  0.7818608E-02  0.1180000E+00
       11   -1    0    0    0    0  0.00000000000E+00  0.00000000000E+00  0.39999999673E+01  0.40000000000E+01  0.51109989000E-03 0. -1.
     -623   -1    0    0    0    0  0.00000000000E+00  0.00000000000E+00  0.12525980253E-10  0.17130000000E+03  0.17130000000E+03 0. -1.
       11    1    1    2    0    0  0.67863465429E-03  0.24491582781E-02  0.16903574946E-01  0.17101198474E-01  0.51109989000E-03 0. -1.
     -623    1    1    2    0    0  0.19204790875E-02 -0.13365792004E-02  0.90481946729E-03  0.17130000002E+03  0.17130000000E+03 0. -1.
      622    1    1    2    0    0 -0.25991137418E-02 -0.11125790777E-02  0.39821915729E+01  0.39828987832E+01  0.75000000000E-01 0. -1.
</event>
<event>
 5   0  0.5237200E+07  0.9118800E+02  0.7818608E-02  0.1180000E+00
       11   -1    0    0    0    0  0.00000000000E+00  0.00000000000E+00  0.39999999673E+01  0.40000000000E+01  0.51109989000E-03 0.  1.
     -623   -1    0    0    0    0  0.00000000000E+00  0.00000000000E+00  0.12525980253E-10  0.17130000000E+03  0.17130000000E+03 0. -1.
       11    1    1    2    0    0 -0.46394625861E-03  0.24937568040E-02 -0.25141493037E-03  0.25997118481E-02  0.51109989000E-03 0.  1.
     -623    1    1    2    0    0  0.12979952548E-01 -0.16256631609E-01  0.35993339398E-02  0.17130000130E+03  0.17130000000E+03 0. -1.
      622    1    1    2    0    0 -0.12516006290E-01  0.13762874805E-01  0.39966520484E+01  0.39973989872E+01  0.75000000000E-01 0.  1.
</event>
<event>
 5   0  0.5237200E+07  0.9118800E+02  0.7818608E-02  0.1180000E+00
       11   -1    0    0    0    0  0.00000000000E+00  0.00000000000E+00  0.39999999673E+01  0.40000000000E+01  0.51109989000E-03 0. -1.
     -623   -1    0    0    0    0  0.00000000000E+00  0.00000000000E+00  0.12525980253E-10  0.17130000000E+03  0.17130000000E+03 0. -1.
       11    1    1    2    0    0  0.73918019117E-04  0.50961729637E-03  0.94548580279E-02  0.94826544686E-02  0.51109989000E-03 0. -1.
     -623    1    1    2    0    0 -0.43731506908E-03 -0.12774277597E-02  0.73271920409E-03  0.17130000001E+03  0.17130000000E+03 0. -1.
      622    1    1    2    0    0  0.36339704996E-03  0.76781046331E-03  0.39898123901E+01  0.39905173386E+01  0.75000000000E-01 0. -1.
</event>
<event>
 5   0  0.5237200E+07  0.9118800E+02  0.7818608E-02  0.1180000E+00
       11   -1    0    0    0    0  0.00000000000E+00  0.00000000000E+00  0.39999999673E+01  0.40000000000E+01  0.51109989000E-03 0.  1.
     -623   -1    0    0    0    0  0.00000000000E+00  0.00000000000E+00  0.12525980253E-10  0.17130000000E+03  0.17130000000E+03 0. -1.
       11    1    1    2    0    0 -0.20035478559E-02 -0.92787244415E-03  0.74354405501E-01  0.74388937295E-01  0.51109989000E-03 0.  1.
     -623    1    1    2    0    0  0.15030587485E-02  0.15190490837E-02  0.75110492417E-03  0.17130000001E+03  0.17130000000E+03 0. -1.
      622    1    1    2    0    0  0.50048910727E-03 -0.59117663970E-03  0.39248944573E+01  0.39256110481E+01  0.75000000000E-01 0.  1.
</event>
<event>
 5   0  0.5237200E+07  0.9118800E+02  0.7818608E-02  0.1180000E+00
       11   -1    0    0    0    0  0.00000000000E+00  0.00000000000E+00  0.39999999673E+01  0.40000000000E+01  0.51109989000E-03 0. -1.
     -623   -1    0    0    0    0  0.00000000000E+00  0.00000000000E+00  0.12525980253E-10  0.17130000000E+03  0.17130000000E+03 0.  1.
       11    1    1    2    0    0  0.13119533907E-02 -0.11144423081E-03  0.16879724664E-01  0.16938712091E-01  0.51109989000E-03 0. -1.
     -623    1    1    2    0    0 -0.38547927304E-02  0.17049979590E-02  0.76631680787E-03  0.17130000005E+03  0.17130000000E+03 0.  1.
      622    1    1    2    0    0  0.25428393397E-02 -0.15935537282E-02  0.39823539259E+01  0.39830612343E+01  0.75000000000E-01 0. -1.
</event>
<event>
 5   0  0.5237200E+07  0.9118800E+02  0.7818608E-02  0.1180000E+00
       11   -1    0    0    0    0  0.00000000000E+00  0.00000000000E+00  0.39999999673E+01  0.40000000000E+01  0.51109989000E-03 0. -1.
     -623   -1    0    0    0    0  0.00000000000E+00  0.00000000000E+00  0.12525980253E-10  0.17130000000E+03  0.17130000000E+03 0. -1.
       11    1    1    2    0    0  0.66104668520E-02 -0.35284188159E-02  0.97936041034E+00  0.97938920893E+00  0.51109989000E-03 0. -1.
     -623    1    1    2    0    0  0.53093180630E-02 -0.12058108383E-02  0.98733912934E-03  0.17130000009E+03  0.17130000000E+03 0. -1.
      622    1    1    2    0    0 -0.11919784915E-01  0.47342296543E-02  0.30196522179E+01  0.30206107017E+01  0.75000000000E-01 0. -1.
</event>
<event>
 5   0  0.5237200E+07  0.9118800E+02  0.7818608E-02  0.1180000E+00
       11   -1    0    0    0    0  0.00000000000E+00  0.00000000000E+00  0.39999999673E+01  0.40000000000E+01  0.51109989000E-03 0.  1.
     -623   -1    0    0    0    0  0.00000000000E+00  0.00000000000E+00  0.12525980253E-10  0.17130000000E+03  0.17130000000E+03 0. -1.
       11    1    1    2    0    0 -0.41474051234E-02 -0.21565381378E-04  0.69212533094E-02  0.80849492759E-02  0.51109989000E-03 0.  1.
     -623    1    1    2    0    0  0.54598570674E-03  0.35668486760E-03  0.18699249395E-02  0.17130000001E+03  0.17130000000E+03 0. -1.
      622    1    1    2    0    0  0.36014194166E-02 -0.33511948625E-03  0.39912087894E+01  0.39919150395E+01  0.75000000000E-01 0.  1.
</event>
<event>
 5   0  0.5237200E+07  0.9118800E+02  0.7818608E-02  0.1180000E+00
       11   -1    0    0    0    0  0.00000000000E+00  0.00000000000E+00  0.39999999673E+01  0.40000000000E+01  0.51109989000E-03 0.  1.
     -623   -1    0    0    0    0  0.00000000000E+00  0.00000000000E+00  0.12525980253E-10  0.17130000000E+03  0.17130000000E+03 0.  1.
       11    1    1    2    0    0  0.24347481022E-01  0.11228927593E-02  0.23052948227E+00  0.23181493511E+00  0.51109989000E-03 0.  1.
     -623    1    1    2    0    0  0.53246255213E-03 -0.43874878902E-02  0.21155129669E-02  0.17130000007E+03  0.17130000000E+03 0.  1.
      622    1    1    2    0    0 -0.24879943574E-01  0.32645951309E-02  0.37673549721E+01  0.37681849948E+01  0.75000000000E-01 0.  1.
</event>
<event>
 5   0  0.5237200E+07  0.9118800E+02  0.7818608E-02  0.1180000E+00
       11   -1    0    0    0    0  0.00000000000E+00  0.00000000000E+00  0.39999999673E+01  0.40000000000E+01  0.51109989000E-03 0. -1.
     -623   -1    0    0    0    0  0.00000000000E+00  0.00000000000E+00  0.12525980253E-10  0.17130000000E+03  0.17130000000E+03 0. -1.
       11    1    1    2    0    0  0.51269075612E-02  0.59949530756E-03  0.20276739104E-01  0.20929690556E-01  0.51109989000E-03 0. -1.
     -623    1    1    2    0    0 -0.35328795403E-02  0.14223200820E-02  0.13606858375E-02  0.17130000005E+03  0.17130000000E+03 0. -1.
      622    1    1    2    0    0 -0.15940280209E-02 -0.20218153895E-02  0.39783625424E+01  0.39790702617E+01  0.75000000000E-01 0. -1.
</event>
<event>
 5   0  0.5237200E+07  0.9118800E+02  0.7818608E-02  0.1180000E+00
       11   -1    0    0    0    0  0.00000000000E+00  0.00000000000E+00  0.39999999673E+01  0.40000000000E+01  0.51109989000E-03 0. -1.
     -623   -1    0    0    0    0  0.00000000000E+00  0.00000000000E+00  0.12525980253E-10  0.17130000000E+03  0.17130000000E+03 0. -1.
       11    1    1    2    0    0 -0.48201767761E-02  0.10316927363E-02  0.31474285742E-02  0.58707769458E-02  0.51109989000E-03 0. -1.
     -623    1    1    2    0    0  0.13838375470E-02 -0.17908050386E-02  0.34291362187E-02  0.17130000005E+03  0.17130000000E+03 0. -1.
      622    1    1    2    0    0  0.34363392291E-02  0.75911230229E-03  0.39934234026E+01  0.39941291738E+01  0.75000000000E-01 0. -1.
</event>
<event>
 5   0  0.5237200E+07  0.9118800E+02  0.7818608E-02  0.1180000E+00
       11   -1    0    0    0    0  0.00000000000E+00  0.00000000000E+00  0.39999999673E+01  0.40000000000E+01  0.51109989000E-03 0.  1.
     -623   -1    0    0    0    0  0.00000000000E+00  0.00000000000E+00  0.12525980253E-10  0.17130000000E+03  0.17130000000E+03 0.  1.
       11    1    1    2    0    0 -0.20376243842E-01  0.83844627649E-03  0.15460882285E+00  0.15594884941E+00  0.51109989000E-03 0.  1.
     -623    1    1    2    0    0  0.58003459642E-03 -0.26205699971E-02  0.21231445250E-02  0.17130000003E+03  0.17130000000E+03 0.  1.
      622    1    1    2    0    0  0.19796209246E-01  0.17821237206E-02  0.38432680000E+01  0.38440511164E+01  0.75000000000E-01 0.  1.
</event>
<event>
 5   0  0.5237200E+07  0.9118800E+02  0.7818608E-02  0.1180000E+00
       11   -1    0    0    0    0  0.00000000000E+00  0.00000000000E+00  0.39999999673E+01  0.40000000000E+01  0.51109989000E-03 0.  1.
     -623   -1    0    0    0    0  0.00000000000E+00  0.00000000000E+00  0.12525980253E-10  0.17130000000E+03  0.17130000000E+03 0. -1.
       11    1    1    2    0    0 -0.33243042196E-02  0.16221905270E-02  0.51329585013E-01  0.51465231174E-01  0.51109989000E-03 0.  1.
     -623    1    1    2    0    0  0.25297368707E-02 -0.50386193999E-02  0.84962046471E-03  0.17130000009E+03  0.17130000000E+03 0. -1.
      622    1    1    2    0    0  0.79456734881E-03  0.34164288729E-02  0.39478207619E+01  0.39485346739E+01  0.75000000000E-01 0.  1.
</event>
<event>
 5   0  0.5237200E+07  0.9118800E+02  0.7818608E-02  0.1180000E+00
       11   -1    0    0    0    0  0.00000000000E+00  0.00000000000E+00  0.39999999673E+01  0.40000000000E+01  0.51109989000E-03 0. -1.
     -623   -1    0    0    0    0  0.00000000000E+00  0.00000000000E+00  0.12525980253E-10  0.17130000000E+03  0.17130000000E+03 0.  1.
       11    1    1    2    0    0 -0.86086035995E-02 -0.29626553583E-02  0.39158670280E-01  0.40206318706E-01  0.51109989000E-03 0. -1.
     -623    1    1    2    0    0  0.19962239712E-02 -0.49022907089E-03  0.17649928448E-02  0.17130000002E+03  0.17130000000E+03 0.  1.
      622    1    1    2    0    0  0.66123796283E-02  0.34528844292E-02  0.39590763042E+01  0.39597936599E+01  0.75000000000E-01 0. -1.
</event>
<event>
 5   0  0.5237200E+07  0.9118800E+02  0.7818608E-02  0.1180000E+00
       11   -1    0    0    0    0  0.00000000000E+00  0.00000000000E+00  0.39999999673E+01  0.40000000000E+01  0.51109989000E-03 0. -1.
     -623   -1    0    0    0    0  0.00000000000E+00  0.00000000000E+00  0.12525980253E-10  0.17130000000E+03  0.17130000000E+03 0.  1.
       11    1    1    2    0    0 -0.20896196608E-02  0.10417237490E-01  0.12838467565E-01  0.16672516835E-01  0.51109989000E-03 0. -1.
     -623    1    1    2    0    0  0.14052633502E-03 -0.56695632435E-02  0.45436081574E-02  0.17130000015E+03  0.17130000000E+03 0.  1.
      622    1    1    2    0    0  0.19490933258E-02 -0.47476742466E-02  0.39826178916E+01  0.39833273290E+01  0.75000000000E-01 0. -1.
</event>
<event>
 5   0  0.5237200E+07  0.9118800E+02  0.7818608E-02  0.1180000E+00
       11   -1    0    0    0    0  0.00000000000E+00  0.00000000000E+00  0.39999999673E+01  0.40000000000E+01  0.51109989000E-03 0.  1.
     -623   -1    0    0    0    0  0.00000000000E+00  0.00000000000E+00  0.12525980253E-10  0.17130000000E+03  0.17130000000E+03 0. -1.
       11    1    1    2    0    0 -0.51537891106E-03 -0.77440392203E-03  0.59666439935E-03  0.12175988044E-02  0.51109989000E-03 0.  1.
     -623    1    1    2    0    0 -0.19091126371E-02 -0.24362958960E-02  0.13263601475E-02  0.17130000003E+03  0.17130000000E+03 0. -1.
      622    1    1    2    0    0  0.24244915482E-02  0.32106998181E-02  0.39980769428E+01  0.39987823681E+01  0.75000000000E-01 0.  1.
</event>
<event>
 5   0  0.5237200E+07  0.9118800E+02  0.7818608E-02  0.1180000E+00
       11   -1    0    0    0    0  0.00000000000E+00  0.00000000000E+00  0.39999999673E+01  0.40000000000E+01  0.51109989000E-03 0.  1.
     -623   -1    0    0    0    0  0.00000000000E+00  0.00000000000E+00  0.12525980253E-10  0.17130000000E+03  0.17130000000E+03 0. -1.
       11    1    1    2    0    0  0.13102031694E-02  0.41730458450E-02  0.18670744184E-02  0.47831092347E-02  0.51109989000E-03 0.  1.
     -623    1    1    2    0    0  0.15664045866E-01 -0.77276727880E-01  0.43433026819E-02  0.17130001820E+03  0.17130000000E+03 0. -1.
      622    1    1    2    0    0 -0.16974249036E-01  0.73103682035E-01  0.39937895903E+01  0.39951986890E+01  0.75000000000E-01 0.  1.
</event>
<event>
 5   0  0.5237200E+07  0.9118800E+02  0.7818608E-02  0.1180000E+00
       11   -1    0    0    0    0  0.00000000000E+00  0.00000000000E+00  0.39999999673E+01  0.40000000000E+01  0.51109989000E-03 0. -1.
     -623   -1    0    0    0    0  0.00000000000E+00  0.00000000000E+00  0.12525980253E-10  0.17130000000E+03  0.17130000000E+03 0.  1.
       11    1    1    2    0    0  0.28291483757E-02 -0.17440175214E-02  0.19828949895E-01  0.20112040024E-01  0.51109989000E-03 0. -1.
     -623    1    1    2    0    0 -0.14514771043E-02  0.15482697526E-04  0.99042136132E-03  0.17130000001E+03  0.17130000000E+03 0.  1.
      622    1    1    2    0    0 -0.13776712713E-02  0.17285348239E-02  0.39791805961E+01  0.39798879510E+01  0.75000000000E-01 0. -1.
</event>
<event>
 5   0  0.5237200E+07  0.9118800E+02  0.7818608E-02  0.1180000E+00
       11   -1    0    0    0    0  0.00000000000E+00  0.00000000000E+00  0.39999999673E+01  0.40000000000E+01  0.51109989000E-03 0. -1.
     -623   -1    0    0    0    0  0.00000000000E+00  0.00000000000E+00  0.12525980253E-10  0.17130000000E+03  0.17130000000E+03 0.  1.
       11    1    1    2    0    0  0.59851274164E-02 -0.61351834836E-02  0.44465834748E-01  0.45287237784E-01  0.51109989000E-03 0. -1.
     -623    1    1    2    0    0 -0.14469007378E-02  0.12984710883E-01  0.15416535527E-02  0.17130000051E+03  0.17130000000E+03 0.  1.
      622    1    1    2    0    0 -0.45382266786E-02 -0.68495273992E-02  0.39539924791E+01  0.39547122570E+01  0.75000000000E-01 0. -1.
</event>
<event>
 5   0  0.5237200E+07  0.9118800E+02  0.7818608E-02  0.1180000E+00
       11   -1    0    0    0    0  0.00000000000E+00  0.00000000000E+00  0.39999999673E+01  0.40000000000E+01  0.51109989000E-03 0. -1.
     -623   -1    0    0    0    0  0.00000000000E+00  0.00000000000E+00  0.12525980253E-10  0.17130000000E+03  0.17130000000E+03 0. -1.
       11    1    1    2    0    0 -0.35298368760E-01  0.20124386848E-01  0.71688312715E-01  0.82404133308E-01  0.51109989000E-03 0. -1.
     -623    1    1    2    0    0 -0.20388908297E-01 -0.12898346481E-01  0.11838423643E-01  0.17130000211E+03  0.17130000000E+03 0. -1.
      622    1    1    2    0    0  0.55687277057E-01 -0.72260403672E-02  0.39164732310E+01  0.39175937587E+01  0.75000000000E-01 0. -1.
</event>
<event>
 5   0  0.5237200E+07  0.9118800E+02  0.7818608E-02  0.1180000E+00
       11   -1    0    0    0    0  0.00000000000E+00  0.00000000000E+00  0.39999999673E+01  0.40000000000E+01  0.51109989000E-03 0.  1.
     -623   -1    0    0    0    0  0.00000000000E+00  0.00000000000E+00  0.12525980253E-10  0.17130000000E+03  0.17130000000E+03 0. -1.
       11    1    1    2    0    0 -0.49693166203E-02 -0.29409087301E-02  0.13913994573E+00  0.13926065047E+00  0.51109989000E-03 0.  1.
     -623    1    1    2    0    0  0.57725674035E-04  0.36904039789E-02  0.85246773868E-03  0.17130000004E+03  0.17130000000E+03 0. -1.
      622    1    1    2    0    0  0.49115909463E-02 -0.74949524877E-03  0.38600075539E+01  0.38607393076E+01  0.75000000000E-01 0.  1.
</event>
<event>
 5   0  0.5237200E+07  0.9118800E+02  0.7818608E-02  0.1180000E+00
       11   -1    0    0    0    0  0.00000000000E+00  0.00000000000E+00  0.39999999673E+01  0.40000000000E+01  0.51109989000E-03 0. -1.
     -623   -1    0    0    0    0  0.00000000000E+00  0.00000000000E+00  0.12525980253E-10  0.17130000000E+03  0.17130000000E+03 0. -1.
       11    1    1    2    0    0 -0.42362221962E-02  0.20470991449E-02  0.59020519125E-01  0.59209957729E-01  0.51109989000E-03 0. -1.
     -623    1    1    2    0    0 -0.27401884965E-02  0.39179960730E-02  0.91392092490E-03  0.17130000007E+03  0.17130000000E+03 0. -1.
      622    1    1    2    0    0  0.69764106929E-02 -0.59650952182E-02  0.39400655276E+01  0.39407899734E+01  0.75000000000E-01 0. -1.
</event>
<event>
 5   0  0.5237200E+07  0.9118800E+02  0.7818608E-02  0.1180000E+00
       11   -1    0    0    0    0  0.00000000000E+00  0.00000000000E+00  0.39999999673E+01  0.40000000000E+01  0.51109989000E-03 0.  1.
     -623   -1    0    0    0    0  0.00000000000E+00  0.00000000000E+00  0.12525980253E-10  0.17130000000E+03  0.17130000000E+03 0.  1.
       11    1    1    2    0    0 -0.40228126327E-02  0.25411022285E-01  0.88065794398E+00  0.88103381240E+00  0.51109989000E-03 0.  1.
     -623    1    1    2    0    0  0.67603026933E-02  0.15335643871E-02  0.13954772709E-02  0.17130000015E+03  0.17130000000E+03 0.  1.
      622    1    1    2    0    0 -0.27374900606E-02 -0.26944586672E-01  0.31179465461E+01  0.31189660417E+01  0.75000000000E-01 0.  1.
</event>
<event>
 5   0  0.5237200E+07  0.9118800E+02  0.7818608E-02  0.1180000E+00
       11   -1    0    0    0    0  0.00000000000E+00  0.00000000000E+00  0.39999999673E+01  0.40000000000E+01  0.51109989000E-03 0. -1.
     -623   -1    0    0    0    0  0.00000000000E+00  0.00000000000E+00  0.12525980253E-10  0.17130000000E+03  0.17130000000E+03 0. -1.
       11    1    1    2    0    0 -0.51213543914E-01 -0.33169150920E-01  0.11061532529E+01  0.11078349606E+01  0.51109989000E-03 0. -1.
     -623    1    1    2    0    0  0.65344084529E-03  0.39183752442E-02  0.32444866435E-02  0.17130000008E+03  0.17130000000E+03 0. -1.
      622    1    1    2    0    0  0.50560103069E-01  0.29250775676E-01  0.28906022278E+01  0.28921649627E+01  0.75000000000E-01 0.  0.
</event>
<event>
 5   0  0.5237200E+07  0.9118800E+02  0.7818608E-02  0.1180000E+00
       11   -1    0    0    0    0  0.00000000000E+00  0.00000000000E+00  0.39999999673E+01  0.40000000000E+01  0.51109989000E-03 0. -1.
     -623   -1    0    0    0    0  0.00000000000E+00  0.00000000000E+00  0.12525980253E-10  0.17130000000E+03  0.17130000000E+03 0. -1.
       11    1    1    2    0    0  0.17904039445E-01  0.72807657426E-01  0.10699128337E+01  0.10725368257E+01  0.51109989000E-03 0. -1.
     -623    1    1    2    0    0  0.23157965664E-02 -0.51042894963E-02  0.44381158518E-02  0.17130000015E+03  0.17130000000E+03 0. -1.
      622    1    1    2    0    0 -0.20219836011E-01 -0.67703367930E-01  0.29256490178E+01  0.29274630251E+01  0.75000000000E-01 0. -1.
</event>
<event>
 5   0  0.5237200E+07  0.9118800E+02  0.7818608E-02  0.1180000E+00
       11   -1    0    0    0    0  0.00000000000E+00  0.00000000000E+00  0.39999999673E+01  0.40000000000E+01  0.51109989000E-03 0. -1.
     -623   -1    0    0    0    0  0.00000000000E+00  0.00000000000E+00  0.12525980253E-10  0.17130000000E+03  0.17130000000E+03 0.  1.
       11    1    1    2    0    0 -0.76352349527E-02  0.59758656280E-02  0.67526712599E-02  0.11826562266E-01  0.51109989000E-03 0. -1.
     -623    1    1    2    0    0  0.31385995340E-02 -0.90297001078E-02  0.57832000227E-02  0.17130000036E+03  0.17130000000E+03 0.  1.
      622    1    1    2    0    0  0.44966354188E-02  0.30538344798E-02  0.39874640961E+01  0.39881730734E+01  0.75000000000E-01 0. -1.
</event>
<event>
 5   0  0.5237200E+07  0.9118800E+02  0.7818608E-02  0.1180000E+00
       11   -1    0    0    0    0  0.00000000000E+00  0.00000000000E+00  0.39999999673E+01  0.40000000000E+01  0.51109989000E-03 0. -1.
     -623   -1    0    0    0    0  0.00000000000E+00  0.00000000000E+00  0.12525980253E-10  0.17130000000E+03  0.17130000000E+03 0.  1.
       11    1    1    2    0    0 -0.12214630443E-02  0.13900003534E-02  0.38521691529E-02  0.43040100096E-02  0.51109989000E-03 0. -1.
     -623    1    1    2    0    0  0.23366411885E-02 -0.60545073476E-03  0.11560061996E-02  0.17130000002E+03  0.17130000000E+03 0.  1.
      622    1    1    2    0    0 -0.11151781441E-02 -0.78454961861E-03  0.39949917920E+01  0.39956959691E+01  0.75000000000E-01 0. -1.
</event>
<event>
 5   0  0.5237200E+07  0.9118800E+02  0.7818608E-02  0.1180000E+00
       11   -1    0    0    0    0  0.00000000000E+00  0.00000000000E+00  0.39999999673E+01  0.40000000000E+01  0.51109989000E-03 0.  1.
     -623   -1    0    0    0    0  0.00000000000E+00  0.00000000000E+00  0.12525980253E-10  0.17130000000E+03  0.17130000000E+03 0.  1.
       11    1    1    2    0    0 -0.22680395944E-02 -0.31513745065E-03  0.24534854703E-02  0.33947207934E-02  0.51109989000E-03 0.  1.
     -623    1    1    2    0    0  0.94076024594E-03  0.77796226976E-03  0.16452463754E-02  0.17130000001E+03  0.17130000000E+03 0.  1.
      622    1    1    2    0    0  0.13272793484E-02 -0.46282481916E-03  0.39959012358E+01  0.39966052672E+01  0.75000000000E-01 0.  1.
</event>
<event>
 5   0  0.5237200E+07  0.9118800E+02  0.7818608E-02  0.1180000E+00
       11   -1    0    0    0    0  0.00000000000E+00  0.00000000000E+00  0.39999999673E+01  0.40000000000E+01  0.51109989000E-03 0. -1.
     -623   -1    0    0    0    0  0.00000000000E+00  0.00000000000E+00  0.12525980253E-10  0.17130000000E+03  0.17130000000E+03 0. -1.
       11    1    1    2    0    0  0.17721439903E-01  0.14112217356E-01  0.13917858281E+00  0.14101114582E+00  0.51109989000E-03 0. -1.
     -623    1    1    2    0    0  0.20249864532E-02 -0.21837912547E-02  0.26304338161E-02  0.17130000005E+03  0.17130000000E+03 0. -1.
      622    1    1    2    0    0 -0.19746426356E-01 -0.11928426101E-01  0.38581909507E+01  0.38589888081E+01  0.75000000000E-01 0. -1.
</event>
<event>
 5   0  0.5237200E+07  0.9118800E+02  0.7818608E-02  0.1180000E+00
       11   -1    0    0    0    0  0.00000000000E+00  0.00000000000E+00  0.39999999673E+01  0.40000000000E+01  0.51109989000E-03 0.  1.
     -623   -1    0    0    0    0  0.00000000000E+00  0.00000000000E+00  0.12525980253E-10  0.17130000000E+03  0.17130000000E+03 0. -1.
       11    1    1    2    0    0 -0.25218837570E-01  0.15828284038E-01  0.50695667710E+00  0.50783054065E+00  0.51109989000E-03 0.  1.
     -623    1    1    2    0    0  0.14447470974E-01  0.28754986166E-02  0.17466553439E-02  0.17130000064E+03  0.17130000000E+03 0. -1.
      622    1    1    2    0    0  0.10771366595E-01 -0.18703782654E-01  0.34912966351E+01  0.34921688172E+01  0.75000000000E-01 0.  1.
</event>
<event>
 5   0  0.5237200E+07  0.9118800E+02  0.7818608E-02  0.1180000E+00
       11   -1    0    0    0    0  0.00000000000E+00  0.00000000000E+00  0.39999999673E+01  0.40000000000E+01  0.51109989000E-03 0. -1.
     -623   -1    0    0    0    0  0.00000000000E+00  0.00000000000E+00  0.12525980253E-10  0.17130000000E+03  0.17130000000E+03 0.  1.
       11    1    1    2    0    0  0.45237017877E-03  0.14765925878E-01  0.79780510516E+00  0.79794203063E+00  0.51109989000E-03 0. -1.
     -623    1    1    2    0    0  0.70729815242E-02 -0.12819684630E-01  0.10254206374E-02  0.17130000063E+03  0.17130000000E+03 0.  1.
      622    1    1    2    0    0 -0.75253517030E-02 -0.19462412474E-02  0.32011694416E+01  0.32020573406E+01  0.75000000000E-01 0. -1.
</event>
<event>
 5   0  0.5237200E+07  0.9118800E+02  0.7818608E-02  0.1180000E+00
       11   -1    0    0    0    0  0.00000000000E+00  0.00000000000E+00  0.39999999673E+01  0.40000000000E+01  0.51109989000E-03 0. -1.
     -623   -1    0    0    0    0  0.00000000000E+00  0.00000000000E+00  0.12525980253E-10  0.17130000000E+03  0.17130000000E+03 0. -1.
       11    1    1    2    0    0 -0.77803148780E-02 -0.55841529045E-02  0.15232736439E-01  0.18000376268E-01  0.51109989000E-03 0. -1.
     -623    1    1    2    0    0  0.11023432866E-01 -0.22723674276E-02  0.34834513045E-02  0.17130000041E+03  0.17130000000E+03 0. -1.
      622    1    1    2    0    0 -0.32431179882E-02  0.78565203321E-02  0.39812837796E+01  0.39819992186E+01  0.75000000000E-01 0. -1.
</event>
<event>
 5   0  0.5237200E+07  0.9118800E+02  0.7818608E-02  0.1180000E+00
       11   -1    0    0    0    0  0.00000000000E+00  0.00000000000E+00  0.39999999673E+01  0.40000000000E+01  0.51109989000E-03 0.  1.
     -623   -1    0    0    0    0  0.00000000000E+00  0.00000000000E+00  0.12525980253E-10  0.17130000000E+03  0.17130000000E+03 0.  1.
       11    1    1    2    0    0  0.15192187880E-01 -0.71789163248E-02  0.12922364837E+00  0.13031251641E+00  0.51109989000E-03 0.  1.
     -623    1    1    2    0    0  0.40070613621E-03  0.10297814451E-01  0.18487055065E-02  0.17130000032E+03  0.17130000000E+03 0.  1.
      622    1    1    2    0    0 -0.15592894017E-01 -0.31188981263E-02  0.38689276135E+01  0.38696871636E+01  0.75000000000E-01 0.  1.
</event>
<event>
 5   0  0.5237200E+07  0.9118800E+02  0.7818608E-02  0.1180000E+00
       11   -1    0    0    0    0  0.00000000000E+00  0.00000000000E+00  0.39999999673E+01  0.40000000000E+01  0.51109989000E-03 0.  1.
     -623   -1    0    0    0    0  0.00000000000E+00  0.00000000000E+00  0.12525980253E-10  0.17130000000E+03  0.17130000000E+03 0.  1.
       11    1    1    2    0    0 -0.19680404423E-02  0.10754308780E-02  0.17665090457E-01  0.17814218442E-01  0.51109989000E-03 0.  1.
     -623    1    1    2    0    0  0.14933683227E-02  0.70415341087E-03  0.85586449939E-03  0.17130000001E+03  0.17130000000E+03 0.  1.
      622    1    1    2    0    0  0.47467211938E-03 -0.17795842889E-02  0.39814790128E+01  0.39821857719E+01  0.75000000000E-01 0.  1.
</event>
<event>
 5   0  0.5237200E+07  0.9118800E+02  0.7818608E-02  0.1180000E+00
       11   -1    0    0    0    0  0.00000000000E+00  0.00000000000E+00  0.39999999673E+01  0.40000000000E+01  0.51109989000E-03 0. -1.
     -623   -1    0    0    0    0  0.00000000000E+00  0.00000000000E+00  0.12525980253E-10  0.17130000000E+03  0.17130000000E+03 0. -1.
       11    1    1    2    0    0 -0.14441355147E-02  0.39817383175E-02  0.11839477474E-01  0.12584681854E-01  0.51109989000E-03 0. -1.
     -623    1    1    2    0    0 -0.15123793989E-02 -0.66792118176E-02  0.14527301892E-02  0.17130000014E+03  0.17130000000E+03 0. -1.
      622    1    1    2    0    0  0.29565149136E-02  0.26974735001E-02  0.39867077596E+01  0.39874151750E+01  0.75000000000E-01 0. -1.
</event>
<event>
 5   0  0.5237200E+07  0.9118800E+02  0.7818608E-02  0.1180000E+00
       11   -1    0    0    0    0  0.00000000000E+00  0.00000000000E+00  0.39999999673E+01  0.40000000000E+01  0.51109989000E-03 0.  1.
     -623   -1    0    0    0    0  0.00000000000E+00  0.00000000000E+00  0.12525980253E-10  0.17130000000E+03  0.17130000000E+03 0. -1.
       11    1    1    2    0    0  0.83698095694E-03 -0.12879314766E-04  0.30766192394E-03  0.10279005880E-02  0.51109989000E-03 0.  1.
     -623    1    1    2    0    0  0.25213180540E-02 -0.11021138666E-02  0.14251674979E-02  0.17130000003E+03  0.17130000000E+03 0. -1.
      622    1    1    2    0    0 -0.33582990110E-02  0.11149931813E-02  0.39982671379E+01  0.39989720714E+01  0.75000000000E-01 0.  1.
</event>
<event>
 5   0  0.5237200E+07  0.9118800E+02  0.7818608E-02  0.1180000E+00
       11   -1    0    0    0    0  0.00000000000E+00  0.00000000000E+00  0.39999999673E+01  0.40000000000E+01  0.51109989000E-03 0.  1.
     -623   -1    0    0    0    0  0.00000000000E+00  0.00000000000E+00  0.12525980253E-10  0.17130000000E+03  0.17130000000E+03 0. -1.
       11    1    1    2    0    0 -0.75933315484E-04  0.58044937852E-02  0.69259617694E-02  0.90514133427E-02  0.51109989000E-03 0.  1.
     -623    1    1    2    0    0  0.92541913776E-02 -0.76671974168E-02  0.28416366311E-02  0.17130000045E+03  0.17130000000E+03 0. -1.
      622    1    1    2    0    0 -0.91782580625E-02  0.18627036319E-02  0.39902323691E+01  0.39909481417E+01  0.75000000000E-01 0.  1.
</event>
<event>
 5   0  0.5237200E+07  0.9118800E+02  0.7818608E-02  0.1180000E+00
       11   -1    0    0    0    0  0.00000000000E+00  0.00000000000E+00  0.39999999673E+01  0.40000000000E+01  0.51109989000E-03 0.  1.
     -623   -1    0    0    0    0  0.00000000000E+00  0.00000000000E+00  0.12525980253E-10  0.17130000000E+03  0.17130000000E+03 0.  1.
       11    1    1    2    0    0 -0.48526018092E-02  0.14415447509E-03  0.27012581574E+00  0.27016992074E+00  0.51109989000E-03 0.  1.
     -623    1    1    2    0    0 -0.92900166100E-02 -0.76929265131E-03  0.82533070133E-03  0.17130000026E+03  0.17130000000E+03 0.  1.
      622    1    1    2    0    0  0.14142618419E-01  0.62513817622E-03  0.37290488209E+01  0.37298298236E+01  0.75000000000E-01 0.  1.
</event>
<event>
 5   0  0.5237200E+07  0.9118800E+02  0.7818608E-02  0.1180000E+00
       11   -1    0    0    0    0  0.00000000000E+00  0.00000000000E+00  0.39999999673E+01  0.40000000000E+01  0.51109989000E-03 0.  1.
     -623   -1    0    0    0    0  0.00000000000E+00  0.00000000000E+00  0.12525980253E-10  0.17130000000E+03  0.17130000000E+03 0.  1.
       11    1    1    2    0    0  0.15591378930E-03 -0.73159837389E-03 -0.19595384483E-02  0.21588328602E-02  0.51109989000E-03 0.  1.
     -623    1    1    2    0    0  0.23809922105E-03  0.19901566721E-02  0.48222024366E-02  0.17130000008E+03  0.17130000000E+03 0.  1.
      622    1    1    2    0    0 -0.39401301034E-03 -0.12585582982E-02  0.39971373034E+01  0.39978410875E+01  0.75000000000E-01 0.  1.
</event>
<event>
 5   0  0.5237200E+07  0.9118800E+02  0.7818608E-02  0.1180000E+00
       11   -1    0    0    0    0  0.00000000000E+00  0.00000000000E+00  0.39999999673E+01  0.40000000000E+01  0.51109989000E-03 0.  1.
     -623   -1    0    0    0    0  0.00000000000E+00  0.00000000000E+00  0.12525980253E-10  0.17130000000E+03  0.17130000000E+03 0. -1.
       11    1    1    2    0    0  0.64185681184E-02 -0.58125188128E-02  0.86051659763E+00  0.86056031712E+00  0.51109989000E-03 0.  1.
     -623    1    1    2    0    0 -0.12354267412E-02  0.81399332009E-03  0.94794446924E-03  0.17130000001E+03  0.17130000000E+03 0. -1.
      622    1    1    2    0    0 -0.51831413772E-02  0.49985254927E-02  0.31385354253E+01  0.31394396739E+01  0.75000000000E-01 0.  1.
</event>
<event>
 5   0  0.5237200E+07  0.9118800E+02  0.7818608E-02  0.1180000E+00
       11   -1    0    0    0    0  0.00000000000E+00  0.00000000000E+00  0.39999999673E+01  0.40000000000E+01  0.51109989000E-03 0. -1.
     -623   -1    0    0    0    0  0.00000000000E+00  0.00000000000E+00  0.12525980253E-10  0.17130000000E+03  0.17130000000E+03 0.  1.
       11    1    1    2    0    0 -0.29077398018E-03  0.18415897925E-02  0.10166746357E-01  0.10348910911E-01  0.51109989000E-03 0.  1.
     -623    1    1    2    0    0  0.20913473171E-02  0.34343180680E-02  0.89108801377E-03  0.17130000005E+03  0.17130000000E+03 0.  1.
      622    1    1    2    0    0 -0.18005733368E-02 -0.52759078604E-02  0.39889421328E+01  0.39896510394E+01  0.75000000000E-01 0. -1.
</event>
<event>
 5   0  0.5237200E+07  0.9118800E+02  0.7818608E-02  0.1180000E+00
       11   -1    0    0    0    0  0.00000000000E+00  0.00000000000E+00  0.39999999673E+01  0.40000000000E+01  0.51109989000E-03 0. -1.
     -623   -1    0    0    0    0  0.00000000000E+00  0.00000000000E+00  0.12525980253E-10  0.17130000000E+03  0.17130000000E+03 0.  1.
       11    1    1    2    0    0  0.24599903913E-02 -0.54085747634E-03  0.11019874661E-01  0.11315606045E-01  0.51109989000E-03 0. -1.
     -623    1    1    2    0    0  0.11466108107E-02  0.37826269947E-03  0.10025221475E-02  0.17130000001E+03  0.17130000000E+03 0.  1.
      622    1    1    2    0    0 -0.36066012021E-02  0.16259477684E-03  0.39879775708E+01  0.39886843870E+01  0.75000000000E-01 0. -1.
</event>
<event>
 5   0  0.5237200E+07  0.9118800E+02  0.7818608E-02  0.1180000E+00
       11   -1    0    0    0    0  0.00000000000E+00  0.00000000000E+00  0.39999999673E+01  0.40000000000E+01  0.51109989000E-03 0. -1.
     -623   -1    0    0    0    0  0.00000000000E+00  0.00000000000E+00  0.12525980253E-10  0.17130000000E+03  0.17130000000E+03 0.  1.
       11    1    1    2    0    0 -0.11241331105E-02 -0.65759191942E-02  0.18089885954E+00  0.18102255382E+00  0.51109989000E-03 0. -1.
     -623    1    1    2    0    0  0.29657333455E-01  0.45730898797E-01  0.11762506784E-02  0.17130000868E+03  0.17130000000E+03 0.  1.
      622    1    1    2    0    0 -0.28533200345E-01 -0.39154979603E-01  0.38179248571E+01  0.38189687706E+01  0.75000000000E-01 0. -1.
</event>
<event>
 5   0  0.5237200E+07  0.9118800E+02  0.7818608E-02  0.1180000E+00
       11   -1    0    0    0    0  0.00000000000E+00  0.00000000000E+00  0.39999999673E+01  0.40000000000E+01  0.51109989000E-03 0. -1.
     -623   -1    0    0    0    0  0.00000000000E+00  0.00000000000E+00  0.12525980253E-10  0.17130000000E+03  0.17130000000E+03 0.  1.
       11    1    1    2    0    0 -0.76078285023E-03 -0.44837014984E-02  0.60157414229E-02  0.75586200881E-02  0.51109989000E-03 0. -1.
     -623    1    1    2    0    0  0.58861427353E-02  0.70611781914E-03  0.22525597049E-02  0.17130000012E+03  0.17130000000E+03 0.  1.
      622    1    1    2    0    0 -0.51253598851E-02  0.37775836793E-02  0.39917316663E+01  0.39924412626E+01  0.75000000000E-01 0. -1.
</event>
<event>
 5   0  0.5237200E+07  0.9118800E+02  0.7818608E-02  0.1180000E+00
       11   -1    0    0    0    0  0.00000000000E+00  0.00000000000E+00  0.39999999673E+01  0.40000000000E+01  0.51109989000E-03 0. -1.
     -623   -1    0    0    0    0  0.00000000000E+00  0.00000000000E+00  0.12525980253E-10  0.17130000000E+03  0.17130000000E+03 0. -1.
       11    1    1    2    0    0 -0.29899652766E-01  0.58949183984E-01  0.76676768604E+00  0.76961155209E+00  0.51109989000E-03 0. -1.
     -623    1    1    2    0    0  0.32514024185E-02 -0.76247424705E-02  0.42326586325E-02  0.17130000025E+03  0.17130000000E+03 0. -1.
      622    1    1    2    0    0  0.26648250347E-01 -0.51324441514E-01  0.32289996227E+01  0.32303881951E+01  0.75000000000E-01 0. -1.
</event>
<event>
 5   0  0.5237200E+07  0.9118800E+02  0.7818608E-02  0.1180000E+00
       11   -1    0    0    0    0  0.00000000000E+00  0.00000000000E+00  0.39999999673E+01  0.40000000000E+01  0.51109989000E-03 0. -1.
     -623   -1    0    0    0    0  0.00000000000E+00  0.00000000000E+00  0.12525980253E-10  0.17130000000E+03  0.17130000000E+03 0. -1.
       11    1    1    2    0    0 -0.14003259677E-01  0.13307007861E-01  0.74306366099E+00  0.74331489508E+00  0.51109989000E-03 0. -1.
     -623    1    1    2    0    0 -0.42539201592E-02  0.18004565576E-02  0.12012312395E-02  0.17130000007E+03  0.17130000000E+03 0. -1.
      622    1    1    2    0    0  0.18257179836E-01 -0.15107464419E-01  0.32557350751E+01  0.32566850384E+01  0.75000000000E-01 0.  0.
</event>
<event>
 5   0  0.5237200E+07  0.9118800E+02  0.7818608E-02  0.1180000E+00
       11   -1    0    0    0    0  0.00000000000E+00  0.00000000000E+00  0.39999999673E+01  0.40000000000E+01  0.51109989000E-03 0. -1.
     -623   -1    0    0    0    0  0.00000000000E+00  0.00000000000E+00  0.12525980253E-10  0.17130000000E+03  0.17130000000E+03 0.  1.
       11    1    1    2    0    0  0.39995772556E-01 -0.16972842454E-01  0.48144781154E+00  0.48340458796E+00  0.51109989000E-03 0. -1.
     -623    1    1    2    0    0 -0.76374736497E-02 -0.30452107895E-01  0.32283217927E-02  0.17130000291E+03  0.17130000000E+03 0.  1.
      622    1    1    2    0    0 -0.32358298906E-01  0.47424950349E-01  0.35153238340E+01  0.35165925046E+01  0.75000000000E-01 0. -1.
</event>
<event>
 5   0  0.5237200E+07  0.9118800E+02  0.7818608E-02  0.1180000E+00
       11   -1    0    0    0    0  0.00000000000E+00  0.00000000000E+00  0.39999999673E+01  0.40000000000E+01  0.51109989000E-03 0. -1.
     -623   -1    0    0    0    0  0.00000000000E+00  0.00000000000E+00  0.12525980253E-10  0.17130000000E+03  0.17130000000E+03 0.  1.
       11    1    1    2    0    0 -0.50274624755E-02 -0.34103500490E-02  0.44236888648E-01  0.44655004270E-01  0.51109989000E-03 0. -1.
     -623    1    1    2    0    0  0.12085423158E-02 -0.14429055411E-02  0.11340461082E-02  0.17130000001E+03  0.17130000000E+03 0.  1.
      622    1    1    2    0    0  0.38189201596E-02  0.48532555900E-02  0.39546290326E+01  0.39553449816E+01  0.75000000000E-01 0. -1.
</event>
<event>
 5   0  0.5237200E+07  0.9118800E+02  0.7818608E-02  0.1180000E+00
       11   -1    0    0    0    0  0.00000000000E+00  0.00000000000E+00  0.39999999673E+01  0.40000000000E+01  0.51109989000E-03 0.  1.
     -623   -1    0    0    0    0  0.00000000000E+00  0.00000000000E+00  0.12525980253E-10  0.17130000000E+03  0.17130000000E+03 0.  1.
       11    1    1    2    0    0  0.29570997989E-01  0.16906184381E-02  0.13716635886E+00  0.14032880438E+00  0.51109989000E-03 0.  1.
     -623    1    1    2    0    0 -0.46478085674E-02 -0.18567191521E-02  0.39717781809E-02  0.17130000012E+03  0.17130000000E+03 0.  1.
      622    1    1    2    0    0 -0.24923189421E-01  0.16610071400E-03  0.38588618304E+01  0.38596710765E+01  0.75000000000E-01 0.  1.
</event>
<event>
 5   0  0.5237200E+07  0.9118800E+02  0.7818608E-02  0.1180000E+00
       11   -1    0    0    0    0  0.00000000000E+00  0.00000000000E+00  0.39999999673E+01  0.40000000000E+01  0.51109989000E-03 0.  1.
     -623   -1    0    0    0    0  0.00000000000E+00  0.00000000000E+00  0.12525980253E-10  0.17130000000E+03  0.17130000000E+03 0. -1.
       11    1    1    2    0    0 -0.55105869541E-02 -0.15835457167E-01  0.71691024354E+00  0.71710646824E+00  0.51109989000E-03 0.  1.
     -623    1    1    2    0    0 -0.53266122206E-02  0.94635852062E-03  0.11047716232E-02  0.17130000009E+03  0.17130000000E+03 0. -1.
      622    1    1    2    0    0  0.10837199175E-01  0.14889098646E-01  0.32819849522E+01  0.32828934428E+01  0.75000000000E-01 0.  1.
</event>
<event>
 5   0  0.5237200E+07  0.9118800E+02  0.7818608E-02  0.1180000E+00
       11   -1    0    0    0    0  0.00000000000E+00  0.00000000000E+00  0.39999999673E+01  0.40000000000E+01  0.51109989000E-03 0. -1.
     -623   -1    0    0    0    0  0.00000000000E+00  0.00000000000E+00  0.12525980253E-10  0.17130000000E+03  0.17130000000E+03 0. -1.
       11    1    1    2    0    0 -0.12040818495E-01 -0.12179970015E-02  0.49621371855E+00  0.49636154215E+00  0.51109989000E-03 0. -1.
     -623    1    1    2    0    0  0.31723477131E-02 -0.40524935663E-02  0.96589163283E-03  0.17130000008E+03  0.17130000000E+03 0. -1.
      622    1    1    2    0    0  0.88684707815E-02  0.52704905678E-02  0.35028203572E+01  0.35036383778E+01  0.75000000000E-01 0. -1.
</event>
<event>
 5   0  0.5237200E+07  0.9118800E+02  0.7818608E-02  0.1180000E+00
       11   -1    0    0    0    0  0.00000000000E+00  0.00000000000E+00  0.39999999673E+01  0.40000000000E+01  0.51109989000E-03 0.  1.
     -623   -1    0    0    0    0  0.00000000000E+00  0.00000000000E+00  0.12525980253E-10  0.17130000000E+03  0.17130000000E+03 0. -1.
       11    1    1    2    0    0 -0.90174339166E-02  0.82856620285E-03  0.12054162969E+00  0.12088236575E+00  0.51109989000E-03 0.  1.
     -623    1    1    2    0    0 -0.14010820347E-02 -0.37818348283E-02  0.10809761516E-02  0.17130000005E+03  0.17130000000E+03 0. -1.
      622    1    1    2    0    0  0.10418515951E-01  0.29532686258E-02  0.38783773620E+01  0.38791175838E+01  0.75000000000E-01 0.  1.
</event>
<event>
 5   0  0.5237200E+07  0.9118800E+02  0.7818608E-02  0.1180000E+00
       11   -1    0    0    0    0  0.00000000000E+00  0.00000000000E+00  0.39999999673E+01  0.40000000000E+01  0.51109989000E-03 0. -1.
     -623   -1    0    0    0    0  0.00000000000E+00  0.00000000000E+00  0.12525980253E-10  0.17130000000E+03  0.17130000000E+03 0.  1.
       11    1    1    2    0    0  0.27715555178E-02  0.32973952135E-01  0.11987689858E+01  0.11992257109E+01  0.51109989000E-03 0. -1.
     -623    1    1    2    0    0  0.33159802320E-02  0.13029074536E-03  0.16634355913E-02  0.17130000004E+03  0.17130000000E+03 0.  1.
      622    1    1    2    0    0 -0.60875357497E-02 -0.33104242880E-01  0.27995675458E+01  0.28007742488E+01  0.75000000000E-01 0. -1.
</event>
<event>
 5   0  0.5237200E+07  0.9118800E+02  0.7818608E-02  0.1180000E+00
       11   -1    0    0    0    0  0.00000000000E+00  0.00000000000E+00  0.39999999673E+01  0.40000000000E+01  0.51109989000E-03 0.  1.
     -623   -1    0    0    0    0  0.00000000000E+00  0.00000000000E+00  0.12525980253E-10  0.17130000000E+03  0.17130000000E+03 0.  1.
       11    1    1    2    0    0  0.74715026072E-03  0.31693213719E-02  0.13969697572E-01  0.14353275056E-01  0.51109989000E-03 0.  1.
     -623    1    1    2    0    0 -0.25635818211E-02 -0.46510294537E-04  0.10909246991E-02  0.17130000002E+03  0.17130000000E+03 0.  1.
      622    1    1    2    0    0  0.18164315604E-02 -0.31228110773E-02  0.39849393451E+01  0.39856467023E+01  0.75000000000E-01 0.  1.
</event>
<event>
 5   0  0.5237200E+07  0.9118800E+02  0.7818608E-02  0.1180000E+00
       11   -1    0    0    0    0  0.00000000000E+00  0.00000000000E+00  0.39999999673E+01  0.40000000000E+01  0.51109989000E-03 0. -1.
     -623   -1    0    0    0    0  0.00000000000E+00  0.00000000000E+00  0.12525980253E-10  0.17130000000E+03  0.17130000000E+03 0. -1.
       11    1    1    2    0    0 -0.10502165521E-01  0.51802785030E-02  0.64211879532E-01  0.65272945866E-01  0.51109989000E-03 0. -1.
     -623    1    1    2    0    0 -0.11267622000E-01 -0.35354014176E-02  0.18368831962E-02  0.17130000042E+03  0.17130000000E+03 0. -1.
      622    1    1    2    0    0  0.21769787521E-01 -0.16448770855E-02  0.39339512045E+01  0.39347266371E+01  0.75000000000E-01 0. -1.
</event>
<event>
 5   0  0.5237200E+07  0.9118800E+02  0.7818608E-02  0.1180000E+00
       11   -1    0    0    0    0  0.00000000000E+00  0.00000000000E+00  0.39999999673E+01  0.40000000000E+01  0.51109989000E-03 0. -1.
     -623   -1    0    0    0    0  0.00000000000E+00  0.00000000000E+00  0.12525980253E-10  0.17130000000E+03  0.17130000000E+03 0. -1.
       11    1    1    2    0    0  0.14377752628E-02 -0.22507547721E-02  0.11946509016E-01  0.12252077192E-01  0.51109989000E-03 0. -1.
     -623    1    1    2    0    0 -0.75495974108E-03 -0.74468122866E-03  0.10120731856E-02  0.17130000001E+03  0.17130000000E+03 0. -1.
      622    1    1    2    0    0 -0.68281552165E-03  0.29954360008E-02  0.39870413856E+01  0.39877479170E+01  0.75000000000E-01 0. -1.
</event>
<event>
 5   0  0.5237200E+07  0.9118800E+02  0.7818608E-02  0.1180000E+00
       11   -1    0    0    0    0  0.00000000000E+00  0.00000000000E+00  0.39999999673E+01  0.40000000000E+01  0.51109989000E-03 0. -1.
     -623   -1    0    0    0    0  0.00000000000E+00  0.00000000000E+00  0.12525980253E-10  0.17130000000E+03  0.17130000000E+03 0. -1.
       11    1    1    2    0    0  0.50701075485E-01 -0.41412597188E-01  0.53789595369E+00  0.54186522354E+00  0.51109989000E-03 0. -1.
     -623    1    1    2    0    0 -0.33810144336E-01  0.12150021544E-01  0.49515758645E-02  0.17130000384E+03  0.17130000000E+03 0. -1.
      622    1    1    2    0    0 -0.16890931149E-01  0.29262575644E-01  0.34571524378E+01  0.34581309373E+01  0.75000000000E-01 0. -1.
</event>
<event>
 5   0  0.5237200E+07  0.9118800E+02  0.7818608E-02  0.1180000E+00
       11   -1    0    0    0    0  0.00000000000E+00  0.00000000000E+00  0.39999999673E+01  0.40000000000E+01  0.51109989000E-03 0. -1.
     -623   -1    0    0    0    0  0.00000000000E+00  0.00000000000E+00  0.12525980253E-10  0.17130000000E+03  0.17130000000E+03 0.  1.
       11    1    1    2    0    0 -0.92329151498E-02 -0.25599110145E-02  0.87171752059E-01  0.87698206634E-01  0.51109989000E-03 0. -1.
     -623    1    1    2    0    0  0.13132246568E-02  0.18425832442E-02  0.12534769748E-02  0.17130000002E+03  0.17130000000E+03 0.  1.
      622    1    1    2    0    0  0.79196904931E-02  0.71732777046E-03  0.39115747381E+01  0.39123017736E+01  0.75000000000E-01 0. -1.
</event>
<event>
 5   0  0.5237200E+07  0.9118800E+02  0.7818608E-02  0.1180000E+00
       11   -1    0    0    0    0  0.00000000000E+00  0.00000000000E+00  0.39999999673E+01  0.40000000000E+01  0.51109989000E-03 0. -1.
     -623   -1    0    0    0    0  0.00000000000E+00  0.00000000000E+00  0.12525980253E-10  0.17130000000E+03  0.17130000000E+03 0.  1.
       11    1    1    2    0    0 -0.72720498098E-03 -0.23339472122E-02  0.40852266635E-01  0.40928535877E-01  0.51109989000E-03 0. -1.
     -623    1    1    2    0    0 -0.25556490833E-03 -0.75283494088E-03  0.78802340689E-03  0.17130000000E+03  0.17130000000E+03 0.  1.
      622    1    1    2    0    0  0.98276988933E-03  0.30867821532E-02  0.39583596776E+01  0.39590714607E+01  0.75000000000E-01 0. -1.
</event>
<event>
 5   0  0.5237200E+07  0.9118800E+02  0.7818608E-02  0.1180000E+00
       11   -1    0    0    0    0  0.00000000000E+00  0.00000000000E+00  0.39999999673E+01  0.40000000000E+01  0.51109989000E-03 0.  1.
     -623   -1    0    0    0    0  0.00000000000E+00  0.00000000000E+00  0.12525980253E-10  0.17130000000E+03  0.17130000000E+03 0. -1.
       11    1    1    2    0    0  0.50884975097E-02 -0.62708836622E-02  0.54371832660E+00  0.54377853644E+00  0.51109989000E-03 0.  1.
     -623    1    1    2    0    0 -0.12566651960E-02 -0.47934528423E-02  0.89393586927E-03  0.17130000007E+03  0.17130000000E+03 0. -1.
      622    1    1    2    0    0 -0.38318323137E-02  0.11064336504E-01  0.34553877048E+01  0.34562213895E+01  0.75000000000E-01 0.  1.
</event>
<event>
 5   0  0.5237200E+07  0.9118800E+02  0.7818608E-02  0.1180000E+00
       11   -1    0    0    0    0  0.00000000000E+00  0.00000000000E+00  0.39999999673E+01  0.40000000000E+01  0.51109989000E-03 0.  1.
     -623   -1    0    0    0    0  0.00000000000E+00  0.00000000000E+00  0.12525980253E-10  0.17130000000E+03  0.17130000000E+03 0.  1.
       11    1    1    2    0    0  0.97987057965E-02  0.82233466804E-03  0.16895047879E+00  0.16923716015E+00  0.51109989000E-03 0.  1.
     -623    1    1    2    0    0 -0.29239690220E-02 -0.87111516559E-03  0.10271075614E-02  0.17130000003E+03  0.17130000000E+03 0.  1.
      622    1    1    2    0    0 -0.68747367745E-02  0.48780497555E-04  0.38300223810E+01  0.38307628096E+01  0.75000000000E-01 0.  1.
</event>
<event>
 5   0  0.5237200E+07  0.9118800E+02  0.7818608E-02  0.1180000E+00
       11   -1    0    0    0    0  0.00000000000E+00  0.00000000000E+00  0.39999999673E+01  0.40000000000E+01  0.51109989000E-03 0. -1.
     -623   -1    0    0    0    0  0.00000000000E+00  0.00000000000E+00  0.12525980253E-10  0.17130000000E+03  0.17130000000E+03 0.  1.
       11    1    1    2    0    0 -0.56324708801E-03 -0.67504043219E-02  0.42885041057E-01  0.43419732557E-01  0.51109989000E-03 0. -1.
     -623    1    1    2    0    0 -0.35861037907E-02  0.10419750293E-02  0.12519040121E-02  0.17130000005E+03  0.17130000000E+03 0.  1.
      622    1    1    2    0    0  0.41493508788E-02  0.57084292925E-02  0.39558630225E+01  0.39565802223E+01  0.75000000000E-01 0. -1.
</event>
<event>
 5   0  0.5237200E+07  0.9118800E+02  0.7818608E-02  0.1180000E+00
       11   -1    0    0    0    0  0.00000000000E+00  0.00000000000E+00  0.39999999673E+01  0.40000000000E+01  0.51109989000E-03 0.  1.
     -623   -1    0    0    0    0  0.00000000000E+00  0.00000000000E+00  0.12525980253E-10  0.17130000000E+03  0.17130000000E+03 0.  1.
       11    1    1    2    0    0 -0.18112777322E-01 -0.10152838737E-01  0.10351905155E+00  0.10558223379E+00  0.51109989000E-03 0.  1.
     -623    1    1    2    0    0  0.85807621244E-02  0.33663307111E-01  0.28715990249E-02  0.17130000355E+03  0.17130000000E+03 0.  1.
      622    1    1    2    0    0  0.95320151977E-02 -0.23510468374E-01  0.38936093168E+01  0.38944142196E+01  0.75000000000E-01 0.  1.
</event>
<event>
 5   0  0.5237200E+07  0.9118800E+02  0.7818608E-02  0.1180000E+00
       11   -1    0    0    0    0  0.00000000000E+00  0.00000000000E+00  0.39999999673E+01  0.40000000000E+01  0.51109989000E-03 0. -1.
     -623   -1    0    0    0    0  0.00000000000E+00  0.00000000000E+00  0.12525980253E-10  0.17130000000E+03  0.17130000000E+03 0. -1.
       11    1    1    2    0    0  0.11600930401E-02  0.92860903159E-02  0.26160793466E-01  0.27788947905E-01  0.51109989000E-03 0. -1.
     -623    1    1    2    0    0 -0.19285623630E-02 -0.12510874148E-01  0.23380962075E-02  0.17130000048E+03  0.17130000000E+03 0. -1.
      622    1    1    2    0    0  0.76846932292E-03  0.32247838319E-02  0.39715010777E+01  0.39722105684E+01  0.75000000000E-01 0. -1.
</event>
<event>
 5   0  0.5237200E+07  0.9118800E+02  0.7818608E-02  0.1180000E+00
       11   -1    0    0    0    0  0.00000000000E+00  0.00000000000E+00  0.39999999673E+01  0.40000000000E+01  0.51109989000E-03 0.  1.
     -623   -1    0    0    0    0  0.00000000000E+00  0.00000000000E+00  0.12525980253E-10  0.17130000000E+03  0.17130000000E+03 0.  1.
       11    1    1    2    0    0  0.17555290334E-01  0.91557543005E-02  0.11823388230E+01  0.11825047018E+01  0.51109989000E-03 0.  1.
     -623    1    1    2    0    0 -0.24662714831E-02 -0.13816307277E-03  0.12191273039E-02  0.17130000002E+03  0.17130000000E+03 0.  1.
      622    1    1    2    0    0 -0.15089018851E-01 -0.90175912277E-02  0.28164420170E+01  0.28174952760E+01  0.75000000000E-01 0.  1.
</event>
<event>
 5   0  0.5237200E+07  0.9118800E+02  0.7818608E-02  0.1180000E+00
       11   -1    0    0    0    0  0.00000000000E+00  0.00000000000E+00  0.39999999673E+01  0.40000000000E+01  0.51109989000E-03 0. -1.
     -623   -1    0    0    0    0  0.00000000000E+00  0.00000000000E+00  0.12525980253E-10  0.17130000000E+03  0.17130000000E+03 0. -1.
       11    1    1    2    0    0  0.24685418321E-02  0.82255145003E-02  0.36530490908E-01  0.37529865129E-01  0.51109989000E-03 0. -1.
     -623    1    1    2    0    0 -0.65039488993E-02 -0.13262581899E-01  0.17150926153E-02  0.17130000065E+03  0.17130000000E+03 0. -1.
      622    1    1    2    0    0  0.40354070673E-02  0.50370673987E-02  0.39617543839E+01  0.39624694894E+01  0.75000000000E-01 0. -1.
</event>
<event>
 5   0  0.5237200E+07  0.9118800E+02  0.7818608E-02  0.1180000E+00
       11   -1    0    0    0    0  0.00000000000E+00  0.00000000000E+00  0.39999999673E+01  0.40000000000E+01  0.51109989000E-03 0.  1.
     -623   -1    0    0    0    0  0.00000000000E+00  0.00000000000E+00  0.12525980253E-10  0.17130000000E+03  0.17130000000E+03 0. -1.
       11    1    1    2    0    0 -0.11354293020E-01 -0.34088042981E-02  0.44428735388E+00  0.44444578292E+00  0.51109989000E-03 0.  1.
     -623    1    1    2    0    0  0.99176738894E-02  0.16721658452E-01  0.97582582434E-03  0.17130000111E+03  0.17130000000E+03 0. -1.
      622    1    1    2    0    0  0.14366191297E-02 -0.13312854156E-01  0.35547367882E+01  0.35555531115E+01  0.75000000000E-01 0.  1.
</event>
<event>
 5   0  0.5237200E+07  0.9118800E+02  0.7818608E-02  0.1180000E+00
       11   -1    0    0    0    0  0.00000000000E+00  0.00000000000E+00  0.39999999673E+01  0.40000000000E+01  0.51109989000E-03 0.  1.
     -623   -1    0    0    0    0  0.00000000000E+00  0.00000000000E+00  0.12525980253E-10  0.17130000000E+03  0.17130000000E+03 0.  1.
       11    1    1    2    0    0 -0.16814897237E-01 -0.18879772158E-01  0.79276750626E+00  0.79317070469E+00  0.51109989000E-03 0.  1.
     -623    1    1    2    0    0  0.13375604479E-01  0.54380879124E-02  0.13109575902E-02  0.17130000061E+03  0.17130000000E+03 0.  1.
      622    1    1    2    0    0  0.34392927576E-02  0.13441684246E-01  0.32059215035E+01  0.32068286818E+01  0.75000000000E-01 0.  1.
</event>
<event>
 5   0  0.5237200E+07  0.9118800E+02  0.7818608E-02  0.1180000E+00
       11   -1    0    0    0    0  0.00000000000E+00  0.00000000000E+00  0.39999999673E+01  0.40000000000E+01  0.51109989000E-03 0.  1.
     -623   -1    0    0    0    0  0.00000000000E+00  0.00000000000E+00  0.12525980253E-10  0.17130000000E+03  0.17130000000E+03 0.  1.
       11    1    1    2    0    0 -0.18007732179E-01  0.72733172850E-02  0.28205936769E+00  0.28272765639E+00  0.51109989000E-03 0.  1.
     -623    1    1    2    0    0 -0.59031212736E-02 -0.62322381660E-02  0.15022218915E-02  0.17130000022E+03  0.17130000000E+03 0.  1.
      622    1    1    2    0    0  0.23910853453E-01 -0.10410791189E-02  0.37164383778E+01  0.37172721219E+01  0.75000000000E-01 0.  1.
</event>
<event>
 5   0  0.5237200E+07  0.9118800E+02  0.7818608E-02  0.1180000E+00
       11   -1    0    0    0    0  0.00000000000E+00  0.00000000000E+00  0.39999999673E+01  0.40000000000E+01  0.51109989000E-03 0.  1.
     -623   -1    0    0    0    0  0.00000000000E+00  0.00000000000E+00  0.12525980253E-10  0.17130000000E+03  0.17130000000E+03 0. -1.
       11    1    1    2    0    0 -0.52438579342E-01 -0.17388885732E-01  0.66181247339E+00  0.66411459034E+00  0.51109989000E-03 0.  1.
     -623    1    1    2    0    0 -0.32379126525E-02  0.43460927051E-02  0.36357023880E-02  0.17130000012E+03  0.17130000000E+03 0. -1.
      622    1    1    2    0    0  0.55676491994E-01  0.13042793027E-01  0.33345517916E+01  0.33358852853E+01  0.75000000000E-01 0.  1.
</event>
<event>
 5   0  0.5237200E+07  0.9118800E+02  0.7818608E-02  0.1180000E+00
       11   -1    0    0    0    0  0.00000000000E+00  0.00000000000E+00  0.39999999673E+01  0.40000000000E+01  0.51109989000E-03 0.  1.
     -623   -1    0    0    0    0  0.00000000000E+00  0.00000000000E+00  0.12525980253E-10  0.17130000000E+03  0.17130000000E+03 0. -1.
       11    1    1    2    0    0  0.43254280309E-03 -0.21104825834E-02  0.33937585442E-01  0.34009736202E-01  0.51109989000E-03 0.  1.
     -623    1    1    2    0    0  0.90684822676E-03  0.26792845409E-03  0.78199476897E-03  0.17130000000E+03  0.17130000000E+03 0. -1.
      622    1    1    2    0    0 -0.13393910299E-02  0.18425541294E-02  0.39652803871E+01  0.39659902594E+01  0.75000000000E-01 0.  1.
</event>
<event>
 5   0  0.5237200E+07  0.9118800E+02  0.7818608E-02  0.1180000E+00
       11   -1    0    0    0    0  0.00000000000E+00  0.00000000000E+00  0.39999999673E+01  0.40000000000E+01  0.51109989000E-03 0. -1.
     -623   -1    0    0    0    0  0.00000000000E+00  0.00000000000E+00  0.12525980253E-10  0.17130000000E+03  0.17130000000E+03 0.  1.
       11    1    1    2    0    0 -0.10765293178E-01  0.10164184788E-01  0.25929885326E+00  0.25972169473E+00  0.51109989000E-03 0. -1.
     -623    1    1    2    0    0  0.17449915027E-02  0.10144145153E-02  0.12024373510E-02  0.17130000002E+03  0.17130000000E+03 0.  1.
      622    1    1    2    0    0  0.90203016748E-02 -0.11178599303E-01  0.37394986768E+01  0.37402782892E+01  0.75000000000E-01 0. -1.
</event>
<event>
 5   0  0.5237200E+07  0.9118800E+02  0.7818608E-02  0.1180000E+00
       11   -1    0    0    0    0  0.00000000000E+00  0.00000000000E+00  0.39999999673E+01  0.40000000000E+01  0.51109989000E-03 0. -1.
     -623   -1    0    0    0    0  0.00000000000E+00  0.00000000000E+00  0.12525980253E-10  0.17130000000E+03  0.17130000000E+03 0.  1.
       11    1    1    2    0    0  0.46585893192E-02 -0.93894256522E-02  0.89821778260E+00  0.89827908245E+00  0.51109989000E-03 0. -1.
     -623    1    1    2    0    0 -0.14409211622E-02  0.24354733173E-02  0.97764767398E-03  0.17130000003E+03  0.17130000000E+03 0.  1.
      622    1    1    2    0    0 -0.32176681569E-02  0.69539523347E-02  0.31008045374E+01  0.31017208917E+01  0.75000000000E-01 0. -1.
</event>
<event>
 5   0  0.5237200E+07  0.9118800E+02  0.7818608E-02  0.1180000E+00
       11   -1    0    0    0    0  0.00000000000E+00  0.00000000000E+00  0.39999999673E+01  0.40000000000E+01  0.51109989000E-03 0. -1.
     -623   -1    0    0    0    0  0.00000000000E+00  0.00000000000E+00  0.12525980253E-10  0.17130000000E+03  0.17130000000E+03 0. -1.
       11    1    1    2    0    0  0.82790334380E-02  0.61781184689E-02  0.99190290852E-01  0.99728063071E-01  0.51109989000E-03 0. -1.
     -623    1    1    2    0    0 -0.13528432609E-01 -0.13771204995E-01  0.12709282727E-02  0.17130000109E+03  0.17130000000E+03 0. -1.
      622    1    1    2    0    0  0.52493991705E-02  0.75930865260E-02  0.38995387482E+01  0.39002708445E+01  0.75000000000E-01 0. -1.
</event>
<event>
 5   0  0.5237200E+07  0.9118800E+02  0.7818608E-02  0.1180000E+00
       11   -1    0    0    0    0  0.00000000000E+00  0.00000000000E+00  0.39999999673E+01  0.40000000000E+01  0.51109989000E-03 0. -1.
     -623   -1    0    0    0    0  0.00000000000E+00  0.00000000000E+00  0.12525980253E-10  0.17130000000E+03  0.17130000000E+03 0. -1.
       11    1    1    2    0    0  0.42427075386E-03 -0.18008383288E-03  0.10542343541E-02  0.12589952464E-02  0.51109989000E-03 0. -1.
     -623    1    1    2    0    0 -0.36351862647E-02  0.18798325441E-02  0.90983850884E-03  0.17130000005E+03  0.17130000000E+03 0. -1.
      622    1    1    2    0    0  0.32109155111E-02 -0.16997487114E-02  0.39980358948E+01  0.39987409537E+01  0.75000000000E-01 0. -1.
</event>
<event>
 5   0  0.5237200E+07  0.9118800E+02  0.7818608E-02  0.1180000E+00
       11   -1    0    0    0    0  0.00000000000E+00  0.00000000000E+00  0.39999999673E+01  0.40000000000E+01  0.51109989000E-03 0. -1.
     -623   -1    0    0    0    0  0.00000000000E+00  0.00000000000E+00  0.12525980253E-10  0.17130000000E+03  0.17130000000E+03 0. -1.
       11    1    1    2    0    0 -0.10948355850E-01  0.13752739606E-01  0.97469592975E+00  0.97485456404E+00  0.51109989000E-03 0. -1.
     -623    1    1    2    0    0 -0.15501909294E-02 -0.75495736230E-03  0.11422236309E-02  0.17130000001E+03  0.17130000000E+03 0. -1.
      622    1    1    2    0    0  0.12498546780E-01 -0.12997782244E-01  0.30241618141E+01  0.30251454236E+01  0.75000000000E-01 0. -1.
</event>
<event>
 5   0  0.5237200E+07  0.9118800E+02  0.7818608E-02  0.1180000E+00
       11   -1    0    0    0    0  0.00000000000E+00  0.00000000000E+00  0.39999999673E+01  0.40000000000E+01  0.51109989000E-03 0.  1.
     -623   -1    0    0    0    0  0.00000000000E+00  0.00000000000E+00  0.12525980253E-10  0.17130000000E+03  0.17130000000E+03 0.  1.
       11    1    1    2    0    0  0.38856580817E-03  0.12389195107E-02  0.13401270448E-01  0.13473721699E-01  0.51109989000E-03 0.  1.
     -623    1    1    2    0    0 -0.29753168882E-03 -0.20980886113E-02  0.77809099744E-03  0.17130000001E+03  0.17130000000E+03 0.  1.
      622    1    1    2    0    0 -0.91034119345E-04  0.85916910063E-03  0.39858206059E+01  0.39865262634E+01  0.75000000000E-01 0.  1.
</event>
<event>
 5   0  0.5237200E+07  0.9118800E+02  0.7818608E-02  0.1180000E+00
       11   -1    0    0    0    0  0.00000000000E+00  0.00000000000E+00  0.39999999673E+01  0.40000000000E+01  0.51109989000E-03 0.  1.
     -623   -1    0    0    0    0  0.00000000000E+00  0.00000000000E+00  0.12525980253E-10  0.17130000000E+03  0.17130000000E+03 0. -1.
       11    1    1    2    0    0  0.20395096211E-02  0.16306832912E-02  0.12383371077E-01  0.12666010772E-01  0.51109989000E-03 0.  1.
     -623    1    1    2    0    0 -0.34821770400E-02  0.22589646058E-03  0.98875971627E-03  0.17130000004E+03  0.17130000000E+03 0. -1.
      622    1    1    2    0    0  0.14426674189E-02 -0.18565797518E-02  0.39866278366E+01  0.39873339508E+01  0.75000000000E-01 0.  1.
</event>
<event>
 5   0  0.5237200E+07  0.9118800E+02  0.7818608E-02  0.1180000E+00
       11   -1    0    0    0    0  0.00000000000E+00  0.00000000000E+00  0.39999999673E+01  0.40000000000E+01  0.51109989000E-03 0.  1.
     -623   -1    0    0    0    0  0.00000000000E+00  0.00000000000E+00  0.12525980253E-10  0.17130000000E+03  0.17130000000E+03 0.  1.
       11    1    1    2    0    0 -0.16137687214E-01  0.77537103763E-02  0.40107302928E+00  0.40147276497E+00  0.51109989000E-03 0.  1.
     -623    1    1    2    0    0  0.12474563438E-02  0.18688824588E-02  0.12250590455E-02  0.17130000002E+03  0.17130000000E+03 0.  1.
      622    1    1    2    0    0  0.14890230870E-01 -0.96225928351E-02  0.35977018790E+01  0.35985272159E+01  0.75000000000E-01 0.  1.
</event>
<event>
 5   0  0.5237200E+07  0.9118800E+02  0.7818608E-02  0.1180000E+00
       11   -1    0    0    0    0  0.00000000000E+00  0.00000000000E+00  0.39999999673E+01  0.40000000000E+01  0.51109989000E-03 0.  1.
     -623   -1    0    0    0    0  0.00000000000E+00  0.00000000000E+00  0.12525980253E-10  0.17130000000E+03  0.17130000000E+03 0.  1.
       11    1    1    2    0    0 -0.19693299358E-01 -0.22274981645E-02  0.24405039479E+00  0.24485433263E+00  0.51109989000E-03 0.  1.
     -623    1    1    2    0    0  0.83192582649E-02 -0.80297737336E-02  0.15845907006E-02  0.17130000040E+03  0.17130000000E+03 0.  1.
      622    1    1    2    0    0  0.11374041093E-01  0.10257271898E-01  0.37543649819E+01  0.37551452698E+01  0.75000000000E-01 0.  1.
</event>
<event>
 5   0  0.5237200E+07  0.9118800E+02  0.7818608E-02  0.1180000E+00
       11   -1    0    0    0    0  0.00000000000E+00  0.00000000000E+00  0.39999999673E+01  0.40000000000E+01  0.51109989000E-03 0.  1.
     -623   -1    0    0    0    0  0.00000000000E+00  0.00000000000E+00  0.12525980253E-10  0.17130000000E+03  0.17130000000E+03 0.  1.
       11    1    1    2    0    0 -0.37096828582E-02  0.87872481982E-02  0.16209898154E-01  0.18814874410E-01  0.51109989000E-03 0.  1.
     -623    1    1    2    0    0 -0.16143420609E-01 -0.57718411907E-02  0.33629976621E-02  0.17130000089E+03  0.17130000000E+03 0.  1.
      622    1    1    2    0    0  0.19853103467E-01 -0.30154070075E-02  0.39804270716E+01  0.39811842347E+01  0.75000000000E-01 0.  1.
</event>
<event>
 5   0  0.5237200E+07  0.9118800E+02  0.7818608E-02  0.1180000E+00
       11   -1    0    0    0    0  0.00000000000E+00  0.00000000000E+00  0.39999999673E+01  0.40000000000E+01  0.51109989000E-03 0. -1.
     -623   -1    0    0    0    0  0.00000000000E+00  0.00000000000E+00  0.12525980253E-10  0.17130000000E+03  0.17130000000E+03 0. -1.
       11    1    1    2    0    0  0.11793273205E-01  0.39921043911E-02  0.11894427556E+00  0.11959523445E+00  0.51109989000E-03 0. -1.
     -623    1    1    2    0    0 -0.10472915751E-01 -0.99413572267E-02  0.13811898593E-02  0.17130000061E+03  0.17130000000E+03 0. -1.
      622    1    1    2    0    0 -0.13203574536E-02  0.59492528365E-02  0.38796745023E+01  0.38804041517E+01  0.75000000000E-01 0. -1.
</event>
<event>
 5   0  0.5237200E+07  0.9118800E+02  0.7818608E-02  0.1180000E+00
       11   -1    0    0    0    0  0.00000000000E+00  0.00000000000E+00  0.39999999673E+01  0.40000000000E+01  0.51109989000E-03 0.  1.
     -623   -1    0    0    0    0  0.00000000000E+00  0.00000000000E+00  0.12525980253E-10  0.17130000000E+03  0.17130000000E+03 0.  1.
       11    1    1    2    0    0  0.39568761233E-01 -0.71212553081E-02  0.70062306300E+00  0.70177584510E+00  0.51109989000E-03 0.  1.
     -623    1    1    2    0    0 -0.31025616938E-02  0.59541591144E-02  0.22075929139E-02  0.17130000015E+03  0.17130000000E+03 0.  1.
      622    1    1    2    0    0 -0.36466199539E-01  0.11670961935E-02  0.32971693116E+01  0.32982240092E+01  0.75000000000E-01 0.  1.
</event>
<event>
 5   0  0.5237200E+07  0.9118800E+02  0.7818608E-02  0.1180000E+00
       11   -1    0    0    0    0  0.00000000000E+00  0.00000000000E+00  0.39999999673E+01  0.40000000000E+01  0.51109989000E-03 0.  1.
     -623   -1    0    0    0    0  0.00000000000E+00  0.00000000000E+00  0.12525980253E-10  0.17130000000E+03  0.17130000000E+03 0.  1.
       11    1    1    2    0    0 -0.69875678761E-02 -0.62515707474E-02  0.98639583975E-01  0.99085503438E-01  0.51109989000E-03 0.  1.
     -623    1    1    2    0    0  0.61561776283E-02  0.24438409929E-02  0.11690176558E-02  0.17130000013E+03  0.17130000000E+03 0.  1.
      622    1    1    2    0    0  0.83139024779E-03  0.38077297545E-02  0.39001913657E+01  0.39009143645E+01  0.75000000000E-01 0.  1.
</event>
<event>
 5   0  0.5237200E+07  0.9118800E+02  0.7818608E-02  0.1180000E+00
       11   -1    0    0    0    0  0.00000000000E+00  0.00000000000E+00  0.39999999673E+01  0.40000000000E+01  0.51109989000E-03 0.  1.
     -623   -1    0    0    0    0  0.00000000000E+00  0.00000000000E+00  0.12525980253E-10  0.17130000000E+03  0.17130000000E+03 0.  1.
       11    1    1    2    0    0  0.30044711659E-01  0.53477527439E-01  0.35321382734E+00  0.35850076665E+00  0.51109989000E-03 0.  1.
     -623    1    1    2    0    0 -0.65554886281E-02 -0.72197004558E-01  0.61986917496E-02  0.17130001545E+03  0.17130000000E+03 0.  1.
      622    1    1    2    0    0 -0.23489223031E-01  0.18719477119E-01  0.36405874483E+01  0.36414837815E+01  0.75000000000E-01 0.  1.
</event>
<event>
 5   0  0.5237200E+07  0.9118800E+02  0.7818608E-02  0.1180000E+00
       11   -1    0    0    0    0  0.00000000000E+00  0.00000000000E+00  0.39999999673E+01  0.40000000000E+01  0.51109989000E-03 0.  1.
     -623   -1    0    0    0    0  0.00000000000E+00  0.00000000000E+00  0.12525980253E-10  0.17130000000E+03  0.17130000000E+03 0. -1.
       11    1    1    2    0    0  0.17039464492E-01  0.21686216714E-01  0.23443358584E+00  0.23605084778E+00  0.51109989000E-03 0.  1.
     -623    1    1    2    0    0  0.38494870370E-02  0.45119442708E-01  0.30215487843E-02  0.17130000601E+03  0.17130000000E+03 0. -1.
      622    1    1    2    0    0 -0.20888951529E-01 -0.66805659424E-01  0.37625448329E+01  0.37639431403E+01  0.75000000000E-01 0.  1.
</event>
<event>
 5   0  0.5237200E+07  0.9118800E+02  0.7818608E-02  0.1180000E+00
       11   -1    0    0    0    0  0.00000000000E+00  0.00000000000E+00  0.39999999673E+01  0.40000000000E+01  0.51109989000E-03 0.  1.
     -623   -1    0    0    0    0  0.00000000000E+00  0.00000000000E+00  0.12525980253E-10  0.17130000000E+03  0.17130000000E+03 0.  1.
       11    1    1    2    0    0 -0.26013473566E-02 -0.68432125118E-02  0.57523745509E-01  0.57989991236E-01  0.51109989000E-03 0.  1.
     -623    1    1    2    0    0  0.47384668144E-02  0.92437095291E-02  0.11813756861E-02  0.17130000032E+03  0.17130000000E+03 0.  1.
      622    1    1    2    0    0 -0.21371194578E-02 -0.24004970173E-02  0.39412948462E+01  0.39420096897E+01  0.75000000000E-01 0.  1.
</event>
<event>
 5   0  0.5237200E+07  0.9118800E+02  0.7818608E-02  0.1180000E+00
       11   -1    0    0    0    0  0.00000000000E+00  0.00000000000E+00  0.39999999673E+01  0.40000000000E+01  0.51109989000E-03 0.  1.
     -623   -1    0    0    0    0  0.00000000000E+00  0.00000000000E+00  0.12525980253E-10  0.17130000000E+03  0.17130000000E+03 0. -1.
       11    1    1    2    0    0  0.15550136312E-02 -0.10669756707E-01  0.31985406110E-01  0.33757802101E-01  0.51109989000E-03 0.  1.
     -623    1    1    2    0    0 -0.10628524101E-01  0.13956412878E-01  0.24941953775E-02  0.17130000092E+03  0.17130000000E+03 0. -1.
      622    1    1    2    0    0  0.90735104701E-02 -0.32866561713E-02  0.39655203659E+01  0.39662412815E+01  0.75000000000E-01 0.  1.
</event>
<event>
 5   0  0.5237200E+07  0.9118800E+02  0.7818608E-02  0.1180000E+00
       11   -1    0    0    0    0  0.00000000000E+00  0.00000000000E+00  0.39999999673E+01  0.40000000000E+01  0.51109989000E-03 0. -1.
     -623   -1    0    0    0    0  0.00000000000E+00  0.00000000000E+00  0.12525980253E-10  0.17130000000E+03  0.17130000000E+03 0. -1.
       11    1    1    2    0    0 -0.79640383324E-02 -0.64594801299E-03  0.74548439432E-01  0.74977157848E-01  0.51109989000E-03 0. -1.
     -623    1    1    2    0    0 -0.16601084292E-02  0.14507955196E-01  0.11822183583E-02  0.17130000063E+03  0.17130000000E+03 0. -1.
      622    1    1    2    0    0  0.96241467616E-02 -0.13862007183E-01  0.39242693096E+01  0.39250222157E+01  0.75000000000E-01 0. -1.
</event>
<event>
 5   0  0.5237200E+07  0.9118800E+02  0.7818608E-02  0.1180000E+00
       11   -1    0    0    0    0  0.00000000000E+00  0.00000000000E+00  0.39999999673E+01  0.40000000000E+01  0.51109989000E-03 0. -1.
     -623   -1    0    0    0    0  0.00000000000E+00  0.00000000000E+00  0.12525980253E-10  0.17130000000E+03  0.17130000000E+03 0. -1.
       11    1    1    2    0    0 -0.10272447729E-02 -0.31029258207E-02  0.18431889470E-01  0.18726429246E-01  0.51109989000E-03 0. -1.
     -623    1    1    2    0    0 -0.29682753871E-02  0.46482032843E-02  0.10033990047E-02  0.17130000009E+03  0.17130000000E+03 0. -1.
      622    1    1    2    0    0  0.39955201600E-02 -0.15452774636E-02  0.39805646789E+01  0.39812734790E+01  0.75000000000E-01 0. -1.
</event>
<event>
 5   0  0.5237200E+07  0.9118800E+02  0.7818608E-02  0.1180000E+00
       11   -1    0    0    0    0  0.00000000000E+00  0.00000000000E+00  0.39999999673E+01  0.40000000000E+01  0.51109989000E-03 0. -1.
     -623   -1    0    0    0    0  0.00000000000E+00  0.00000000000E+00  0.12525980253E-10  0.17130000000E+03  0.17130000000E+03 0.  1.
       11    1    1    2    0    0  0.14121301897E-02  0.19842813018E-02  0.17793922066E-01  0.17967091269E-01  0.51109989000E-03 0. -1.
     -623    1    1    2    0    0  0.24947196782E-02 -0.39553384177E-02  0.88196764835E-03  0.17130000007E+03  0.17130000000E+03 0.  1.
      622    1    1    2    0    0 -0.39068498679E-02  0.19710571159E-02  0.39813240776E+01  0.39820328426E+01  0.75000000000E-01 0. -1.
</event>
<event>
 5   0  0.5237200E+07  0.9118800E+02  0.7818608E-02  0.1180000E+00
       11   -1    0    0    0    0  0.00000000000E+00  0.00000000000E+00  0.39999999673E+01  0.40000000000E+01  0.51109989000E-03 0.  1.
     -623   -1    0    0    0    0  0.00000000000E+00  0.00000000000E+00  0.12525980253E-10  0.17130000000E+03  0.17130000000E+03 0. -1.
       11    1    1    2    0    0 -0.16802401255E-01 -0.89015507110E-03  0.23239141929E+00  0.23300031340E+00  0.51109989000E-03 0.  1.
     -623    1    1    2    0    0  0.16760310168E-01 -0.20604134943E-01  0.14189517792E-02  0.17130000206E+03  0.17130000000E+03 0. -1.
      622    1    1    2    0    0  0.42091087100E-04  0.21494290014E-01  0.37661895964E+01  0.37669976217E+01  0.75000000000E-01 0.  1.
</event>
<event>
 5   0  0.5237200E+07  0.9118800E+02  0.7818608E-02  0.1180000E+00
       11   -1    0    0    0    0  0.00000000000E+00  0.00000000000E+00  0.39999999673E+01  0.40000000000E+01  0.51109989000E-03 0.  1.
     -623   -1    0    0    0    0  0.00000000000E+00  0.00000000000E+00  0.12525980253E-10  0.17130000000E+03  0.17130000000E+03 0. -1.
       11    1    1    2    0    0 -0.21405859274E-01  0.40203165138E-01  0.49979227375E+00  0.50186361038E+00  0.51109989000E-03 0.  1.
     -623    1    1    2    0    0  0.19773255886E-01  0.17574972271E-01  0.33551516753E-02  0.17130000208E+03  0.17130000000E+03 0. -1.
      622    1    1    2    0    0  0.16326033879E-02 -0.57778137409E-01  0.34968525419E+01  0.34981343140E+01  0.75000000000E-01 0.  1.
</event>
<event>
 5   0  0.5237200E+07  0.9118800E+02  0.7818608E-02  0.1180000E+00
       11   -1    0    0    0    0  0.00000000000E+00  0.00000000000E+00  0.39999999673E+01  0.40000000000E+01  0.51109989000E-03 0.  1.
     -623   -1    0    0    0    0  0.00000000000E+00  0.00000000000E+00  0.12525980253E-10  0.17130000000E+03  0.17130000000E+03 0. -1.
       11    1    1    2    0    0  0.26932470652E-02  0.12640916892E-01  0.72810741511E-01  0.73950738077E-01  0.51109989000E-03 0.  1.
     -623    1    1    2    0    0  0.21096182793E-01  0.42704559502E-03  0.19515506468E-02  0.17130000131E+03  0.17130000000E+03 0. -1.
      622    1    1    2    0    0 -0.23789429859E-01 -0.13067962487E-01  0.39252376754E+01  0.39260479514E+01  0.75000000000E-01 0.  1.
</event>
<event>
 5   0  0.5237200E+07  0.9118800E+02  0.7818608E-02  0.1180000E+00
       11   -1    0    0    0    0  0.00000000000E+00  0.00000000000E+00  0.39999999673E+01  0.40000000000E+01  0.51109989000E-03 0.  1.
     -623   -1    0    0    0    0  0.00000000000E+00  0.00000000000E+00  0.12525980253E-10  0.17130000000E+03  0.17130000000E+03 0.  1.
       11    1    1    2    0    0  0.12044288908E-03 -0.16828813242E-02 -0.47459821902E-03  0.18256675836E-02  0.51109989000E-03 0.  1.
     -623    1    1    2    0    0  0.54221641336E-02  0.24993943945E-02  0.30077974812E-02  0.17130000013E+03  0.17130000000E+03 0.  1.
      622    1    1    2    0    0 -0.55426070226E-02 -0.81651307026E-03  0.39974667681E+01  0.39981742020E+01  0.75000000000E-01 0.  1.
</event>
<event>
 5   0  0.5237200E+07  0.9118800E+02  0.7818608E-02  0.1180000E+00
       11   -1    0    0    0    0  0.00000000000E+00  0.00000000000E+00  0.39999999673E+01  0.40000000000E+01  0.51109989000E-03 0. -1.
     -623   -1    0    0    0    0  0.00000000000E+00  0.00000000000E+00  0.12525980253E-10  0.17130000000E+03  0.17130000000E+03 0. -1.
       11    1    1    2    0    0  0.14598345896E-02  0.49363301354E-02  0.81273866333E-02  0.96340079312E-02  0.51109989000E-03 0. -1.
     -623    1    1    2    0    0 -0.23562698209E-02 -0.43715762514E-02  0.22117004436E-02  0.17130000009E+03  0.17130000000E+03 0. -1.
      622    1    1    2    0    0  0.89643523129E-03 -0.56475388385E-03  0.39896608803E+01  0.39903659059E+01  0.75000000000E-01 0. -1.
</event>
<event>
 5   0  0.5237200E+07  0.9118800E+02  0.7818608E-02  0.1180000E+00
       11   -1    0    0    0    0  0.00000000000E+00  0.00000000000E+00  0.39999999673E+01  0.40000000000E+01  0.51109989000E-03 0. -1.
     -623   -1    0    0    0    0  0.00000000000E+00  0.00000000000E+00  0.12525980253E-10  0.17130000000E+03  0.17130000000E+03 0.  1.
       11    1    1    2    0    0 -0.14513661814E-01  0.12932537585E-01  0.90201943226E-01  0.92274312202E-01  0.51109989000E-03 0. -1.
     -623    1    1    2    0    0 -0.36696891781E-03  0.15596826242E-01  0.29253687105E-02  0.17130000074E+03  0.17130000000E+03 0.  1.
      622    1    1    2    0    0  0.14880630731E-01 -0.28529363827E-01  0.39068726554E+01  0.39077249524E+01  0.75000000000E-01 0. -1.
</event>
<event>
 5   0  0.5237200E+07  0.9118800E+02  0.7818608E-02  0.1180000E+00
       11   -1    0    0    0    0  0.00000000000E+00  0.00000000000E+00  0.39999999673E+01  0.40000000000E+01  0.51109989000E-03 0. -1.
     -623   -1    0    0    0    0  0.00000000000E+00  0.00000000000E+00  0.12525980253E-10  0.17130000000E+03  0.17130000000E+03 0.  1.
       11    1    1    2    0    0 -0.48518881555E-02  0.27654892311E-02  0.62777799176E-01  0.63027787855E-01  0.51109989000E-03 0. -1.
     -623    1    1    2    0    0  0.52287713242E-03  0.19628173184E-02  0.96963747016E-03  0.17130000001E+03  0.17130000000E+03 0.  1.
      622    1    1    2    0    0  0.43290110230E-02 -0.47283065497E-02  0.39362525311E+01  0.39369721977E+01  0.75000000000E-01 0. -1.
</event>
<event>
 5   0  0.5237200E+07  0.9118800E+02  0.7818608E-02  0.1180000E+00
       11   -1    0    0    0    0  0.00000000000E+00  0.00000000000E+00  0.39999999673E+01  0.40000000000E+01  0.51109989000E-03 0. -1.
     -623   -1    0    0    0    0  0.00000000000E+00  0.00000000000E+00  0.12525980253E-10  0.17130000000E+03  0.17130000000E+03 0. -1.
       11    1    1    2    0    0  0.79500516529E-02 -0.86747856585E-02  0.39924638062E-01  0.41625631226E-01  0.51109989000E-03 0. -1.
     -623    1    1    2    0    0  0.28424671482E-02  0.26471122685E-02  0.24309103435E-02  0.17130000006E+03  0.17130000000E+03 0. -1.
      622    1    1    2    0    0 -0.10792518801E-01  0.60276733899E-02  0.39576444190E+01  0.39583743075E+01  0.75000000000E-01 0. -1.
</event>
<event>
 5   0  0.5237200E+07  0.9118800E+02  0.7818608E-02  0.1180000E+00
       11   -1    0    0    0    0  0.00000000000E+00  0.00000000000E+00  0.39999999673E+01  0.40000000000E+01  0.51109989000E-03 0.  1.
     -623   -1    0    0    0    0  0.00000000000E+00  0.00000000000E+00  0.12525980253E-10  0.17130000000E+03  0.17130000000E+03 0.  1.
       11    1    1    2    0    0 -0.46067458334E-03  0.22506076714E-03  0.56696475335E-02  0.57156800929E-02  0.51109989000E-03 0.  1.
     -623    1    1    2    0    0 -0.11880554216E-02 -0.17511931540E-03  0.75053964314E-03  0.17130000001E+03  0.17130000000E+03 0.  1.
      622    1    1    2    0    0  0.16487300050E-02 -0.49941451737E-04  0.39935797802E+01  0.39942843141E+01  0.75000000000E-01 0.  1.
</event>
<event>
 5   0  0.5237200E+07  0.9118800E+02  0.7818608E-02  0.1180000E+00
       11   -1    0    0    0    0  0.00000000000E+00  0.00000000000E+00  0.39999999673E+01  0.40000000000E+01  0.51109989000E-03 0. -1.
     -623   -1    0    0    0    0  0.00000000000E+00  0.00000000000E+00  0.12525980253E-10  0.17130000000E+03  0.17130000000E+03 0. -1.
       11    1    1    2    0    0 -0.24334045921E-01 -0.19300340760E-01  0.45351455972E+00  0.45457712882E+00  0.51109989000E-03 0. -1.
     -623    1    1    2    0    0  0.65356010189E-02  0.10333680784E-01  0.19123755297E-02  0.17130000045E+03  0.17130000000E+03 0. -1.
      622    1    1    2    0    0  0.17798444902E-01  0.89666599749E-02  0.35445730323E+01  0.35454224243E+01  0.75000000000E-01 0. -1.
</event>
<event>
 5   0  0.5237200E+07  0.9118800E+02  0.7818608E-02  0.1180000E+00
       11   -1    0    0    0    0  0.00000000000E+00  0.00000000000E+00  0.39999999673E+01  0.40000000000E+01  0.51109989000E-03 0. -1.
     -623   -1    0    0    0    0  0.00000000000E+00  0.00000000000E+00  0.12525980253E-10  0.17130000000E+03  0.17130000000E+03 0.  1.
       11    1    1    2    0    0 -0.40435524301E-02  0.48504819663E-02  0.42084300438E-01  0.42558513343E-01  0.51109989000E-03 0. -1.
     -623    1    1    2    0    0  0.19870193940E-01 -0.24971439910E-04  0.12206829305E-02  0.17130000116E+03  0.17130000000E+03 0.  1.
      622    1    1    2    0    0 -0.15826641510E-01 -0.48255105263E-02  0.39566949840E+01  0.39574403299E+01  0.75000000000E-01 0. -1.
</event>
<event>
 5   0  0.5237200E+07  0.9118800E+02  0.7818608E-02  0.1180000E+00
       11   -1    0    0    0    0  0.00000000000E+00  0.00000000000E+00  0.39999999673E+01  0.40000000000E+01  0.51109989000E-03 0.  1.
     -623   -1    0    0    0    0  0.00000000000E+00  0.00000000000E+00  0.12525980253E-10  0.17130000000E+03  0.17130000000E+03 0.  1.
       11    1    1    2    0    0 -0.84422536863E-02  0.18315220683E-01  0.50304140980E+00  0.50344576684E+00  0.51109989000E-03 0.  1.
     -623    1    1    2    0    0  0.10944200021E-02 -0.63628470952E-02  0.12370621552E-02  0.17130000013E+03  0.17130000000E+03 0.  1.
      622    1    1    2    0    0  0.73478336842E-02 -0.11952373587E-01  0.34957214955E+01  0.34965541071E+01  0.75000000000E-01 0.  1.
</event>
<event>
 5   0  0.5237200E+07  0.9118800E+02  0.7818608E-02  0.1180000E+00
       11   -1    0    0    0    0  0.00000000000E+00  0.00000000000E+00  0.39999999673E+01  0.40000000000E+01  0.51109989000E-03 0. -1.
     -623   -1    0    0    0    0  0.00000000000E+00  0.00000000000E+00  0.12525980253E-10  0.17130000000E+03  0.17130000000E+03 0. -1.
       11    1    1    2    0    0 -0.99592694665E-02  0.19289585140E-02  0.65854379545E-01  0.66633088310E-01  0.51109989000E-03 0. -1.
     -623    1    1    2    0    0  0.90983744215E-02 -0.40353762279E-03  0.14944161339E-02  0.17130000025E+03  0.17130000000E+03 0. -1.
      622    1    1    2    0    0  0.86089504488E-03 -0.15254208912E-02  0.39326511717E+01  0.39333666631E+01  0.75000000000E-01 0. -1.
</event>
<event>
 5   0  0.5237200E+07  0.9118800E+02  0.7818608E-02  0.1180000E+00
       11   -1    0    0    0    0  0.00000000000E+00  0.00000000000E+00  0.39999999673E+01  0.40000000000E+01  0.51109989000E-03 0. -1.
     -623   -1    0    0    0    0  0.00000000000E+00  0.00000000000E+00  0.12525980253E-10  0.17130000000E+03  0.17130000000E+03 0.  1.
       11    1    1    2    0    0  0.61644801209E-02  0.15598507868E-01  0.77844813022E+00  0.77862896615E+00  0.51109989000E-03 0. -1.
     -623    1    1    2    0    0  0.34566213756E-02  0.84192884137E-03  0.11103731532E-02  0.17130000004E+03  0.17130000000E+03 0.  1.
      622    1    1    2    0    0 -0.96211014965E-02 -0.16440436709E-01  0.32204414640E+01  0.32213709933E+01  0.75000000000E-01 0. -1.
</event>
<event>
 5   0  0.5237200E+07  0.9118800E+02  0.7818608E-02  0.1180000E+00
       11   -1    0    0    0    0  0.00000000000E+00  0.00000000000E+00  0.39999999673E+01  0.40000000000E+01  0.51109989000E-03 0.  1.
     -623   -1    0    0    0    0  0.00000000000E+00  0.00000000000E+00  0.12525980253E-10  0.17130000000E+03  0.17130000000E+03 0. -1.
       11    1    1    2    0    0 -0.59558146287E-02  0.81073229941E-02  0.38672048885E-01  0.39962344802E-01  0.51109989000E-03 0.  1.
     -623    1    1    2    0    0  0.26295148879E-01  0.37889812032E-01  0.23262125072E-02  0.17130000622E+03  0.17130000000E+03 0. -1.
      622    1    1    2    0    0 -0.20339334250E-01 -0.45997135026E-01  0.39590017059E+01  0.39600314307E+01  0.75000000000E-01 0.  1.
</event>
<event>
 5   0  0.5237200E+07  0.9118800E+02  0.7818608E-02  0.1180000E+00
       11   -1    0    0    0    0  0.00000000000E+00  0.00000000000E+00  0.39999999673E+01  0.40000000000E+01  0.51109989000E-03 0.  1.
     -623   -1    0    0    0    0  0.00000000000E+00  0.00000000000E+00  0.12525980253E-10  0.17130000000E+03  0.17130000000E+03 0. -1.
       11    1    1    2    0    0 -0.59420571668E-02 -0.39050539623E-02  0.41077023708E-01  0.41691013257E-01  0.51109989000E-03 0.  1.
     -623    1    1    2    0    0 -0.67837472958E-02  0.18385453654E-02  0.13457006117E-02  0.17130000015E+03  0.17130000000E+03 0. -1.
      622    1    1    2    0    0  0.12725804463E-01  0.20665085970E-02  0.39575772430E+01  0.39583088373E+01  0.75000000000E-01 0.  1.
</event>
<event>
 5   0  0.5237200E+07  0.9118800E+02  0.7818608E-02  0.1180000E+00
       11   -1    0    0    0    0  0.00000000000E+00  0.00000000000E+00  0.39999999673E+01  0.40000000000E+01  0.51109989000E-03 0. -1.
     -623   -1    0    0    0    0  0.00000000000E+00  0.00000000000E+00  0.12525980253E-10  0.17130000000E+03  0.17130000000E+03 0.  1.
       11    1    1    2    0    0 -0.68387202399E-02 -0.41564518528E-02  0.81034150495E-01  0.81429963503E-01  0.51109989000E-03 0. -1.
     -623    1    1    2    0    0  0.68603474331E-02 -0.10478828809E-02  0.11171833574E-02  0.17130000014E+03  0.17130000000E+03 0.  1.
      622    1    1    2    0    0 -0.21627193328E-04  0.52043347337E-02  0.39178486336E+01  0.39185698924E+01  0.75000000000E-01 0. -1.
</event>
<event>
 5   0  0.5237200E+07  0.9118800E+02  0.7818608E-02  0.1180000E+00
       11   -1    0    0    0    0  0.00000000000E+00  0.00000000000E+00  0.39999999673E+01  0.40000000000E+01  0.51109989000E-03 0.  1.
     -623   -1    0    0    0    0  0.00000000000E+00  0.00000000000E+00  0.12525980253E-10  0.17130000000E+03  0.17130000000E+03 0. -1.
       11    1    1    2    0    0 -0.31244934386E-01 -0.37343858867E-02  0.54831778661E+00  0.54922021804E+00  0.51109989000E-03 0.  1.
     -623    1    1    2    0    0  0.30507842216E-01 -0.26352670432E-01  0.18535587392E-02  0.17130000475E+03  0.17130000000E+03 0. -1.
      622    1    1    2    0    0  0.73709217017E-03  0.30087056319E-01  0.34498286220E+01  0.34507750282E+01  0.75000000000E-01 0.  1.
</event>
<event>
 5   0  0.5237200E+07  0.9118800E+02  0.7818608E-02  0.1180000E+00
       11   -1    0    0    0    0  0.00000000000E+00  0.00000000000E+00  0.39999999673E+01  0.40000000000E+01  0.51109989000E-03 0. -1.
     -623   -1    0    0    0    0  0.00000000000E+00  0.00000000000E+00  0.12525980253E-10  0.17130000000E+03  0.17130000000E+03 0. -1.
       11    1    1    2    0    0  0.35844824252E-02  0.72948700439E-04  0.23297609147E+00  0.23300423657E+00  0.51109989000E-03 0. -1.
     -623    1    1    2    0    0 -0.50802981890E-02 -0.52032726945E-02  0.77875006515E-03  0.17130000016E+03  0.17130000000E+03 0. -1.
      622    1    1    2    0    0  0.14958157637E-02  0.51303239940E-02  0.37662451258E+01  0.37669956072E+01  0.75000000000E-01 0. -1.
</event>
<event>
 5   0  0.5237200E+07  0.9118800E+02  0.7818608E-02  0.1180000E+00
       11   -1    0    0    0    0  0.00000000000E+00  0.00000000000E+00  0.39999999673E+01  0.40000000000E+01  0.51109989000E-03 0.  1.
     -623   -1    0    0    0    0  0.00000000000E+00  0.00000000000E+00  0.12525980253E-10  0.17130000000E+03  0.17130000000E+03 0. -1.
       11    1    1    2    0    0  0.46795419059E-01 -0.56854569679E-01  0.73969954194E+00  0.74335585483E+00  0.51109989000E-03 0.  1.
     -623    1    1    2    0    0 -0.11059535864E-01 -0.92917726634E-02  0.53888786166E-02  0.17130000069E+03  0.17130000000E+03 0. -1.
      622    1    1    2    0    0 -0.35735883195E-01  0.66146342342E-01  0.32549115468E+01  0.32566434514E+01  0.75000000000E-01 0.  1.
</event>
<event>
 5   0  0.5237200E+07  0.9118800E+02  0.7818608E-02  0.1180000E+00
       11   -1    0    0    0    0  0.00000000000E+00  0.00000000000E+00  0.39999999673E+01  0.40000000000E+01  0.51109989000E-03 0.  1.
     -623   -1    0    0    0    0  0.00000000000E+00  0.00000000000E+00  0.12525980253E-10  0.17130000000E+03  0.17130000000E+03 0.  1.
       11    1    1    2    0    0 -0.58716077976E-02  0.69882644635E-03  0.70574355035E-01  0.70823477371E-01  0.51109989000E-03 0.  1.
     -623    1    1    2    0    0 -0.19428201999E-02  0.52764279042E-02  0.97736524923E-03  0.17130000010E+03  0.17130000000E+03 0.  1.
      622    1    1    2    0    0  0.78144279974E-02 -0.59752543506E-02  0.39284482471E+01  0.39291764276E+01  0.75000000000E-01 0.  1.
</event>
<event>
 5   0  0.5237200E+07  0.9118800E+02  0.7818608E-02  0.1180000E+00
       11   -1    0    0    0    0  0.00000000000E+00  0.00000000000E+00  0.39999999673E+01  0.40000000000E+01  0.51109989000E-03 0. -1.
     -623   -1    0    0    0    0  0.00000000000E+00  0.00000000000E+00  0.12525980253E-10  0.17130000000E+03  0.17130000000E+03 0.  1.
       11    1    1    2    0    0 -0.23664565487E-01 -0.40893538425E-02  0.27972393339E+00  0.28075340533E+00  0.51109989000E-03 0. -1.
     -623    1    1    2    0    0 -0.90901930534E-03  0.13639157435E-02  0.18679325443E-02  0.17130000002E+03  0.17130000000E+03 0.  1.
      622    1    1    2    0    0  0.24573584793E-01  0.27254380990E-02  0.37184081014E+01  0.37192465766E+01  0.75000000000E-01 0. -1.
</event>
<event>
 5   0  0.5237200E+07  0.9118800E+02  0.7818608E-02  0.1180000E+00
       11   -1    0    0    0    0  0.00000000000E+00  0.00000000000E+00  0.39999999673E+01  0.40000000000E+01  0.51109989000E-03 0. -1.
     -623   -1    0    0    0    0  0.00000000000E+00  0.00000000000E+00  0.12525980253E-10  0.17130000000E+03  0.17130000000E+03 0.  1.
       11    1    1    2    0    0  0.19545076085E-01  0.32363699037E-02  0.57516873458E+00  0.57551005079E+00  0.51109989000E-03 0. -1.
     -623    1    1    2    0    0  0.54090490683E-03 -0.14638392865E-02  0.12220633128E-02  0.17130000001E+03  0.17130000000E+03 0.  1.
      622    1    1    2    0    0 -0.20085980992E-01 -0.17725306171E-02  0.34236091699E+01  0.34244899381E+01  0.75000000000E-01 0. -1.
</event>
<event>
 5   0  0.5237200E+07  0.9118800E+02  0.7818608E-02  0.1180000E+00
       11   -1    0    0    0    0  0.00000000000E+00  0.00000000000E+00  0.39999999673E+01  0.40000000000E+01  0.51109989000E-03 0.  1.
     -623   -1    0    0    0    0  0.00000000000E+00  0.00000000000E+00  0.12525980253E-10  0.17130000000E+03  0.17130000000E+03 0.  1.
       11    1    1    2    0    0 -0.18551329092E-02 -0.14202492252E-03  0.94569445587E-02  0.96517725146E-02  0.51109989000E-03 0.  1.
     -623    1    1    2    0    0  0.46337173956E-02  0.41068168121E-02  0.90273519909E-03  0.17130000011E+03  0.17130000000E+03 0.  1.
      622    1    1    2    0    0 -0.27785844862E-02 -0.39647918894E-02  0.39896402874E+01  0.39903481130E+01  0.75000000000E-01 0.  1.
</event>
<event>
 5   0  0.5237200E+07  0.9118800E+02  0.7818608E-02  0.1180000E+00
       11   -1    0    0    0    0  0.00000000000E+00  0.00000000000E+00  0.39999999673E+01  0.40000000000E+01  0.51109989000E-03 0.  1.
     -623   -1    0    0    0    0  0.00000000000E+00  0.00000000000E+00  0.12525980253E-10  0.17130000000E+03  0.17130000000E+03 0. -1.
       11    1    1    2    0    0  0.55922312750E-02  0.33927600385E-01  0.71076375851E+00  0.71159520568E+00  0.51109989000E-03 0.  1.
     -623    1    1    2    0    0  0.11821374036E-01  0.12331753712E-01  0.20592670895E-02  0.17130000086E+03  0.17130000000E+03 0. -1.
      622    1    1    2    0    0 -0.17413605311E-01 -0.46259354097E-01  0.32871769418E+01  0.32884039302E+01  0.75000000000E-01 0.  1.
</event>
<event>
 5   0  0.5237200E+07  0.9118800E+02  0.7818608E-02  0.1180000E+00
       11   -1    0    0    0    0  0.00000000000E+00  0.00000000000E+00  0.39999999673E+01  0.40000000000E+01  0.51109989000E-03 0. -1.
     -623   -1    0    0    0    0  0.00000000000E+00  0.00000000000E+00  0.12525980253E-10  0.17130000000E+03  0.17130000000E+03 0.  1.
       11    1    1    2    0    0 -0.14333347450E-02  0.14098239219E-01  0.17740554798E+00  0.17797135857E+00  0.51109989000E-03 0. -1.
     -623    1    1    2    0    0  0.51268197980E-02 -0.12921671497E-02  0.13250444648E-02  0.17130000009E+03  0.17130000000E+03 0.  1.
      622    1    1    2    0    0 -0.36934850531E-02 -0.12806072069E-01  0.38212693749E+01  0.38220285547E+01  0.75000000000E-01 0. -1.
</event>
<event>
 5   0  0.5237200E+07  0.9118800E+02  0.7818608E-02  0.1180000E+00
       11   -1    0    0    0    0  0.00000000000E+00  0.00000000000E+00  0.39999999673E+01  0.40000000000E+01  0.51109989000E-03 0.  1.
     -623   -1    0    0    0    0  0.00000000000E+00  0.00000000000E+00  0.12525980253E-10  0.17130000000E+03  0.17130000000E+03 0.  1.
       11    1    1    2    0    0 -0.40046802046E-02 -0.34280552847E-02 -0.11786426001E-02  0.54258131236E-02  0.51109989000E-03 0.  1.
     -623    1    1    2    0    0 -0.26103186858E-02 -0.89309291682E-02  0.73335755660E-02  0.17130000041E+03  0.17130000000E+03 0.  1.
      622    1    1    2    0    0  0.66149988905E-02  0.12358984453E-01  0.39938450345E+01  0.39945737773E+01  0.75000000000E-01 0.  1.
</event>
<event>
 5   0  0.5237200E+07  0.9118800E+02  0.7818608E-02  0.1180000E+00
       11   -1    0    0    0    0  0.00000000000E+00  0.00000000000E+00  0.39999999673E+01  0.40000000000E+01  0.51109989000E-03 0.  1.
     -623   -1    0    0    0    0  0.00000000000E+00  0.00000000000E+00  0.12525980253E-10  0.17130000000E+03  0.17130000000E+03 0.  1.
       11    1    1    2    0    0 -0.17969177880E-01 -0.84776231019E-02  0.81442076871E+00  0.81466325017E+00  0.51109989000E-03 0.  1.
     -623    1    1    2    0    0 -0.18157508685E-03 -0.78858658255E-03  0.11907394935E-02  0.17130000001E+03  0.17130000000E+03 0.  1.
      622    1    1    2    0    0  0.18150752967E-01  0.92662096844E-02  0.31843884592E+01  0.31853367438E+01  0.75000000000E-01 0.  1.
</event>
<event>
 5   0  0.5237200E+07  0.9118800E+02  0.7818608E-02  0.1180000E+00
       11   -1    0    0    0    0  0.00000000000E+00  0.00000000000E+00  0.39999999673E+01  0.40000000000E+01  0.51109989000E-03 0.  1.
     -623   -1    0    0    0    0  0.00000000000E+00  0.00000000000E+00  0.12525980253E-10  0.17130000000E+03  0.17130000000E+03 0.  1.
       11    1    1    2    0    0  0.19714925165E-02 -0.65575415867E-03  0.30844974740E-02  0.37539504557E-02  0.51109989000E-03 0.  1.
     -623    1    1    2    0    0  0.19936359670E-03  0.30543722100E-02  0.13746103943E-02  0.17130000003E+03  0.17130000000E+03 0.  1.
      622    1    1    2    0    0 -0.21708561133E-02 -0.23986180516E-02  0.39955408599E+01  0.39962460171E+01  0.75000000000E-01 0.  1.
</event>
<event>
 5   0  0.5237200E+07  0.9118800E+02  0.7818608E-02  0.1180000E+00
       11   -1    0    0    0    0  0.00000000000E+00  0.00000000000E+00  0.39999999673E+01  0.40000000000E+01  0.51109989000E-03 0.  1.
     -623   -1    0    0    0    0  0.00000000000E+00  0.00000000000E+00  0.12525980253E-10  0.17130000000E+03  0.17130000000E+03 0. -1.
       11    1    1    2    0    0 -0.17990198715E-01  0.22305196827E-03  0.18010365776E+00  0.18100078939E+00  0.51109989000E-03 0.  1.
     -623    1    1    2    0    0  0.72623617078E-02  0.11353864723E-01  0.16667791265E-02  0.17130000054E+03  0.17130000000E+03 0. -1.
      622    1    1    2    0    0  0.10727837007E-01 -0.11576916691E-01  0.38182295305E+01  0.38189986723E+01  0.75000000000E-01 0.  1.
</event>
<event>
 5   0  0.5237200E+07  0.9118800E+02  0.7818608E-02  0.1180000E+00
       11   -1    0    0    0    0  0.00000000000E+00  0.00000000000E+00  0.39999999673E+01  0.40000000000E+01  0.51109989000E-03 0. -1.
     -623   -1    0    0    0    0  0.00000000000E+00  0.00000000000E+00  0.12525980253E-10  0.17130000000E+03  0.17130000000E+03 0.  1.
       11    1    1    2    0    0 -0.36537677690E-03  0.81459719931E-02  0.60975763175E-01  0.61520689814E-01  0.51109989000E-03 0. -1.
     -623    1    1    2    0    0  0.61429572971E-02 -0.46021876975E-02  0.12650766426E-02  0.17130000018E+03  0.17130000000E+03 0.  1.
      622    1    1    2    0    0 -0.57775805202E-02 -0.35437842956E-02  0.39377591275E+01  0.39384791335E+01  0.75000000000E-01 0. -1.
</event>
<event>
 5   0  0.5237200E+07  0.9118800E+02  0.7818608E-02  0.1180000E+00
       11   -1    0    0    0    0  0.00000000000E+00  0.00000000000E+00  0.39999999673E+01  0.40000000000E+01  0.51109989000E-03 0. -1.
     -623   -1    0    0    0    0  0.00000000000E+00  0.00000000000E+00  0.12525980253E-10  0.17130000000E+03  0.17130000000E+03 0. -1.
       11    1    1    2    0    0  0.30225201603E-03  0.17142837995E-03  0.78956552017E-02  0.79198066632E-02  0.51109989000E-03 0. -1.
     -623    1    1    2    0    0  0.18355012397E-02  0.14308491778E-02  0.72961236918E-03  0.17130000002E+03  0.17130000000E+03 0. -1.
      622    1    1    2    0    0 -0.21377532557E-02 -0.16022775578E-02  0.39913746998E+01  0.39920801760E+01  0.75000000000E-01 0. -1.
</event>
<event>
 5   0  0.5237200E+07  0.9118800E+02  0.7818608E-02  0.1180000E+00
       11   -1    0    0    0    0  0.00000000000E+00  0.00000000000E+00  0.39999999673E+01  0.40000000000E+01  0.51109989000E-03 0.  1.
     -623   -1    0    0    0    0  0.00000000000E+00  0.00000000000E+00  0.12525980253E-10  0.17130000000E+03  0.17130000000E+03 0.  1.
       11    1    1    2    0    0  0.26992819350E-02 -0.42728288860E-02  0.58855040306E-01  0.59073853604E-01  0.51109989000E-03 0.  1.
     -623    1    1    2    0    0 -0.94064624196E-02 -0.19855855544E-03  0.94101673613E-03  0.17130000026E+03  0.17130000000E+03 0.  1.
      622    1    1    2    0    0  0.67071804846E-02  0.44713874415E-02  0.39402039103E+01  0.39409258854E+01  0.75000000000E-01 0.  1.
</event>
<event>
 5   0  0.5237200E+07  0.9118800E+02  0.7818608E-02  0.1180000E+00
       11   -1    0    0    0    0  0.00000000000E+00  0.00000000000E+00  0.39999999673E+01  0.40000000000E+01  0.51109989000E-03 0.  1.
     -623   -1    0    0    0    0  0.00000000000E+00  0.00000000000E+00  0.12525980253E-10  0.17130000000E+03  0.17130000000E+03 0. -1.
       11    1    1    2    0    0  0.13045747663E-01 -0.68736181445E-02  0.12044440755E+00  0.12134477611E+00  0.51109989000E-03 0.  1.
     -623    1    1    2    0    0 -0.81823683939E-02  0.13864840521E-01  0.16356422500E-02  0.17130000076E+03  0.17130000000E+03 0. -1.
      622    1    1    2    0    0 -0.48633792687E-02 -0.69912223764E-02  0.38779199176E+01  0.38786544596E+01  0.75000000000E-01 0.  1.
</event>
<event>
 5   0  0.5237200E+07  0.9118800E+02  0.7818608E-02  0.1180000E+00
       11   -1    0    0    0    0  0.00000000000E+00  0.00000000000E+00  0.39999999673E+01  0.40000000000E+01  0.51109989000E-03 0. -1.
     -623   -1    0    0    0    0  0.00000000000E+00  0.00000000000E+00  0.12525980253E-10  0.17130000000E+03  0.17130000000E+03 0. -1.
       11    1    1    2    0    0  0.19603529295E-01 -0.35794046108E-01  0.69524453008E+00  0.69644147631E+00  0.51109989000E-03 0. -1.
     -623    1    1    2    0    0 -0.24278383954E-01 -0.79302691519E-02  0.23430518799E-02  0.17130000192E+03  0.17130000000E+03 0. -1.
      622    1    1    2    0    0  0.46748546595E-02  0.43724315260E-01  0.33024123854E+01  0.33035566037E+01  0.75000000000E-01 0. -1.
</event>
<event>
 5   0  0.5237200E+07  0.9118800E+02  0.7818608E-02  0.1180000E+00
       11   -1    0    0    0    0  0.00000000000E+00  0.00000000000E+00  0.39999999673E+01  0.40000000000E+01  0.51109989000E-03 0. -1.
     -623   -1    0    0    0    0  0.00000000000E+00  0.00000000000E+00  0.12525980253E-10  0.17130000000E+03  0.17130000000E+03 0. -1.
       11    1    1    2    0    0 -0.54006860458E-02 -0.37343253057E-02  0.39995958778E-02  0.77052310502E-02  0.51109989000E-03 0. -1.
     -623    1    1    2    0    0 -0.31518848923E-03 -0.35755102575E-02  0.44210272277E-02  0.17130000009E+03  0.17130000000E+03 0. -1.
      622    1    1    2    0    0  0.57158745350E-02  0.73098355633E-02  0.39915793443E+01  0.39922946743E+01  0.75000000000E-01 0. -1.
</event>
<event>
 5   0  0.5237200E+07  0.9118800E+02  0.7818608E-02  0.1180000E+00
       11   -1    0    0    0    0  0.00000000000E+00  0.00000000000E+00  0.39999999673E+01  0.40000000000E+01  0.51109989000E-03 0. -1.
     -623   -1    0    0    0    0  0.00000000000E+00  0.00000000000E+00  0.12525980253E-10  0.17130000000E+03  0.17130000000E+03 0. -1.
       11    1    1    2    0    0 -0.50184830770E-02  0.15210539959E-02  0.31776041605E-01  0.32209886984E-01  0.51109989000E-03 0. -1.
     -623    1    1    2    0    0  0.60593760455E-03 -0.76454286399E-03  0.11452416786E-02  0.17130000001E+03  0.17130000000E+03 0. -1.
      622    1    1    2    0    0  0.44125454725E-02 -0.75651113189E-03  0.39670786841E+01  0.39677901064E+01  0.75000000000E-01 0. -1.
</event>
<event>
 5   0  0.5237200E+07  0.9118800E+02  0.7818608E-02  0.1180000E+00
       11   -1    0    0    0    0  0.00000000000E+00  0.00000000000E+00  0.39999999673E+01  0.40000000000E+01  0.51109989000E-03 0.  1.
     -623   -1    0    0    0    0  0.00000000000E+00  0.00000000000E+00  0.12525980253E-10  0.17130000000E+03  0.17130000000E+03 0. -1.
       11    1    1    2    0    0 -0.12329161338E-01  0.60475825286E-02  0.27131412710E+00  0.27166191904E+00  0.51109989000E-03 0.  1.
     -623    1    1    2    0    0  0.29113060001E-01  0.15110933045E-01  0.12031756171E-02  0.17130000314E+03  0.17130000000E+03 0. -1.
      622    1    1    2    0    0 -0.16783898663E-01 -0.21158515573E-01  0.37274826646E+01  0.37283349363E+01  0.75000000000E-01 0.  1.
</event>
<event>
 5   0  0.5237200E+07  0.9118800E+02  0.7818608E-02  0.1180000E+00
       11   -1    0    0    0    0  0.00000000000E+00  0.00000000000E+00  0.39999999673E+01  0.40000000000E+01  0.51109989000E-03 0. -1.
     -623   -1    0    0    0    0  0.00000000000E+00  0.00000000000E+00  0.12525980253E-10  0.17130000000E+03  0.17130000000E+03 0.  1.
       11    1    1    2    0    0  0.56892812278E-02 -0.18346570815E-01  0.10500348994E+01  0.10502107006E+01  0.51109989000E-03 0. -1.
     -623    1    1    2    0    0 -0.62069214056E-02  0.75508138522E-02  0.11494707638E-02  0.17130000028E+03  0.17130000000E+03 0.  1.
      622    1    1    2    0    0  0.51764017760E-03  0.10795756963E-01  0.29488155971E+01  0.29497890166E+01  0.75000000000E-01 0. -1.
</event>
<event>
 5   0  0.5237200E+07  0.9118800E+02  0.7818608E-02  0.1180000E+00
       11   -1    0    0    0    0  0.00000000000E+00  0.00000000000E+00  0.39999999673E+01  0.40000000000E+01  0.51109989000E-03 0.  1.
     -623   -1    0    0    0    0  0.00000000000E+00  0.00000000000E+00  0.12525980253E-10  0.17130000000E+03  0.17130000000E+03 0. -1.
       11    1    1    2    0    0  0.46765084939E-02 -0.12347130958E-01  0.39976755151E+00  0.39998584704E+00  0.51109989000E-03 0.  1.
     -623    1    1    2    0    0  0.41918807034E-02  0.12789683743E-02  0.10275976915E-02  0.17130000006E+03  0.17130000000E+03 0. -1.
      622    1    1    2    0    0 -0.88683891972E-02  0.11068162584E-01  0.35992048180E+01  0.36000140937E+01  0.75000000000E-01 0.  1.
</event>
<event>
 5   0  0.5237200E+07  0.9118800E+02  0.7818608E-02  0.1180000E+00
       11   -1    0    0    0    0  0.00000000000E+00  0.00000000000E+00  0.39999999673E+01  0.40000000000E+01  0.51109989000E-03 0. -1.
     -623   -1    0    0    0    0  0.00000000000E+00  0.00000000000E+00  0.12525980253E-10  0.17130000000E+03  0.17130000000E+03 0.  1.
       11    1    1    2    0    0  0.69705225521E-01 -0.32728919144E-01  0.96035663038E+00  0.96343921415E+00  0.51109989000E-03 0. -1.
     -623    1    1    2    0    0  0.55890217555E-02 -0.76495438151E-02  0.52118103609E-02  0.17130000034E+03  0.17130000000E+03 0.  1.
      622    1    1    2    0    0 -0.75294247276E-01  0.40378462959E-01  0.30344315266E+01  0.30365604445E+01  0.75000000000E-01 0. -1.
</event>
<event>
 5   0  0.5237200E+07  0.9118800E+02  0.7818608E-02  0.1180000E+00
       11   -1    0    0    0    0  0.00000000000E+00  0.00000000000E+00  0.39999999673E+01  0.40000000000E+01  0.51109989000E-03 0. -1.
     -623   -1    0    0    0    0  0.00000000000E+00  0.00000000000E+00  0.12525980253E-10  0.17130000000E+03  0.17130000000E+03 0.  1.
       11    1    1    2    0    0 -0.40795588451E-02  0.34259809745E-02  0.65204142849E-01  0.65423402646E-01  0.51109989000E-03 0. -1.
     -623    1    1    2    0    0  0.65731950089E-02  0.20340320942E-02  0.93882878854E-03  0.17130000014E+03  0.17130000000E+03 0.  1.
      622    1    1    2    0    0 -0.24936361645E-02 -0.54600130689E-02  0.39338569962E+01  0.39345764570E+01  0.75000000000E-01 0. -1.
</event>
<event>
 5   0  0.5237200E+07  0.9118800E+02  0.7818608E-02  0.1180000E+00
       11   -1    0    0    0    0  0.00000000000E+00  0.00000000000E+00  0.39999999673E+01  0.40000000000E+01  0.51109989000E-03 0. -1.
     -623   -1    0    0    0    0  0.00000000000E+00  0.00000000000E+00  0.12525980253E-10  0.17130000000E+03  0.17130000000E+03 0. -1.
       11    1    1    2    0    0  0.89914917499E-03 -0.46534071019E-02  0.35172424853E-01  0.35493990463E-01  0.51109989000E-03 0. -1.
     -623    1    1    2    0    0  0.37306262044E-02  0.18122433935E-03  0.10362870681E-02  0.17130000004E+03  0.17130000000E+03 0. -1.
      622    1    1    2    0    0 -0.46297753793E-02  0.44721827625E-02  0.39637912554E+01  0.39645059657E+01  0.75000000000E-01 0. -1.
</event>
<event>
 5   0  0.5237200E+07  0.9118800E+02  0.7818608E-02  0.1180000E+00
       11   -1    0    0    0    0  0.00000000000E+00  0.00000000000E+00  0.39999999673E+01  0.40000000000E+01  0.51109989000E-03 0.  1.
     -623   -1    0    0    0    0  0.00000000000E+00  0.00000000000E+00  0.12525980253E-10  0.17130000000E+03  0.17130000000E+03 0.  1.
       11    1    1    2    0    0 -0.17528093581E-01 -0.97176488231E-02  0.12133216312E+00  0.12297732227E+00  0.51109989000E-03 0.  1.
     -623    1    1    2    0    0  0.58687280457E-02 -0.55429620310E-03  0.24018854858E-02  0.17130000012E+03  0.17130000000E+03 0.  1.
      622    1    1    2    0    0  0.11659365535E-01  0.10271945026E-01  0.38762659188E+01  0.38770225595E+01  0.75000000000E-01 0.  1.
</event>
<event>
 5   0  0.5237200E+07  0.9118800E+02  0.7818608E-02  0.1180000E+00
       11   -1    0    0    0    0  0.00000000000E+00  0.00000000000E+00  0.39999999673E+01  0.40000000000E+01  0.51109989000E-03 0. -1.
     -623   -1    0    0    0    0  0.00000000000E+00  0.00000000000E+00  0.12525980253E-10  0.17130000000E+03  0.17130000000E+03 0.  1.
       11    1    1    2    0    0 -0.20440559587E-02 -0.51842667499E-02  0.91707741475E-01  0.91878320910E-01  0.51109989000E-03 0. -1.
     -623    1    1    2    0    0 -0.22673027109E-02  0.40674359764E-02  0.89287202667E-03  0.17130000007E+03  0.17130000000E+03 0.  1.
      622    1    1    2    0    0  0.43113586696E-02  0.11168307735E-02  0.39073993539E+01  0.39081216135E+01  0.75000000000E-01 0. -1.
</event>
<event>
 5   0  0.5237200E+07  0.9118800E+02  0.7818608E-02  0.1180000E+00
       11   -1    0    0    0    0  0.00000000000E+00  0.00000000000E+00  0.39999999673E+01  0.40000000000E+01  0.51109989000E-03 0.  1.
     -623   -1    0    0    0    0  0.00000000000E+00  0.00000000000E+00  0.12525980253E-10  0.17130000000E+03  0.17130000000E+03 0.  1.
       11    1    1    2    0    0 -0.11707135171E-01 -0.19247330953E-02  0.50406441637E-01  0.51786409346E-01  0.51109989000E-03 0.  1.
     -623    1    1    2    0    0  0.66359735733E-03 -0.66763008970E-02  0.21173093170E-02  0.17130000014E+03  0.17130000000E+03 0.  1.
      622    1    1    2    0    0  0.11043537814E-01  0.86010339924E-02  0.39474762165E+01  0.39482134462E+01  0.75000000000E-01 0.  1.
</event>
<event>
 5   0  0.5237200E+07  0.9118800E+02  0.7818608E-02  0.1180000E+00
       11   -1    0    0    0    0  0.00000000000E+00  0.00000000000E+00  0.39999999673E+01  0.40000000000E+01  0.51109989000E-03 0. -1.
     -623   -1    0    0    0    0  0.00000000000E+00  0.00000000000E+00  0.12525980253E-10  0.17130000000E+03  0.17130000000E+03 0. -1.
       11    1    1    2    0    0 -0.40285181406E-03 -0.45729898009E-03  0.41760349265E-02  0.42511060615E-02  0.51109989000E-03 0. -1.
     -623    1    1    2    0    0  0.38803644494E-02  0.27936337199E-03  0.78053699965E-03  0.17130000005E+03  0.17130000000E+03 0. -1.
      622    1    1    2    0    0 -0.34775126354E-02  0.17793560810E-03  0.39950433955E+01  0.39957488480E+01  0.75000000000E-01 0. -1.
</event>
<event>
 5   0  0.5237200E+07  0.9118800E+02  0.7818608E-02  0.1180000E+00
       11   -1    0    0    0    0  0.00000000000E+00  0.00000000000E+00  0.39999999673E+01  0.40000000000E+01  0.51109989000E-03 0.  1.
     -623   -1    0    0    0    0  0.00000000000E+00  0.00000000000E+00  0.12525980253E-10  0.17130000000E+03  0.17130000000E+03 0. -1.
       11    1    1    2    0    0  0.90050887611E-03 -0.19141107615E-02  0.50015669137E-02  0.54545055627E-02  0.51109989000E-03 0.  1.
     -623    1    1    2    0    0 -0.20241360203E-02  0.42428389495E-02  0.11579585874E-02  0.17130000007E+03  0.17130000000E+03 0. -1.
      622    1    1    2    0    0  0.11236271441E-02 -0.23287281879E-02  0.39938404417E+01  0.39945454259E+01  0.75000000000E-01 0.  1.
</event>
<event>
 5   0  0.5237200E+07  0.9118800E+02  0.7818608E-02  0.1180000E+00
       11   -1    0    0    0    0  0.00000000000E+00  0.00000000000E+00  0.39999999673E+01  0.40000000000E+01  0.51109989000E-03 0.  1.
     -623   -1    0    0    0    0  0.00000000000E+00  0.00000000000E+00  0.12525980253E-10  0.17130000000E+03  0.17130000000E+03 0. -1.
       11    1    1    2    0    0  0.22538882751E-01  0.96987278028E-02  0.55811414553E+00  0.55865349477E+00  0.51109989000E-03 0.  1.
     -623    1    1    2    0    0  0.68581892933E-02  0.18431629724E-01  0.15984147905E-02  0.17130000114E+03  0.17130000000E+03 0. -1.
      622    1    1    2    0    0 -0.29397072044E-01 -0.28130357527E-01  0.34402874070E+01  0.34413453689E+01  0.75000000000E-01 0.  0.
</event>
<event>
 5   0  0.5237200E+07  0.9118800E+02  0.7818608E-02  0.1180000E+00
       11   -1    0    0    0    0  0.00000000000E+00  0.00000000000E+00  0.39999999673E+01  0.40000000000E+01  0.51109989000E-03 0.  1.
     -623   -1    0    0    0    0  0.00000000000E+00  0.00000000000E+00  0.12525980253E-10  0.17130000000E+03  0.17130000000E+03 0.  1.
       11    1    1    2    0    0 -0.54404392067E-03 -0.74006328100E-03  0.20144402330E-02  0.22721949735E-02  0.51109989000E-03 0.  1.
     -623    1    1    2    0    0  0.35343616157E-04  0.14162184583E-02  0.96140677019E-03  0.17130000001E+03  0.17130000000E+03 0.  1.
      622    1    1    2    0    0  0.50870030451E-03 -0.67615517735E-03  0.39970241205E+01  0.39977277966E+01  0.75000000000E-01 0.  1.
</event>
<event>
 5   0  0.5237200E+07  0.9118800E+02  0.7818608E-02  0.1180000E+00
       11   -1    0    0    0    0  0.00000000000E+00  0.00000000000E+00  0.39999999673E+01  0.40000000000E+01  0.51109989000E-03 0.  1.
     -623   -1    0    0    0    0  0.00000000000E+00  0.00000000000E+00  0.12525980253E-10  0.17130000000E+03  0.17130000000E+03 0.  1.
       11    1    1    2    0    0  0.41679479313E-02 -0.63353704628E-03  0.15079709965E+00  0.15085688464E+00  0.51109989000E-03 0.  1.
     -623    1    1    2    0    0 -0.26330599601E-02 -0.44920475076E-02  0.79430421221E-03  0.17130000008E+03  0.17130000000E+03 0.  1.
      622    1    1    2    0    0 -0.15348879711E-02  0.51255845541E-02  0.38484085637E+01  0.38491430346E+01  0.75000000000E-01 0.  1.
</event>
<event>
 5   0  0.5237200E+07  0.9118800E+02  0.7818608E-02  0.1180000E+00
       11   -1    0    0    0    0  0.00000000000E+00  0.00000000000E+00  0.39999999673E+01  0.40000000000E+01  0.51109989000E-03 0.  1.
     -623   -1    0    0    0    0  0.00000000000E+00  0.00000000000E+00  0.12525980253E-10  0.17130000000E+03  0.17130000000E+03 0.  1.
       11    1    1    2    0    0 -0.41906529561E-03  0.56819334534E-03  0.75526553980E-04  0.87486385089E-03  0.51109989000E-03 0. -1.
     -623    1    1    2    0    0  0.10690547942E-02  0.15068592500E-02  0.15032531616E-02  0.17130000002E+03  0.17130000000E+03 0.  1.
      622    1    1    2    0    0 -0.64998949857E-03 -0.20750525953E-02  0.39984211876E+01  0.39991251196E+01  0.75000000000E-01 0.  1.
</event>
<event>
 5   0  0.5237200E+07  0.9118800E+02  0.7818608E-02  0.1180000E+00
       11   -1    0    0    0    0  0.00000000000E+00  0.00000000000E+00  0.39999999673E+01  0.40000000000E+01  0.51109989000E-03 0.  1.
     -623   -1    0    0    0    0  0.00000000000E+00  0.00000000000E+00  0.12525980253E-10  0.17130000000E+03  0.17130000000E+03 0.  1.
       11    1    1    2    0    0 -0.66687271706E-03  0.72147709733E-01  0.23091315411E+00  0.24192329922E+00  0.51109989000E-03 0.  1.
     -623    1    1    2    0    0  0.21962380610E-01 -0.99667767750E-02  0.12335634069E-01  0.17130000214E+03  0.17130000000E+03 0.  1.
      622    1    1    2    0    0 -0.21295507893E-01 -0.62180932958E-01  0.37567511792E+01  0.37580745588E+01  0.75000000000E-01 0.  1.
</event>
<event>
 5   0  0.5237200E+07  0.9118800E+02  0.7818608E-02  0.1180000E+00
       11   -1    0    0    0    0  0.00000000000E+00  0.00000000000E+00  0.39999999673E+01  0.40000000000E+01  0.51109989000E-03 0.  1.
     -623   -1    0    0    0    0  0.00000000000E+00  0.00000000000E+00  0.12525980253E-10  0.17130000000E+03  0.17130000000E+03 0.  1.
       11    1    1    2    0    0  0.22750660530E-02 -0.19840340290E-02  0.12996230809E-01  0.13351986928E-01  0.51109989000E-03 0.  1.
     -623    1    1    2    0    0 -0.10392563015E-02  0.26390776126E-02  0.10615379766E-02  0.17130000003E+03  0.17130000000E+03 0.  1.
      622    1    1    2    0    0 -0.12358097515E-02 -0.65504358339E-03  0.39859421983E+01  0.39866479861E+01  0.75000000000E-01 0.  1.
</event>
<event>
 5   0  0.5237200E+07  0.9118800E+02  0.7818608E-02  0.1180000E+00
       11   -1    0    0    0    0  0.00000000000E+00  0.00000000000E+00  0.39999999673E+01  0.40000000000E+01  0.51109989000E-03 0. -1.
     -623   -1    0    0    0    0  0.00000000000E+00  0.00000000000E+00  0.12525980253E-10  0.17130000000E+03  0.17130000000E+03 0. -1.
       11    1    1    2    0    0 -0.11815606223E-01 -0.10652135262E-01  0.74550778749E+00  0.74567767767E+00  0.51109989000E-03 0. -1.
     -623    1    1    2    0    0 -0.35149481521E-03 -0.95504635421E-03  0.10776703277E-02  0.17130000001E+03  0.17130000000E+03 0. -1.
      622    1    1    2    0    0  0.12167101038E-01  0.11607181616E-01  0.32534145095E+01  0.32543223159E+01  0.75000000000E-01 0. -1.
</event>
<event>
 5   0  0.5237200E+07  0.9118800E+02  0.7818608E-02  0.1180000E+00
       11   -1    0    0    0    0  0.00000000000E+00  0.00000000000E+00  0.39999999673E+01  0.40000000000E+01  0.51109989000E-03 0.  1.
     -623   -1    0    0    0    0  0.00000000000E+00  0.00000000000E+00  0.12525980253E-10  0.17130000000E+03  0.17130000000E+03 0.  1.
       11    1    1    2    0    0  0.19331424309E-01 -0.17257212163E-01  0.10160532469E+00  0.10485904140E+00  0.51109989000E-03 0.  1.
     -623    1    1    2    0    0 -0.29769519867E-02  0.18868589228E-01  0.40115902426E-02  0.17130000111E+03  0.17130000000E+03 0.  1.
      622    1    1    2    0    0 -0.16354472322E-01 -0.16113770651E-02  0.38943830524E+01  0.38951398466E+01  0.75000000000E-01 0.  1.
</event>
<event>
 5   0  0.5237200E+07  0.9118800E+02  0.7818608E-02  0.1180000E+00
       11   -1    0    0    0    0  0.00000000000E+00  0.00000000000E+00  0.39999999673E+01  0.40000000000E+01  0.51109989000E-03 0. -1.
     -623   -1    0    0    0    0  0.00000000000E+00  0.00000000000E+00  0.12525980253E-10  0.17130000000E+03  0.17130000000E+03 0.  1.
       11    1    1    2    0    0  0.52086604082E-01 -0.28276216102E-01  0.91086835496E+00  0.91279459903E+00  0.51109989000E-03 0. -1.
     -623    1    1    2    0    0  0.40906540784E-02  0.19872434933E-01  0.33613588802E-02  0.17130000123E+03  0.17130000000E+03 0.  1.
      622    1    1    2    0    0 -0.56177258161E-01  0.84037811682E-02  0.30857702536E+01  0.30872041665E+01  0.75000000000E-01 0. -1.
</event>
<event>
 5   0  0.5237200E+07  0.9118800E+02  0.7818608E-02  0.1180000E+00
       11   -1    0    0    0    0  0.00000000000E+00  0.00000000000E+00  0.39999999673E+01  0.40000000000E+01  0.51109989000E-03 0. -1.
     -623   -1    0    0    0    0  0.00000000000E+00  0.00000000000E+00  0.12525980253E-10  0.17130000000E+03  0.17130000000E+03 0.  1.
       11    1    1    2    0    0  0.72761984240E-02 -0.52364642757E-01  0.78492612689E+00  0.78670469986E+00  0.51109989000E-03 0. -1.
     -623    1    1    2    0    0  0.26735154836E-02  0.78099443300E-02  0.29785549407E-02  0.17130000022E+03  0.17130000000E+03 0.  1.
      622    1    1    2    0    0 -0.99497139077E-02  0.44554698427E-01  0.32120952857E+01  0.32132950755E+01  0.75000000000E-01 0. -1.
</event>
<event>
 5   0  0.5237200E+07  0.9118800E+02  0.7818608E-02  0.1180000E+00
       11   -1    0    0    0    0  0.00000000000E+00  0.00000000000E+00  0.39999999673E+01  0.40000000000E+01  0.51109989000E-03 0. -1.
     -623   -1    0    0    0    0  0.00000000000E+00  0.00000000000E+00  0.12525980253E-10  0.17130000000E+03  0.17130000000E+03 0.  1.
       11    1    1    2    0    0 -0.85301163830E-02  0.38840255099E-02  0.14993355605E+00  0.15022709805E+00  0.51109989000E-03 0. -1.
     -623    1    1    2    0    0  0.22499605023E-01 -0.10826262344E-01  0.10575753832E-02  0.17130000182E+03  0.17130000000E+03 0.  1.
      622    1    1    2    0    0 -0.13969488640E-01  0.69422368346E-02  0.38490088359E+01  0.38497710790E+01  0.75000000000E-01 0. -1.
</event>
<event>
 5   0  0.5237200E+07  0.9118800E+02  0.7818608E-02  0.1180000E+00
       11   -1    0    0    0    0  0.00000000000E+00  0.00000000000E+00  0.39999999673E+01  0.40000000000E+01  0.51109989000E-03 0.  1.
     -623   -1    0    0    0    0  0.00000000000E+00  0.00000000000E+00  0.12525980253E-10  0.17130000000E+03  0.17130000000E+03 0.  1.
       11    1    1    2    0    0 -0.78990346427E-02 -0.32778828194E-02  0.29356870048E-01  0.30581469945E-01  0.51109989000E-03 0.  1.
     -623    1    1    2    0    0  0.14341403585E-02  0.36451146926E-02  0.19385108754E-02  0.17130000006E+03  0.17130000000E+03 0.  1.
      622    1    1    2    0    0  0.64648942842E-02 -0.36723187328E-03  0.39687045864E+01  0.39694184743E+01  0.75000000000E-01 0.  1.
</event>
<event>
 5   0  0.5237200E+07  0.9118800E+02  0.7818608E-02  0.1180000E+00
       11   -1    0    0    0    0  0.00000000000E+00  0.00000000000E+00  0.39999999673E+01  0.40000000000E+01  0.51109989000E-03 0. -1.
     -623   -1    0    0    0    0  0.00000000000E+00  0.00000000000E+00  0.12525980253E-10  0.17130000000E+03  0.17130000000E+03 0. -1.
       11    1    1    2    0    0 -0.79141969550E-02 -0.13926184894E-01  0.27005543946E+00  0.27053054309E+00  0.51109989000E-03 0. -1.
     -623    1    1    2    0    0  0.24465207442E-02 -0.18144789600E-02  0.12665411113E-02  0.17130000003E+03  0.17130000000E+03 0. -1.
      622    1    1    2    0    0  0.54676762109E-02  0.15740663854E-01  0.37286779868E+01  0.37294694251E+01  0.75000000000E-01 0. -1.
</event>
<event>
 5   0  0.5237200E+07  0.9118800E+02  0.7818608E-02  0.1180000E+00
       11   -1    0    0    0    0  0.00000000000E+00  0.00000000000E+00  0.39999999673E+01  0.40000000000E+01  0.51109989000E-03 0.  1.
     -623   -1    0    0    0    0  0.00000000000E+00  0.00000000000E+00  0.12525980253E-10  0.17130000000E+03  0.17130000000E+03 0.  1.
       11    1    1    2    0    0 -0.17955009713E-02  0.14259402553E-02  0.15020841010E-01  0.15203421175E-01  0.51109989000E-03 0.  1.
     -623    1    1    2    0    0  0.12724089197E-04 -0.89650616092E-03  0.88885642098E-03  0.17130000000E+03  0.17130000000E+03 0.  1.
      622    1    1    2    0    0  0.17827768821E-02 -0.52943409435E-03  0.39840902699E+01  0.39847965742E+01  0.75000000000E-01 0.  1.
</event>
<event>
 5   0  0.5237200E+07  0.9118800E+02  0.7818608E-02  0.1180000E+00
       11   -1    0    0    0    0  0.00000000000E+00  0.00000000000E+00  0.39999999673E+01  0.40000000000E+01  0.51109989000E-03 0.  1.
     -623   -1    0    0    0    0  0.00000000000E+00  0.00000000000E+00  0.12525980253E-10  0.17130000000E+03  0.17130000000E+03 0. -1.
       11    1    1    2    0    0 -0.71426559224E-03  0.16110702954E-02  0.97428846428E-01  0.97446123894E-01  0.51109989000E-03 0.  1.
     -623    1    1    2    0    0  0.76075160347E-02  0.95527574682E-03  0.74509957385E-03  0.17130000017E+03  0.17130000000E+03 0. -1.
      622    1    1    2    0    0 -0.68932504425E-02 -0.25663460422E-02  0.39018260214E+01  0.39025537029E+01  0.75000000000E-01 0.  1.
</event>
<event>
 5   0  0.5237200E+07  0.9118800E+02  0.7818608E-02  0.1180000E+00
       11   -1    0    0    0    0  0.00000000000E+00  0.00000000000E+00  0.39999999673E+01  0.40000000000E+01  0.51109989000E-03 0.  1.
     -623   -1    0    0    0    0  0.00000000000E+00  0.00000000000E+00  0.12525980253E-10  0.17130000000E+03  0.17130000000E+03 0.  1.
       11    1    1    2    0    0  0.18259193417E-01 -0.12718885903E-01  0.38369072219E+00  0.38433579031E+00  0.51109989000E-03 0.  1.
     -623    1    1    2    0    0  0.59304773935E-02  0.54563517218E-03  0.15245280282E-02  0.17130000011E+03  0.17130000000E+03 0.  1.
      622    1    1    2    0    0 -0.24189670811E-01  0.12173250731E-01  0.36147847171E+01  0.36156640994E+01  0.75000000000E-01 0.  0.
</event>
<event>
 5   0  0.5237200E+07  0.9118800E+02  0.7818608E-02  0.1180000E+00
       11   -1    0    0    0    0  0.00000000000E+00  0.00000000000E+00  0.39999999673E+01  0.40000000000E+01  0.51109989000E-03 0.  1.
     -623   -1    0    0    0    0  0.00000000000E+00  0.00000000000E+00  0.12525980253E-10  0.17130000000E+03  0.17130000000E+03 0.  1.
       11    1    1    2    0    0  0.51476162535E-02  0.12357475206E-02  0.39371530058E-01  0.39729128190E-01  0.51109989000E-03 0.  1.
     -623    1    1    2    0    0 -0.88754367118E-02  0.47802140799E-02  0.10744329287E-02  0.17130000030E+03  0.17130000000E+03 0.  1.
      622    1    1    2    0    0  0.37278204583E-02 -0.60159616005E-02  0.39595540044E+01  0.39602705718E+01  0.75000000000E-01 0.  1.
</event>
<event>
 5   0  0.5237200E+07  0.9118800E+02  0.7818608E-02  0.1180000E+00
       11   -1    0    0    0    0  0.00000000000E+00  0.00000000000E+00  0.39999999673E+01  0.40000000000E+01  0.51109989000E-03 0.  1.
     -623   -1    0    0    0    0  0.00000000000E+00  0.00000000000E+00  0.12525980253E-10  0.17130000000E+03  0.17130000000E+03 0.  1.
       11    1    1    2    0    0  0.52925344363E-01 -0.23612311612E-01  0.12227655654E+00  0.13531611447E+00  0.51109989000E-03 0.  1.
     -623    1    1    2    0    0 -0.19456851913E-01  0.16657990313E-01  0.13921027279E-01  0.17130000248E+03  0.17130000000E+03 0.  1.
      622    1    1    2    0    0 -0.33468492451E-01  0.69543212988E-02  0.38638023835E+01  0.38646814049E+01  0.75000000000E-01 0.  1.
</event>
<event>
 5   0  0.5237200E+07  0.9118800E+02  0.7818608E-02  0.1180000E+00
       11   -1    0    0    0    0  0.00000000000E+00  0.00000000000E+00  0.39999999673E+01  0.40000000000E+01  0.51109989000E-03 0. -1.
     -623   -1    0    0    0    0  0.00000000000E+00  0.00000000000E+00  0.12525980253E-10  0.17130000000E+03  0.17130000000E+03 0.  1.
       11    1    1    2    0    0  0.22262416475E-01  0.10900456455E-01  0.74977455841E+00  0.75018436720E+00  0.51109989000E-03 0. -1.
     -623    1    1    2    0    0  0.20806704170E-02 -0.73160625849E-02  0.13686746077E-02  0.17130000017E+03  0.17130000000E+03 0.  1.
      622    1    1    2    0    0 -0.24343086892E-01 -0.35843938691E-02  0.32488567347E+01  0.32498154588E+01  0.75000000000E-01 0. -1.
</event>
<event>
 5   0  0.5237200E+07  0.9118800E+02  0.7818608E-02  0.1180000E+00
       11   -1    0    0    0    0  0.00000000000E+00  0.00000000000E+00  0.39999999673E+01  0.40000000000E+01  0.51109989000E-03 0. -1.
     -623   -1    0    0    0    0  0.00000000000E+00  0.00000000000E+00  0.12525980253E-10  0.17130000000E+03  0.17130000000E+03 0.  1.
       11    1    1    2    0    0  0.79441906783E-03  0.10742095995E-02  0.12103311443E-01  0.12187550854E-01  0.51109989000E-03 0. -1.
     -623    1    1    2    0    0  0.39205680961E-02 -0.15023861182E-02  0.79240720131E-03  0.17130000005E+03  0.17130000000E+03 0.  1.
      622    1    1    2    0    0 -0.47149871639E-02  0.42817651878E-03  0.39871042487E+01  0.39878123959E+01  0.75000000000E-01 0. -1.
</event>
<event>
 5   0  0.5237200E+07  0.9118800E+02  0.7818608E-02  0.1180000E+00
       11   -1    0    0    0    0  0.00000000000E+00  0.00000000000E+00  0.39999999673E+01  0.40000000000E+01  0.51109989000E-03 0. -1.
     -623   -1    0    0    0    0  0.00000000000E+00  0.00000000000E+00  0.12525980253E-10  0.17130000000E+03  0.17130000000E+03 0. -1.
       11    1    1    2    0    0 -0.81514362204E-03 -0.30307577870E-03  0.43132170173E-01  0.43143964123E-01  0.51109989000E-03 0. -1.
     -623    1    1    2    0    0  0.26831641900E-03  0.77498314717E-03  0.72268618062E-03  0.17130000000E+03  0.17130000000E+03 0. -1.
      622    1    1    2    0    0  0.54682720304E-03 -0.47190736847E-03  0.39561451110E+01  0.39568560324E+01  0.75000000000E-01 0. -1.
</event>
<event>
 5   0  0.5237200E+07  0.9118800E+02  0.7818608E-02  0.1180000E+00
       11   -1    0    0    0    0  0.00000000000E+00  0.00000000000E+00  0.39999999673E+01  0.40000000000E+01  0.51109989000E-03 0.  1.
     -623   -1    0    0    0    0  0.00000000000E+00  0.00000000000E+00  0.12525980253E-10  0.17130000000E+03  0.17130000000E+03 0. -1.
       11    1    1    2    0    0 -0.21797491219E-01  0.98407986091E-02  0.11769952772E+01  0.11772383427E+01  0.51109989000E-03 0.  1.
     -623    1    1    2    0    0 -0.29047620031E-02  0.14748818493E-02  0.13704258209E-02  0.17130000004E+03  0.17130000000E+03 0. -1.
      622    1    1    2    0    0  0.24702253222E-01 -0.11315680458E-01  0.28216342643E+01  0.28227616207E+01  0.75000000000E-01 0.  0.
</event>
<event>
 5   0  0.5237200E+07  0.9118800E+02  0.7818608E-02  0.1180000E+00
       11   -1    0    0    0    0  0.00000000000E+00  0.00000000000E+00  0.39999999673E+01  0.40000000000E+01  0.51109989000E-03 0.  1.
     -623   -1    0    0    0    0  0.00000000000E+00  0.00000000000E+00  0.12525980253E-10  0.17130000000E+03  0.17130000000E+03 0. -1.
       11    1    1    2    0    0  0.48743985254E-03 -0.24414614078E-02  0.22048131069E-02  0.33646329242E-02  0.51109989000E-03 0.  1.
     -623    1    1    2    0    0  0.17051829288E-02  0.29662324352E-02  0.18642464195E-02  0.17130000004E+03  0.17130000000E+03 0. -1.
      622    1    1    2    0    0 -0.21926227814E-02 -0.52477102741E-03  0.39959309078E+01  0.39966353228E+01  0.75000000000E-01 0.  1.
</event>
<event>
 5   0  0.5237200E+07  0.9118800E+02  0.7818608E-02  0.1180000E+00
       11   -1    0    0    0    0  0.00000000000E+00  0.00000000000E+00  0.39999999673E+01  0.40000000000E+01  0.51109989000E-03 0. -1.
     -623   -1    0    0    0    0  0.00000000000E+00  0.00000000000E+00  0.12525980253E-10  0.17130000000E+03  0.17130000000E+03 0.  1.
       11    1    1    2    0    0 -0.30042185840E-02 -0.85905550352E-03  0.21554960810E-01  0.21786254011E-01  0.51109989000E-03 0. -1.
     -623    1    1    2    0    0 -0.12853276813E-02 -0.10924834910E-01  0.95842366838E-03  0.17130000036E+03  0.17130000000E+03 0.  1.
      622    1    1    2    0    0  0.42895462653E-02  0.11783890413E-01  0.39774865829E+01  0.39782133901E+01  0.75000000000E-01 0. -1.
</event>
<event>
 5   0  0.5237200E+07  0.9118800E+02  0.7818608E-02  0.1180000E+00
       11   -1    0    0    0    0  0.00000000000E+00  0.00000000000E+00  0.39999999673E+01  0.40000000000E+01  0.51109989000E-03 0. -1.
     -623   -1    0    0    0    0  0.00000000000E+00  0.00000000000E+00  0.12525980253E-10  0.17130000000E+03  0.17130000000E+03 0.  1.
       11    1    1    2    0    0 -0.18015352641E-01 -0.44242899340E-02  0.10643581185E+00  0.10804152230E+00  0.51109989000E-03 0. -1.
     -623    1    1    2    0    0 -0.49227819474E-02  0.43569505726E-02  0.23961409781E-02  0.17130000014E+03  0.17130000000E+03 0.  1.
      622    1    1    2    0    0  0.22938134588E-01  0.67339361361E-04  0.38911680145E+01  0.38919583348E+01  0.75000000000E-01 0. -1.
</event>
<event>
 5   0  0.5237200E+07  0.9118800E+02  0.7818608E-02  0.1180000E+00
       11   -1    0    0    0    0  0.00000000000E+00  0.00000000000E+00  0.39999999673E+01  0.40000000000E+01  0.51109989000E-03 0.  1.
     -623   -1    0    0    0    0  0.00000000000E+00  0.00000000000E+00  0.12525980253E-10  0.17130000000E+03  0.17130000000E+03 0. -1.
       11    1    1    2    0    0  0.11127617524E-02  0.47341298435E-01  0.87346558781E+00  0.87474843875E+00  0.51109989000E-03 0.  1.
     -623    1    1    2    0    0 -0.29538630953E-01 -0.25959463048E-01  0.23898901643E-02  0.17130000453E+03  0.17130000000E+03 0. -1.
      622    1    1    2    0    0  0.28425869200E-01 -0.21381835387E-01  0.31241444894E+01  0.31252470308E+01  0.75000000000E-01 0.  1.
</event>
<event>
 5   0  0.5237200E+07  0.9118800E+02  0.7818608E-02  0.1180000E+00
       11   -1    0    0    0    0  0.00000000000E+00  0.00000000000E+00  0.39999999673E+01  0.40000000000E+01  0.51109989000E-03 0.  1.
     -623   -1    0    0    0    0  0.00000000000E+00  0.00000000000E+00  0.12525980253E-10  0.17130000000E+03  0.17130000000E+03 0.  1.
       11    1    1    2    0    0  0.95332380855E-03 -0.30767667669E-02  0.64028914887E-02  0.71856497643E-02  0.51109989000E-03 0.  1.
     -623    1    1    2    0    0 -0.20743475163E-02  0.12768409370E-02  0.14877651020E-02  0.17130000002E+03  0.17130000000E+03 0.  1.
      622    1    1    2    0    0  0.11210237076E-02  0.17999258299E-02  0.39921093106E+01  0.39928143263E+01  0.75000000000E-01 0.  1.
</event>
<event>
 5   0  0.5237200E+07  0.9118800E+02  0.7818608E-02  0.1180000E+00
       11   -1    0    0    0    0  0.00000000000E+00  0.00000000000E+00  0.39999999673E+01  0.40000000000E+01  0.51109989000E-03 0. -1.
     -623   -1    0    0    0    0  0.00000000000E+00  0.00000000000E+00  0.12525980253E-10  0.17130000000E+03  0.17130000000E+03 0. -1.
       11    1    1    2    0    0  0.18980890256E-01 -0.39524837321E-02  0.15431289159E+00  0.15552693033E+00  0.51109989000E-03 0. -1.
     -623    1    1    2    0    0 -0.15495947177E-02  0.81337198645E-02  0.19876568079E-02  0.17130000021E+03  0.17130000000E+03 0. -1.
      622    1    1    2    0    0 -0.17431295538E-01 -0.41812361325E-02  0.38436994191E+01  0.38444728581E+01  0.75000000000E-01 0. -1.
</event>
<event>
 5   0  0.5237200E+07  0.9118800E+02  0.7818608E-02  0.1180000E+00
       11   -1    0    0    0    0  0.00000000000E+00  0.00000000000E+00  0.39999999673E+01  0.40000000000E+01  0.51109989000E-03 0. -1.
     -623   -1    0    0    0    0  0.00000000000E+00  0.00000000000E+00  0.12525980253E-10  0.17130000000E+03  0.17130000000E+03 0. -1.
       11    1    1    2    0    0  0.21678509355E-02 -0.31813756992E-02  0.75832289136E-01  0.75931666831E-01  0.51109989000E-03 0. -1.
     -623    1    1    2    0    0  0.59199663846E-02 -0.18519587605E-02  0.82782051951E-03  0.17130000011E+03  0.17130000000E+03 0. -1.
      622    1    1    2    0    0 -0.80878173205E-02  0.50333344598E-02  0.39233398580E+01  0.39240682191E+01  0.75000000000E-01 0. -1.
</event>
<event>
 5   0  0.5237200E+07  0.9118800E+02  0.7818608E-02  0.1180000E+00
       11   -1    0    0    0    0  0.00000000000E+00  0.00000000000E+00  0.39999999673E+01  0.40000000000E+01  0.51109989000E-03 0. -1.
     -623   -1    0    0    0    0  0.00000000000E+00  0.00000000000E+00  0.12525980253E-10  0.17130000000E+03  0.17130000000E+03 0.  1.
       11    1    1    2    0    0  0.22902411694E-03  0.76433208710E-02  0.60037802617E-01  0.60524968160E-01  0.51109989000E-03 0. -1.
     -623    1    1    2    0    0  0.10171576474E-01 -0.92869541965E-02  0.12157581241E-02  0.17130000056E+03  0.17130000000E+03 0.  1.
      622    1    1    2    0    0 -0.10400600591E-01  0.16436333255E-02  0.39387464066E+01  0.39394744738E+01  0.75000000000E-01 0. -1.
</event>
<event>
 5   0  0.5237200E+07  0.9118800E+02  0.7818608E-02  0.1180000E+00
       11   -1    0    0    0    0  0.00000000000E+00  0.00000000000E+00  0.39999999673E+01  0.40000000000E+01  0.51109989000E-03 0.  1.
     -623   -1    0    0    0    0  0.00000000000E+00  0.00000000000E+00  0.12525980253E-10  0.17130000000E+03  0.17130000000E+03 0.  1.
       11    1    1    2    0    0  0.12362451869E-02 -0.20388670745E-01  0.61728409898E+00  0.61762217113E+00  0.51109989000E-03 0.  1.
     -623    1    1    2    0    0 -0.14393597555E-01 -0.11862482350E-01  0.13500764041E-02  0.17130000102E+03  0.17130000000E+03 0.  1.
      622    1    1    2    0    0  0.13157352370E-01  0.32251153096E-01  0.33813657923E+01  0.33823768085E+01  0.75000000000E-01 0.  1.
</event>
<event>
 5   0  0.5237200E+07  0.9118800E+02  0.7818608E-02  0.1180000E+00
       11   -1    0    0    0    0  0.00000000000E+00  0.00000000000E+00  0.39999999673E+01  0.40000000000E+01  0.51109989000E-03 0. -1.
     -623   -1    0    0    0    0  0.00000000000E+00  0.00000000000E+00  0.12525980253E-10  0.17130000000E+03  0.17130000000E+03 0.  1.
       11    1    1    2    0    0  0.14886634101E-02  0.12692302636E-01  0.65004967488E-01  0.66251171186E-01  0.51109989000E-03 0. -1.
     -623    1    1    2    0    0  0.20055533396E-02 -0.19480264529E-02  0.19774649679E-02  0.17130000003E+03  0.17130000000E+03 0.  1.
      622    1    1    2    0    0 -0.34942167497E-02 -0.10744276183E-01  0.39330175349E+01  0.39337487946E+01  0.75000000000E-01 0. -1.
</event>
<event>
 5   0  0.5237200E+07  0.9118800E+02  0.7818608E-02  0.1180000E+00
       11   -1    0    0    0    0  0.00000000000E+00  0.00000000000E+00  0.39999999673E+01  0.40000000000E+01  0.51109989000E-03 0. -1.
     -623   -1    0    0    0    0  0.00000000000E+00  0.00000000000E+00  0.12525980253E-10  0.17130000000E+03  0.17130000000E+03 0. -1.
       11    1    1    2    0    0 -0.71998422940E-03 -0.88482459358E-02 -0.16744110766E-02  0.90484644544E-02  0.51109989000E-03 0. -1.
     -623    1    1    2    0    0 -0.10858752556E-01  0.15880401421E-01  0.11452083552E-01  0.17130000146E+03  0.17130000000E+03 0. -1.
      622    1    1    2    0    0  0.11578736786E-01 -0.70321554852E-02  0.39902222949E+01  0.39909500725E+01  0.75000000000E-01 0. -1.
</event>
<event>
 5   0  0.5237200E+07  0.9118800E+02  0.7818608E-02  0.1180000E+00
       11   -1    0    0    0    0  0.00000000000E+00  0.00000000000E+00  0.39999999673E+01  0.40000000000E+01  0.51109989000E-03 0. -1.
     -623   -1    0    0    0    0  0.00000000000E+00  0.00000000000E+00  0.12525980253E-10  0.17130000000E+03  0.17130000000E+03 0. -1.
       11    1    1    2    0    0  0.34796758278E-02 -0.10580670359E-01  0.68465194793E-01  0.69367159731E-01  0.51109989000E-03 0. -1.
     -623    1    1    2    0    0  0.19219808845E-02  0.54044849270E-02  0.16247559564E-02  0.17130000010E+03  0.17130000000E+03 0. -1.
      622    1    1    2    0    0 -0.54016567123E-02  0.51761854317E-02  0.39299100166E+01  0.39306327365E+01  0.75000000000E-01 0. -1.
</event>
<event>
 5   0  0.5237200E+07  0.9118800E+02  0.7818608E-02  0.1180000E+00
       11   -1    0    0    0    0  0.00000000000E+00  0.00000000000E+00  0.39999999673E+01  0.40000000000E+01  0.51109989000E-03 0. -1.
     -623   -1    0    0    0    0  0.00000000000E+00  0.00000000000E+00  0.12525980253E-10  0.17130000000E+03  0.17130000000E+03 0.  1.
       11    1    1    2    0    0  0.65065157601E-01  0.57166956739E-02  0.11375279781E+01  0.11394017366E+01  0.51109989000E-03 0. -1.
     -623    1    1    2    0    0  0.11634967885E-01 -0.25885150237E-01  0.39594325813E-02  0.17130000240E+03  0.17130000000E+03 0.  1.
      622    1    1    2    0    0 -0.76700125486E-01  0.20168454563E-01  0.28585125567E+01  0.28605958667E+01  0.75000000000E-01 0. -1.
</event>
<event>
 5   0  0.5237200E+07  0.9118800E+02  0.7818608E-02  0.1180000E+00
       11   -1    0    0    0    0  0.00000000000E+00  0.00000000000E+00  0.39999999673E+01  0.40000000000E+01  0.51109989000E-03 0. -1.
     -623   -1    0    0    0    0  0.00000000000E+00  0.00000000000E+00  0.12525980253E-10  0.17130000000E+03  0.17130000000E+03 0. -1.
       11    1    1    2    0    0 -0.12870086677E-02  0.22760765116E-02  0.19544031848E-02  0.33042138982E-02  0.51109989000E-03 0. -1.
     -623    1    1    2    0    0  0.27134021387E-02 -0.38471406511E-02  0.20541867755E-02  0.17130000008E+03  0.17130000000E+03 0. -1.
      622    1    1    2    0    0 -0.14263934710E-02  0.15710641395E-02  0.39959913774E+01  0.39966957091E+01  0.75000000000E-01 0. -1.
</event>
<event>
 5   0  0.5237200E+07  0.9118800E+02  0.7818608E-02  0.1180000E+00
       11   -1    0    0    0    0  0.00000000000E+00  0.00000000000E+00  0.39999999673E+01  0.40000000000E+01  0.51109989000E-03 0.  1.
     -623   -1    0    0    0    0  0.00000000000E+00  0.00000000000E+00  0.12525980253E-10  0.17130000000E+03  0.17130000000E+03 0.  1.
       11    1    1    2    0    0  0.50366794118E-03  0.95839263413E-03  0.19880016022E-02  0.23206828798E-02  0.51109989000E-03 0.  1.
     -623    1    1    2    0    0 -0.73518500969E-04 -0.28199676739E-02  0.10367267491E-02  0.17130000003E+03  0.17130000000E+03 0.  1.
      622    1    1    2    0    0 -0.43014944021E-03  0.18615750398E-02  0.39969752390E+01  0.39976792908E+01  0.75000000000E-01 0.  1.
</event>
<event>
 5   0  0.5237200E+07  0.9118800E+02  0.7818608E-02  0.1180000E+00
       11   -1    0    0    0    0  0.00000000000E+00  0.00000000000E+00  0.39999999673E+01  0.40000000000E+01  0.51109989000E-03 0. -1.
     -623   -1    0    0    0    0  0.00000000000E+00  0.00000000000E+00  0.12525980253E-10  0.17130000000E+03  0.17130000000E+03 0.  1.
       11    1    1    2    0    0 -0.76329449914E-03 -0.16870213152E-01  0.16580055310E+00  0.16665914719E+00  0.51109989000E-03 0. -1.
     -623    1    1    2    0    0 -0.53581466408E-02  0.31772604931E-02  0.16217963101E-02  0.17130000012E+03  0.17130000000E+03 0.  1.
      622    1    1    2    0    0  0.61214411400E-02  0.13692952659E-01  0.38325776181E+01  0.38333407320E+01  0.75000000000E-01 0. -1.
</event>
<event>
 5   0  0.5237200E+07  0.9118800E+02  0.7818608E-02  0.1180000E+00
       11   -1    0    0    0    0  0.00000000000E+00  0.00000000000E+00  0.39999999673E+01  0.40000000000E+01  0.51109989000E-03 0.  1.
     -623   -1    0    0    0    0  0.00000000000E+00  0.00000000000E+00  0.12525980253E-10  0.17130000000E+03  0.17130000000E+03 0.  1.
       11    1    1    2    0    0 -0.39532686273E-02  0.82097295686E-03  0.30468248019E-01  0.30738862859E-01  0.51109989000E-03 0.  1.
     -623    1    1    2    0    0  0.42474078070E-02 -0.11940772698E-01  0.99527708044E-03  0.17130000047E+03  0.17130000000E+03 0.  1.
      622    1    1    2    0    0 -0.29413917956E-03  0.11119799741E-01  0.39685364421E+01  0.39692606652E+01  0.75000000000E-01 0.  1.
</event>
<event>
 5   0  0.5237200E+07  0.9118800E+02  0.7818608E-02  0.1180000E+00
       11   -1    0    0    0    0  0.00000000000E+00  0.00000000000E+00  0.39999999673E+01  0.40000000000E+01  0.51109989000E-03 0. -1.
     -623   -1    0    0    0    0  0.00000000000E+00  0.00000000000E+00  0.12525980253E-10  0.17130000000E+03  0.17130000000E+03 0.  1.
       11    1    1    2    0    0  0.87462734777E-03  0.20006636187E-02  0.32753978660E-02  0.39695189626E-02  0.51109989000E-03 0. -1.
     -623    1    1    2    0    0  0.37566899984E-03 -0.78292451698E-02  0.14026061633E-02  0.17130000019E+03  0.17130000000E+03 0.  1.
      622    1    1    2    0    0 -0.12502963476E-02  0.58285815511E-02  0.39953219633E+01  0.39960302960E+01  0.75000000000E-01 0. -1.
</event>
<event>
 5   0  0.5237200E+07  0.9118800E+02  0.7818608E-02  0.1180000E+00
       11   -1    0    0    0    0  0.00000000000E+00  0.00000000000E+00  0.39999999673E+01  0.40000000000E+01  0.51109989000E-03 0.  1.
     -623   -1    0    0    0    0  0.00000000000E+00  0.00000000000E+00  0.12525980253E-10  0.17130000000E+03  0.17130000000E+03 0.  1.
       11    1    1    2    0    0  0.27058652595E-01  0.10106904902E-02  0.91554344510E+00  0.91594391382E+00  0.51109989000E-03 0.  1.
     -623    1    1    2    0    0 -0.29256474212E-02 -0.31498009597E-02  0.14077719847E-02  0.17130000006E+03  0.17130000000E+03 0.  1.
      622    1    1    2    0    0 -0.24133005174E-01  0.21391104694E-02  0.30830487503E+01  0.30840560265E+01  0.75000000000E-01 0.  1.
</event>
<event>
 5   0  0.5237200E+07  0.9118800E+02  0.7818608E-02  0.1180000E+00
       11   -1    0    0    0    0  0.00000000000E+00  0.00000000000E+00  0.39999999673E+01  0.40000000000E+01  0.51109989000E-03 0.  1.
     -623   -1    0    0    0    0  0.00000000000E+00  0.00000000000E+00  0.12525980253E-10  0.17130000000E+03  0.17130000000E+03 0. -1.
       11    1    1    2    0    0  0.38299182213E-02 -0.61833757610E-02  0.17167918232E+00  0.17183394681E+00  0.51109989000E-03 0.  1.
     -623    1    1    2    0    0 -0.11152589854E-03 -0.14703825286E-02  0.89895595743E-03  0.17130000001E+03  0.17130000000E+03 0. -1.
      622    1    1    2    0    0 -0.37183923228E-02  0.76537582896E-02  0.38274218291E+01  0.38281660445E+01  0.75000000000E-01 0.  0.
</event>
<event>
 5   0  0.5237200E+07  0.9118800E+02  0.7818608E-02  0.1180000E+00
       11   -1    0    0    0    0  0.00000000000E+00  0.00000000000E+00  0.39999999673E+01  0.40000000000E+01  0.51109989000E-03 0. -1.
     -623   -1    0    0    0    0  0.00000000000E+00  0.00000000000E+00  0.12525980253E-10  0.17130000000E+03  0.17130000000E+03 0. -1.
       11    1    1    2    0    0  0.30505826453E-01 -0.21245709889E-01  0.53868318017E+00  0.53996464279E+00  0.51109989000E-03 0. -1.
     -623    1    1    2    0    0 -0.37782767065E-02 -0.28677506132E-02  0.22817638534E-02  0.17130000008E+03  0.17130000000E+03 0. -1.
      622    1    1    2    0    0 -0.26727549747E-01  0.24113460502E-01  0.34590350235E+01  0.34600352766E+01  0.75000000000E-01 0. -1.
</event>
<event>
 5   0  0.5237200E+07  0.9118800E+02  0.7818608E-02  0.1180000E+00
       11   -1    0    0    0    0  0.00000000000E+00  0.00000000000E+00  0.39999999673E+01  0.40000000000E+01  0.51109989000E-03 0. -1.
     -623   -1    0    0    0    0  0.00000000000E+00  0.00000000000E+00  0.12525980253E-10  0.17130000000E+03  0.17130000000E+03 0. -1.
       11    1    1    2    0    0  0.28003262430E-02  0.63932686686E-02  0.63939365334E-01  0.64321220225E-01  0.51109989000E-03 0. -1.
     -623    1    1    2    0    0  0.21224705990E-02  0.96473726187E-03  0.11064815332E-02  0.17130000002E+03  0.17130000000E+03 0. -1.
      622    1    1    2    0    0 -0.49227968419E-02 -0.73580059305E-02  0.39349541205E+01  0.39356787603E+01  0.75000000000E-01 0. -1.
</event>
<event>
 5   0  0.5237200E+07  0.9118800E+02  0.7818608E-02  0.1180000E+00
       11   -1    0    0    0    0  0.00000000000E+00  0.00000000000E+00  0.39999999673E+01  0.40000000000E+01  0.51109989000E-03 0. -1.
     -623   -1    0    0    0    0  0.00000000000E+00  0.00000000000E+00  0.12525980253E-10  0.17130000000E+03  0.17130000000E+03 0.  1.
       11    1    1    2    0    0 -0.11814168138E-02 -0.36908225884E-02  0.13368377864E+00  0.13374091300E+00  0.51109989000E-03 0. -1.
     -623    1    1    2    0    0  0.10329626383E-02 -0.17253087503E-03  0.78655598317E-03  0.17130000001E+03  0.17130000000E+03 0.  1.
      622    1    1    2    0    0  0.14845417545E-03  0.38633534634E-02  0.38655296327E+01  0.38662590820E+01  0.75000000000E-01 0. -1.
</event>
<event>
 5   0  0.5237200E+07  0.9118800E+02  0.7818608E-02  0.1180000E+00
       11   -1    0    0    0    0  0.00000000000E+00  0.00000000000E+00  0.39999999673E+01  0.40000000000E+01  0.51109989000E-03 0. -1.
     -623   -1    0    0    0    0  0.00000000000E+00  0.00000000000E+00  0.12525980253E-10  0.17130000000E+03  0.17130000000E+03 0. -1.
       11    1    1    2    0    0 -0.30096306767E-02  0.15673493512E-02  0.54759731071E-01  0.54867147100E-01  0.51109989000E-03 0. -1.
     -623    1    1    2    0    0  0.29195482192E-03  0.80472783304E-03  0.82200515737E-03  0.17130000000E+03  0.17130000000E+03 0. -1.
      622    1    1    2    0    0  0.27176758548E-02 -0.23720771843E-02  0.39444182314E+01  0.39451328491E+01  0.75000000000E-01 0. -1.
</event>
<event>
 5   0  0.5237200E+07  0.9118800E+02  0.7818608E-02  0.1180000E+00
       11   -1    0    0    0    0  0.00000000000E+00  0.00000000000E+00  0.39999999673E+01  0.40000000000E+01  0.51109989000E-03 0.  1.
     -623   -1    0    0    0    0  0.00000000000E+00  0.00000000000E+00  0.12525980253E-10  0.17130000000E+03  0.17130000000E+03 0. -1.
       11    1    1    2    0    0 -0.23521772653E-03  0.22020605639E-03  0.47649018157E-01  0.47652848496E-01  0.51109989000E-03 0.  1.
     -623    1    1    2    0    0 -0.54247483799E-03  0.83247391325E-03  0.71568535820E-03  0.17130000000E+03  0.17130000000E+03 0. -1.
      622    1    1    2    0    0  0.77769256453E-03 -0.10526799696E-02  0.39516352638E+01  0.39523471471E+01  0.75000000000E-01 0.  1.
</event>
<event>
 5   0  0.5237200E+07  0.9118800E+02  0.7818608E-02  0.1180000E+00
       11   -1    0    0    0    0  0.00000000000E+00  0.00000000000E+00  0.39999999673E+01  0.40000000000E+01  0.51109989000E-03 0. -1.
     -623   -1    0    0    0    0  0.00000000000E+00  0.00000000000E+00  0.12525980253E-10  0.17130000000E+03  0.17130000000E+03 0.  1.
       11    1    1    2    0    0  0.28939169623E-02 -0.59920429381E-03  0.16053270399E-01  0.16331029201E-01  0.51109989000E-03 0. -1.
     -623    1    1    2    0    0 -0.50913236853E-02  0.84549669050E-04  0.98451412335E-03  0.17130000008E+03  0.17130000000E+03 0.  1.
      622    1    1    2    0    0  0.21974067235E-02  0.51465462475E-03  0.39829621832E+01  0.39836688927E+01  0.75000000000E-01 0. -1.
</event>
<event>
 5   0  0.5237200E+07  0.9118800E+02  0.7818608E-02  0.1180000E+00
       11   -1    0    0    0    0  0.00000000000E+00  0.00000000000E+00  0.39999999673E+01  0.40000000000E+01  0.51109989000E-03 0.  1.
     -623   -1    0    0    0    0  0.00000000000E+00  0.00000000000E+00  0.12525980253E-10  0.17130000000E+03  0.17130000000E+03 0. -1.
       11    1    1    2    0    0  0.60932889512E-02 -0.90224083291E-02  0.12829362240E+00  0.12875576412E+00  0.51109989000E-03 0.  1.
     -623    1    1    2    0    0  0.24905194631E-02  0.16014045592E-01  0.12052920576E-02  0.17130000077E+03  0.17130000000E+03 0. -1.
      622    1    1    2    0    0 -0.85838084144E-02 -0.69916372639E-02  0.38705010530E+01  0.38712434651E+01  0.75000000000E-01 0.  1.
</event>
<event>
 5   0  0.5237200E+07  0.9118800E+02  0.7818608E-02  0.1180000E+00
       11   -1    0    0    0    0  0.00000000000E+00  0.00000000000E+00  0.39999999673E+01  0.40000000000E+01  0.51109989000E-03 0.  1.
     -623   -1    0    0    0    0  0.00000000000E+00  0.00000000000E+00  0.12525980253E-10  0.17130000000E+03  0.17130000000E+03 0. -1.
       11    1    1    2    0    0  0.14571277826E-02 -0.74523667584E-02  0.36429385487E+00  0.36437334550E+00  0.51109989000E-03 0.  1.
     -623    1    1    2    0    0  0.97394131492E-02 -0.14408168336E-01  0.93700185806E-03  0.17130000089E+03  0.17130000000E+03 0. -1.
      622    1    1    2    0    0 -0.11196540932E-01  0.21860535095E-01  0.36347691107E+01  0.36356257692E+01  0.75000000000E-01 0.  0.
</event>
<event>
 5   0  0.5237200E+07  0.9118800E+02  0.7818608E-02  0.1180000E+00
       11   -1    0    0    0    0  0.00000000000E+00  0.00000000000E+00  0.39999999673E+01  0.40000000000E+01  0.51109989000E-03 0. -1.
     -623   -1    0    0    0    0  0.00000000000E+00  0.00000000000E+00  0.12525980253E-10  0.17130000000E+03  0.17130000000E+03 0. -1.
       11    1    1    2    0    0  0.71870552925E-03 -0.29486807203E-02  0.54693749552E-02  0.62758695938E-02  0.51109989000E-03 0. -1.
     -623    1    1    2    0    0 -0.42730647010E-02  0.34972877194E-02  0.15124693350E-02  0.17130000010E+03  0.17130000000E+03 0. -1.
      622    1    1    2    0    0  0.35543591717E-02 -0.54860699912E-03  0.39930181231E+01  0.39937240347E+01  0.75000000000E-01 0. -1.
</event>
<event>
 5   0  0.5237200E+07  0.9118800E+02  0.7818608E-02  0.1180000E+00
       11   -1    0    0    0    0  0.00000000000E+00  0.00000000000E+00  0.39999999673E+01  0.40000000000E+01  0.51109989000E-03 0.  1.
     -623   -1    0    0    0    0  0.00000000000E+00  0.00000000000E+00  0.12525980253E-10  0.17130000000E+03  0.17130000000E+03 0.  1.
       11    1    1    2    0    0 -0.64900765981E-03  0.91266963329E-03  0.46957599438E-03  0.13175361529E-02  0.51109989000E-03 0.  1.
     -623    1    1    2    0    0 -0.36906127645E-02 -0.41741111608E-02  0.15551292787E-02  0.17130000010E+03  0.17130000000E+03 0.  1.
      622    1    1    2    0    0  0.43396204243E-02  0.32614415276E-02  0.39979752621E+01  0.39986823662E+01  0.75000000000E-01 0.  1.
</event>
<event>
 5   0  0.5237200E+07  0.9118800E+02  0.7818608E-02  0.1180000E+00
       11   -1    0    0    0    0  0.00000000000E+00  0.00000000000E+00  0.39999999673E+01  0.40000000000E+01  0.51109989000E-03 0.  1.
     -623   -1    0    0    0    0  0.00000000000E+00  0.00000000000E+00  0.12525980253E-10  0.17130000000E+03  0.17130000000E+03 0. -1.
       11    1    1    2    0    0 -0.56132906278E-02 -0.82935642632E-02  0.14069765958E+00  0.14105454574E+00  0.51109989000E-03 0.  1.
     -623    1    1    2    0    0  0.31156544232E-01  0.16913144209E-01  0.11836055713E-02  0.17130000367E+03  0.17130000000E+03 0. -1.
      622    1    1    2    0    0 -0.25543253604E-01 -0.86195799465E-02  0.38581187023E+01  0.38589417819E+01  0.75000000000E-01 0.  1.
</event>
<event>
 5   0  0.5237200E+07  0.9118800E+02  0.7818608E-02  0.1180000E+00
       11   -1    0    0    0    0  0.00000000000E+00  0.00000000000E+00  0.39999999673E+01  0.40000000000E+01  0.51109989000E-03 0.  1.
     -623   -1    0    0    0    0  0.00000000000E+00  0.00000000000E+00  0.12525980253E-10  0.17130000000E+03  0.17130000000E+03 0.  1.
       11    1    1    2    0    0  0.77198211084E-02  0.11797648589E-01  0.65768807454E-01  0.67264979046E-01  0.51109989000E-03 0.  1.
     -623    1    1    2    0    0 -0.15948340792E-01 -0.31154375319E-01  0.22712017267E-02  0.17130000359E+03  0.17130000000E+03 0.  1.
      622    1    1    2    0    0  0.82285196832E-02  0.19356726730E-01  0.39319599582E+01  0.39327314305E+01  0.75000000000E-01 0.  1.
</event>
<event>
 5   0  0.5237200E+07  0.9118800E+02  0.7818608E-02  0.1180000E+00
       11   -1    0    0    0    0  0.00000000000E+00  0.00000000000E+00  0.39999999673E+01  0.40000000000E+01  0.51109989000E-03 0. -1.
     -623   -1    0    0    0    0  0.00000000000E+00  0.00000000000E+00  0.12525980253E-10  0.17130000000E+03  0.17130000000E+03 0.  1.
       11    1    1    2    0    0 -0.78797912645E-02 -0.57550852460E-02  0.17654018590E+00  0.17681038028E+00  0.51109989000E-03 0. -1.
     -623    1    1    2    0    0  0.10462173262E-01 -0.78850325181E-02  0.10315882236E-02  0.17130000050E+03  0.17130000000E+03 0.  1.
      622    1    1    2    0    0 -0.25823819973E-02  0.13640117764E-01  0.38224281933E+01  0.38231891157E+01  0.75000000000E-01 0. -1.
</event>
<event>
 5   0  0.5237200E+07  0.9118800E+02  0.7818608E-02  0.1180000E+00
       11   -1    0    0    0    0  0.00000000000E+00  0.00000000000E+00  0.39999999673E+01  0.40000000000E+01  0.51109989000E-03 0. -1.
     -623   -1    0    0    0    0  0.00000000000E+00  0.00000000000E+00  0.12525980253E-10  0.17130000000E+03  0.17130000000E+03 0.  1.
       11    1    1    2    0    0  0.54917989386E-02 -0.58602509672E-02  0.16943921709E+00  0.16963022109E+00  0.51109989000E-03 0. -1.
     -623    1    1    2    0    0 -0.19919674637E-02  0.45693617251E-02  0.92719689556E-03  0.17130000008E+03  0.17130000000E+03 0.  1.
      622    1    1    2    0    0 -0.34998314747E-02  0.12908892419E-02  0.38296335536E+01  0.38303697041E+01  0.75000000000E-01 0. -1.
</event>
<event>
 5   0  0.5237200E+07  0.9118800E+02  0.7818608E-02  0.1180000E+00
       11   -1    0    0    0    0  0.00000000000E+00  0.00000000000E+00  0.39999999673E+01  0.40000000000E+01  0.51109989000E-03 0. -1.
     -623   -1    0    0    0    0  0.00000000000E+00  0.00000000000E+00  0.12525980253E-10  0.17130000000E+03  0.17130000000E+03 0.  1.
       11    1    1    2    0    0 -0.74093442815E-02  0.10839493752E-01  0.41056245873E-01  0.43107650764E-01  0.51109989000E-03 0. -1.
     -623    1    1    2    0    0 -0.64715388138E-03 -0.27726924891E-02  0.27786949252E-02  0.17130000005E+03  0.17130000000E+03 0.  1.
      622    1    1    2    0    0  0.80564981629E-02 -0.80668012629E-02  0.39561650266E+01  0.39568923030E+01  0.75000000000E-01 0. -1.
</event>
<event>
 5   0  0.5237200E+07  0.9118800E+02  0.7818608E-02  0.1180000E+00
       11   -1    0    0    0    0  0.00000000000E+00  0.00000000000E+00  0.39999999673E+01  0.40000000000E+01  0.51109989000E-03 0.  1.
     -623   -1    0    0    0    0  0.00000000000E+00  0.00000000000E+00  0.12525980253E-10  0.17130000000E+03  0.17130000000E+03 0.  1.
       11    1    1    2    0    0  0.93429960933E-02  0.16852730697E-01  0.10415190222E+01  0.10416973845E+01  0.51109989000E-03 0.  1.
     -623    1    1    2    0    0 -0.28492470619E-02 -0.25959928494E-01  0.11523443153E-02  0.17130000199E+03  0.17130000000E+03 0.  1.
      622    1    1    2    0    0 -0.64937490312E-02  0.91071977992E-02  0.29573286011E+01  0.29583006211E+01  0.75000000000E-01 0.  1.
</event>
<event>
 5   0  0.5237200E+07  0.9118800E+02  0.7818608E-02  0.1180000E+00
       11   -1    0    0    0    0  0.00000000000E+00  0.00000000000E+00  0.39999999673E+01  0.40000000000E+01  0.51109989000E-03 0.  1.
     -623   -1    0    0    0    0  0.00000000000E+00  0.00000000000E+00  0.12525980253E-10  0.17130000000E+03  0.17130000000E+03 0.  1.
       11    1    1    2    0    0  0.45020034843E-02 -0.17296211724E-03  0.48890618326E-01  0.49100424980E-01  0.51109989000E-03 0.  1.
     -623    1    1    2    0    0  0.13101983895E-02  0.14671809250E-02  0.92620313110E-03  0.17130000001E+03  0.17130000000E+03 0.  1.
      622    1    1    2    0    0 -0.58122018737E-02 -0.12942188078E-02  0.39501831459E+01  0.39508995612E+01  0.75000000000E-01 0.  1.
</event>
<event>
 5   0  0.5237200E+07  0.9118800E+02  0.7818608E-02  0.1180000E+00
       11   -1    0    0    0    0  0.00000000000E+00  0.00000000000E+00  0.39999999673E+01  0.40000000000E+01  0.51109989000E-03 0. -1.
     -623   -1    0    0    0    0  0.00000000000E+00  0.00000000000E+00  0.12525980253E-10  0.17130000000E+03  0.17130000000E+03 0.  1.
       11    1    1    2    0    0  0.90074918721E-02  0.73602408476E-02  0.26201021580E-01  0.28671637730E-01  0.51109989000E-03 0. -1.
     -623    1    1    2    0    0 -0.21799773599E-01  0.79142039066E-02  0.32304350580E-02  0.17130000160E+03  0.17130000000E+03 0.  1.
      622    1    1    2    0    0  0.12792281728E-01 -0.15274444754E-01  0.39705685109E+01  0.39713267620E+01  0.75000000000E-01 0. -1.
</event>
<event>
 5   0  0.5237200E+07  0.9118800E+02  0.7818608E-02  0.1180000E+00
       11   -1    0    0    0    0  0.00000000000E+00  0.00000000000E+00  0.39999999673E+01  0.40000000000E+01  0.51109989000E-03 0.  1.
     -623   -1    0    0    0    0  0.00000000000E+00  0.00000000000E+00  0.12525980253E-10  0.17130000000E+03  0.17130000000E+03 0.  1.
       11    1    1    2    0    0 -0.20197600838E-02 -0.10345645938E-01  0.12464379114E+00  0.12508975862E+00  0.51109989000E-03 0.  1.
     -623    1    1    2    0    0 -0.42182532300E-02  0.14791815816E-02  0.11870565410E-02  0.17130000006E+03  0.17130000000E+03 0.  1.
      622    1    1    2    0    0  0.62380133138E-02  0.88664643566E-02  0.38741691197E+01  0.38749101789E+01  0.75000000000E-01 0.  1.
</event>
<event>
 5   0  0.5237200E+07  0.9118800E+02  0.7818608E-02  0.1180000E+00
       11   -1    0    0    0    0  0.00000000000E+00  0.00000000000E+00  0.39999999673E+01  0.40000000000E+01  0.51109989000E-03 0. -1.
     -623   -1    0    0    0    0  0.00000000000E+00  0.00000000000E+00  0.12525980253E-10  0.17130000000E+03  0.17130000000E+03 0.  1.
       11    1    1    2    0    0 -0.81359859575E-02 -0.18947728836E-02  0.62562655266E-01  0.63119976939E-01  0.51109989000E-03 0. -1.
     -623    1    1    2    0    0  0.46711503776E-02 -0.21905867008E-01  0.13467048030E-02  0.17130000147E+03  0.17130000000E+03 0.  1.
      622    1    1    2    0    0  0.34648355796E-02  0.23800639893E-01  0.39360906075E+01  0.39368785537E+01  0.75000000000E-01 0. -1.
</event>
<event>
 5   0  0.5237200E+07  0.9118800E+02  0.7818608E-02  0.1180000E+00
       11   -1    0    0    0    0  0.00000000000E+00  0.00000000000E+00  0.39999999673E+01  0.40000000000E+01  0.51109989000E-03 0.  1.
     -623   -1    0    0    0    0  0.00000000000E+00  0.00000000000E+00  0.12525980253E-10  0.17130000000E+03  0.17130000000E+03 0. -1.
       11    1    1    2    0    0  0.19118830556E-01  0.78941282743E-02  0.56606828364E-01  0.60269736871E-01  0.51109989000E-03 0.  1.
     -623    1    1    2    0    0  0.85016439699E-03  0.12407785460E-02  0.44380955998E-02  0.17130000006E+03  0.17130000000E+03 0. -1.
      622    1    1    2    0    0 -0.19968994953E-01 -0.91349068203E-02  0.39389550434E+01  0.39397301990E+01  0.75000000000E-01 0.  1.
</event>
<event>
 5   0  0.5237200E+07  0.9118800E+02  0.7818608E-02  0.1180000E+00
       11   -1    0    0    0    0  0.00000000000E+00  0.00000000000E+00  0.39999999673E+01  0.40000000000E+01  0.51109989000E-03 0. -1.
     -623   -1    0    0    0    0  0.00000000000E+00  0.00000000000E+00  0.12525980253E-10  0.17130000000E+03  0.17130000000E+03 0. -1.
       11    1    1    2    0    0 -0.44890235164E-02 -0.28745406239E-02  0.24578153173E-01  0.25154744079E-01  0.51109989000E-03 0. -1.
     -623    1    1    2    0    0  0.21227544859E-02  0.96234079683E-02  0.12909192714E-02  0.17130000029E+03  0.17130000000E+03 0. -1.
      622    1    1    2    0    0  0.23662690305E-02 -0.67488673444E-02  0.39741308949E+01  0.39748449676E+01  0.75000000000E-01 0. -1.
</event>
<event>
 5   0  0.5237200E+07  0.9118800E+02  0.7818608E-02  0.1180000E+00
       11   -1    0    0    0    0  0.00000000000E+00  0.00000000000E+00  0.39999999673E+01  0.40000000000E+01  0.51109989000E-03 0. -1.
     -623   -1    0    0    0    0  0.00000000000E+00  0.00000000000E+00  0.12525980253E-10  0.17130000000E+03  0.17130000000E+03 0.  1.
       11    1    1    2    0    0 -0.26152840872E-01  0.36969786800E-02  0.60511004546E+00  0.60568644287E+00  0.51109989000E-03 0. -1.
     -623    1    1    2    0    0  0.19519186633E-02  0.99251234437E-03  0.14946150016E-02  0.17130000002E+03  0.17130000000E+03 0.  1.
      622    1    1    2    0    0  0.24200922208E-01 -0.46894910244E-02  0.33933953069E+01  0.33943135366E+01  0.75000000000E-01 0. -1.
</event>
<event>
 5   0  0.5237200E+07  0.9118800E+02  0.7818608E-02  0.1180000E+00
       11   -1    0    0    0    0  0.00000000000E+00  0.00000000000E+00  0.39999999673E+01  0.40000000000E+01  0.51109989000E-03 0. -1.
     -623   -1    0    0    0    0  0.00000000000E+00  0.00000000000E+00  0.12525980253E-10  0.17130000000E+03  0.17130000000E+03 0.  1.
       11    1    1    2    0    0  0.15883406471E-01 -0.95627692176E-02  0.32668653595E+00  0.32721259626E+00  0.51109989000E-03 0. -1.
     -623    1    1    2    0    0  0.86055699300E-02  0.25168249434E-02  0.13805353316E-02  0.17130000024E+03  0.17130000000E+03 0.  1.
      622    1    1    2    0    0 -0.24488976401E-01  0.70459442742E-02  0.36719328962E+01  0.36727871637E+01  0.75000000000E-01 0. -1.
</event>
<event>
 5   0  0.5237200E+07  0.9118800E+02  0.7818608E-02  0.1180000E+00
       11   -1    0    0    0    0  0.00000000000E+00  0.00000000000E+00  0.39999999673E+01  0.40000000000E+01  0.51109989000E-03 0.  1.
     -623   -1    0    0    0    0  0.00000000000E+00  0.00000000000E+00  0.12525980253E-10  0.17130000000E+03  0.17130000000E+03 0.  1.
       11    1    1    2    0    0  0.26854357207E-01 -0.36594055985E-02  0.34614007794E+00  0.34719988843E+00  0.51109989000E-03 0.  1.
     -623    1    1    2    0    0 -0.13839353272E-02  0.27283275289E-02  0.19187935552E-02  0.17130000004E+03  0.17130000000E+03 0.  1.
      622    1    1    2    0    0 -0.25470421879E-01  0.93107806955E-03  0.36519410959E+01  0.36528000736E+01  0.75000000000E-01 0.  1.
</event>
<event>
 5   0  0.5237200E+07  0.9118800E+02  0.7818608E-02  0.1180000E+00
       11   -1    0    0    0    0  0.00000000000E+00  0.00000000000E+00  0.39999999673E+01  0.40000000000E+01  0.51109989000E-03 0. -1.
     -623   -1    0    0    0    0  0.00000000000E+00  0.00000000000E+00  0.12525980253E-10  0.17130000000E+03  0.17130000000E+03 0. -1.
       11    1    1    2    0    0 -0.31595750498E-02 -0.83570204802E-02  0.77762571672E-01  0.78275803930E-01  0.51109989000E-03 0. -1.
     -623    1    1    2    0    0  0.48350881508E-02  0.41673097906E-02  0.12331440445E-02  0.17130000012E+03  0.17130000000E+03 0. -1.
      622    1    1    2    0    0 -0.16755131010E-02  0.41897106896E-02  0.39210042516E+01  0.39217240727E+01  0.75000000000E-01 0. -1.
</event>
<event>
 5   0  0.5237200E+07  0.9118800E+02  0.7818608E-02  0.1180000E+00
       11   -1    0    0    0    0  0.00000000000E+00  0.00000000000E+00  0.39999999673E+01  0.40000000000E+01  0.51109989000E-03 0.  1.
     -623   -1    0    0    0    0  0.00000000000E+00  0.00000000000E+00  0.12525980253E-10  0.17130000000E+03  0.17130000000E+03 0. -1.
       11    1    1    2    0    0  0.55631932881E-02 -0.55305132184E-03  0.93427491434E-01  0.93596006119E-01  0.51109989000E-03 0.  1.
     -623    1    1    2    0    0 -0.99425796764E-02 -0.38512238790E-02  0.89379278324E-03  0.17130000033E+03  0.17130000000E+03 0. -1.
      622    1    1    2    0    0  0.43793863883E-02  0.44042752009E-02  0.39056786831E+01  0.39064036597E+01  0.75000000000E-01 0.  1.
</event>
<event>
 5   0  0.5237200E+07  0.9118800E+02  0.7818608E-02  0.1180000E+00
       11   -1    0    0    0    0  0.00000000000E+00  0.00000000000E+00  0.39999999673E+01  0.40000000000E+01  0.51109989000E-03 0. -1.
     -623   -1    0    0    0    0  0.00000000000E+00  0.00000000000E+00  0.12525980253E-10  0.17130000000E+03  0.17130000000E+03 0.  1.
       11    1    1    2    0    0 -0.15320108274E-02 -0.95243718402E-02  0.11813524974E+01  0.11813919947E+01  0.51109989000E-03 0. -1.
     -623    1    1    2    0    0 -0.37980649224E-02  0.17663123511E-02  0.10532508405E-02  0.17130000005E+03  0.17130000000E+03 0.  1.
      622    1    1    2    0    0  0.53300757498E-02  0.77580594891E-02  0.28175942191E+01  0.28186079509E+01  0.75000000000E-01 0. -1.
</event>
<event>
 5   0  0.5237200E+07  0.9118800E+02  0.7818608E-02  0.1180000E+00
       11   -1    0    0    0    0  0.00000000000E+00  0.00000000000E+00  0.39999999673E+01  0.40000000000E+01  0.51109989000E-03 0.  1.
     -623   -1    0    0    0    0  0.00000000000E+00  0.00000000000E+00  0.12525980253E-10  0.17130000000E+03  0.17130000000E+03 0.  1.
       11    1    1    2    0    0  0.31556440351E-02  0.31860951858E-02  0.12875989250E+00  0.12883897093E+00  0.51109989000E-03 0.  1.
     -623    1    1    2    0    0 -0.14902068743E-02  0.30590387904E-03  0.80758246600E-03  0.17130000001E+03  0.17130000000E+03 0.  1.
      622    1    1    2    0    0 -0.16654371606E-02 -0.34919990648E-02  0.38704324930E+01  0.38711610210E+01  0.75000000000E-01 0.  1.
</event>
</LesHouchesEvents>
