<LesHouchesEvents version="1.0">
<header>
<!--
#*********************************************************************
#                                                                    *
#                       MadGraph/MadEvent                            *
#                                                                    *
#                      The new web generation                        *
#                                                                    *
#                   http://madgraph.hep.uiuc.edu                     *
#                   http://madgraph.phys.ucl.ac.be                   *
#                   http://madgraph.roma2.infn.it                    *
#                                                                    *
#            CP3 team                      Tim Stelzer               *
#      Universite de Louvain          University of Illinois         *
#                                                                    *
#....................................................................*
#                                                                    *
# This file contains all the information necessary to reproduce      *
# the events generated:                                              *
#                                                                    *
# 1. software version                                                *
# 2. proc_card.dat      : code generation info including model       *
# 3. param_card.dat     : model primary parameters in the LH format  *
# 4. run_card.dat       : running parameters (collider and cuts)     *
# 5. pythia_card.dat    : present only in the pythia event file      *
# 6. pgs_card.dat       : present only in the pgs event file         *
#                                                                    *
#                                                                    *
#*********************************************************************
-->
<MGVersion>
# MG/ME version    : 4.4.17
# madgraph version : 4.4.2
# template version : 2.4.8
# helas version    : 3.5
# model version    : usrmod_1.0.4
</MGVersion>
<MGProcCard>
#*********************************************************************
#                        MadGraph/MadEvent                           *
#                   http://madgraph.hep.uiuc.edu                     *
#                                                                    *
#                          proc_card.dat                             *
#                                                                    *
# This file is used to generate the code for a specific process.     *
# Some notation/conventions:                                         *
#                                                                    *
# 0. Do not modify the TAGS and their order.                         *
# 1. hash/pound is a comment.                                        *
# 2. The number after the @ is used as an identifier for the class   *
#    of processes. It can be any positive integer.                   *
# 3. The number of lines for the max couplings depends on how many   *
#    different classes of couplings are present in the model         *
#    In the SM these are just two: QED (which include EW) and QCD    *
# 4. Write "end_coup" after  the couplings list,                     *
#    to tell MG that the couplings input is over.                    *
# 5. Write "done" after the proc list to                             *
#    to tell MG that the proc input is over.                         *
# 6. Some model names available at present are:                      *
#    sm     =  Standard Model                                        *
#    smckm =  Standard Model with Cabibbo matrix                     *
#    mssm   =  Minimal Supersymmetric Standard Model                 *
#    2hdm   =  Generic Two Higgs Doublet model                       *
#    heft   =  Higgs EFT (+Standard Model)                           *
#    usrmod =  User Model                                            *
# 7. Don't leave spaces between the particles name in the            *
#    definition of the multiparticles.                               *
#*********************************************************************
#*********************************************************************
# Process(es) requested : mg2 input                                  *
#*********************************************************************
# Begin PROCESS # This is TAG. Do not modify this line
e- N+ > e- N+ x      # Radiative
QCD=0             # Max QCD couplings
QED=1             # Max QED couplings
QFD=0 
QND=1
QWD=9
QDS=2
end_coup           # End the couplings input
done               # this tells MG there are no more procs
# End PROCESS  # This is TAG. Do not modify this line
#*********************************************************************
# Model information                                                  *
#*********************************************************************
# Begin MODEL  # This is TAG. Do not modify this line
fixedAP2     
# End   MODEL  # This is TAG. Do not modify this line
#*********************************************************************
# Start multiparticle definitions                                    *
#*********************************************************************
# Begin MULTIPARTICLES # This is TAG. Do not modify this line
P uu~cc~dd~ss~gf+f-
J uu~cc~dd~ss~gf+f-
L+ e+mu+
L- e-mu-
vl vevm
vl~ ve~vm~
# End  MULTIPARTICLES # This is TAG. Do not modify this line
</MGProcCard>
<slha>
#*********************************************************************
#                        MadGraph/MadEvent                           *
#                   http://madgraph.hep.uiuc.edu                     *
#                                                                    *
#                         param_card.dat                             *
#                                                                    *
#   Les Houches friendly file for the SM parameters of MadGraph      *
#        Spectrum and decay widths produced by SMCalc                *
#                                                                    *
#  Please note the following IMPORTANT issues:                       *
#                                                                    *
# 0. REFRAIN from editing this file by hand! Some of the parame-     *
#    ters are not independent                                        *
#    (such as G_Fermi, alpha_em, sin(theta_W),MZ,MW) and serious     *
#    problems might be encountered (such as violation of unitarity   *
#    or gauge invariance).  Always use a calculator.                 *
#                                                                    *
# 1. alpha_S(MZ) has been used in the calculation of the parameters  *
#    but, for consistency, it will be reset by madgraph to the       *
#    value expected IF the pdfs for collisions with hadrons are      *
#    used. This value is KEPT by madgraph when no pdf are used       *
#    lpp(i)=0 .                                                      *
#                                                                    *
#  2. Values of the charm and bottom kinematic (pole) masses are     *
#     those used in the matrix elements and phase space UNLESS they  *
#     are set to ZERO from the start in the model (particles.dat)    *
#     This happens, for example,  when using 5-flavor QCD where      *
#     charm and bottom are treated as partons in the initial state   *
#     and a zero mass might be hardwired in the model definition.    *
#                                                                    *
##********************************************************************
Block MODSEL # Select Model
     0   1   #  0 1 = SM
Block SMINPUTS      # Standard Model inputs
     1         1.27900000E+02   # alpha_em(MZ)(-1) SM MSbar
     2         1.16600000E-05   # G_Fermi
     3         1.18000000E-01   # alpha_s(MZ) SM MSbar
     4         9.15445065E+01   # Z mass (as input parameter)
Block MGYUKAWA     # Yukawa masses m/v=y/sqrt(2)
#    PDG          YMASS
     5         4.20000000E+00   # mbottom for the Yukawa  y_b
     4         1.25000000E+00   # mcharm  for the Yukawa  y_c
     6         1.74300000E+02   # mtop    for the Yukawa  y_t
    15         1.77700000E+00   # mtau    for the Yukawa  y_ta
Block MGCKM     # CKM elements for MadGraph
     1   1     9.75000000E-01   # Vud for Cabibbo matrix
#===========================================================
# QUANTUM NUMBERS OF NEW STATE(S) (NON SM PDG CODE) IF ANY
# (see below for masses and decay tables)
# These blocks are automatically created by the MadGraph
# qnumbers.pl script from the particles.dat model file
#===========================================================
BLOCK QNUMBERS 611 # f-
         1  -3 # 3 times electric charge
         2  2 # number of spin states (2S+1)
         3  1 # colour rep (1: singlet, 3: triplet, 8: octet)
         4  1 # Particle/Antiparticle distinction (0=own anti)
BLOCK QNUMBERS 622 # x
         1  0 # 3 times electric charge
         2  3 # number of spin states (2S+1)
         3  1 # colour rep (1: singlet, 3: triplet, 8: octet)
         4  0 # Particle/Antiparticle distinction (0=own anti)
BLOCK QNUMBERS 623 # N-
         1  0 # 3 times electric charge
         2  2 # number of spin states (2S+1)
         3  1 # colour rep (1: singlet, 3: triplet, 8: octet)
         4  1 # Particle/Antiparticle distinction (0=own anti)
# END of QNUMBERS blocks
#===========================================================
Block MASS      #  Mass spectrum (kinematic masses)
#       PDG       Mass
         4     1.40000000E+00   # charm    pole mass
         5     4.20000000E+00   # bottom   pole mass
         6     1.74300000E+02   # top      pole mass
        11     0.51109989E-03   # electron mass
        13     0.10565837E+00   # muon     mass
        15     1.77700000E+00   # tau      mass
        23     9.15445065E+01   # Z        mass
        24     8.02673592E+01   # W        mass
        25     1.20000000E+02   # H        mass
       611 0.01 # FMASS
       622 0.03 # APMASS
       623     1.71300000e+02   # HPMASS (tungsten)
#            PDG       Width
DECAY       611     0.00000000e+00   # ELWIDTH
DECAY 622 0.0009109906575 # APWIDTH
DECAY       623     0.00000000e+00   # HPWIDTH
DECAY         6     1.51013490E+00   # top width
DECAY        23     2.44639985E+00   # Z   width
DECAY        24     2.03535570E+00   # W   width
DECAY        25     6.79485838E-03   # H   width
#        BR           NDA        ID1       ID2
     7.00588389E-02    2           4        -4   # BR( H -> c  cbar  )
     7.61074375E-01    2           5        -5   # BR( H -> b  bbar  )
     0.00000000E+00    2           6        -6   # BR( H -> t  tbar  )
     3.65529942E-02    2          15       -15   # BR( H -> tau- tau+)
     5.84716539E-03    2          23        23   # BR( H -> Z   Z^(*))
     6.31545979E-02    2          24       -24   # BR( H -> W   W^(*))
     2.55499652E-02    2          21        21   # BR( H -> g   g    )
     1.20906932E-03    2          22        22   # BR( H -> A   A    )
BLOCK MGUSER
         1     1.00000000e-00   # epsilon ,mixing coefficient
         2     74.0000000e+00   # Znuc    ,nuclear charge
</slha>
<MGRunCard>
#*********************************************************************
#                       MadGraph/MadEvent                            *
#                  http://madgraph.hep.uiuc.edu                      *
#                                                                    *
#                        run_card.dat                                *
#                                                                    *
#  This file is used to set the parameters of the run.               *
#                                                                    *
#  Some notation/conventions:                                        *
#                                                                    *
#   Lines starting with a '# ' are info or comments                  *
#                                                                    *
#   mind the format:   value    = variable     ! comment             *
#*********************************************************************
#
#*******************                                                 
# Running parameters
#*******************                                                 
#                                                                    
#*********************************************************************
# Tag name for the run (one word)                                    *
#*********************************************************************
  'HPS'     = run_tag ! name of the run 
#*********************************************************************
# Run to generate the grid pack                                      *
#*********************************************************************
  .false.     = gridpack  !True = setting up the grid pack
#*********************************************************************
# Number of events and rnd seed                                      *
#*********************************************************************
   1000      = nevents ! Number of unweighted events requested 
188708 = iseed ! rnd seed (0=assigned automatically=default))
#*********************************************************************
# Collider type and energy                                           *
#*********************************************************************
        0     = lpp1  ! beam 1 type (0=NO PDF)
        0     = lpp2  ! beam 2 type (0=NO PDF)
4 = ebeam1  ! beam 1 energy in GeV
    171.3    = ebeam2  ! beam 2 energy in GeV
    0.000511  = mbeam1  ! beam 1 energy in GeV
    171.3    = mbeam2  ! beam 2 energy in GeV
#*********************************************************************
# Beam polarization from -100 (left-handed) to 100 (right-handed)    *
#*********************************************************************
        0     = polbeam1 ! beam polarization for beam 1
        0     = polbeam2 ! beam polarization for beam 2
#*********************************************************************
# PDF CHOICE: this automatically fixes also alpha_s and its evol.    *
#*********************************************************************
 'cteq6l1'    = pdlabel     ! PDF set                                     
#*********************************************************************
# Renormalization and factorization scales                           *
#*********************************************************************
 F        = fixed_ren_scale  ! if .true. use fixed ren scale
 F        = fixed_fac_scale  ! if .true. use fixed fac scale
 91.1880  = scale            ! fixed ren scale
 91.1880  = dsqrt_q2fact1    ! fixed fact scale for pdf1
 91.1880  = dsqrt_q2fact2    ! fixed fact scale for pdf2
 1        = scalefact        ! scale factor for event-by-event scales
 F        = fixed_couplings  ! if .false. calc. coupl. for every event
#*********************************************************************
# Matching - Warning! ickkw > 0 is still beta
#*********************************************************************
 0        = ickkw            ! 0 no matching, 1 MLM, 2 CKKW matching
#*********************************************************************
#                                                                    
#**********************************
32.9311829414 = bwcutoff*Gamma)
#**********************************
32.9311829414 = bwcutoff
#*******************                                                 
# Fixed-Target Cuts
#*******************                                                 
#
 0.0 = ef        ! minimum E for all f's
 100.0 = efmax     ! maximum E for all f's
 0.0 = thetafmin ! min angle for both f's
 100.0 = thetafmax ! max angle for both f's
 0.0 = thetaxfmin ! min angle (x direction) for both f's
 100.0 = thetaxfmax ! max angle (x direction) for both f's 
 0.0 = thetayfmin ! min angle (y direction) for both f's
 100.0 = thetayfmax ! max angle (y direction) for both f's 
 0.0 = xthetaxfmin ! min angle (x direction) for >=1 f's
 100.0 = xthetaxfmax ! max angle (x direction) for >=1 f's 
 0.0 = xthetayfmin ! min angle (y direction) for >=1 f's
 100.0 = xthetayfmax ! max angle (y direction) for >=1 f's 
 0.0 = mmff      ! min invariant mass of f+f- lepton pair
 100.0 = mmffmax  ! max invariant mass of f+f- lepton pair
 0.0 = xef       ! min. energy for at least one f
 0.0 = xthetaf   ! minimum angle for at least one f
 0.0 = eftot     ! minimum energy for the two f's
 0d0 = efrat     ! min. ratio Emin/Emax for the two f's
 0.0  = el     !!! 0.2 = el  !!! was 0.05 with normal cuts! minimum E for the charged leptons 
 0.0  = drll  !!! was 0.1  ! min distance between leptons 
 0.0  = mmll    ! min invariant mass of l+l- (same flavour) lepton pair
#
#*******************                                                 
# Standard Cuts
#*******************                                                 
#                                                                    
#*********************************************************************
# Minimum and maximum pt's                                           *
#*********************************************************************
  0  = ptj       ! minimum pt for the jets 
  0  = ptb       ! minimum pt for the b 
  0  = pta       ! minimum pt for the photons 
  0  = ptl       ! minimum pt for the charged leptons 
  0  = misset    ! minimum missing Et (sum of neutrino's momenta)
  0  = ptheavy   ! minimum pt for one heavy final state
 1.0 = ptonium   ! minimum pt for the quarkonium states
 1d5 = ptjmax    ! maximum pt for the jets
 1d5 = ptbmax    ! maximum pt for the b
 1d5 = ptamax    ! maximum pt for the photons
 1d9 = ptlmax    ! maximum pt for the charged leptons
 1d9 = missetmax ! maximum missing Et (sum of neutrino's momenta)
#*********************************************************************
# Minimum and maximum E's (in the lab frame)                         *
#*********************************************************************
  0  = ej     ! minimum E for the jets 
  0  = eb     ! minimum E for the b 
  0  = ea     ! minimum E for the photons 
 1d5  = ejmax ! maximum E for the jets
 1d5  = ebmax ! maximum E for the b
 1d5  = eamax ! maximum E for the photons
 1.2  = elmax ! maximum E for the charged leptons
#*********************************************************************
# Maximum and minimum rapidity                                       *
#*********************************************************************
 1d5  = etaj    ! max rap for the jets 
 1d5  = etab    ! max rap for the b 
 1d5  = etaa    ! max rap for the photons 
 1d5  = etal     !!! 1(2) wth cuts ! max rap for the charged leptons 
 1d5  = etafl     !!! 0(1) wth cuts ! max rap for the charged leptons 
 0.0  = etaonium ! max rap for the quarkonium states
 0d0  = etajmin ! min rap for the jets
 0d0  = etabmin ! min rap for the b
 0d0  = etaamin ! min rap for the photons
 0d0  = etalmin ! main rap for the charged lepton
#*********************************************************************
# Minimum and maximum DeltaR distance                                *
#*********************************************************************
 0   = drjj    ! min distance between jets 
 0   = drbb    ! min distance between b's 
 0   = draa    ! min distance between gammas 
 0   = drbj    ! min distance between b and jet 
 0   = draj    ! min distance between gamma and jet 
 0   = drjl    ! min distance between jet and lepton 
 0   = drab    ! min distance between gamma and b 
 0   = drbl    ! min distance between b and lepton 
 0   = dral    ! min distance between gamma and lepton 
 1d2 = drjjmax ! max distance between jets
 1d2 = drbbmax ! max distance between b's
 1d9 = drllmax ! max distance between leptons
 1d2 = draamax ! max distance between gammas
 1d2 = drbjmax ! max distance between b and jet
 1d2 = drajmax ! max distance between gamma and jet
 1d2 = drjlmax ! max distance between jet and lepton
 1d2 = drabmax ! max distance between gamma and b
 1d2 = drblmax ! max distance between b and lepton
 1d2 = dralmax ! maxdistance between gamma and lepton
#*********************************************************************
# Minimum and maximum invariant mass for pairs                       *
#*********************************************************************
 0   = mmjj    ! min invariant mass of a jet pair 
 0   = mmbb    ! min invariant mass of a b pair 
 0   = mmaa    ! min invariant mass of gamma gamma pair
 1d5 = mmjjmax ! max invariant mass of a jet pair
 1d5 = mmbbmax ! max invariant mass of a b pair
 1d5 = mmaamax ! max invariant mass of gamma gamma pair
 1d5 = mmllmax ! max invariant mass of l+l- (same flavour) lepton pair
#*********************************************************************
# Minimum and maximum invariant mass for all letpons                 *
#*********************************************************************
 0   = mmnl    ! min invariant mass for all letpons (l+- and vl) 
 1d9 = mmnlmax ! max invariant mass for all letpons (l+- and vl) 
#*********************************************************************
# Inclusive cuts                                                     *
#*********************************************************************
 0  = xptj ! minimum pt for at least one jet  
 0  = xptb ! minimum pt for at least one b 
 0  = xpta ! minimum pt for at least one photon 
 0  = xptl ! minimum pt for at least one charged lepton 
#*********************************************************************
# Control the pt's of the jets sorted by pt                          *
#*********************************************************************
 0   = ptj1min ! minimum pt for the leading jet in pt
 0   = ptj2min ! minimum pt for the second jet in pt
 0   = ptj3min ! minimum pt for the third jet in pt
 0   = ptj4min ! minimum pt for the fourth jet in pt
 1d5 = ptj1max ! maximum pt for the leading jet in pt 
 1d5 = ptj2max ! maximum pt for the second jet in pt
 1d5 = ptj3max ! maximum pt for the third jet in pt
 1d5 = ptj4max ! maximum pt for the fourth jet in pt
 0   = cutuse  ! reject event if fails any (0) / all (1) jet pt cuts
#*********************************************************************
# Control the Ht(k)=Sum of k leading jets                            *
#*********************************************************************
 0   = htjmin ! minimum jet HT=Sum(jet pt)
 1d5 = htjmax ! maximum jet HT=Sum(jet pt)
 0   = ht2min ! minimum Ht for the two leading jets
 0   = ht3min ! minimum Ht for the three leading jets
 0   = ht4min ! minimum Ht for the four leading jets
 1d5 = ht2max ! maximum Ht for the two leading jets
 1d5 = ht3max ! maximum Ht for the three leading jets
 1d5 = ht4max ! maximum Ht for the four leading jets
#*********************************************************************
# WBF cuts                                                           *
#*********************************************************************
 0   = xetamin ! minimum rapidity for two jets in the WBF case  
 0   = deltaeta ! minimum rapidity for two jets in the WBF case 
#*********************************************************************
# maximal pdg code for quark to be considered as a jet               *
# otherwise b cuts are applied                                       *
#*********************************************************************
 4 = maxjetflavor
#*********************************************************************
# Jet measure cuts                                                   *
#*********************************************************************
 0   = xqcut   ! minimum kt jet measure between partons
#*********************************************************************
</MGRunCard>
<MGGenerationInfo>
#  Number of Events        :        1000
#  Integrated weight (pb)  :  .49612E+11
#  Truncated wgt (pb)      :  .17901E+09
#  Unit wgt                :  .49612E+08
</MGGenerationInfo>
</header>
<init>
       11     -623  0.40000000000E+01  0.17130000000E+03 0 0     0     0 3  1
  0.49611839630E+11  0.58923809529E+09  0.49612000000E+08   0
</init>
<event>
 5   0  0.4961200E+08  0.9118800E+02  0.7818608E-02  0.1180000E+00
       11   -1    0    0    0    0  0.00000000000E+00  0.00000000000E+00  0.39999999673E+01  0.40000000000E+01  0.51109989000E-03 0.  1.
     -623   -1    0    0    0    0  0.00000000000E+00  0.00000000000E+00  0.12525980253E-10  0.17130000000E+03  0.17130000000E+03 0. -1.
       11    1    1    2    0    0  0.38641444886E-03  0.89836017217E-03  0.50543915861E-02  0.51734383662E-02  0.51109989000E-03 0.  1.
     -623    1    1    2    0    0 -0.21804898436E-02 -0.87866101305E-03  0.23208062773E-03  0.17130000002E+03  0.17130000000E+03 0. -1.
      622    1    1    2    0    0  0.17940753954E-02 -0.19699158852E-04  0.39947134964E+01  0.39948265466E+01  0.30000000000E-01 0.  1.
</event>
<event>
 5   0  0.4961200E+08  0.9118800E+02  0.7818608E-02  0.1180000E+00
       11   -1    0    0    0    0  0.00000000000E+00  0.00000000000E+00  0.39999999673E+01  0.40000000000E+01  0.51109989000E-03 0. -1.
     -623   -1    0    0    0    0  0.00000000000E+00  0.00000000000E+00  0.12525980253E-10  0.17130000000E+03  0.17130000000E+03 0. -1.
       11    1    1    2    0    0  0.40957530937E-03 -0.43340115558E-03  0.74226734377E-02  0.74641069497E-02  0.51109989000E-03 0. -1.
     -623    1    1    2    0    0  0.12895997493E-03 -0.84054471418E-04  0.15418277665E-03  0.17130000000E+03  0.17130000000E+03 0. -1.
      622    1    1    2    0    0 -0.53853528434E-03  0.51745562702E-03  0.39924231125E+01  0.39925358943E+01  0.30000000000E-01 0. -1.
</event>
<event>
 5   0  0.4961200E+08  0.9118800E+02  0.7818608E-02  0.1180000E+00
       11   -1    0    0    0    0  0.00000000000E+00  0.00000000000E+00  0.39999999673E+01  0.40000000000E+01  0.51109989000E-03 0. -1.
     -623   -1    0    0    0    0  0.00000000000E+00  0.00000000000E+00  0.12525980253E-10  0.17130000000E+03  0.17130000000E+03 0. -1.
       11    1    1    2    0    0  0.43701182080E-02 -0.10218201454E-01  0.10376290521E+01  0.10376886915E+01  0.51109989000E-03 0. -1.
     -623    1    1    2    0    0 -0.42743158336E-03 -0.66711023229E-03  0.23414569450E-03  0.17130000000E+03  0.17130000000E+03 0. -1.
      622    1    1    2    0    0 -0.39426866248E-02  0.10885311686E-01  0.29621367685E+01  0.29623113054E+01  0.30000000000E-01 0. -1.
</event>
<event>
 5   0  0.4961200E+08  0.9118800E+02  0.7818608E-02  0.1180000E+00
       11   -1    0    0    0    0  0.00000000000E+00  0.00000000000E+00  0.39999999673E+01  0.40000000000E+01  0.51109989000E-03 0. -1.
     -623   -1    0    0    0    0  0.00000000000E+00  0.00000000000E+00  0.12525980253E-10  0.17130000000E+03  0.17130000000E+03 0.  1.
       11    1    1    2    0    0  0.30196690234E-03  0.79666557456E-03  0.30799888064E-02  0.32362654700E-02  0.51109989000E-03 0. -1.
     -623    1    1    2    0    0 -0.13817289180E-02  0.64930041718E-03  0.26925114730E-03  0.17130000001E+03  0.17130000000E+03 0.  1.
      622    1    1    2    0    0  0.10797620154E-02 -0.14459659916E-02  0.39966507267E+01  0.39967637268E+01  0.30000000000E-01 0. -1.
</event>
<event>
 5   0  0.4961200E+08  0.9118800E+02  0.7818608E-02  0.1180000E+00
       11   -1    0    0    0    0  0.00000000000E+00  0.00000000000E+00  0.39999999673E+01  0.40000000000E+01  0.51109989000E-03 0.  1.
     -623   -1    0    0    0    0  0.00000000000E+00  0.00000000000E+00  0.12525980253E-10  0.17130000000E+03  0.17130000000E+03 0.  1.
       11    1    1    2    0    0 -0.96217011791E-04  0.81636002572E-03  0.41429625197E-01  0.41440931076E-01  0.51109989000E-03 0.  1.
     -623    1    1    2    0    0  0.22660729122E-03 -0.85560768406E-03  0.12495727349E-03  0.17130000000E+03  0.17130000000E+03 0.  1.
      622    1    1    2    0    0 -0.13039027947E-03  0.39247658508E-04  0.39584453856E+01  0.39585590673E+01  0.30000000000E-01 0.  1.
</event>
<event>
 5   0  0.4961200E+08  0.9118800E+02  0.7818608E-02  0.1180000E+00
       11   -1    0    0    0    0  0.00000000000E+00  0.00000000000E+00  0.39999999673E+01  0.40000000000E+01  0.51109989000E-03 0.  1.
     -623   -1    0    0    0    0  0.00000000000E+00  0.00000000000E+00  0.12525980253E-10  0.17130000000E+03  0.17130000000E+03 0.  1.
       11    1    1    2    0    0  0.22658344344E-01 -0.12552112398E-01  0.10563984640E+01  0.10567161076E+01  0.51109989000E-03 0.  1.
     -623    1    1    2    0    0 -0.15955168636E-01  0.16386922616E-01  0.48216479404E-03  0.17130000153E+03  0.17130000000E+03 0.  1.
      622    1    1    2    0    0 -0.67031757035E-02 -0.38348102216E-02  0.29431193396E+01  0.29432823659E+01  0.30000000000E-01 0.  0.
</event>
<event>
 5   0  0.4961200E+08  0.9118800E+02  0.7818608E-02  0.1180000E+00
       11   -1    0    0    0    0  0.00000000000E+00  0.00000000000E+00  0.39999999673E+01  0.40000000000E+01  0.51109989000E-03 0. -1.
     -623   -1    0    0    0    0  0.00000000000E+00  0.00000000000E+00  0.12525980253E-10  0.17130000000E+03  0.17130000000E+03 0.  1.
       11    1    1    2    0    0 -0.24178938434E-03 -0.12553815907E-02  0.23725352937E-01  0.23765269605E-01  0.51109989000E-03 0. -1.
     -623    1    1    2    0    0  0.59693656777E-03 -0.27749483305E-03  0.15337070371E-03  0.17130000000E+03  0.17130000000E+03 0.  1.
      622    1    1    2    0    0 -0.35514718343E-03  0.15328764238E-02  0.39761212437E+01  0.39762347291E+01  0.30000000000E-01 0. -1.
</event>
<event>
 5   0  0.4961200E+08  0.9118800E+02  0.7818608E-02  0.1180000E+00
       11   -1    0    0    0    0  0.00000000000E+00  0.00000000000E+00  0.39999999673E+01  0.40000000000E+01  0.51109989000E-03 0.  1.
     -623   -1    0    0    0    0  0.00000000000E+00  0.00000000000E+00  0.12525980253E-10  0.17130000000E+03  0.17130000000E+03 0.  1.
       11    1    1    2    0    0 -0.23724120497E-01 -0.22412714872E-01  0.99936628728E+00  0.99989919545E+00  0.51109989000E-03 0.  1.
     -623    1    1    2    0    0  0.98849992130E-02  0.21463945621E-01  0.71657670194E-03  0.17130000163E+03  0.17130000000E+03 0.  1.
      622    1    1    2    0    0  0.13839121284E-01  0.94876925162E-03  0.29999171034E+01  0.30000991731E+01  0.30000000000E-01 0.  1.
</event>
<event>
 5   0  0.4961200E+08  0.9118800E+02  0.7818608E-02  0.1180000E+00
       11   -1    0    0    0    0  0.00000000000E+00  0.00000000000E+00  0.39999999673E+01  0.40000000000E+01  0.51109989000E-03 0.  1.
     -623   -1    0    0    0    0  0.00000000000E+00  0.00000000000E+00  0.12525980253E-10  0.17130000000E+03  0.17130000000E+03 0.  1.
       11    1    1    2    0    0 -0.30571988567E-03 -0.66584322158E-03  0.10457688869E-02  0.13753790411E-02  0.51109989000E-03 0.  1.
     -623    1    1    2    0    0 -0.74315809199E-03  0.17229058825E-02  0.44240593556E-03  0.17130000001E+03  0.17130000000E+03 0.  1.
      622    1    1    2    0    0  0.10488779776E-02 -0.10570626608E-02  0.39985117924E+01  0.39986246099E+01  0.30000000000E-01 0.  1.
</event>
<event>
 5   0  0.4961200E+08  0.9118800E+02  0.7818608E-02  0.1180000E+00
       11   -1    0    0    0    0  0.00000000000E+00  0.00000000000E+00  0.39999999673E+01  0.40000000000E+01  0.51109989000E-03 0.  1.
     -623   -1    0    0    0    0  0.00000000000E+00  0.00000000000E+00  0.12525980253E-10  0.17130000000E+03  0.17130000000E+03 0.  1.
       11    1    1    2    0    0 -0.37359627628E-02 -0.37824374818E-02  0.79503906768E-01  0.79683101506E-01  0.51109989000E-03 0.  1.
     -623    1    1    2    0    0  0.29459971961E-02 -0.76614900941E-02  0.31093066390E-03  0.17130000020E+03  0.17130000000E+03 0.  1.
      622    1    1    2    0    0  0.78996556700E-03  0.11443927575E-01  0.39201851296E+01  0.39203167012E+01  0.30000000000E-01 0.  1.
</event>
<event>
 5   0  0.4961200E+08  0.9118800E+02  0.7818608E-02  0.1180000E+00
       11   -1    0    0    0    0  0.00000000000E+00  0.00000000000E+00  0.39999999673E+01  0.40000000000E+01  0.51109989000E-03 0. -1.
     -623   -1    0    0    0    0  0.00000000000E+00  0.00000000000E+00  0.12525980253E-10  0.17130000000E+03  0.17130000000E+03 0.  1.
       11    1    1    2    0    0  0.19189126591E-01 -0.32034347318E-01  0.40855754561E+00  0.41026083323E+00  0.51109989000E-03 0. -1.
     -623    1    1    2    0    0  0.86386489276E-02  0.31176121471E-01  0.19396493558E-02  0.17130000307E+03  0.17130000000E+03 0.  1.
      622    1    1    2    0    0 -0.27827775518E-01  0.85822584836E-03  0.35895027722E+01  0.35897361008E+01  0.30000000000E-01 0. -1.
</event>
<event>
 5   0  0.4961200E+08  0.9118800E+02  0.7818608E-02  0.1180000E+00
       11   -1    0    0    0    0  0.00000000000E+00  0.00000000000E+00  0.39999999673E+01  0.40000000000E+01  0.51109989000E-03 0. -1.
     -623   -1    0    0    0    0  0.00000000000E+00  0.00000000000E+00  0.12525980253E-10  0.17130000000E+03  0.17130000000E+03 0.  1.
       11    1    1    2    0    0 -0.43184774300E-03  0.74328621412E-03  0.81745695040E-03  0.12916755911E-02  0.51109989000E-03 0. -1.
     -623    1    1    2    0    0  0.11419358689E-02 -0.82957301777E-03  0.58679472579E-03  0.17130000001E+03  0.17130000000E+03 0.  1.
      622    1    1    2    0    0 -0.71008812584E-03  0.86286803600E-04  0.39985957155E+01  0.39987083174E+01  0.30000000000E-01 0. -1.
</event>
<event>
 5   0  0.4961200E+08  0.9118800E+02  0.7818608E-02  0.1180000E+00
       11   -1    0    0    0    0  0.00000000000E+00  0.00000000000E+00  0.39999999673E+01  0.40000000000E+01  0.51109989000E-03 0.  1.
     -623   -1    0    0    0    0  0.00000000000E+00  0.00000000000E+00  0.12525980253E-10  0.17130000000E+03  0.17130000000E+03 0.  1.
       11    1    1    2    0    0  0.70247195019E-05  0.17913464803E-02  0.14295869368E-01  0.14416728981E-01  0.51109989000E-03 0.  1.
     -623    1    1    2    0    0  0.36637505726E-03  0.14858278084E-03  0.23422574869E-03  0.17130000000E+03  0.17130000000E+03 0.  1.
      622    1    1    2    0    0 -0.37339977676E-03 -0.19399292611E-02  0.39854698722E+01  0.39855832704E+01  0.30000000000E-01 0.  1.
</event>
<event>
 5   0  0.4961200E+08  0.9118800E+02  0.7818608E-02  0.1180000E+00
       11   -1    0    0    0    0  0.00000000000E+00  0.00000000000E+00  0.39999999673E+01  0.40000000000E+01  0.51109989000E-03 0.  1.
     -623   -1    0    0    0    0  0.00000000000E+00  0.00000000000E+00  0.12525980253E-10  0.17130000000E+03  0.17130000000E+03 0.  1.
       11    1    1    2    0    0 -0.50953261461E-02 -0.19224569822E-02  0.42023954306E+00  0.42027513959E+00  0.51109989000E-03 0.  1.
     -623    1    1    2    0    0 -0.10693822721E-03 -0.61244001491E-03  0.16595309379E-03  0.17130000000E+03  0.17130000000E+03 0.  1.
      622    1    1    2    0    0  0.52022643733E-02  0.25348969971E-02  0.35795944712E+01  0.35797248592E+01  0.30000000000E-01 0.  1.
</event>
<event>
 5   0  0.4961200E+08  0.9118800E+02  0.7818608E-02  0.1180000E+00
       11   -1    0    0    0    0  0.00000000000E+00  0.00000000000E+00  0.39999999673E+01  0.40000000000E+01  0.51109989000E-03 0.  1.
     -623   -1    0    0    0    0  0.00000000000E+00  0.00000000000E+00  0.12525980253E-10  0.17130000000E+03  0.17130000000E+03 0. -1.
       11    1    1    2    0    0 -0.87521093185E-02  0.64964791367E-02  0.14036763225E+00  0.14079111146E+00  0.51109989000E-03 0.  1.
     -623    1    1    2    0    0  0.55949203210E-02 -0.18260001501E-02  0.54427221523E-03  0.17130000010E+03  0.17130000000E+03 0. -1.
      622    1    1    2    0    0  0.31571889971E-02 -0.46704789865E-02  0.38590880631E+01  0.38592087868E+01  0.30000000000E-01 0.  0.
</event>
<event>
 5   0  0.4961200E+08  0.9118800E+02  0.7818608E-02  0.1180000E+00
       11   -1    0    0    0    0  0.00000000000E+00  0.00000000000E+00  0.39999999673E+01  0.40000000000E+01  0.51109989000E-03 0.  1.
     -623   -1    0    0    0    0  0.00000000000E+00  0.00000000000E+00  0.12525980253E-10  0.17130000000E+03  0.17130000000E+03 0.  1.
       11    1    1    2    0    0 -0.11337481718E-01 -0.67606355468E-02  0.11189124656E+01  0.11189904431E+01  0.51109989000E-03 0.  1.
     -623    1    1    2    0    0 -0.27712435633E-02  0.47958876289E-02  0.26945235164E-03  0.17130000009E+03  0.17130000000E+03 0.  1.
      622    1    1    2    0    0  0.14108725282E-01  0.19647479166E-02  0.28808180505E+01  0.28810094683E+01  0.30000000000E-01 0.  1.
</event>
<event>
 5   0  0.4961200E+08  0.9118800E+02  0.7818608E-02  0.1180000E+00
       11   -1    0    0    0    0  0.00000000000E+00  0.00000000000E+00  0.39999999673E+01  0.40000000000E+01  0.51109989000E-03 0.  1.
     -623   -1    0    0    0    0  0.00000000000E+00  0.00000000000E+00  0.12525980253E-10  0.17130000000E+03  0.17130000000E+03 0. -1.
       11    1    1    2    0    0 -0.10675120169E-01  0.51563135782E-02  0.64241370062E+00  0.64252328341E+00  0.51109989000E-03 0.  1.
     -623    1    1    2    0    0 -0.40054238810E-02  0.67400131672E-02  0.29693531485E-03  0.17130000018E+03  0.17130000000E+03 0. -1.
      622    1    1    2    0    0  0.14680544050E-01 -0.11896326745E-01  0.33572893314E+01  0.33574765369E+01  0.30000000000E-01 0.  0.
</event>
<event>
 5   0  0.4961200E+08  0.9118800E+02  0.7818608E-02  0.1180000E+00
       11   -1    0    0    0    0  0.00000000000E+00  0.00000000000E+00  0.39999999673E+01  0.40000000000E+01  0.51109989000E-03 0.  1.
     -623   -1    0    0    0    0  0.00000000000E+00  0.00000000000E+00  0.12525980253E-10  0.17130000000E+03  0.17130000000E+03 0. -1.
       11    1    1    2    0    0 -0.96936114054E-02 -0.48102181181E-02  0.73927703381E+00  0.73935640813E+00  0.51109989000E-03 0.  1.
     -623    1    1    2    0    0  0.33733080465E-02 -0.36766226942E-02  0.23459810791E-03  0.17130000007E+03  0.17130000000E+03 0. -1.
      622    1    1    2    0    0  0.63203033593E-02  0.84868408119E-02  0.32604883350E+01  0.32606435185E+01  0.30000000000E-01 0.  1.
</event>
<event>
 5   0  0.4961200E+08  0.9118800E+02  0.7818608E-02  0.1180000E+00
       11   -1    0    0    0    0  0.00000000000E+00  0.00000000000E+00  0.39999999673E+01  0.40000000000E+01  0.51109989000E-03 0. -1.
     -623   -1    0    0    0    0  0.00000000000E+00  0.00000000000E+00  0.12525980253E-10  0.17130000000E+03  0.17130000000E+03 0. -1.
       11    1    1    2    0    0  0.36581050355E-03  0.36410517482E-02  0.43934403685E+00  0.43935957372E+00  0.51109989000E-03 0. -1.
     -623    1    1    2    0    0  0.51236863770E-03  0.21187286426E-05  0.14386122354E-03  0.17130000000E+03  0.17130000000E+03 0. -1.
      622    1    1    2    0    0 -0.87817914125E-03 -0.36431704769E-02  0.35605120693E+01  0.35606404255E+01  0.30000000000E-01 0. -1.
</event>
<event>
 5   0  0.4961200E+08  0.9118800E+02  0.7818608E-02  0.1180000E+00
       11   -1    0    0    0    0  0.00000000000E+00  0.00000000000E+00  0.39999999673E+01  0.40000000000E+01  0.51109989000E-03 0. -1.
     -623   -1    0    0    0    0  0.00000000000E+00  0.00000000000E+00  0.12525980253E-10  0.17130000000E+03  0.17130000000E+03 0. -1.
       11    1    1    2    0    0 -0.23197366279E-02  0.15374585929E-02  0.30430264146E+00  0.30431579614E+00  0.51109989000E-03 0. -1.
     -623    1    1    2    0    0 -0.37154081510E-02 -0.25872738309E-02  0.14002463457E-03  0.17130000006E+03  0.17130000000E+03 0. -1.
      622    1    1    2    0    0  0.60351447789E-02  0.10498152380E-02  0.36955573013E+01  0.36956841440E+01  0.30000000000E-01 0. -1.
</event>
<event>
 5   0  0.4961200E+08  0.9118800E+02  0.7818608E-02  0.1180000E+00
       11   -1    0    0    0    0  0.00000000000E+00  0.00000000000E+00  0.39999999673E+01  0.40000000000E+01  0.51109989000E-03 0. -1.
     -623   -1    0    0    0    0  0.00000000000E+00  0.00000000000E+00  0.12525980253E-10  0.17130000000E+03  0.17130000000E+03 0. -1.
       11    1    1    2    0    0 -0.38986342157E-02 -0.10306640406E-01  0.15249184657E+00  0.15289032239E+00  0.51109989000E-03 0. -1.
     -623    1    1    2    0    0 -0.39324068514E-02  0.11775930838E-02  0.53426825941E-03  0.17130000005E+03  0.17130000000E+03 0. -1.
      622    1    1    2    0    0  0.78310410671E-02  0.91290473224E-02  0.38469738525E+01  0.38471096275E+01  0.30000000000E-01 0. -1.
</event>
<event>
 5   0  0.4961200E+08  0.9118800E+02  0.7818608E-02  0.1180000E+00
       11   -1    0    0    0    0  0.00000000000E+00  0.00000000000E+00  0.39999999673E+01  0.40000000000E+01  0.51109989000E-03 0. -1.
     -623   -1    0    0    0    0  0.00000000000E+00  0.00000000000E+00  0.12525980253E-10  0.17130000000E+03  0.17130000000E+03 0. -1.
       11    1    1    2    0    0 -0.55652197009E-03  0.11250195323E-03  0.53089122558E+00  0.53089177522E+00  0.51109989000E-03 0. -1.
     -623    1    1    2    0    0 -0.17197818197E-02 -0.33322153595E-02  0.13251787396E-03  0.17130000004E+03  0.17130000000E+03 0. -1.
      622    1    1    2    0    0  0.22763037898E-02  0.32197134063E-02  0.34689762239E+01  0.34691081837E+01  0.30000000000E-01 0. -1.
</event>
<event>
 5   0  0.4961200E+08  0.9118800E+02  0.7818608E-02  0.1180000E+00
       11   -1    0    0    0    0  0.00000000000E+00  0.00000000000E+00  0.39999999673E+01  0.40000000000E+01  0.51109989000E-03 0.  1.
     -623   -1    0    0    0    0  0.00000000000E+00  0.00000000000E+00  0.12525980253E-10  0.17130000000E+03  0.17130000000E+03 0. -1.
       11    1    1    2    0    0  0.11489732963E-03  0.14088170189E-02  0.32890296171E-01  0.32924622566E-01  0.51109989000E-03 0.  1.
     -623    1    1    2    0    0  0.19267921093E-03 -0.37164776041E-03  0.14787715137E-03  0.17130000000E+03  0.17130000000E+03 0. -1.
      622    1    1    2    0    0 -0.30757654056E-03 -0.10371692585E-02  0.39669617940E+01  0.39670753769E+01  0.30000000000E-01 0.  1.
</event>
<event>
 5   0  0.4961200E+08  0.9118800E+02  0.7818608E-02  0.1180000E+00
       11   -1    0    0    0    0  0.00000000000E+00  0.00000000000E+00  0.39999999673E+01  0.40000000000E+01  0.51109989000E-03 0.  1.
     -623   -1    0    0    0    0  0.00000000000E+00  0.00000000000E+00  0.12525980253E-10  0.17130000000E+03  0.17130000000E+03 0. -1.
       11    1    1    2    0    0  0.15260703347E-02 -0.21589099882E-01  0.68297126942E+00  0.68331430119E+00  0.51109989000E-03 0.  1.
     -623    1    1    2    0    0 -0.98480206216E-03  0.35831628224E-03  0.54668252852E-03  0.17130000000E+03  0.17130000000E+03 0. -1.
      622    1    1    2    0    0 -0.54126827234E-03  0.21230783599E-01  0.33164820160E+01  0.33166856954E+01  0.30000000000E-01 0.  1.
</event>
<event>
 5   0  0.4961200E+08  0.9118800E+02  0.7818608E-02  0.1180000E+00
       11   -1    0    0    0    0  0.00000000000E+00  0.00000000000E+00  0.39999999673E+01  0.40000000000E+01  0.51109989000E-03 0. -1.
     -623   -1    0    0    0    0  0.00000000000E+00  0.00000000000E+00  0.12525980253E-10  0.17130000000E+03  0.17130000000E+03 0. -1.
       11    1    1    2    0    0  0.79789248457E-03  0.44450441268E-03  0.46145626279E-01  0.46157494130E-01  0.51109989000E-03 0. -1.
     -623    1    1    2    0    0 -0.27361956551E-03 -0.41329072332E-03  0.12568582994E-03  0.17130000000E+03  0.17130000000E+03 0. -1.
      622    1    1    2    0    0 -0.52427291903E-03 -0.31213689307E-04  0.39537286557E+01  0.39538425056E+01  0.30000000000E-01 0. -1.
</event>
<event>
 5   0  0.4961200E+08  0.9118800E+02  0.7818608E-02  0.1180000E+00
       11   -1    0    0    0    0  0.00000000000E+00  0.00000000000E+00  0.39999999673E+01  0.40000000000E+01  0.51109989000E-03 0. -1.
     -623   -1    0    0    0    0  0.00000000000E+00  0.00000000000E+00  0.12525980253E-10  0.17130000000E+03  0.17130000000E+03 0.  1.
       11    1    1    2    0    0 -0.35760255156E-02 -0.51539968718E-03  0.31394294257E-01  0.31605640799E-01  0.51109989000E-03 0. -1.
     -623    1    1    2    0    0  0.80491363080E-04  0.71161332425E-03  0.32625772246E-03  0.17130000000E+03  0.17130000000E+03 0.  1.
      622    1    1    2    0    0  0.34955341525E-02 -0.19621363710E-03  0.39682794155E+01  0.39683943575E+01  0.30000000000E-01 0. -1.
</event>
<event>
 5   0  0.4961200E+08  0.9118800E+02  0.7818608E-02  0.1180000E+00
       11   -1    0    0    0    0  0.00000000000E+00  0.00000000000E+00  0.39999999673E+01  0.40000000000E+01  0.51109989000E-03 0.  1.
     -623   -1    0    0    0    0  0.00000000000E+00  0.00000000000E+00  0.12525980253E-10  0.17130000000E+03  0.17130000000E+03 0.  1.
       11    1    1    2    0    0 -0.93522025146E-02 -0.11315061487E-02  0.41843881721E-01  0.42894238059E-01  0.51109989000E-03 0.  1.
     -623    1    1    2    0    0  0.30668026033E-03  0.92702619964E-03  0.11743957621E-02  0.17130000001E+03  0.17130000000E+03 0.  1.
      622    1    1    2    0    0  0.90455222543E-02  0.20447994910E-03  0.39569816896E+01  0.39571057549E+01  0.30000000000E-01 0.  1.
</event>
<event>
 5   0  0.4961200E+08  0.9118800E+02  0.7818608E-02  0.1180000E+00
       11   -1    0    0    0    0  0.00000000000E+00  0.00000000000E+00  0.39999999673E+01  0.40000000000E+01  0.51109989000E-03 0. -1.
     -623   -1    0    0    0    0  0.00000000000E+00  0.00000000000E+00  0.12525980253E-10  0.17130000000E+03  0.17130000000E+03 0. -1.
       11    1    1    2    0    0  0.90258838817E-03  0.12069090023E-02  0.25918285229E-01  0.25967095091E-01  0.51109989000E-03 0. -1.
     -623    1    1    2    0    0 -0.20505797637E-02 -0.21764872494E-02  0.16232420766E-03  0.17130000003E+03  0.17130000000E+03 0. -1.
      622    1    1    2    0    0  0.11479913749E-02  0.96957824655E-03  0.39739193569E+01  0.39740328777E+01  0.30000000000E-01 0. -1.
</event>
<event>
 5   0  0.4961200E+08  0.9118800E+02  0.7818608E-02  0.1180000E+00
       11   -1    0    0    0    0  0.00000000000E+00  0.00000000000E+00  0.39999999673E+01  0.40000000000E+01  0.51109989000E-03 0.  1.
     -623   -1    0    0    0    0  0.00000000000E+00  0.00000000000E+00  0.12525980253E-10  0.17130000000E+03  0.17130000000E+03 0.  1.
       11    1    1    2    0    0  0.22925612617E-02  0.38109978226E-02  0.25526534158E-01  0.25916109098E-01  0.51109989000E-03 0.  1.
     -623    1    1    2    0    0 -0.31603165300E-02 -0.51966681082E-02  0.50322259981E-03  0.17130000011E+03  0.17130000000E+03 0.  1.
      622    1    1    2    0    0  0.86775526780E-03  0.13856702849E-02  0.39739702100E+01  0.39740837816E+01  0.30000000000E-01 0.  1.
</event>
<event>
 5   0  0.4961200E+08  0.9118800E+02  0.7818608E-02  0.1180000E+00
       11   -1    0    0    0    0  0.00000000000E+00  0.00000000000E+00  0.39999999673E+01  0.40000000000E+01  0.51109989000E-03 0.  1.
     -623   -1    0    0    0    0  0.00000000000E+00  0.00000000000E+00  0.12525980253E-10  0.17130000000E+03  0.17130000000E+03 0.  1.
       11    1    1    2    0    0 -0.20210709450E-02 -0.91070041957E-03  0.14719562841E-01  0.14894322957E-01  0.51109989000E-03 0.  1.
     -623    1    1    2    0    0  0.16920462180E-02  0.17322942036E-02  0.28776518020E-03  0.17130000002E+03  0.17130000000E+03 0.  1.
      622    1    1    2    0    0  0.32902472740E-03 -0.82159378367E-03  0.39849926385E+01  0.39851056589E+01  0.30000000000E-01 0.  1.
</event>
<event>
 5   0  0.4961200E+08  0.9118800E+02  0.7818608E-02  0.1180000E+00
       11   -1    0    0    0    0  0.00000000000E+00  0.00000000000E+00  0.39999999673E+01  0.40000000000E+01  0.51109989000E-03 0. -1.
     -623   -1    0    0    0    0  0.00000000000E+00  0.00000000000E+00  0.12525980253E-10  0.17130000000E+03  0.17130000000E+03 0. -1.
       11    1    1    2    0    0  0.11273244939E-03 -0.84438748810E-03  0.50728954971E-02  0.51692543619E-02  0.51109989000E-03 0. -1.
     -623    1    1    2    0    0 -0.38682806263E-03  0.74578506036E-03  0.20898619448E-03  0.17130000000E+03  0.17130000000E+03 0. -1.
      622    1    1    2    0    0  0.27409561312E-03  0.98602427971E-04  0.39947180844E+01  0.39948307422E+01  0.30000000000E-01 0. -1.
</event>
<event>
 5   0  0.4961200E+08  0.9118800E+02  0.7818608E-02  0.1180000E+00
       11   -1    0    0    0    0  0.00000000000E+00  0.00000000000E+00  0.39999999673E+01  0.40000000000E+01  0.51109989000E-03 0.  1.
     -623   -1    0    0    0    0  0.00000000000E+00  0.00000000000E+00  0.12525980253E-10  0.17130000000E+03  0.17130000000E+03 0.  1.
       11    1    1    2    0    0 -0.55414089956E-02  0.30265025664E-02  0.19117554740E+00  0.19128046967E+00  0.51109989000E-03 0.  1.
     -623    1    1    2    0    0 -0.70071384759E-03 -0.17686137222E-02  0.22837512871E-03  0.17130000001E+03  0.17130000000E+03 0.  1.
      622    1    1    2    0    0  0.62421228432E-02 -0.12578888442E-02  0.38085960448E+01  0.38087195196E+01  0.30000000000E-01 0.  1.
</event>
<event>
 5   0  0.4961200E+08  0.9118800E+02  0.7818608E-02  0.1180000E+00
       11   -1    0    0    0    0  0.00000000000E+00  0.00000000000E+00  0.39999999673E+01  0.40000000000E+01  0.51109989000E-03 0.  1.
     -623   -1    0    0    0    0  0.00000000000E+00  0.00000000000E+00  0.12525980253E-10  0.17130000000E+03  0.17130000000E+03 0.  1.
       11    1    1    2    0    0 -0.25309629165E-02 -0.45108703410E-04  0.18052328892E-01  0.18236107304E-01  0.51109989000E-03 0.  1.
     -623    1    1    2    0    0  0.34532666079E-02 -0.18441130345E-02  0.29736262971E-03  0.17130000004E+03  0.17130000000E+03 0.  1.
      622    1    1    2    0    0 -0.92230369320E-03  0.18892217389E-02  0.39816502779E+01  0.39817638498E+01  0.30000000000E-01 0.  1.
</event>
<event>
 5   0  0.4961200E+08  0.9118800E+02  0.7818608E-02  0.1180000E+00
       11   -1    0    0    0    0  0.00000000000E+00  0.00000000000E+00  0.39999999673E+01  0.40000000000E+01  0.51109989000E-03 0. -1.
     -623   -1    0    0    0    0  0.00000000000E+00  0.00000000000E+00  0.12525980253E-10  0.17130000000E+03  0.17130000000E+03 0.  1.
       11    1    1    2    0    0 -0.11574049174E-02  0.99626849823E-03  0.35373305131E-01  0.35409943181E-01  0.51109989000E-03 0. -1.
     -623    1    1    2    0    0  0.73336462953E-03 -0.40292341653E-03  0.15018102261E-03  0.17130000000E+03  0.17130000000E+03 0.  1.
      622    1    1    2    0    0  0.42404028728E-03 -0.59334508140E-03  0.39644764843E+01  0.39645900578E+01  0.30000000000E-01 0. -1.
</event>
<event>
 5   0  0.4961200E+08  0.9118800E+02  0.7818608E-02  0.1180000E+00
       11   -1    0    0    0    0  0.00000000000E+00  0.00000000000E+00  0.39999999673E+01  0.40000000000E+01  0.51109989000E-03 0.  1.
     -623   -1    0    0    0    0  0.00000000000E+00  0.00000000000E+00  0.12525980253E-10  0.17130000000E+03  0.17130000000E+03 0.  1.
       11    1    1    2    0    0 -0.11075278108E-02 -0.49204646998E-03  0.12925912259E-01  0.12992657808E-01  0.51109989000E-03 0.  1.
     -623    1    1    2    0    0  0.37077449528E-04  0.10331893425E-02  0.17976475795E-03  0.17130000000E+03  0.17130000000E+03 0.  1.
      622    1    1    2    0    0  0.10704503613E-02 -0.54114287249E-03  0.39868942903E+01  0.39870073390E+01  0.30000000000E-01 0.  1.
</event>
<event>
 5   0  0.4961200E+08  0.9118800E+02  0.7818608E-02  0.1180000E+00
       11   -1    0    0    0    0  0.00000000000E+00  0.00000000000E+00  0.39999999673E+01  0.40000000000E+01  0.51109989000E-03 0. -1.
     -623   -1    0    0    0    0  0.00000000000E+00  0.00000000000E+00  0.12525980253E-10  0.17130000000E+03  0.17130000000E+03 0. -1.
       11    1    1    2    0    0  0.38866819448E-01 -0.31380190304E-01  0.11976617653E+01  0.11987031790E+01  0.51109989000E-03 0. -1.
     -623    1    1    2    0    0 -0.40382362006E-02  0.34713089364E-02  0.15576965203E-02  0.17130000009E+03  0.17130000000E+03 0. -1.
      622    1    1    2    0    0 -0.34828583247E-01  0.27908881367E-01  0.28007805055E+01  0.28012967312E+01  0.30000000000E-01 0. -1.
</event>
<event>
 5   0  0.4961200E+08  0.9118800E+02  0.7818608E-02  0.1180000E+00
       11   -1    0    0    0    0  0.00000000000E+00  0.00000000000E+00  0.39999999673E+01  0.40000000000E+01  0.51109989000E-03 0.  1.
     -623   -1    0    0    0    0  0.00000000000E+00  0.00000000000E+00  0.12525980253E-10  0.17130000000E+03  0.17130000000E+03 0. -1.
       11    1    1    2    0    0  0.27014606077E-02 -0.25168045734E-01  0.79536287197E+00  0.79576572416E+00  0.51109989000E-03 0.  1.
     -623    1    1    2    0    0 -0.64040610298E-03 -0.60955126048E-03  0.64762294276E-03  0.17130000000E+03  0.17130000000E+03 0. -1.
      622    1    1    2    0    0 -0.20610545047E-02  0.25777596995E-01  0.32039894723E+01  0.32042342721E+01  0.30000000000E-01 0.  1.
</event>
<event>
 5   0  0.4961200E+08  0.9118800E+02  0.7818608E-02  0.1180000E+00
       11   -1    0    0    0    0  0.00000000000E+00  0.00000000000E+00  0.39999999673E+01  0.40000000000E+01  0.51109989000E-03 0.  1.
     -623   -1    0    0    0    0  0.00000000000E+00  0.00000000000E+00  0.12525980253E-10  0.17130000000E+03  0.17130000000E+03 0. -1.
       11    1    1    2    0    0  0.59245689496E-03  0.75187846779E-03  0.15236604000E-01  0.15275197209E-01  0.51109989000E-03 0.  1.
     -623    1    1    2    0    0  0.13592353844E-03 -0.28619108439E-04  0.15162576831E-03  0.17130000000E+03  0.17130000000E+03 0. -1.
      622    1    1    2    0    0 -0.72838043339E-03 -0.72325935935E-03  0.39846117376E+01  0.39847248027E+01  0.30000000000E-01 0.  1.
</event>
<event>
 5   0  0.4961200E+08  0.9118800E+02  0.7818608E-02  0.1180000E+00
       11   -1    0    0    0    0  0.00000000000E+00  0.00000000000E+00  0.39999999673E+01  0.40000000000E+01  0.51109989000E-03 0. -1.
     -623   -1    0    0    0    0  0.00000000000E+00  0.00000000000E+00  0.12525980253E-10  0.17130000000E+03  0.17130000000E+03 0. -1.
       11    1    1    2    0    0  0.53061192041E-02 -0.51005915678E-03  0.29033550538E+00  0.29038488591E+00  0.51109989000E-03 0. -1.
     -623    1    1    2    0    0  0.84277195688E-03  0.23671395118E-02  0.17623586971E-03  0.17130000002E+03  0.17130000000E+03 0. -1.
      622    1    1    2    0    0 -0.61488911609E-02 -0.18570803551E-02  0.37094882261E+01  0.37096150956E+01  0.30000000000E-01 0. -1.
</event>
<event>
 5   0  0.4961200E+08  0.9118800E+02  0.7818608E-02  0.1180000E+00
       11   -1    0    0    0    0  0.00000000000E+00  0.00000000000E+00  0.39999999673E+01  0.40000000000E+01  0.51109989000E-03 0.  1.
     -623   -1    0    0    0    0  0.00000000000E+00  0.00000000000E+00  0.12525980253E-10  0.17130000000E+03  0.17130000000E+03 0.  1.
       11    1    1    2    0    0  0.93952071160E-02  0.14186480845E-01  0.71915214147E+00  0.71935359174E+00  0.51109989000E-03 0.  1.
     -623    1    1    2    0    0  0.19842289648E-02  0.65555750051E-02  0.42403777239E-03  0.17130000014E+03  0.17130000000E+03 0.  1.
      622    1    1    2    0    0 -0.11379436081E-01 -0.20742055851E-01  0.32804237881E+01  0.32806462708E+01  0.30000000000E-01 0.  0.
</event>
<event>
 5   0  0.4961200E+08  0.9118800E+02  0.7818608E-02  0.1180000E+00
       11   -1    0    0    0    0  0.00000000000E+00  0.00000000000E+00  0.39999999673E+01  0.40000000000E+01  0.51109989000E-03 0.  1.
     -623   -1    0    0    0    0  0.00000000000E+00  0.00000000000E+00  0.12525980253E-10  0.17130000000E+03  0.17130000000E+03 0.  1.
       11    1    1    2    0    0  0.72322953064E-02  0.97035058148E-02  0.12070160699E+00  0.12130788628E+00  0.51109989000E-03 0.  1.
     -623    1    1    2    0    0 -0.27220213531E-02 -0.86222381620E-02  0.72528018651E-03  0.17130000024E+03  0.17130000000E+03 0.  1.
      622    1    1    2    0    0 -0.45102739536E-02 -0.10812676533E-02  0.38785730799E+01  0.38786918733E+01  0.30000000000E-01 0.  0.
</event>
<event>
 5   0  0.4961200E+08  0.9118800E+02  0.7818608E-02  0.1180000E+00
       11   -1    0    0    0    0  0.00000000000E+00  0.00000000000E+00  0.39999999673E+01  0.40000000000E+01  0.51109989000E-03 0.  1.
     -623   -1    0    0    0    0  0.00000000000E+00  0.00000000000E+00  0.12525980253E-10  0.17130000000E+03  0.17130000000E+03 0. -1.
       11    1    1    2    0    0  0.61800283075E-03 -0.79619110588E-03  0.31300828833E-02  0.33278355924E-02  0.51109989000E-03 0.  1.
     -623    1    1    2    0    0 -0.19121053053E-02  0.13054951617E-02  0.31057322613E-03  0.17130000002E+03  0.17130000000E+03 0. -1.
      622    1    1    2    0    0  0.12941024754E-02 -0.50930405637E-03  0.39965593129E+01  0.39966721501E+01  0.30000000000E-01 0.  1.
</event>
<event>
 5   0  0.4961200E+08  0.9118800E+02  0.7818608E-02  0.1180000E+00
       11   -1    0    0    0    0  0.00000000000E+00  0.00000000000E+00  0.39999999673E+01  0.40000000000E+01  0.51109989000E-03 0. -1.
     -623   -1    0    0    0    0  0.00000000000E+00  0.00000000000E+00  0.12525980253E-10  0.17130000000E+03  0.17130000000E+03 0.  1.
       11    1    1    2    0    0  0.21129909685E-02  0.10174432955E-01  0.68897217328E+00  0.68905072426E+00  0.51109989000E-03 0. -1.
     -623    1    1    2    0    0 -0.59528912590E-02 -0.15055498012E-01  0.22102382823E-03  0.17130000077E+03  0.17130000000E+03 0.  1.
      622    1    1    2    0    0  0.38399002906E-02  0.48810650575E-02  0.33108067702E+01  0.33109485106E+01  0.30000000000E-01 0. -1.
</event>
<event>
 5   0  0.4961200E+08  0.9118800E+02  0.7818608E-02  0.1180000E+00
       11   -1    0    0    0    0  0.00000000000E+00  0.00000000000E+00  0.39999999673E+01  0.40000000000E+01  0.51109989000E-03 0.  1.
     -623   -1    0    0    0    0  0.00000000000E+00  0.00000000000E+00  0.12525980253E-10  0.17130000000E+03  0.17130000000E+03 0. -1.
       11    1    1    2    0    0 -0.33842776154E-01  0.53742633720E-02  0.27763717066E+00  0.27974430460E+00  0.51109989000E-03 0.  1.
     -623    1    1    2    0    0 -0.61796497030E-02  0.77539802181E-03  0.24485700578E-02  0.17130000013E+03  0.17130000000E+03 0. -1.
      622    1    1    2    0    0  0.40022425857E-01 -0.61496613938E-02  0.37199142267E+01  0.37202555647E+01  0.30000000000E-01 0.  1.
</event>
<event>
 5   0  0.4961200E+08  0.9118800E+02  0.7818608E-02  0.1180000E+00
       11   -1    0    0    0    0  0.00000000000E+00  0.00000000000E+00  0.39999999673E+01  0.40000000000E+01  0.51109989000E-03 0. -1.
     -623   -1    0    0    0    0  0.00000000000E+00  0.00000000000E+00  0.12525980253E-10  0.17130000000E+03  0.17130000000E+03 0.  1.
       11    1    1    2    0    0  0.11552855400E-02  0.91314423934E-03 -0.20743882332E-02  0.25947691073E-02  0.51109989000E-03 0. -1.
     -623    1    1    2    0    0 -0.81261977340E-02 -0.75504402441E-02  0.47937143217E-02  0.17130000043E+03  0.17130000000E+03 0.  1.
      622    1    1    2    0    0  0.69709121941E-02  0.66372960049E-02  0.39972806413E+01  0.39974048047E+01  0.30000000000E-01 0. -1.
</event>
<event>
 5   0  0.4961200E+08  0.9118800E+02  0.7818608E-02  0.1180000E+00
       11   -1    0    0    0    0  0.00000000000E+00  0.00000000000E+00  0.39999999673E+01  0.40000000000E+01  0.51109989000E-03 0. -1.
     -623   -1    0    0    0    0  0.00000000000E+00  0.00000000000E+00  0.12525980253E-10  0.17130000000E+03  0.17130000000E+03 0.  1.
       11    1    1    2    0    0 -0.62121335708E-02  0.16096430679E-01  0.20848989504E+00  0.20920321039E+00  0.51109989000E-03 0. -1.
     -623    1    1    2    0    0 -0.50454076794E-02 -0.63547093938E-03  0.88031762443E-03  0.17130000008E+03  0.17130000000E+03 0.  1.
      622    1    1    2    0    0  0.11257541250E-01 -0.15460959740E-01  0.37906297547E+01  0.37907967119E+01  0.30000000000E-01 0. -1.
</event>
<event>
 5   0  0.4961200E+08  0.9118800E+02  0.7818608E-02  0.1180000E+00
       11   -1    0    0    0    0  0.00000000000E+00  0.00000000000E+00  0.39999999673E+01  0.40000000000E+01  0.51109989000E-03 0. -1.
     -623   -1    0    0    0    0  0.00000000000E+00  0.00000000000E+00  0.12525980253E-10  0.17130000000E+03  0.17130000000E+03 0.  1.
       11    1    1    2    0    0  0.44493898438E-02  0.30736396200E-01  0.34419246139E+00  0.34559113822E+00  0.51109989000E-03 0. -1.
     -623    1    1    2    0    0 -0.85402422499E-02 -0.39837465865E-01  0.15402604989E-02  0.17130000485E+03  0.17130000000E+03 0.  1.
      622    1    1    2    0    0  0.40908524061E-02  0.91010696654E-02  0.36542672455E+01  0.36544040097E+01  0.30000000000E-01 0. -1.
</event>
<event>
 5   0  0.4961200E+08  0.9118800E+02  0.7818608E-02  0.1180000E+00
       11   -1    0    0    0    0  0.00000000000E+00  0.00000000000E+00  0.39999999673E+01  0.40000000000E+01  0.51109989000E-03 0. -1.
     -623   -1    0    0    0    0  0.00000000000E+00  0.00000000000E+00  0.12525980253E-10  0.17130000000E+03  0.17130000000E+03 0.  1.
       11    1    1    2    0    0 -0.11428796189E-02 -0.16267462987E-02  0.39562699001E-01  0.39615916658E-01  0.51109989000E-03 0. -1.
     -623    1    1    2    0    0  0.30511473664E-02  0.19460114702E-02  0.16732292115E-03  0.17130000004E+03  0.17130000000E+03 0.  1.
      622    1    1    2    0    0 -0.19082677473E-02 -0.31926517142E-03  0.39602699452E+01  0.39603840448E+01  0.30000000000E-01 0. -1.
</event>
<event>
 5   0  0.4961200E+08  0.9118800E+02  0.7818608E-02  0.1180000E+00
       11   -1    0    0    0    0  0.00000000000E+00  0.00000000000E+00  0.39999999673E+01  0.40000000000E+01  0.51109989000E-03 0. -1.
     -623   -1    0    0    0    0  0.00000000000E+00  0.00000000000E+00  0.12525980253E-10  0.17130000000E+03  0.17130000000E+03 0. -1.
       11    1    1    2    0    0  0.71103133089E-03  0.17185542328E-02  0.44793393523E-02  0.48769558472E-02  0.51109989000E-03 0. -1.
     -623    1    1    2    0    0  0.98201289240E-03 -0.13481106380E-02  0.51060757754E-03  0.17130000001E+03  0.17130000000E+03 0. -1.
      622    1    1    2    0    0 -0.16930442234E-02 -0.37044359475E-03  0.39950100208E+01  0.39951230356E+01  0.30000000000E-01 0. -1.
</event>
<event>
 5   0  0.4961200E+08  0.9118800E+02  0.7818608E-02  0.1180000E+00
       11   -1    0    0    0    0  0.00000000000E+00  0.00000000000E+00  0.39999999673E+01  0.40000000000E+01  0.51109989000E-03 0.  1.
     -623   -1    0    0    0    0  0.00000000000E+00  0.00000000000E+00  0.12525980253E-10  0.17130000000E+03  0.17130000000E+03 0. -1.
       11    1    1    2    0    0  0.14416792435E-02  0.11849902461E-01  0.73664463861E+00  0.73674153096E+00  0.51109989000E-03 0.  1.
     -623    1    1    2    0    0 -0.13754129729E-02 -0.44234896546E-02  0.24327584079E-03  0.17130000006E+03  0.17130000000E+03 0. -1.
      622    1    1    2    0    0 -0.66266270671E-04 -0.74264128064E-02  0.32631120529E+01  0.32632584062E+01  0.30000000000E-01 0.  0.
</event>
<event>
 5   0  0.4961200E+08  0.9118800E+02  0.7818608E-02  0.1180000E+00
       11   -1    0    0    0    0  0.00000000000E+00  0.00000000000E+00  0.39999999673E+01  0.40000000000E+01  0.51109989000E-03 0.  1.
     -623   -1    0    0    0    0  0.00000000000E+00  0.00000000000E+00  0.12525980253E-10  0.17130000000E+03  0.17130000000E+03 0.  1.
       11    1    1    2    0    0  0.43627500028E-02 -0.11521342842E-02  0.26528564836E+00  0.26532451347E+00  0.51109989000E-03 0.  1.
     -623    1    1    2    0    0  0.46243220765E-03  0.12584003269E-03  0.16258573724E-03  0.17130000000E+03  0.17130000000E+03 0.  1.
      622    1    1    2    0    0 -0.48251822102E-02  0.10262942516E-02  0.37345517316E+01  0.37346754841E+01  0.30000000000E-01 0.  0.
</event>
<event>
 5   0  0.4961200E+08  0.9118800E+02  0.7818608E-02  0.1180000E+00
       11   -1    0    0    0    0  0.00000000000E+00  0.00000000000E+00  0.39999999673E+01  0.40000000000E+01  0.51109989000E-03 0.  1.
     -623   -1    0    0    0    0  0.00000000000E+00  0.00000000000E+00  0.12525980253E-10  0.17130000000E+03  0.17130000000E+03 0.  1.
       11    1    1    2    0    0  0.57736294172E-02  0.36443243015E-03  0.16434705818E-01  0.17430673656E-01  0.51109989000E-03 0.  1.
     -623    1    1    2    0    0 -0.58775985019E-02 -0.25446458551E-02  0.11096506588E-02  0.17130000012E+03  0.17130000000E+03 0.  1.
      622    1    1    2    0    0  0.10396908469E-03  0.21802134250E-02  0.39824556109E+01  0.39825692030E+01  0.30000000000E-01 0.  1.
</event>
<event>
 5   0  0.4961200E+08  0.9118800E+02  0.7818608E-02  0.1180000E+00
       11   -1    0    0    0    0  0.00000000000E+00  0.00000000000E+00  0.39999999673E+01  0.40000000000E+01  0.51109989000E-03 0. -1.
     -623   -1    0    0    0    0  0.00000000000E+00  0.00000000000E+00  0.12525980253E-10  0.17130000000E+03  0.17130000000E+03 0. -1.
       11    1    1    2    0    0 -0.55251549683E-02 -0.38761976167E-02  0.13718457223E+00  0.13735144822E+00  0.51109989000E-03 0. -1.
     -623    1    1    2    0    0  0.52254097981E-02 -0.28365512957E-03  0.28567731012E-03  0.17130000008E+03  0.17130000000E+03 0. -1.
      622    1    1    2    0    0  0.29974516999E-03  0.41598527463E-02  0.38625297180E+01  0.38626484718E+01  0.30000000000E-01 0. -1.
</event>
<event>
 5   0  0.4961200E+08  0.9118800E+02  0.7818608E-02  0.1180000E+00
       11   -1    0    0    0    0  0.00000000000E+00  0.00000000000E+00  0.39999999673E+01  0.40000000000E+01  0.51109989000E-03 0.  1.
     -623   -1    0    0    0    0  0.00000000000E+00  0.00000000000E+00  0.12525980253E-10  0.17130000000E+03  0.17130000000E+03 0. -1.
       11    1    1    2    0    0  0.59014450223E-02  0.58914661682E-03  0.63587272495E-01  0.63865300387E-01  0.51109989000E-03 0.  1.
     -623    1    1    2    0    0  0.60978461928E-02  0.13426468973E-01  0.43620204924E-03  0.17130000064E+03  0.17130000000E+03 0. -1.
      622    1    1    2    0    0 -0.11999291215E-01 -0.14015615590E-01  0.39359764929E+01  0.39361340644E+01  0.30000000000E-01 0.  1.
</event>
<event>
 5   0  0.4961200E+08  0.9118800E+02  0.7818608E-02  0.1180000E+00
       11   -1    0    0    0    0  0.00000000000E+00  0.00000000000E+00  0.39999999673E+01  0.40000000000E+01  0.51109989000E-03 0.  1.
     -623   -1    0    0    0    0  0.00000000000E+00  0.00000000000E+00  0.12525980253E-10  0.17130000000E+03  0.17130000000E+03 0.  1.
       11    1    1    2    0    0 -0.18452574379E-02 -0.71278798370E-03  0.37475826874E-01  0.37531478305E-01  0.51109989000E-03 0.  1.
     -623    1    1    2    0    0  0.41152482263E-02 -0.32824960891E-02  0.17193143113E-03  0.17130000008E+03  0.17130000000E+03 0.  1.
      622    1    1    2    0    0 -0.22699907884E-02  0.39952840728E-02  0.39623522091E+01  0.39624684407E+01  0.30000000000E-01 0.  1.
</event>
<event>
 5   0  0.4961200E+08  0.9118800E+02  0.7818608E-02  0.1180000E+00
       11   -1    0    0    0    0  0.00000000000E+00  0.00000000000E+00  0.39999999673E+01  0.40000000000E+01  0.51109989000E-03 0.  1.
     -623   -1    0    0    0    0  0.00000000000E+00  0.00000000000E+00  0.12525980253E-10  0.17130000000E+03  0.17130000000E+03 0.  1.
       11    1    1    2    0    0 -0.69915439353E-02 -0.83246213514E-02  0.13983504607E+00  0.14025791365E+00  0.51109989000E-03 0.  1.
     -623    1    1    2    0    0 -0.37025852217E-03  0.22906353150E-02  0.55117896633E-03  0.17130000002E+03  0.17130000000E+03 0.  1.
      622    1    1    2    0    0  0.73618024574E-02  0.60339860364E-02  0.38596137423E+01  0.38597420698E+01  0.30000000000E-01 0.  1.
</event>
<event>
 5   0  0.4961200E+08  0.9118800E+02  0.7818608E-02  0.1180000E+00
       11   -1    0    0    0    0  0.00000000000E+00  0.00000000000E+00  0.39999999673E+01  0.40000000000E+01  0.51109989000E-03 0.  1.
     -623   -1    0    0    0    0  0.00000000000E+00  0.00000000000E+00  0.12525980253E-10  0.17130000000E+03  0.17130000000E+03 0. -1.
       11    1    1    2    0    0 -0.20670248087E-02 -0.52756556545E-03  0.15764150575E+00  0.15765676793E+00  0.51109989000E-03 0.  1.
     -623    1    1    2    0    0  0.27062551272E-03 -0.13862694641E-02  0.13324982852E-03  0.17130000001E+03  0.17130000000E+03 0. -1.
      622    1    1    2    0    0  0.17963992957E-02  0.19138350311E-02  0.38422252160E+01  0.38423432304E+01  0.30000000000E-01 0.  1.
</event>
<event>
 5   0  0.4961200E+08  0.9118800E+02  0.7818608E-02  0.1180000E+00
       11   -1    0    0    0    0  0.00000000000E+00  0.00000000000E+00  0.39999999673E+01  0.40000000000E+01  0.51109989000E-03 0. -1.
     -623   -1    0    0    0    0  0.00000000000E+00  0.00000000000E+00  0.12525980253E-10  0.17130000000E+03  0.17130000000E+03 0. -1.
       11    1    1    2    0    0  0.64974920602E-03 -0.21206919872E-02  0.14651456197E+00  0.14653224082E+00  0.51109989000E-03 0. -1.
     -623    1    1    2    0    0  0.64892794563E-03  0.37569407266E-03  0.13504156732E-03  0.17130000000E+03  0.17130000000E+03 0. -1.
      622    1    1    2    0    0 -0.12986771519E-02  0.17449979144E-02  0.38533503654E+01  0.38534677591E+01  0.30000000000E-01 0. -1.
</event>
<event>
 5   0  0.4961200E+08  0.9118800E+02  0.7818608E-02  0.1180000E+00
       11   -1    0    0    0    0  0.00000000000E+00  0.00000000000E+00  0.39999999673E+01  0.40000000000E+01  0.51109989000E-03 0.  1.
     -623   -1    0    0    0    0  0.00000000000E+00  0.00000000000E+00  0.12525980253E-10  0.17130000000E+03  0.17130000000E+03 0. -1.
       11    1    1    2    0    0  0.10374573795E-02  0.48984415368E-01  0.95339046033E+00  0.95464872091E+00  0.51109989000E-03 0.  1.
     -623    1    1    2    0    0  0.12593172328E-01 -0.26717590713E-02  0.17891915313E-02  0.17130000049E+03  0.17130000000E+03 0. -1.
      622    1    1    2    0    0 -0.13630629708E-01 -0.46312656296E-01  0.30448203155E+01  0.30453507860E+01  0.30000000000E-01 0.  1.
</event>
<event>
 5   0  0.4961200E+08  0.9118800E+02  0.7818608E-02  0.1180000E+00
       11   -1    0    0    0    0  0.00000000000E+00  0.00000000000E+00  0.39999999673E+01  0.40000000000E+01  0.51109989000E-03 0. -1.
     -623   -1    0    0    0    0  0.00000000000E+00  0.00000000000E+00  0.12525980253E-10  0.17130000000E+03  0.17130000000E+03 0.  1.
       11    1    1    2    0    0  0.31463688172E-02  0.27415606550E-02  0.10464706883E+00  0.10473149492E+00  0.51109989000E-03 0. -1.
     -623    1    1    2    0    0  0.80391935921E-03 -0.24520718046E-02  0.20195335526E-03  0.17130000002E+03  0.17130000000E+03 0.  1.
      622    1    1    2    0    0 -0.39502881763E-02 -0.28948885085E-03  0.38951509443E+01  0.38952684847E+01  0.30000000000E-01 0. -1.
</event>
<event>
 5   0  0.4961200E+08  0.9118800E+02  0.7818608E-02  0.1180000E+00
       11   -1    0    0    0    0  0.00000000000E+00  0.00000000000E+00  0.39999999673E+01  0.40000000000E+01  0.51109989000E-03 0.  1.
     -623   -1    0    0    0    0  0.00000000000E+00  0.00000000000E+00  0.12525980253E-10  0.17130000000E+03  0.17130000000E+03 0.  1.
       11    1    1    2    0    0 -0.10586733113E-04 -0.12084556021E-01  0.24981698761E+00  0.25010962622E+00  0.51109989000E-03 0.  1.
     -623    1    1    2    0    0  0.25919766996E-03 -0.22569462726E-03  0.43282745611E-03  0.17130000000E+03  0.17130000000E+03 0.  1.
      622    1    1    2    0    0 -0.24861093685E-03  0.12310250648E-01  0.37497501523E+01  0.37498903729E+01  0.30000000000E-01 0.  1.
</event>
<event>
 5   0  0.4961200E+08  0.9118800E+02  0.7818608E-02  0.1180000E+00
       11   -1    0    0    0    0  0.00000000000E+00  0.00000000000E+00  0.39999999673E+01  0.40000000000E+01  0.51109989000E-03 0. -1.
     -623   -1    0    0    0    0  0.00000000000E+00  0.00000000000E+00  0.12525980253E-10  0.17130000000E+03  0.17130000000E+03 0. -1.
       11    1    1    2    0    0 -0.18683446644E-01  0.55172181668E-02  0.22746893957E+00  0.22830219133E+00  0.51109989000E-03 0. -1.
     -623    1    1    2    0    0  0.12548889127E-02  0.48874074571E-02  0.10072288296E-02  0.17130000008E+03  0.17130000000E+03 0. -1.
      622    1    1    2    0    0  0.17428557731E-01 -0.10404625624E-01  0.37715237990E+01  0.37716977314E+01  0.30000000000E-01 0. -1.
</event>
<event>
 5   0  0.4961200E+08  0.9118800E+02  0.7818608E-02  0.1180000E+00
       11   -1    0    0    0    0  0.00000000000E+00  0.00000000000E+00  0.39999999673E+01  0.40000000000E+01  0.51109989000E-03 0. -1.
     -623   -1    0    0    0    0  0.00000000000E+00  0.00000000000E+00  0.12525980253E-10  0.17130000000E+03  0.17130000000E+03 0.  1.
       11    1    1    2    0    0 -0.30266287155E-02  0.97009812940E-02  0.27206309211E+00  0.27225329535E+00  0.51109989000E-03 0. -1.
     -623    1    1    2    0    0 -0.82453712178E-04  0.31131412159E-03  0.32563251223E-03  0.17130000000E+03  0.17130000000E+03 0.  1.
      622    1    1    2    0    0  0.31090824277E-02 -0.10012295416E-01  0.37276112440E+01  0.37277467053E+01  0.30000000000E-01 0. -1.
</event>
<event>
 5   0  0.4961200E+08  0.9118800E+02  0.7818608E-02  0.1180000E+00
       11   -1    0    0    0    0  0.00000000000E+00  0.00000000000E+00  0.39999999673E+01  0.40000000000E+01  0.51109989000E-03 0. -1.
     -623   -1    0    0    0    0  0.00000000000E+00  0.00000000000E+00  0.12525980253E-10  0.17130000000E+03  0.17130000000E+03 0.  1.
       11    1    1    2    0    0  0.15992645199E-01  0.10000141836E-01  0.17702136589E+00  0.17802413527E+00  0.51109989000E-03 0. -1.
     -623    1    1    2    0    0  0.10600215665E-03  0.12098225347E-02  0.11708332422E-02  0.17130000001E+03  0.17130000000E+03 0.  1.
      622    1    1    2    0    0 -0.16098647356E-01 -0.11209964370E-01  0.38218077682E+01  0.38219758564E+01  0.30000000000E-01 0. -1.
</event>
<event>
 5   0  0.4961200E+08  0.9118800E+02  0.7818608E-02  0.1180000E+00
       11   -1    0    0    0    0  0.00000000000E+00  0.00000000000E+00  0.39999999673E+01  0.40000000000E+01  0.51109989000E-03 0.  1.
     -623   -1    0    0    0    0  0.00000000000E+00  0.00000000000E+00  0.12525980253E-10  0.17130000000E+03  0.17130000000E+03 0. -1.
       11    1    1    2    0    0 -0.14566591505E-02  0.39879280370E-02  0.24072873822E+00  0.24076671708E+00  0.51109989000E-03 0.  1.
     -623    1    1    2    0    0 -0.39536214542E-03  0.62487312896E-03  0.16094146007E-03  0.17130000000E+03  0.17130000000E+03 0. -1.
      622    1    1    2    0    0  0.18520212959E-02 -0.46128011660E-02  0.37591102877E+01  0.37592332813E+01  0.30000000000E-01 0.  1.
</event>
<event>
 5   0  0.4961200E+08  0.9118800E+02  0.7818608E-02  0.1180000E+00
       11   -1    0    0    0    0  0.00000000000E+00  0.00000000000E+00  0.39999999673E+01  0.40000000000E+01  0.51109989000E-03 0.  1.
     -623   -1    0    0    0    0  0.00000000000E+00  0.00000000000E+00  0.12525980253E-10  0.17130000000E+03  0.17130000000E+03 0.  1.
       11    1    1    2    0    0  0.84367528454E-03  0.72473692463E-03  0.11016917866E+00  0.11017597824E+00  0.51109989000E-03 0.  1.
     -623    1    1    2    0    0 -0.54160653512E-03 -0.37346836361E-03  0.12248402573E-03  0.17130000000E+03  0.17130000000E+03 0.  1.
      622    1    1    2    0    0 -0.30206874943E-03 -0.35126856103E-03  0.38897083046E+01  0.38898240204E+01  0.30000000000E-01 0.  1.
</event>
<event>
 5   0  0.4961200E+08  0.9118800E+02  0.7818608E-02  0.1180000E+00
       11   -1    0    0    0    0  0.00000000000E+00  0.00000000000E+00  0.39999999673E+01  0.40000000000E+01  0.51109989000E-03 0. -1.
     -623   -1    0    0    0    0  0.00000000000E+00  0.00000000000E+00  0.12525980253E-10  0.17130000000E+03  0.17130000000E+03 0. -1.
       11    1    1    2    0    0  0.68038870084E-02  0.96169928739E-02  0.10219125665E+00  0.10286930342E+00  0.51109989000E-03 0. -1.
     -623    1    1    2    0    0  0.35365183455E-03  0.11876396358E-02  0.81504306108E-03  0.17130000001E+03  0.17130000000E+03 0. -1.
      622    1    1    2    0    0 -0.71575388429E-02 -0.10804632510E-01  0.38969936677E+01  0.38971306902E+01  0.30000000000E-01 0. -1.
</event>
<event>
 5   0  0.4961200E+08  0.9118800E+02  0.7818608E-02  0.1180000E+00
       11   -1    0    0    0    0  0.00000000000E+00  0.00000000000E+00  0.39999999673E+01  0.40000000000E+01  0.51109989000E-03 0.  1.
     -623   -1    0    0    0    0  0.00000000000E+00  0.00000000000E+00  0.12525980253E-10  0.17130000000E+03  0.17130000000E+03 0.  1.
       11    1    1    2    0    0  0.84043129708E-02 -0.84609459632E-02  0.39033206129E+00  0.39051453158E+00  0.51109989000E-03 0.  1.
     -623    1    1    2    0    0 -0.38112261678E-03 -0.75243787065E-03  0.32779027922E-03  0.17130000000E+03  0.17130000000E+03 0.  1.
      622    1    1    2    0    0 -0.80231903540E-02  0.92133838339E-02  0.36093401158E+01  0.36094854660E+01  0.30000000000E-01 0.  1.
</event>
<event>
 5   0  0.4961200E+08  0.9118800E+02  0.7818608E-02  0.1180000E+00
       11   -1    0    0    0    0  0.00000000000E+00  0.00000000000E+00  0.39999999673E+01  0.40000000000E+01  0.51109989000E-03 0.  1.
     -623   -1    0    0    0    0  0.00000000000E+00  0.00000000000E+00  0.12525980253E-10  0.17130000000E+03  0.17130000000E+03 0.  1.
       11    1    1    2    0    0  0.51222449763E-02  0.72458435700E-02  0.13530415330E+00  0.13559577709E+00  0.51109989000E-03 0.  1.
     -623    1    1    2    0    0  0.13673027307E-02 -0.18928195221E-02  0.41721359681E-03  0.17130000002E+03  0.17130000000E+03 0.  1.
      622    1    1    2    0    0 -0.64895477070E-02 -0.53530240479E-02  0.38642786005E+01  0.38644042065E+01  0.30000000000E-01 0.  1.
</event>
<event>
 5   0  0.4961200E+08  0.9118800E+02  0.7818608E-02  0.1180000E+00
       11   -1    0    0    0    0  0.00000000000E+00  0.00000000000E+00  0.39999999673E+01  0.40000000000E+01  0.51109989000E-03 0.  1.
     -623   -1    0    0    0    0  0.00000000000E+00  0.00000000000E+00  0.12525980253E-10  0.17130000000E+03  0.17130000000E+03 0.  1.
       11    1    1    2    0    0  0.47968742483E-02 -0.94977663917E-03  0.31965291047E+00  0.31969072002E+00  0.51109989000E-03 0.  1.
     -623    1    1    2    0    0 -0.71700023146E-03 -0.18611563864E-02  0.16339795323E-03  0.17130000001E+03  0.17130000000E+03 0.  1.
      622    1    1    2    0    0 -0.40798740168E-02  0.28109330256E-02  0.36801836589E+01  0.36803092683E+01  0.30000000000E-01 0.  1.
</event>
<event>
 5   0  0.4961200E+08  0.9118800E+02  0.7818608E-02  0.1180000E+00
       11   -1    0    0    0    0  0.00000000000E+00  0.00000000000E+00  0.39999999673E+01  0.40000000000E+01  0.51109989000E-03 0.  1.
     -623   -1    0    0    0    0  0.00000000000E+00  0.00000000000E+00  0.12525980253E-10  0.17130000000E+03  0.17130000000E+03 0. -1.
       11    1    1    2    0    0  0.16159630422E-01  0.18385538571E-01  0.12802426623E+00  0.13034429658E+00  0.51109989000E-03 0.  1.
     -623    1    1    2    0    0 -0.97105679019E-02 -0.56986157104E-02  0.24628488542E-02  0.17130000039E+03  0.17130000000E+03 0. -1.
      622    1    1    2    0    0 -0.64490625201E-02 -0.12686922861E-01  0.38695128523E+01  0.38696553157E+01  0.30000000000E-01 0.  1.
</event>
<event>
 5   0  0.4961200E+08  0.9118800E+02  0.7818608E-02  0.1180000E+00
       11   -1    0    0    0    0  0.00000000000E+00  0.00000000000E+00  0.39999999673E+01  0.40000000000E+01  0.51109989000E-03 0. -1.
     -623   -1    0    0    0    0  0.00000000000E+00  0.00000000000E+00  0.12525980253E-10  0.17130000000E+03  0.17130000000E+03 0.  1.
       11    1    1    2    0    0 -0.26416286858E-02 -0.66755698387E-02  0.24842045843E+00  0.24852470063E+00  0.51109989000E-03 0. -1.
     -623    1    1    2    0    0 -0.25307883623E-03 -0.12635216208E-04  0.23124360322E-03  0.17130000000E+03  0.17130000000E+03 0.  1.
      622    1    1    2    0    0  0.28947075221E-02  0.66882050549E-02  0.37513482658E+01  0.37514752995E+01  0.30000000000E-01 0. -1.
</event>
<event>
 5   0  0.4961200E+08  0.9118800E+02  0.7818608E-02  0.1180000E+00
       11   -1    0    0    0    0  0.00000000000E+00  0.00000000000E+00  0.39999999673E+01  0.40000000000E+01  0.51109989000E-03 0.  1.
     -623   -1    0    0    0    0  0.00000000000E+00  0.00000000000E+00  0.12525980253E-10  0.17130000000E+03  0.17130000000E+03 0. -1.
       11    1    1    2    0    0 -0.77896297238E-03 -0.93719942462E-03  0.18237495370E-01  0.18285310676E-01  0.51109989000E-03 0.  1.
     -623    1    1    2    0    0  0.43422833705E-03 -0.14756197615E-03  0.16096428808E-03  0.17130000000E+03  0.17130000000E+03 0. -1.
      622    1    1    2    0    0  0.34473463524E-03  0.10847614008E-02  0.39816015085E+01  0.39817146895E+01  0.30000000000E-01 0.  1.
</event>
<event>
 5   0  0.4961200E+08  0.9118800E+02  0.7818608E-02  0.1180000E+00
       11   -1    0    0    0    0  0.00000000000E+00  0.00000000000E+00  0.39999999673E+01  0.40000000000E+01  0.51109989000E-03 0. -1.
     -623   -1    0    0    0    0  0.00000000000E+00  0.00000000000E+00  0.12525980253E-10  0.17130000000E+03  0.17130000000E+03 0.  1.
       11    1    1    2    0    0 -0.13838296184E-01  0.97006489215E-02  0.70705693146E+00  0.70725905196E+00  0.51109989000E-03 0. -1.
     -623    1    1    2    0    0  0.17199194257E-02 -0.67038302272E-02  0.36255978789E-03  0.17130000014E+03  0.17130000000E+03 0.  1.
      622    1    1    2    0    0  0.12118376758E-01 -0.29968186943E-02  0.32925804761E+01  0.32927408078E+01  0.30000000000E-01 0. -1.
</event>
<event>
 5   0  0.4961200E+08  0.9118800E+02  0.7818608E-02  0.1180000E+00
       11   -1    0    0    0    0  0.00000000000E+00  0.00000000000E+00  0.39999999673E+01  0.40000000000E+01  0.51109989000E-03 0. -1.
     -623   -1    0    0    0    0  0.00000000000E+00  0.00000000000E+00  0.12525980253E-10  0.17130000000E+03  0.17130000000E+03 0. -1.
       11    1    1    2    0    0 -0.38198999023E-02 -0.10206709720E-02  0.61000322601E-01  0.61130466913E-01  0.51109989000E-03 0. -1.
     -623    1    1    2    0    0  0.99546949517E-02  0.36788705426E-02  0.25036285598E-03  0.17130000033E+03  0.17130000000E+03 0. -1.
      622    1    1    2    0    0 -0.61347950520E-02 -0.26581995715E-02  0.39387492829E+01  0.39388692052E+01  0.30000000000E-01 0. -1.
</event>
<event>
 5   0  0.4961200E+08  0.9118800E+02  0.7818608E-02  0.1180000E+00
       11   -1    0    0    0    0  0.00000000000E+00  0.00000000000E+00  0.39999999673E+01  0.40000000000E+01  0.51109989000E-03 0.  1.
     -623   -1    0    0    0    0  0.00000000000E+00  0.00000000000E+00  0.12525980253E-10  0.17130000000E+03  0.17130000000E+03 0.  1.
       11    1    1    2    0    0  0.33262189204E-03 -0.42023855429E-02  0.11705106833E+00  0.11712806881E+00  0.51109989000E-03 0.  1.
     -623    1    1    2    0    0 -0.69472752604E-03  0.59590128484E-04  0.19509170337E-03  0.17130000000E+03  0.17130000000E+03 0.  1.
      622    1    1    2    0    0  0.36210563406E-03  0.41427954145E-02  0.38827538077E+01  0.38828719300E+01  0.30000000000E-01 0.  1.
</event>
<event>
 5   0  0.4961200E+08  0.9118800E+02  0.7818608E-02  0.1180000E+00
       11   -1    0    0    0    0  0.00000000000E+00  0.00000000000E+00  0.39999999673E+01  0.40000000000E+01  0.51109989000E-03 0. -1.
     -623   -1    0    0    0    0  0.00000000000E+00  0.00000000000E+00  0.12525980253E-10  0.17130000000E+03  0.17130000000E+03 0.  1.
       11    1    1    2    0    0  0.26169604296E-02  0.10636377565E-03  0.96418151616E-01  0.96455072336E-01  0.51109989000E-03 0. -1.
     -623    1    1    2    0    0  0.11377942064E-03  0.16925636995E-03  0.15313471163E-03  0.17130000000E+03  0.17130000000E+03 0.  1.
      622    1    1    2    0    0 -0.27307398503E-02 -0.27562014562E-03  0.39034286817E+01  0.39035449281E+01  0.30000000000E-01 0. -1.
</event>
<event>
 5   0  0.4961200E+08  0.9118800E+02  0.7818608E-02  0.1180000E+00
       11   -1    0    0    0    0  0.00000000000E+00  0.00000000000E+00  0.39999999673E+01  0.40000000000E+01  0.51109989000E-03 0.  1.
     -623   -1    0    0    0    0  0.00000000000E+00  0.00000000000E+00  0.12525980253E-10  0.17130000000E+03  0.17130000000E+03 0.  1.
       11    1    1    2    0    0 -0.13741179044E-01  0.12788070365E-01  0.11776649968E+00  0.11925420081E+00  0.51109989000E-03 0.  1.
     -623    1    1    2    0    0  0.12223512003E-01  0.23626340720E-02  0.16339600223E-02  0.17130000046E+03  0.17130000000E+03 0.  1.
      622    1    1    2    0    0  0.15176670409E-02 -0.15150704437E-01  0.38805995077E+01  0.38807453390E+01  0.30000000000E-01 0.  1.
</event>
<event>
 5   0  0.4961200E+08  0.9118800E+02  0.7818608E-02  0.1180000E+00
       11   -1    0    0    0    0  0.00000000000E+00  0.00000000000E+00  0.39999999673E+01  0.40000000000E+01  0.51109989000E-03 0.  1.
     -623   -1    0    0    0    0  0.00000000000E+00  0.00000000000E+00  0.12525980253E-10  0.17130000000E+03  0.17130000000E+03 0.  1.
       11    1    1    2    0    0 -0.87104140218E-02  0.26442120814E-02  0.10847752363E+00  0.10885999047E+00  0.51109989000E-03 0.  1.
     -623    1    1    2    0    0 -0.83758618840E-03 -0.12213810527E-02  0.51006528040E-03  0.17130000001E+03  0.17130000000E+03 0.  1.
      622    1    1    2    0    0  0.95480002102E-02 -0.14228310287E-02  0.38910123783E+01  0.38911400022E+01  0.30000000000E-01 0.  1.
</event>
<event>
 5   0  0.4961200E+08  0.9118800E+02  0.7818608E-02  0.1180000E+00
       11   -1    0    0    0    0  0.00000000000E+00  0.00000000000E+00  0.39999999673E+01  0.40000000000E+01  0.51109989000E-03 0.  1.
     -623   -1    0    0    0    0  0.00000000000E+00  0.00000000000E+00  0.12525980253E-10  0.17130000000E+03  0.17130000000E+03 0. -1.
       11    1    1    2    0    0  0.46452991623E-02  0.55493272675E-02  0.99061492834E-01  0.99326806157E-01  0.51109989000E-03 0.  1.
     -623    1    1    2    0    0  0.10583082842E-03 -0.11339008887E-02  0.38604403419E-03  0.17130000000E+03  0.17130000000E+03 0. -1.
      622    1    1    2    0    0 -0.47511299907E-02 -0.44154263787E-02  0.39005524305E+01  0.39006731896E+01  0.30000000000E-01 0.  1.
</event>
<event>
 5   0  0.4961200E+08  0.9118800E+02  0.7818608E-02  0.1180000E+00
       11   -1    0    0    0    0  0.00000000000E+00  0.00000000000E+00  0.39999999673E+01  0.40000000000E+01  0.51109989000E-03 0. -1.
     -623   -1    0    0    0    0  0.00000000000E+00  0.00000000000E+00  0.12525980253E-10  0.17130000000E+03  0.17130000000E+03 0. -1.
       11    1    1    2    0    0  0.28934239740E-03  0.38652409122E-02  0.12681213043E+00  0.12687238255E+00  0.51109989000E-03 0. -1.
     -623    1    1    2    0    0  0.18423578084E-02 -0.23386988662E-02  0.17731983599E-03  0.17130000003E+03  0.17130000000E+03 0. -1.
      622    1    1    2    0    0 -0.21317002058E-02 -0.15265420460E-02  0.38730105171E+01  0.38731275915E+01  0.30000000000E-01 0. -1.
</event>
<event>
 5   0  0.4961200E+08  0.9118800E+02  0.7818608E-02  0.1180000E+00
       11   -1    0    0    0    0  0.00000000000E+00  0.00000000000E+00  0.39999999673E+01  0.40000000000E+01  0.51109989000E-03 0. -1.
     -623   -1    0    0    0    0  0.00000000000E+00  0.00000000000E+00  0.12525980253E-10  0.17130000000E+03  0.17130000000E+03 0.  1.
       11    1    1    2    0    0 -0.27332590798E-04  0.14136003322E-02  0.65566858284E-01  0.65584092136E-01  0.51109989000E-03 0. -1.
     -623    1    1    2    0    0 -0.53299851294E-02 -0.18179859886E-02  0.13533909843E-03  0.17130000009E+03  0.17130000000E+03 0.  1.
      622    1    1    2    0    0  0.53573177207E-02  0.40438565661E-03  0.39342977704E+01  0.39344158156E+01  0.30000000000E-01 0. -1.
</event>
<event>
 5   0  0.4961200E+08  0.9118800E+02  0.7818608E-02  0.1180000E+00
       11   -1    0    0    0    0  0.00000000000E+00  0.00000000000E+00  0.39999999673E+01  0.40000000000E+01  0.51109989000E-03 0.  1.
     -623   -1    0    0    0    0  0.00000000000E+00  0.00000000000E+00  0.12525980253E-10  0.17130000000E+03  0.17130000000E+03 0.  1.
       11    1    1    2    0    0 -0.62090416954E-02 -0.81086333825E-02  0.30408574325E+00  0.30425762539E+00  0.51109989000E-03 0.  1.
     -623    1    1    2    0    0 -0.34468548202E-03 -0.21653367668E-02  0.31371974291E-03  0.17130000001E+03  0.17130000000E+03 0.  1.
      622    1    1    2    0    0  0.65537271775E-02  0.10273970150E-01  0.36956005054E+01  0.36957423613E+01  0.30000000000E-01 0.  1.
</event>
<event>
 5   0  0.4961200E+08  0.9118800E+02  0.7818608E-02  0.1180000E+00
       11   -1    0    0    0    0  0.00000000000E+00  0.00000000000E+00  0.39999999673E+01  0.40000000000E+01  0.51109989000E-03 0.  1.
     -623   -1    0    0    0    0  0.00000000000E+00  0.00000000000E+00  0.12525980253E-10  0.17130000000E+03  0.17130000000E+03 0.  1.
       11    1    1    2    0    0 -0.18475143106E-01  0.79090742152E-01  0.30135838377E+00  0.31211185991E+00  0.51109989000E-03 0.  1.
     -623    1    1    2    0    0  0.33929808613E-02 -0.28492817635E-01  0.11256214706E-01  0.17130000277E+03  0.17130000000E+03 0.  1.
      622    1    1    2    0    0  0.15082162245E-01 -0.50597924516E-01  0.36873853689E+01  0.36878853670E+01  0.30000000000E-01 0.  1.
</event>
<event>
 5   0  0.4961200E+08  0.9118800E+02  0.7818608E-02  0.1180000E+00
       11   -1    0    0    0    0  0.00000000000E+00  0.00000000000E+00  0.39999999673E+01  0.40000000000E+01  0.51109989000E-03 0.  1.
     -623   -1    0    0    0    0  0.00000000000E+00  0.00000000000E+00  0.12525980253E-10  0.17130000000E+03  0.17130000000E+03 0. -1.
       11    1    1    2    0    0 -0.39531730597E-02  0.40008707508E-02  0.10243584994E+00  0.10259141834E+00  0.51109989000E-03 0.  1.
     -623    1    1    2    0    0 -0.19649474445E-02 -0.25058527631E-02  0.27580877600E-03  0.17130000003E+03  0.17130000000E+03 0. -1.
      622    1    1    2    0    0  0.59181205041E-02 -0.14950179878E-02  0.38972883086E+01  0.38974085518E+01  0.30000000000E-01 0.  1.
</event>
<event>
 5   0  0.4961200E+08  0.9118800E+02  0.7818608E-02  0.1180000E+00
       11   -1    0    0    0    0  0.00000000000E+00  0.00000000000E+00  0.39999999673E+01  0.40000000000E+01  0.51109989000E-03 0.  1.
     -623   -1    0    0    0    0  0.00000000000E+00  0.00000000000E+00  0.12525980253E-10  0.17130000000E+03  0.17130000000E+03 0.  1.
       11    1    1    2    0    0 -0.15864285120E-02  0.32407820094E-02  0.19413695081E+00  0.19417115212E+00  0.51109989000E-03 0.  1.
     -623    1    1    2    0    0  0.15733766011E-03  0.80860217284E-03  0.15483489445E-03  0.17130000000E+03  0.17130000000E+03 0.  1.
      622    1    1    2    0    0  0.14290908519E-02 -0.40493841823E-02  0.38057081822E+01  0.38058288463E+01  0.30000000000E-01 0.  1.
</event>
<event>
 5   0  0.4961200E+08  0.9118800E+02  0.7818608E-02  0.1180000E+00
       11   -1    0    0    0    0  0.00000000000E+00  0.00000000000E+00  0.39999999673E+01  0.40000000000E+01  0.51109989000E-03 0.  1.
     -623   -1    0    0    0    0  0.00000000000E+00  0.00000000000E+00  0.12525980253E-10  0.17130000000E+03  0.17130000000E+03 0.  1.
       11    1    1    2    0    0 -0.32847368806E-03  0.63310176883E-04  0.27007590661E-01  0.27014497581E-01  0.51109989000E-03 0.  1.
     -623    1    1    2    0    0 -0.32255490045E-05  0.23190370715E-03  0.12016585756E-03  0.17130000000E+03  0.17130000000E+03 0.  1.
      622    1    1    2    0    0  0.33169923707E-03 -0.29521388422E-03  0.39728722141E+01  0.39729855055E+01  0.30000000000E-01 0.  1.
</event>
<event>
 5   0  0.4961200E+08  0.9118800E+02  0.7818608E-02  0.1180000E+00
       11   -1    0    0    0    0  0.00000000000E+00  0.00000000000E+00  0.39999999673E+01  0.40000000000E+01  0.51109989000E-03 0. -1.
     -623   -1    0    0    0    0  0.00000000000E+00  0.00000000000E+00  0.12525980253E-10  0.17130000000E+03  0.17130000000E+03 0.  1.
       11    1    1    2    0    0 -0.48585535026E-02  0.11537335253E-02  0.28304962869E-01  0.28746630896E-01  0.51109989000E-03 0. -1.
     -623    1    1    2    0    0  0.39101908031E-02  0.25898364256E-02  0.55689423044E-03  0.17130000007E+03  0.17130000000E+03 0.  1.
      622    1    1    2    0    0  0.94836269947E-03 -0.37435699509E-02  0.39711381103E+01  0.39712533040E+01  0.30000000000E-01 0. -1.
</event>
<event>
 5   0  0.4961200E+08  0.9118800E+02  0.7818608E-02  0.1180000E+00
       11   -1    0    0    0    0  0.00000000000E+00  0.00000000000E+00  0.39999999673E+01  0.40000000000E+01  0.51109989000E-03 0. -1.
     -623   -1    0    0    0    0  0.00000000000E+00  0.00000000000E+00  0.12525980253E-10  0.17130000000E+03  0.17130000000E+03 0. -1.
       11    1    1    2    0    0 -0.71772675359E-03  0.29271450119E-03  0.14785074517E-01  0.14814198030E-01  0.51109989000E-03 0. -1.
     -623    1    1    2    0    0  0.13345347676E-03  0.47191147806E-03  0.14212761907E-03  0.17130000000E+03  0.17130000000E+03 0. -1.
      622    1    1    2    0    0  0.58427327683E-03 -0.76462597925E-03  0.39850727652E+01  0.39851858012E+01  0.30000000000E-01 0. -1.
</event>
<event>
 5   0  0.4961200E+08  0.9118800E+02  0.7818608E-02  0.1180000E+00
       11   -1    0    0    0    0  0.00000000000E+00  0.00000000000E+00  0.39999999673E+01  0.40000000000E+01  0.51109989000E-03 0.  1.
     -623   -1    0    0    0    0  0.00000000000E+00  0.00000000000E+00  0.12525980253E-10  0.17130000000E+03  0.17130000000E+03 0. -1.
       11    1    1    2    0    0 -0.29700163662E-01  0.14516032138E-01  0.80061332999E+00  0.80129568842E+00  0.51109989000E-03 0.  1.
     -623    1    1    2    0    0  0.32055623524E-02  0.40228541200E-02  0.98655194611E-03  0.17130000008E+03  0.17130000000E+03 0. -1.
      622    1    1    2    0    0  0.26494601310E-01 -0.18538886258E-01  0.31984000854E+01  0.31987042315E+01  0.30000000000E-01 0. -1.
</event>
<event>
 5   0  0.4961200E+08  0.9118800E+02  0.7818608E-02  0.1180000E+00
       11   -1    0    0    0    0  0.00000000000E+00  0.00000000000E+00  0.39999999673E+01  0.40000000000E+01  0.51109989000E-03 0.  1.
     -623   -1    0    0    0    0  0.00000000000E+00  0.00000000000E+00  0.12525980253E-10  0.17130000000E+03  0.17130000000E+03 0. -1.
       11    1    1    2    0    0  0.25685676349E-01  0.12126611607E-01  0.17720128298E+00  0.17946410391E+00  0.51109989000E-03 0.  1.
     -623    1    1    2    0    0 -0.26074425324E-01 -0.98487877428E-02  0.23835576870E-02  0.17130000228E+03  0.17130000000E+03 0. -1.
      622    1    1    2    0    0  0.38874897484E-03 -0.22778238638E-02  0.38204151267E+01  0.38205336119E+01  0.30000000000E-01 0.  1.
</event>
<event>
 5   0  0.4961200E+08  0.9118800E+02  0.7818608E-02  0.1180000E+00
       11   -1    0    0    0    0  0.00000000000E+00  0.00000000000E+00  0.39999999673E+01  0.40000000000E+01  0.51109989000E-03 0.  1.
     -623   -1    0    0    0    0  0.00000000000E+00  0.00000000000E+00  0.12525980253E-10  0.17130000000E+03  0.17130000000E+03 0.  1.
       11    1    1    2    0    0  0.66311901503E-02 -0.94665592800E-02  0.96454023748E+00  0.96460962020E+00  0.51109989000E-03 0.  1.
     -623    1    1    2    0    0  0.51638173340E-03 -0.24125029326E-03  0.24154634040E-03  0.17130000000E+03  0.17130000000E+03 0.  1.
      622    1    1    2    0    0 -0.71475718837E-02  0.97078095733E-02  0.30352181835E+01  0.30353903787E+01  0.30000000000E-01 0.  1.
</event>
<event>
 5   0  0.4961200E+08  0.9118800E+02  0.7818608E-02  0.1180000E+00
       11   -1    0    0    0    0  0.00000000000E+00  0.00000000000E+00  0.39999999673E+01  0.40000000000E+01  0.51109989000E-03 0.  1.
     -623   -1    0    0    0    0  0.00000000000E+00  0.00000000000E+00  0.12525980253E-10  0.17130000000E+03  0.17130000000E+03 0.  1.
       11    1    1    2    0    0  0.28028504299E-03  0.24321012265E-02  0.26664383143E+00  0.26665556011E+00  0.51109989000E-03 0.  1.
     -623    1    1    2    0    0 -0.45186210914E-02  0.73998762587E-03  0.13604814045E-03  0.17130000006E+03  0.17130000000E+03 0.  1.
      622    1    1    2    0    0  0.42383360484E-02 -0.31720888523E-02  0.37332200878E+01  0.37333443786E+01  0.30000000000E-01 0.  1.
</event>
<event>
 5   0  0.4961200E+08  0.9118800E+02  0.7818608E-02  0.1180000E+00
       11   -1    0    0    0    0  0.00000000000E+00  0.00000000000E+00  0.39999999673E+01  0.40000000000E+01  0.51109989000E-03 0. -1.
     -623   -1    0    0    0    0  0.00000000000E+00  0.00000000000E+00  0.12525980253E-10  0.17130000000E+03  0.17130000000E+03 0. -1.
       11    1    1    2    0    0  0.29043838802E-01  0.14506530487E-01  0.93314325815E+00  0.93370797654E+00  0.51109989000E-03 0. -1.
     -623    1    1    2    0    0 -0.21567065264E-01 -0.23476791311E-01  0.73665222472E-03  0.17130000297E+03  0.17130000000E+03 0. -1.
      622    1    1    2    0    0 -0.74767735393E-02  0.89702608222E-02  0.30661200568E+01  0.30662890552E+01  0.30000000000E-01 0. -1.
</event>
<event>
 5   0  0.4961200E+08  0.9118800E+02  0.7818608E-02  0.1180000E+00
       11   -1    0    0    0    0  0.00000000000E+00  0.00000000000E+00  0.39999999673E+01  0.40000000000E+01  0.51109989000E-03 0. -1.
     -623   -1    0    0    0    0  0.00000000000E+00  0.00000000000E+00  0.12525980253E-10  0.17130000000E+03  0.17130000000E+03 0. -1.
       11    1    1    2    0    0 -0.75029498071E-03  0.13276705799E-06  0.42715438524E-01  0.42725084598E-01  0.51109989000E-03 0. -1.
     -623    1    1    2    0    0 -0.30582736886E-03  0.20728387072E-03  0.12347649775E-03  0.17130000000E+03  0.17130000000E+03 0. -1.
      622    1    1    2    0    0  0.10561223495E-02 -0.20741663772E-03  0.39571610512E+01  0.39572749139E+01  0.30000000000E-01 0. -1.
</event>
<event>
 5   0  0.4961200E+08  0.9118800E+02  0.7818608E-02  0.1180000E+00
       11   -1    0    0    0    0  0.00000000000E+00  0.00000000000E+00  0.39999999673E+01  0.40000000000E+01  0.51109989000E-03 0. -1.
     -623   -1    0    0    0    0  0.00000000000E+00  0.00000000000E+00  0.12525980253E-10  0.17130000000E+03  0.17130000000E+03 0. -1.
       11    1    1    2    0    0 -0.48295159792E-02 -0.13668474335E-01  0.35754042471E+00  0.35783455386E+00  0.51109989000E-03 0. -1.
     -623    1    1    2    0    0  0.41032014095E-02  0.80664957892E-02  0.42227182205E-03  0.17130000024E+03  0.17130000000E+03 0. -1.
      622    1    1    2    0    0  0.72631456963E-03  0.56019785463E-02  0.36420372708E+01  0.36421652065E+01  0.30000000000E-01 0. -1.
</event>
<event>
 5   0  0.4961200E+08  0.9118800E+02  0.7818608E-02  0.1180000E+00
       11   -1    0    0    0    0  0.00000000000E+00  0.00000000000E+00  0.39999999673E+01  0.40000000000E+01  0.51109989000E-03 0. -1.
     -623   -1    0    0    0    0  0.00000000000E+00  0.00000000000E+00  0.12525980253E-10  0.17130000000E+03  0.17130000000E+03 0. -1.
       11    1    1    2    0    0  0.57977866428E-02 -0.45710895347E-02  0.10501501947E+01  0.10501762718E+01  0.51109989000E-03 0. -1.
     -623    1    1    2    0    0  0.58291548011E-02  0.45447373393E-02  0.20167508624E-03  0.17130000016E+03  0.17130000000E+03 0. -1.
      622    1    1    2    0    0 -0.11626941444E-01  0.26352195320E-04  0.29496480975E+01  0.29498235686E+01  0.30000000000E-01 0. -1.
</event>
<event>
 5   0  0.4961200E+08  0.9118800E+02  0.7818608E-02  0.1180000E+00
       11   -1    0    0    0    0  0.00000000000E+00  0.00000000000E+00  0.39999999673E+01  0.40000000000E+01  0.51109989000E-03 0.  1.
     -623   -1    0    0    0    0  0.00000000000E+00  0.00000000000E+00  0.12525980253E-10  0.17130000000E+03  0.17130000000E+03 0.  1.
       11    1    1    2    0    0 -0.13048912600E-02  0.16653947988E-02  0.27283684175E-01  0.27370365842E-01  0.51109989000E-03 0.  1.
     -623    1    1    2    0    0 -0.14623033817E-02 -0.20365990818E-04  0.20123649604E-03  0.17130000001E+03  0.17130000000E+03 0.  1.
      622    1    1    2    0    0  0.27671946414E-02 -0.16450288080E-02  0.39725150458E+01  0.39726296269E+01  0.30000000000E-01 0.  1.
</event>
<event>
 5   0  0.4961200E+08  0.9118800E+02  0.7818608E-02  0.1180000E+00
       11   -1    0    0    0    0  0.00000000000E+00  0.00000000000E+00  0.39999999673E+01  0.40000000000E+01  0.51109989000E-03 0. -1.
     -623   -1    0    0    0    0  0.00000000000E+00  0.00000000000E+00  0.12525980253E-10  0.17130000000E+03  0.17130000000E+03 0. -1.
       11    1    1    2    0    0  0.93481146129E-03  0.80605166060E-03  0.25022386690E+00  0.25022743331E+00  0.51109989000E-03 0. -1.
     -623    1    1    2    0    0 -0.25756388227E-03 -0.20608206533E-02  0.12382670786E-03  0.17130000001E+03  0.17130000000E+03 0. -1.
      622    1    1    2    0    0 -0.67724757903E-03  0.12547689927E-02  0.37496522737E+01  0.37497725541E+01  0.30000000000E-01 0. -1.
</event>
<event>
 5   0  0.4961200E+08  0.9118800E+02  0.7818608E-02  0.1180000E+00
       11   -1    0    0    0    0  0.00000000000E+00  0.00000000000E+00  0.39999999673E+01  0.40000000000E+01  0.51109989000E-03 0.  1.
     -623   -1    0    0    0    0  0.00000000000E+00  0.00000000000E+00  0.12525980253E-10  0.17130000000E+03  0.17130000000E+03 0. -1.
       11    1    1    2    0    0  0.44689873223E-02 -0.27108195996E-02  0.72834323185E-01  0.73023422585E-01  0.51109989000E-03 0.  1.
     -623    1    1    2    0    0  0.97845547474E-04 -0.67636912641E-03  0.30777844062E-03  0.17130000000E+03  0.17130000000E+03 0. -1.
      622    1    1    2    0    0 -0.45668328697E-02  0.33871887261E-02  0.39268578657E+01  0.39269765758E+01  0.30000000000E-01 0.  1.
</event>
<event>
 5   0  0.4961200E+08  0.9118800E+02  0.7818608E-02  0.1180000E+00
       11   -1    0    0    0    0  0.00000000000E+00  0.00000000000E+00  0.39999999673E+01  0.40000000000E+01  0.51109989000E-03 0. -1.
     -623   -1    0    0    0    0  0.00000000000E+00  0.00000000000E+00  0.12525980253E-10  0.17130000000E+03  0.17130000000E+03 0. -1.
       11    1    1    2    0    0 -0.58583140087E-04 -0.36104054501E-02  0.51557361389E+00  0.51558651168E+00  0.51109989000E-03 0. -1.
     -623    1    1    2    0    0 -0.25959871740E-03  0.36661822405E-05  0.14389562941E-03  0.17130000000E+03  0.17130000000E+03 0. -1.
      622    1    1    2    0    0  0.31818185755E-03  0.36067392678E-02  0.34842824588E+01  0.34844134890E+01  0.30000000000E-01 0. -1.
</event>
<event>
 5   0  0.4961200E+08  0.9118800E+02  0.7818608E-02  0.1180000E+00
       11   -1    0    0    0    0  0.00000000000E+00  0.00000000000E+00  0.39999999673E+01  0.40000000000E+01  0.51109989000E-03 0.  1.
     -623   -1    0    0    0    0  0.00000000000E+00  0.00000000000E+00  0.12525980253E-10  0.17130000000E+03  0.17130000000E+03 0. -1.
       11    1    1    2    0    0 -0.12092314216E-02 -0.54238755016E-02  0.82454932115E-01  0.82643558235E-01  0.51109989000E-03 0.  1.
     -623    1    1    2    0    0 -0.48485446124E-03  0.24542334240E-03  0.30725887327E-03  0.17130000000E+03  0.17130000000E+03 0. -1.
      622    1    1    2    0    0  0.16940858828E-02  0.51784521592E-02  0.39172377764E+01  0.39173564406E+01  0.30000000000E-01 0.  1.
</event>
<event>
 5   0  0.4961200E+08  0.9118800E+02  0.7818608E-02  0.1180000E+00
       11   -1    0    0    0    0  0.00000000000E+00  0.00000000000E+00  0.39999999673E+01  0.40000000000E+01  0.51109989000E-03 0. -1.
     -623   -1    0    0    0    0  0.00000000000E+00  0.00000000000E+00  0.12525980253E-10  0.17130000000E+03  0.17130000000E+03 0.  1.
       11    1    1    2    0    0 -0.82133057990E-02 -0.71456926363E-02  0.81395851700E+00  0.81403147847E+00  0.51109989000E-03 0. -1.
     -623    1    1    2    0    0 -0.17989739740E-03  0.23572812149E-02  0.22884750183E-03  0.17130000002E+03  0.17130000000E+03 0.  1.
      622    1    1    2    0    0  0.83932031963E-02  0.47884114218E-02  0.31858126023E+01  0.31859685045E+01  0.30000000000E-01 0. -1.
</event>
<event>
 5   0  0.4961200E+08  0.9118800E+02  0.7818608E-02  0.1180000E+00
       11   -1    0    0    0    0  0.00000000000E+00  0.00000000000E+00  0.39999999673E+01  0.40000000000E+01  0.51109989000E-03 0. -1.
     -623   -1    0    0    0    0  0.00000000000E+00  0.00000000000E+00  0.12525980253E-10  0.17130000000E+03  0.17130000000E+03 0.  1.
       11    1    1    2    0    0  0.32534625592E-02 -0.51767418085E-02  0.15126181581E+00  0.15138620088E+00  0.51109989000E-03 0. -1.
     -623    1    1    2    0    0  0.14072696145E-02  0.67635384912E-03  0.24674027147E-03  0.17130000001E+03  0.17130000000E+03 0.  1.
      622    1    1    2    0    0 -0.46607321737E-02  0.45003879594E-02  0.38484914113E+01  0.38486137918E+01  0.30000000000E-01 0. -1.
</event>
<event>
 5   0  0.4961200E+08  0.9118800E+02  0.7818608E-02  0.1180000E+00
       11   -1    0    0    0    0  0.00000000000E+00  0.00000000000E+00  0.39999999673E+01  0.40000000000E+01  0.51109989000E-03 0.  1.
     -623   -1    0    0    0    0  0.00000000000E+00  0.00000000000E+00  0.12525980253E-10  0.17130000000E+03  0.17130000000E+03 0.  1.
       11    1    1    2    0    0  0.29264608551E-02  0.46401389647E-02  0.57166471913E-01  0.57431365954E-01  0.51109989000E-03 0.  1.
     -623    1    1    2    0    0 -0.21244911768E-02  0.15885065140E-02  0.38402466939E-03  0.17130000002E+03  0.17130000000E+03 0.  1.
      622    1    1    2    0    0 -0.80196967831E-03 -0.62286454786E-02  0.39424494708E+01  0.39425686131E+01  0.30000000000E-01 0.  1.
</event>
<event>
 5   0  0.4961200E+08  0.9118800E+02  0.7818608E-02  0.1180000E+00
       11   -1    0    0    0    0  0.00000000000E+00  0.00000000000E+00  0.39999999673E+01  0.40000000000E+01  0.51109989000E-03 0.  1.
     -623   -1    0    0    0    0  0.00000000000E+00  0.00000000000E+00  0.12525980253E-10  0.17130000000E+03  0.17130000000E+03 0. -1.
       11    1    1    2    0    0  0.31640191626E-01  0.33352809742E-01  0.53495761917E+00  0.53692962963E+00  0.51109989000E-03 0.  1.
     -623    1    1    2    0    0  0.39238191560E-02 -0.86593757742E-02  0.23728744199E-02  0.17130000028E+03  0.17130000000E+03 0. -1.
      622    1    1    2    0    0 -0.35564010782E-01 -0.24693433967E-01  0.34626694739E+01  0.34630700903E+01  0.30000000000E-01 0.  1.
</event>
<event>
 5   0  0.4961200E+08  0.9118800E+02  0.7818608E-02  0.1180000E+00
       11   -1    0    0    0    0  0.00000000000E+00  0.00000000000E+00  0.39999999673E+01  0.40000000000E+01  0.51109989000E-03 0.  1.
     -623   -1    0    0    0    0  0.00000000000E+00  0.00000000000E+00  0.12525980253E-10  0.17130000000E+03  0.17130000000E+03 0.  1.
       11    1    1    2    0    0 -0.11025119864E-02  0.17437942679E-04  0.10451969981E-01  0.10522392140E-01  0.51109989000E-03 0.  1.
     -623    1    1    2    0    0  0.35571133362E-03  0.18129854103E-02  0.18368772079E-03  0.17130000001E+03  0.17130000000E+03 0.  1.
      622    1    1    2    0    0  0.74680065287E-03 -0.18304233526E-02  0.39893643090E+01  0.39894775971E+01  0.30000000000E-01 0.  1.
</event>
<event>
 5   0  0.4961200E+08  0.9118800E+02  0.7818608E-02  0.1180000E+00
       11   -1    0    0    0    0  0.00000000000E+00  0.00000000000E+00  0.39999999673E+01  0.40000000000E+01  0.51109989000E-03 0. -1.
     -623   -1    0    0    0    0  0.00000000000E+00  0.00000000000E+00  0.12525980253E-10  0.17130000000E+03  0.17130000000E+03 0.  1.
       11    1    1    2    0    0  0.37119971335E-03 -0.16794069336E-04  0.34978181087E-01  0.34983888356E-01  0.51109989000E-03 0. -1.
     -623    1    1    2    0    0 -0.21901952934E-02 -0.49430905408E-03  0.11963380991E-03  0.17130000001E+03  0.17130000000E+03 0.  1.
      622    1    1    2    0    0  0.18189955800E-02  0.51110312342E-03  0.39649021525E+01  0.39650160969E+01  0.30000000000E-01 0. -1.
</event>
<event>
 5   0  0.4961200E+08  0.9118800E+02  0.7818608E-02  0.1180000E+00
       11   -1    0    0    0    0  0.00000000000E+00  0.00000000000E+00  0.39999999673E+01  0.40000000000E+01  0.51109989000E-03 0.  1.
     -623   -1    0    0    0    0  0.00000000000E+00  0.00000000000E+00  0.12525980253E-10  0.17130000000E+03  0.17130000000E+03 0.  1.
       11    1    1    2    0    0  0.19507448421E-02 -0.10359826741E-01  0.19694358903E+00  0.19722618969E+00  0.51109989000E-03 0.  1.
     -623    1    1    2    0    0 -0.37681596456E-03  0.13269377541E-01  0.40285820619E-03  0.17130000051E+03  0.17130000000E+03 0.  1.
      622    1    1    2    0    0 -0.15739288776E-02 -0.29095508002E-02  0.38026535201E+01  0.38027732955E+01  0.30000000000E-01 0.  1.
</event>
<event>
 5   0  0.4961200E+08  0.9118800E+02  0.7818608E-02  0.1180000E+00
       11   -1    0    0    0    0  0.00000000000E+00  0.00000000000E+00  0.39999999673E+01  0.40000000000E+01  0.51109989000E-03 0.  1.
     -623   -1    0    0    0    0  0.00000000000E+00  0.00000000000E+00  0.12525980253E-10  0.17130000000E+03  0.17130000000E+03 0. -1.
       11    1    1    2    0    0 -0.56785974777E-03 -0.58902287762E-03  0.70194399095E-01  0.70201027758E-01  0.51109989000E-03 0.  1.
     -623    1    1    2    0    0  0.16538062050E-03  0.14060614330E-02  0.12121880618E-03  0.17130000001E+03  0.17130000000E+03 0. -1.
      622    1    1    2    0    0  0.40247912727E-03 -0.81703855538E-03  0.39296843495E+01  0.39297989663E+01  0.30000000000E-01 0.  1.
</event>
<event>
 5   0  0.4961200E+08  0.9118800E+02  0.7818608E-02  0.1180000E+00
       11   -1    0    0    0    0  0.00000000000E+00  0.00000000000E+00  0.39999999673E+01  0.40000000000E+01  0.51109989000E-03 0. -1.
     -623   -1    0    0    0    0  0.00000000000E+00  0.00000000000E+00  0.12525980253E-10  0.17130000000E+03  0.17130000000E+03 0. -1.
       11    1    1    2    0    0  0.35416709706E-02  0.92154557530E-02  0.60613362936E+00  0.60621424094E+00  0.51109989000E-03 0. -1.
     -623    1    1    2    0    0  0.24439899385E-03  0.16033325039E-03  0.22824063088E-03  0.17130000000E+03  0.17130000000E+03 0. -1.
      622    1    1    2    0    0 -0.37860699645E-02 -0.93757890034E-02  0.33936380974E+01  0.33937857587E+01  0.30000000000E-01 0.  0.
</event>
<event>
 5   0  0.4961200E+08  0.9118800E+02  0.7818608E-02  0.1180000E+00
       11   -1    0    0    0    0  0.00000000000E+00  0.00000000000E+00  0.39999999673E+01  0.40000000000E+01  0.51109989000E-03 0.  1.
     -623   -1    0    0    0    0  0.00000000000E+00  0.00000000000E+00  0.12525980253E-10  0.17130000000E+03  0.17130000000E+03 0.  1.
       11    1    1    2    0    0 -0.38097790947E-03  0.19437368037E-02  0.16029406717E-01  0.16159404684E-01  0.51109989000E-03 0.  1.
     -623    1    1    2    0    0  0.54310309546E-03 -0.13334493916E-02  0.24297952345E-03  0.17130000001E+03  0.17130000000E+03 0.  1.
      622    1    1    2    0    0 -0.16212518607E-03 -0.61028741196E-03  0.39837275817E+01  0.39838405897E+01  0.30000000000E-01 0.  1.
</event>
<event>
 5   0  0.4961200E+08  0.9118800E+02  0.7818608E-02  0.1180000E+00
       11   -1    0    0    0    0  0.00000000000E+00  0.00000000000E+00  0.39999999673E+01  0.40000000000E+01  0.51109989000E-03 0. -1.
     -623   -1    0    0    0    0  0.00000000000E+00  0.00000000000E+00  0.12525980253E-10  0.17130000000E+03  0.17130000000E+03 0.  1.
       11    1    1    2    0    0 -0.43569713189E-02  0.99142120702E-03  0.29425549597E+00  0.29428986433E+00  0.51109989000E-03 0. -1.
     -623    1    1    2    0    0 -0.29136266093E-03  0.11267798199E-03  0.15885222838E-03  0.17130000000E+03  0.17130000000E+03 0.  1.
      622    1    1    2    0    0  0.46483339798E-02 -0.11040991890E-02  0.37055856192E+01  0.37057101353E+01  0.30000000000E-01 0. -1.
</event>
<event>
 5   0  0.4961200E+08  0.9118800E+02  0.7818608E-02  0.1180000E+00
       11   -1    0    0    0    0  0.00000000000E+00  0.00000000000E+00  0.39999999673E+01  0.40000000000E+01  0.51109989000E-03 0. -1.
     -623   -1    0    0    0    0  0.00000000000E+00  0.00000000000E+00  0.12525980253E-10  0.17130000000E+03  0.17130000000E+03 0.  1.
       11    1    1    2    0    0  0.62181902165E-02  0.48216027989E-02  0.78267573169E+00  0.78271545018E+00  0.51109989000E-03 0. -1.
     -623    1    1    2    0    0 -0.18388402075E-02 -0.74670904647E-02  0.18379952519E-03  0.17130000017E+03  0.17130000000E+03 0.  1.
      622    1    1    2    0    0 -0.43793500088E-02  0.26454876667E-02  0.32171404367E+01  0.32172843776E+01  0.30000000000E-01 0. -1.
</event>
<event>
 5   0  0.4961200E+08  0.9118800E+02  0.7818608E-02  0.1180000E+00
       11   -1    0    0    0    0  0.00000000000E+00  0.00000000000E+00  0.39999999673E+01  0.40000000000E+01  0.51109989000E-03 0. -1.
     -623   -1    0    0    0    0  0.00000000000E+00  0.00000000000E+00  0.12525980253E-10  0.17130000000E+03  0.17130000000E+03 0. -1.
       11    1    1    2    0    0 -0.25197726916E-02  0.75650286782E-03  0.26706623384E-01  0.26840762036E-01  0.51109989000E-03 0. -1.
     -623    1    1    2    0    0 -0.28256495441E-03  0.31139816635E-02  0.25026992609E-03  0.17130000003E+03  0.17130000000E+03 0. -1.
      622    1    1    2    0    0  0.28023376459E-02 -0.38704845310E-02  0.39730430735E+01  0.39731592087E+01  0.30000000000E-01 0. -1.
</event>
<event>
 5   0  0.4961200E+08  0.9118800E+02  0.7818608E-02  0.1180000E+00
       11   -1    0    0    0    0  0.00000000000E+00  0.00000000000E+00  0.39999999673E+01  0.40000000000E+01  0.51109989000E-03 0.  1.
     -623   -1    0    0    0    0  0.00000000000E+00  0.00000000000E+00  0.12525980253E-10  0.17130000000E+03  0.17130000000E+03 0.  1.
       11    1    1    2    0    0 -0.64977455480E-03 -0.29038295404E-02  0.57121649284E+00  0.57122447195E+00  0.51109989000E-03 0.  1.
     -623    1    1    2    0    0 -0.61912716301E-03  0.12439550026E-03  0.14055376156E-03  0.17130000000E+03  0.17130000000E+03 0.  1.
      622    1    1    2    0    0  0.12689017178E-02  0.27794340401E-02  0.34286429208E+01  0.34287755268E+01  0.30000000000E-01 0.  1.
</event>
<event>
 5   0  0.4961200E+08  0.9118800E+02  0.7818608E-02  0.1180000E+00
       11   -1    0    0    0    0  0.00000000000E+00  0.00000000000E+00  0.39999999673E+01  0.40000000000E+01  0.51109989000E-03 0.  1.
     -623   -1    0    0    0    0  0.00000000000E+00  0.00000000000E+00  0.12525980253E-10  0.17130000000E+03  0.17130000000E+03 0.  1.
       11    1    1    2    0    0 -0.78418168741E-03  0.50475896630E-02  0.12431977350E+00  0.12442572245E+00  0.51109989000E-03 0.  1.
     -623    1    1    2    0    0 -0.10276401819E-02 -0.41395322513E-03  0.22522720380E-03  0.17130000000E+03  0.17130000000E+03 0.  1.
      622    1    1    2    0    0  0.18118218693E-02 -0.46336364379E-02  0.38754549667E+01  0.38755742738E+01  0.30000000000E-01 0.  1.
</event>
<event>
 5   0  0.4961200E+08  0.9118800E+02  0.7818608E-02  0.1180000E+00
       11   -1    0    0    0    0  0.00000000000E+00  0.00000000000E+00  0.39999999673E+01  0.40000000000E+01  0.51109989000E-03 0. -1.
     -623   -1    0    0    0    0  0.00000000000E+00  0.00000000000E+00  0.12525980253E-10  0.17130000000E+03  0.17130000000E+03 0. -1.
       11    1    1    2    0    0  0.14223044400E-02  0.16102010243E-02  0.26163033499E-01  0.26256070541E-01  0.51109989000E-03 0. -1.
     -623    1    1    2    0    0 -0.63488561827E-03 -0.49540767376E-03  0.20648575818E-03  0.17130000000E+03  0.17130000000E+03 0. -1.
      622    1    1    2    0    0 -0.78741882174E-03 -0.11147933506E-02  0.39736304481E+01  0.39737439274E+01  0.30000000000E-01 0.  0.
</event>
<event>
 5   0  0.4961200E+08  0.9118800E+02  0.7818608E-02  0.1180000E+00
       11   -1    0    0    0    0  0.00000000000E+00  0.00000000000E+00  0.39999999673E+01  0.40000000000E+01  0.51109989000E-03 0. -1.
     -623   -1    0    0    0    0  0.00000000000E+00  0.00000000000E+00  0.12525980253E-10  0.17130000000E+03  0.17130000000E+03 0.  1.
       11    1    1    2    0    0  0.51701806632E-02  0.19258382678E-01  0.82525208638E+00  0.82549311528E+00  0.51109989000E-03 0. -1.
     -623    1    1    2    0    0 -0.58209165925E-02 -0.47188792017E-02  0.41628255693E-03  0.17130000016E+03  0.17130000000E+03 0.  1.
      622    1    1    2    0    0  0.65073592995E-03 -0.14539503476E-01  0.31743315989E+01  0.31745067208E+01  0.30000000000E-01 0.  0.
</event>
<event>
 5   0  0.4961200E+08  0.9118800E+02  0.7818608E-02  0.1180000E+00
       11   -1    0    0    0    0  0.00000000000E+00  0.00000000000E+00  0.39999999673E+01  0.40000000000E+01  0.51109989000E-03 0. -1.
     -623   -1    0    0    0    0  0.00000000000E+00  0.00000000000E+00  0.12525980253E-10  0.17130000000E+03  0.17130000000E+03 0. -1.
       11    1    1    2    0    0 -0.23052185232E-02 -0.77286678988E-02  0.18591493893E+00  0.18609049433E+00  0.51109989000E-03 0. -1.
     -623    1    1    2    0    0  0.96076307369E-02  0.91021265530E-03  0.30687216424E-03  0.17130000027E+03  0.17130000000E+03 0. -1.
      622    1    1    2    0    0 -0.73024122137E-02  0.68184552435E-02  0.38137781563E+01  0.38139092335E+01  0.30000000000E-01 0. -1.
</event>
<event>
 5   0  0.4961200E+08  0.9118800E+02  0.7818608E-02  0.1180000E+00
       11   -1    0    0    0    0  0.00000000000E+00  0.00000000000E+00  0.39999999673E+01  0.40000000000E+01  0.51109989000E-03 0. -1.
     -623   -1    0    0    0    0  0.00000000000E+00  0.00000000000E+00  0.12525980253E-10  0.17130000000E+03  0.17130000000E+03 0. -1.
       11    1    1    2    0    0  0.33284391681E-05 -0.31942052044E-02  0.37480297336E-01  0.37619634095E-01  0.51109989000E-03 0. -1.
     -623    1    1    2    0    0  0.80500468325E-03  0.78484296647E-03  0.25369271350E-03  0.17130000000E+03  0.17130000000E+03 0. -1.
      622    1    1    2    0    0 -0.80833312225E-03  0.24093622381E-02  0.39622659765E+01  0.39623803612E+01  0.30000000000E-01 0. -1.
</event>
<event>
 5   0  0.4961200E+08  0.9118800E+02  0.7818608E-02  0.1180000E+00
       11   -1    0    0    0    0  0.00000000000E+00  0.00000000000E+00  0.39999999673E+01  0.40000000000E+01  0.51109989000E-03 0. -1.
     -623   -1    0    0    0    0  0.00000000000E+00  0.00000000000E+00  0.12525980253E-10  0.17130000000E+03  0.17130000000E+03 0. -1.
       11    1    1    2    0    0 -0.28596194660E-02  0.11247066763E-03  0.50924851959E+00  0.50925681734E+00  0.51109989000E-03 0. -1.
     -623    1    1    2    0    0 -0.50600614847E-03  0.28153618089E-03  0.13882568936E-03  0.17130000000E+03  0.17130000000E+03 0. -1.
      622    1    1    2    0    0  0.33656256143E-02 -0.39400684843E-03  0.34906126207E+01  0.34907431803E+01  0.30000000000E-01 0. -1.
</event>
<event>
 5   0  0.4961200E+08  0.9118800E+02  0.7818608E-02  0.1180000E+00
       11   -1    0    0    0    0  0.00000000000E+00  0.00000000000E+00  0.39999999673E+01  0.40000000000E+01  0.51109989000E-03 0.  1.
     -623   -1    0    0    0    0  0.00000000000E+00  0.00000000000E+00  0.12525980253E-10  0.17130000000E+03  0.17130000000E+03 0.  1.
       11    1    1    2    0    0  0.60663920838E-02  0.65554414913E-02  0.10205525847E+01  0.10205917961E+01  0.51109989000E-03 0.  1.
     -623    1    1    2    0    0 -0.32221155527E-03 -0.35398696141E-02  0.19732002601E-03  0.17130000004E+03  0.17130000000E+03 0.  1.
      622    1    1    2    0    0 -0.57441805285E-02 -0.30155718772E-02  0.29792500627E+01  0.29794081669E+01  0.30000000000E-01 0. -1.
</event>
<event>
 5   0  0.4961200E+08  0.9118800E+02  0.7818608E-02  0.1180000E+00
       11   -1    0    0    0    0  0.00000000000E+00  0.00000000000E+00  0.39999999673E+01  0.40000000000E+01  0.51109989000E-03 0. -1.
     -623   -1    0    0    0    0  0.00000000000E+00  0.00000000000E+00  0.12525980253E-10  0.17130000000E+03  0.17130000000E+03 0.  1.
       11    1    1    2    0    0 -0.14545062835E-01  0.96160306013E-02  0.34254209562E+00  0.34298596967E+00  0.51109989000E-03 0. -1.
     -623    1    1    2    0    0  0.31525694208E-02 -0.11487542635E-01  0.58553464250E-03  0.17130000042E+03  0.17130000000E+03 0.  1.
      622    1    1    2    0    0  0.11392493414E-01  0.18715120341E-02  0.36568723371E+01  0.36570136151E+01  0.30000000000E-01 0. -1.
</event>
<event>
 5   0  0.4961200E+08  0.9118800E+02  0.7818608E-02  0.1180000E+00
       11   -1    0    0    0    0  0.00000000000E+00  0.00000000000E+00  0.39999999673E+01  0.40000000000E+01  0.51109989000E-03 0.  1.
     -623   -1    0    0    0    0  0.00000000000E+00  0.00000000000E+00  0.12525980253E-10  0.17130000000E+03  0.17130000000E+03 0. -1.
       11    1    1    2    0    0  0.39140382258E-02  0.23253174724E-02  0.32046825404E-01  0.32372627915E-01  0.51109989000E-03 0.  1.
     -623    1    1    2    0    0  0.26472781144E-03 -0.73706741436E-02  0.44475740391E-03  0.17130000016E+03  0.17130000000E+03 0. -1.
      622    1    1    2    0    0 -0.41787660373E-02  0.50453566727E-02  0.39675083854E+01  0.39676272136E+01  0.30000000000E-01 0.  1.
</event>
<event>
 5   0  0.4961200E+08  0.9118800E+02  0.7818608E-02  0.1180000E+00
       11   -1    0    0    0    0  0.00000000000E+00  0.00000000000E+00  0.39999999673E+01  0.40000000000E+01  0.51109989000E-03 0. -1.
     -623   -1    0    0    0    0  0.00000000000E+00  0.00000000000E+00  0.12525980253E-10  0.17130000000E+03  0.17130000000E+03 0.  1.
       11    1    1    2    0    0 -0.46055151836E-02 -0.37129809790E-02  0.59591844436E-01  0.59886944679E-01  0.51109989000E-03 0. -1.
     -623    1    1    2    0    0 -0.14690401229E-02  0.41694234151E-02  0.41404593395E-03  0.17130000006E+03  0.17130000000E+03 0.  1.
      622    1    1    2    0    0  0.60745553065E-02 -0.45644243613E-03  0.39399940770E+01  0.39401129978E+01  0.30000000000E-01 0. -1.
</event>
<event>
 5   0  0.4961200E+08  0.9118800E+02  0.7818608E-02  0.1180000E+00
       11   -1    0    0    0    0  0.00000000000E+00  0.00000000000E+00  0.39999999673E+01  0.40000000000E+01  0.51109989000E-03 0.  1.
     -623   -1    0    0    0    0  0.00000000000E+00  0.00000000000E+00  0.12525980253E-10  0.17130000000E+03  0.17130000000E+03 0.  1.
       11    1    1    2    0    0 -0.21630951025E-02  0.14408606319E-02  0.41732030542E+00  0.41732871169E+00  0.51109989000E-03 0.  1.
     -623    1    1    2    0    0  0.61201887185E-02  0.39510007885E-02  0.14037826830E-03  0.17130000015E+03  0.17130000000E+03 0.  1.
      622    1    1    2    0    0 -0.39570936171E-02 -0.53918614211E-02  0.35825392844E+01  0.35826711341E+01  0.30000000000E-01 0.  1.
</event>
<event>
 5   0  0.4961200E+08  0.9118800E+02  0.7818608E-02  0.1180000E+00
       11   -1    0    0    0    0  0.00000000000E+00  0.00000000000E+00  0.39999999673E+01  0.40000000000E+01  0.51109989000E-03 0.  1.
     -623   -1    0    0    0    0  0.00000000000E+00  0.00000000000E+00  0.12525980253E-10  0.17130000000E+03  0.17130000000E+03 0. -1.
       11    1    1    2    0    0  0.29028793296E-01  0.23311395689E-02  0.97301357984E-01  0.10156732023E+00  0.51109989000E-03 0.  1.
     -623    1    1    2    0    0 -0.39274825882E-01  0.21160592152E-01  0.44714781812E-02  0.17130000587E+03  0.17130000000E+03 0. -1.
      622    1    1    2    0    0  0.10246032586E-01 -0.23491731721E-01  0.38982271312E+01  0.38984268121E+01  0.30000000000E-01 0.  1.
</event>
<event>
 5   0  0.4961200E+08  0.9118800E+02  0.7818608E-02  0.1180000E+00
       11   -1    0    0    0    0  0.00000000000E+00  0.00000000000E+00  0.39999999673E+01  0.40000000000E+01  0.51109989000E-03 0.  1.
     -623   -1    0    0    0    0  0.00000000000E+00  0.00000000000E+00  0.12525980253E-10  0.17130000000E+03  0.17130000000E+03 0.  1.
       11    1    1    2    0    0  0.67205934850E-03 -0.27023158384E-03  0.17170382740E-01  0.17193253178E-01  0.51109989000E-03 0.  1.
     -623    1    1    2    0    0 -0.94135377328E-04  0.15826126831E-02  0.13609059839E-03  0.17130000001E+03  0.17130000000E+03 0.  1.
      622    1    1    2    0    0 -0.57792397117E-03 -0.13123810992E-02  0.39826934940E+01  0.39828067394E+01  0.30000000000E-01 0.  1.
</event>
<event>
 5   0  0.4961200E+08  0.9118800E+02  0.7818608E-02  0.1180000E+00
       11   -1    0    0    0    0  0.00000000000E+00  0.00000000000E+00  0.39999999673E+01  0.40000000000E+01  0.51109989000E-03 0.  1.
     -623   -1    0    0    0    0  0.00000000000E+00  0.00000000000E+00  0.12525980253E-10  0.17130000000E+03  0.17130000000E+03 0. -1.
       11    1    1    2    0    0  0.26582089464E-02 -0.24181356809E-02  0.43474569075E-02  0.56634847606E-02  0.51109989000E-03 0.  1.
     -623    1    1    2    0    0  0.14414454770E-03 -0.78267654272E-03  0.14309297088E-02  0.17130000001E+03  0.17130000000E+03 0. -1.
      622    1    1    2    0    0 -0.28023534941E-02  0.32008122236E-02  0.39942215808E+01  0.39943365075E+01  0.30000000000E-01 0.  1.
</event>
<event>
 5   0  0.4961200E+08  0.9118800E+02  0.7818608E-02  0.1180000E+00
       11   -1    0    0    0    0  0.00000000000E+00  0.00000000000E+00  0.39999999673E+01  0.40000000000E+01  0.51109989000E-03 0. -1.
     -623   -1    0    0    0    0  0.00000000000E+00  0.00000000000E+00  0.12525980253E-10  0.17130000000E+03  0.17130000000E+03 0. -1.
       11    1    1    2    0    0  0.13732200488E-01  0.11423222982E-01  0.11889956496E+01  0.11891299254E+01  0.51109989000E-03 0. -1.
     -623    1    1    2    0    0  0.13767911992E-03  0.80370370823E-03  0.35515923240E-03  0.17130000000E+03  0.17130000000E+03 0. -1.
      622    1    1    2    0    0 -0.13869879608E-01 -0.12226926690E-01  0.28106491585E+01  0.28108700723E+01  0.30000000000E-01 0. -1.
</event>
<event>
 5   0  0.4961200E+08  0.9118800E+02  0.7818608E-02  0.1180000E+00
       11   -1    0    0    0    0  0.00000000000E+00  0.00000000000E+00  0.39999999673E+01  0.40000000000E+01  0.51109989000E-03 0. -1.
     -623   -1    0    0    0    0  0.00000000000E+00  0.00000000000E+00  0.12525980253E-10  0.17130000000E+03  0.17130000000E+03 0.  1.
       11    1    1    2    0    0 -0.22733332229E-02  0.17375257480E-02  0.89759165765E-01  0.89806214159E-01  0.51109989000E-03 0. -1.
     -623    1    1    2    0    0 -0.13482359418E-02 -0.27092162549E-02  0.16392597807E-03  0.17130000003E+03  0.17130000000E+03 0.  1.
      622    1    1    2    0    0  0.36215691648E-02  0.97169050730E-03  0.39100768761E+01  0.39101937595E+01  0.30000000000E-01 0. -1.
</event>
<event>
 5   0  0.4961200E+08  0.9118800E+02  0.7818608E-02  0.1180000E+00
       11   -1    0    0    0    0  0.00000000000E+00  0.00000000000E+00  0.39999999673E+01  0.40000000000E+01  0.51109989000E-03 0. -1.
     -623   -1    0    0    0    0  0.00000000000E+00  0.00000000000E+00  0.12525980253E-10  0.17130000000E+03  0.17130000000E+03 0. -1.
       11    1    1    2    0    0  0.62609142741E-03 -0.93540009965E-02  0.99965727284E+00  0.99970136225E+00  0.51109989000E-03 0. -1.
     -623    1    1    2    0    0 -0.49159054928E-03  0.39750340814E-02  0.19891752843E-03  0.17130000005E+03  0.17130000000E+03 0. -1.
      622    1    1    2    0    0 -0.13450087813E-03  0.53789669151E-02  0.30001437770E+01  0.30002985908E+01  0.30000000000E-01 0. -1.
</event>
<event>
 5   0  0.4961200E+08  0.9118800E+02  0.7818608E-02  0.1180000E+00
       11   -1    0    0    0    0  0.00000000000E+00  0.00000000000E+00  0.39999999673E+01  0.40000000000E+01  0.51109989000E-03 0.  1.
     -623   -1    0    0    0    0  0.00000000000E+00  0.00000000000E+00  0.12525980253E-10  0.17130000000E+03  0.17130000000E+03 0.  1.
       11    1    1    2    0    0  0.16183085043E-02 -0.58826185632E-02  0.69845564357E-01  0.70113395337E-01  0.51109989000E-03 0.  1.
     -623    1    1    2    0    0 -0.73172005761E-03  0.78257593498E-02  0.38306830367E-03  0.17130000018E+03  0.17130000000E+03 0.  1.
      622    1    1    2    0    0 -0.88658844671E-03 -0.19431407866E-02  0.39297713347E+01  0.39298864239E+01  0.30000000000E-01 0.  1.
</event>
<event>
 5   0  0.4961200E+08  0.9118800E+02  0.7818608E-02  0.1180000E+00
       11   -1    0    0    0    0  0.00000000000E+00  0.00000000000E+00  0.39999999673E+01  0.40000000000E+01  0.51109989000E-03 0. -1.
     -623   -1    0    0    0    0  0.00000000000E+00  0.00000000000E+00  0.12525980253E-10  0.17130000000E+03  0.17130000000E+03 0.  1.
       11    1    1    2    0    0 -0.17078993352E-01  0.71621237086E-03  0.48570934084E+00  0.48601031880E+00  0.51109989000E-03 0. -1.
     -623    1    1    2    0    0  0.32452375346E-03  0.38960369721E-02  0.47202329014E-03  0.17130000005E+03  0.17130000000E+03 0.  1.
      622    1    1    2    0    0  0.16754469599E-01 -0.46122493429E-02  0.35138186032E+01  0.35139896359E+01  0.30000000000E-01 0. -1.
</event>
<event>
 5   0  0.4961200E+08  0.9118800E+02  0.7818608E-02  0.1180000E+00
       11   -1    0    0    0    0  0.00000000000E+00  0.00000000000E+00  0.39999999673E+01  0.40000000000E+01  0.51109989000E-03 0. -1.
     -623   -1    0    0    0    0  0.00000000000E+00  0.00000000000E+00  0.12525980253E-10  0.17130000000E+03  0.17130000000E+03 0.  1.
       11    1    1    2    0    0  0.23703289552E-02  0.12511470659E-02  0.78287091946E-01  0.78334627188E-01  0.51109989000E-03 0. -1.
     -623    1    1    2    0    0 -0.11794518199E-02  0.31684587176E-04  0.16264623335E-03  0.17130000000E+03  0.17130000000E+03 0.  1.
      622    1    1    2    0    0 -0.11908771351E-02 -0.12828316530E-02  0.39215502296E+01  0.39216653691E+01  0.30000000000E-01 0. -1.
</event>
<event>
 5   0  0.4961200E+08  0.9118800E+02  0.7818608E-02  0.1180000E+00
       11   -1    0    0    0    0  0.00000000000E+00  0.00000000000E+00  0.39999999673E+01  0.40000000000E+01  0.51109989000E-03 0.  1.
     -623   -1    0    0    0    0  0.00000000000E+00  0.00000000000E+00  0.12525980253E-10  0.17130000000E+03  0.17130000000E+03 0.  1.
       11    1    1    2    0    0 -0.86897598396E-03  0.52234303885E-02  0.59803303553E-01  0.60039451057E-01  0.51109989000E-03 0.  1.
     -623    1    1    2    0    0  0.24395404280E-02 -0.49572048515E-02  0.35074235789E-03  0.17130000009E+03  0.17130000000E+03 0.  1.
      622    1    1    2    0    0 -0.15705644448E-02 -0.26622553561E-03  0.39398459226E+01  0.39399604606E+01  0.30000000000E-01 0.  1.
</event>
<event>
 5   0  0.4961200E+08  0.9118800E+02  0.7818608E-02  0.1180000E+00
       11   -1    0    0    0    0  0.00000000000E+00  0.00000000000E+00  0.39999999673E+01  0.40000000000E+01  0.51109989000E-03 0. -1.
     -623   -1    0    0    0    0  0.00000000000E+00  0.00000000000E+00  0.12525980253E-10  0.17130000000E+03  0.17130000000E+03 0.  1.
       11    1    1    2    0    0 -0.17594313400E-01 -0.99055539412E-02  0.39759223666E+00  0.39810492051E+00  0.51109989000E-03 0. -1.
     -623    1    1    2    0    0 -0.57685985802E-02  0.13080289777E-01  0.71535752065E-03  0.17130000060E+03  0.17130000000E+03 0.  1.
      622    1    1    2    0    0  0.23362911980E-01 -0.31747358354E-02  0.36016923732E+01  0.36018944815E+01  0.30000000000E-01 0. -1.
</event>
<event>
 5   0  0.4961200E+08  0.9118800E+02  0.7818608E-02  0.1180000E+00
       11   -1    0    0    0    0  0.00000000000E+00  0.00000000000E+00  0.39999999673E+01  0.40000000000E+01  0.51109989000E-03 0. -1.
     -623   -1    0    0    0    0  0.00000000000E+00  0.00000000000E+00  0.12525980253E-10  0.17130000000E+03  0.17130000000E+03 0. -1.
       11    1    1    2    0    0  0.19099410056E-02  0.45244901126E-03  0.36887870182E+00  0.36888427787E+00  0.51109989000E-03 0. -1.
     -623    1    1    2    0    0  0.57942505422E-04  0.12811156336E-03  0.13005416793E-03  0.17130000000E+03  0.17130000000E+03 0. -1.
      622    1    1    2    0    0 -0.19678835110E-02 -0.58056057460E-03  0.36309912105E+01  0.36311157212E+01  0.30000000000E-01 0. -1.
</event>
<event>
 5   0  0.4961200E+08  0.9118800E+02  0.7818608E-02  0.1180000E+00
       11   -1    0    0    0    0  0.00000000000E+00  0.00000000000E+00  0.39999999673E+01  0.40000000000E+01  0.51109989000E-03 0.  1.
     -623   -1    0    0    0    0  0.00000000000E+00  0.00000000000E+00  0.12525980253E-10  0.17130000000E+03  0.17130000000E+03 0.  1.
       11    1    1    2    0    0 -0.47422332007E-02  0.85685924676E-02  0.43780043170E+00  0.43791025196E+00  0.51109989000E-03 0.  1.
     -623    1    1    2    0    0 -0.21438468750E-03 -0.74739946907E-04  0.24969643907E-03  0.17130000000E+03  0.17130000000E+03 0.  1.
      622    1    1    2    0    0  0.49566178881E-02 -0.84938525207E-02  0.35619498385E+01  0.35620897469E+01  0.30000000000E-01 0.  1.
</event>
<event>
 5   0  0.4961200E+08  0.9118800E+02  0.7818608E-02  0.1180000E+00
       11   -1    0    0    0    0  0.00000000000E+00  0.00000000000E+00  0.39999999673E+01  0.40000000000E+01  0.51109989000E-03 0.  1.
     -623   -1    0    0    0    0  0.00000000000E+00  0.00000000000E+00  0.12525980253E-10  0.17130000000E+03  0.17130000000E+03 0.  1.
       11    1    1    2    0    0  0.63516201421E-03 -0.24854136720E-03  0.18558171784E-01  0.18577733049E-01  0.51109989000E-03 0.  1.
     -623    1    1    2    0    0 -0.18325551773E-03 -0.30413597422E-03  0.13261959323E-03  0.17130000000E+03  0.17130000000E+03 0.  1.
      622    1    1    2    0    0 -0.45190649647E-03  0.55267734142E-03  0.39813091760E+01  0.39814222665E+01  0.30000000000E-01 0.  1.
</event>
<event>
 5   0  0.4961200E+08  0.9118800E+02  0.7818608E-02  0.1180000E+00
       11   -1    0    0    0    0  0.00000000000E+00  0.00000000000E+00  0.39999999673E+01  0.40000000000E+01  0.51109989000E-03 0. -1.
     -623   -1    0    0    0    0  0.00000000000E+00  0.00000000000E+00  0.12525980253E-10  0.17130000000E+03  0.17130000000E+03 0. -1.
       11    1    1    2    0    0 -0.38446655451E-02 -0.48496894321E-02  0.19499927782E+00  0.19509813048E+00  0.51109989000E-03 0. -1.
     -623    1    1    2    0    0  0.13926340031E-01  0.29585329811E-02  0.23150907153E-03  0.17130000059E+03  0.17130000000E+03 0. -1.
      622    1    1    2    0    0 -0.10081674493E-01  0.18911564494E-02  0.38047691825E+01  0.38049012798E+01  0.30000000000E-01 0. -1.
</event>
<event>
 5   0  0.4961200E+08  0.9118800E+02  0.7818608E-02  0.1180000E+00
       11   -1    0    0    0    0  0.00000000000E+00  0.00000000000E+00  0.39999999673E+01  0.40000000000E+01  0.51109989000E-03 0. -1.
     -623   -1    0    0    0    0  0.00000000000E+00  0.00000000000E+00  0.12525980253E-10  0.17130000000E+03  0.17130000000E+03 0. -1.
       11    1    1    2    0    0  0.17430374663E-01 -0.17169541075E-01  0.62377242739E-01  0.67005915677E-01  0.51109989000E-03 0. -1.
     -623    1    1    2    0    0 -0.18098571291E-01  0.90822827139E-02  0.47526932138E-02  0.17130000126E+03  0.17130000000E+03 0. -1.
      622    1    1    2    0    0  0.66819662772E-03  0.80872583607E-02  0.39328700314E+01  0.39329928215E+01  0.30000000000E-01 0. -1.
</event>
<event>
 5   0  0.4961200E+08  0.9118800E+02  0.7818608E-02  0.1180000E+00
       11   -1    0    0    0    0  0.00000000000E+00  0.00000000000E+00  0.39999999673E+01  0.40000000000E+01  0.51109989000E-03 0. -1.
     -623   -1    0    0    0    0  0.00000000000E+00  0.00000000000E+00  0.12525980253E-10  0.17130000000E+03  0.17130000000E+03 0.  1.
       11    1    1    2    0    0 -0.13859815273E-01 -0.49615667543E-02  0.51926598108E+00  0.51947486172E+00  0.51109989000E-03 0. -1.
     -623    1    1    2    0    0 -0.69491590984E-03  0.31423122228E-02  0.36908082228E-03  0.17130000003E+03  0.17130000000E+03 0.  1.
      622    1    1    2    0    0  0.14554731183E-01  0.18192545305E-02  0.34803649067E+01  0.34805251089E+01  0.30000000000E-01 0. -1.
</event>
<event>
 5   0  0.4961200E+08  0.9118800E+02  0.7818608E-02  0.1180000E+00
       11   -1    0    0    0    0  0.00000000000E+00  0.00000000000E+00  0.39999999673E+01  0.40000000000E+01  0.51109989000E-03 0.  1.
     -623   -1    0    0    0    0  0.00000000000E+00  0.00000000000E+00  0.12525980253E-10  0.17130000000E+03  0.17130000000E+03 0.  1.
       11    1    1    2    0    0  0.29637414923E-02 -0.35583934937E-02  0.88852460755E-01  0.88974529675E-01  0.51109989000E-03 0.  1.
     -623    1    1    2    0    0  0.41643943124E-02  0.44517368448E-02  0.24380395864E-03  0.17130000011E+03  0.17130000000E+03 0.  1.
      622    1    1    2    0    0 -0.71281358048E-02 -0.89334335103E-03  0.39109037026E+01  0.39110253617E+01  0.30000000000E-01 0.  1.
</event>
<event>
 5   0  0.4961200E+08  0.9118800E+02  0.7818608E-02  0.1180000E+00
       11   -1    0    0    0    0  0.00000000000E+00  0.00000000000E+00  0.39999999673E+01  0.40000000000E+01  0.51109989000E-03 0.  1.
     -623   -1    0    0    0    0  0.00000000000E+00  0.00000000000E+00  0.12525980253E-10  0.17130000000E+03  0.17130000000E+03 0. -1.
       11    1    1    2    0    0  0.64055388468E-02  0.56431377357E-02  0.28457073592E+00  0.28469921127E+00  0.51109989000E-03 0.  1.
     -623    1    1    2    0    0 -0.10204882602E-02  0.10463406568E-02  0.25949708372E-03  0.17130000001E+03  0.17130000000E+03 0. -1.
      622    1    1    2    0    0 -0.53850505866E-02 -0.66894783925E-02  0.37151697344E+01  0.37153007823E+01  0.30000000000E-01 0.  1.
</event>
<event>
 5   0  0.4961200E+08  0.9118800E+02  0.7818608E-02  0.1180000E+00
       11   -1    0    0    0    0  0.00000000000E+00  0.00000000000E+00  0.39999999673E+01  0.40000000000E+01  0.51109989000E-03 0. -1.
     -623   -1    0    0    0    0  0.00000000000E+00  0.00000000000E+00  0.12525980253E-10  0.17130000000E+03  0.17130000000E+03 0. -1.
       11    1    1    2    0    0 -0.11389687872E-03  0.18336009936E-02  0.43946358278E+00  0.43946771995E+00  0.51109989000E-03 0. -1.
     -623    1    1    2    0    0  0.64906774661E-03 -0.19009205951E-02  0.13054505534E-03  0.17130000001E+03  0.17130000000E+03 0. -1.
      622    1    1    2    0    0 -0.53517086817E-03  0.67319602267E-04  0.35604058412E+01  0.35605322699E+01  0.30000000000E-01 0. -1.
</event>
<event>
 5   0  0.4961200E+08  0.9118800E+02  0.7818608E-02  0.1180000E+00
       11   -1    0    0    0    0  0.00000000000E+00  0.00000000000E+00  0.39999999673E+01  0.40000000000E+01  0.51109989000E-03 0.  1.
     -623   -1    0    0    0    0  0.00000000000E+00  0.00000000000E+00  0.12525980253E-10  0.17130000000E+03  0.17130000000E+03 0. -1.
       11    1    1    2    0    0 -0.50204352080E-02  0.78894518599E-03  0.29022910099E-02  0.58746676832E-02  0.51109989000E-03 0.  1.
     -623    1    1    2    0    0  0.19545070547E-02 -0.67947254102E-02  0.30908770779E-02  0.17130000017E+03  0.17130000000E+03 0. -1.
      622    1    1    2    0    0  0.30659281533E-02  0.60057802243E-02  0.39940067993E+01  0.39941251586E+01  0.30000000000E-01 0.  1.
</event>
<event>
 5   0  0.4961200E+08  0.9118800E+02  0.7818608E-02  0.1180000E+00
       11   -1    0    0    0    0  0.00000000000E+00  0.00000000000E+00  0.39999999673E+01  0.40000000000E+01  0.51109989000E-03 0. -1.
     -623   -1    0    0    0    0  0.00000000000E+00  0.00000000000E+00  0.12525980253E-10  0.17130000000E+03  0.17130000000E+03 0.  1.
       11    1    1    2    0    0 -0.30726998512E-02 -0.45102906624E-02  0.35356917860E+00  0.35361166481E+00  0.51109989000E-03 0. -1.
     -623    1    1    2    0    0  0.45473398852E-02 -0.37895634573E-02  0.17571232936E-03  0.17130000010E+03  0.17130000000E+03 0.  1.
      622    1    1    2    0    0 -0.14746400342E-02  0.82998541197E-02  0.36462550765E+01  0.36463882329E+01  0.30000000000E-01 0. -1.
</event>
<event>
 5   0  0.4961200E+08  0.9118800E+02  0.7818608E-02  0.1180000E+00
       11   -1    0    0    0    0  0.00000000000E+00  0.00000000000E+00  0.39999999673E+01  0.40000000000E+01  0.51109989000E-03 0. -1.
     -623   -1    0    0    0    0  0.00000000000E+00  0.00000000000E+00  0.12525980253E-10  0.17130000000E+03  0.17130000000E+03 0. -1.
       11    1    1    2    0    0  0.52578512861E-02  0.46734247721E-02  0.10667600289E+01  0.10667833456E+01  0.51109989000E-03 0. -1.
     -623    1    1    2    0    0 -0.35274524461E-02 -0.76981548850E-02  0.17898270048E-03  0.17130000021E+03  0.17130000000E+03 0. -1.
      622    1    1    2    0    0 -0.17303988412E-02  0.30247301105E-02  0.29330609545E+01  0.29332164438E+01  0.30000000000E-01 0. -1.
</event>
<event>
 5   0  0.4961200E+08  0.9118800E+02  0.7818608E-02  0.1180000E+00
       11   -1    0    0    0    0  0.00000000000E+00  0.00000000000E+00  0.39999999673E+01  0.40000000000E+01  0.51109989000E-03 0. -1.
     -623   -1    0    0    0    0  0.00000000000E+00  0.00000000000E+00  0.12525980253E-10  0.17130000000E+03  0.17130000000E+03 0. -1.
       11    1    1    2    0    0  0.55451957769E-02 -0.20973877174E-02  0.54906273847E-01  0.55227786144E-01  0.51109989000E-03 0. -1.
     -623    1    1    2    0    0 -0.38509415637E-02 -0.26904198096E-02  0.43889074653E-03  0.17130000006E+03  0.17130000000E+03 0. -1.
      622    1    1    2    0    0 -0.16942542125E-02  0.47878075275E-02  0.39446548036E+01  0.39447721497E+01  0.30000000000E-01 0. -1.
</event>
<event>
 5   0  0.4961200E+08  0.9118800E+02  0.7818608E-02  0.1180000E+00
       11   -1    0    0    0    0  0.00000000000E+00  0.00000000000E+00  0.39999999673E+01  0.40000000000E+01  0.51109989000E-03 0.  1.
     -623   -1    0    0    0    0  0.00000000000E+00  0.00000000000E+00  0.12525980253E-10  0.17130000000E+03  0.17130000000E+03 0.  1.
       11    1    1    2    0    0 -0.52246848209E-02 -0.52230810276E-02  0.32404671008E+00  0.32413131512E+00  0.51109989000E-03 0.  1.
     -623    1    1    2    0    0 -0.10893586180E-02  0.99598873049E-03  0.21485455145E-03  0.17130000001E+03  0.17130000000E+03 0.  1.
      622    1    1    2    0    0  0.63140434389E-02  0.42270922971E-02  0.36757384027E+01  0.36758686784E+01  0.30000000000E-01 0.  1.
</event>
<event>
 5   0  0.4961200E+08  0.9118800E+02  0.7818608E-02  0.1180000E+00
       11   -1    0    0    0    0  0.00000000000E+00  0.00000000000E+00  0.39999999673E+01  0.40000000000E+01  0.51109989000E-03 0.  1.
     -623   -1    0    0    0    0  0.00000000000E+00  0.00000000000E+00  0.12525980253E-10  0.17130000000E+03  0.17130000000E+03 0. -1.
       11    1    1    2    0    0 -0.13183003915E-01 -0.85742986712E-02  0.44278024495E-01  0.46990582739E-01  0.51109989000E-03 0.  1.
     -623    1    1    2    0    0 -0.68594021331E-02  0.27392755795E-01  0.29243232433E-02  0.17130000235E+03  0.17130000000E+03 0. -1.
      622    1    1    2    0    0  0.20042406048E-01 -0.18818457123E-01  0.39527976195E+01  0.39530070647E+01  0.30000000000E-01 0.  1.
</event>
<event>
 5   0  0.4961200E+08  0.9118800E+02  0.7818608E-02  0.1180000E+00
       11   -1    0    0    0    0  0.00000000000E+00  0.00000000000E+00  0.39999999673E+01  0.40000000000E+01  0.51109989000E-03 0.  1.
     -623   -1    0    0    0    0  0.00000000000E+00  0.00000000000E+00  0.12525980253E-10  0.17130000000E+03  0.17130000000E+03 0.  1.
       11    1    1    2    0    0 -0.16671410617E-02  0.31680745503E-02  0.16902323690E+00  0.16906191732E+00  0.51109989000E-03 0.  1.
     -623    1    1    2    0    0  0.29522583164E-03 -0.15347088724E-03  0.15754648656E-03  0.17130000000E+03  0.17130000000E+03 0.  1.
      622    1    1    2    0    0  0.13719152300E-02 -0.30146036630E-02  0.38308191840E+01  0.38309380823E+01  0.30000000000E-01 0.  1.
</event>
<event>
 5   0  0.4961200E+08  0.9118800E+02  0.7818608E-02  0.1180000E+00
       11   -1    0    0    0    0  0.00000000000E+00  0.00000000000E+00  0.39999999673E+01  0.40000000000E+01  0.51109989000E-03 0. -1.
     -623   -1    0    0    0    0  0.00000000000E+00  0.00000000000E+00  0.12525980253E-10  0.17130000000E+03  0.17130000000E+03 0.  1.
       11    1    1    2    0    0  0.34189356934E-03  0.13043867929E-01  0.28281618834E+00  0.28311749679E+00  0.51109989000E-03 0. -1.
     -623    1    1    2    0    0 -0.18749234380E-02 -0.46514718712E-02  0.43221208148E-03  0.17130000007E+03  0.17130000000E+03 0.  1.
      622    1    1    2    0    0  0.15330298689E-02 -0.83923960573E-02  0.37167515675E+01  0.37168824298E+01  0.30000000000E-01 0. -1.
</event>
<event>
 5   0  0.4961200E+08  0.9118800E+02  0.7818608E-02  0.1180000E+00
       11   -1    0    0    0    0  0.00000000000E+00  0.00000000000E+00  0.39999999673E+01  0.40000000000E+01  0.51109989000E-03 0.  1.
     -623   -1    0    0    0    0  0.00000000000E+00  0.00000000000E+00  0.12525980253E-10  0.17130000000E+03  0.17130000000E+03 0.  1.
       11    1    1    2    0    0  0.17268350016E-01 -0.18191043923E-01  0.27851962718E+00  0.27964719548E+00  0.51109989000E-03 0.  1.
     -623    1    1    2    0    0 -0.32040906370E-01  0.90663225107E-02  0.12922557887E-02  0.17130000324E+03  0.17130000000E+03 0.  1.
      622    1    1    2    0    0  0.14772556354E-01  0.91247214127E-02  0.37201880844E+01  0.37203495632E+01  0.30000000000E-01 0.  1.
</event>
<event>
 5   0  0.4961200E+08  0.9118800E+02  0.7818608E-02  0.1180000E+00
       11   -1    0    0    0    0  0.00000000000E+00  0.00000000000E+00  0.39999999673E+01  0.40000000000E+01  0.51109989000E-03 0.  1.
     -623   -1    0    0    0    0  0.00000000000E+00  0.00000000000E+00  0.12525980253E-10  0.17130000000E+03  0.17130000000E+03 0. -1.
       11    1    1    2    0    0  0.26564471041E-03  0.90757639245E-03  0.57955170796E-02  0.58943619959E-02  0.51109989000E-03 0.  1.
     -623    1    1    2    0    0 -0.70840438644E-03 -0.95348727083E-03  0.21150894312E-03  0.17130000000E+03  0.17130000000E+03 0. -1.
      622    1    1    2    0    0  0.44275967610E-03  0.45910878476E-04  0.39939929417E+01  0.39941056341E+01  0.30000000000E-01 0.  1.
</event>
<event>
 5   0  0.4961200E+08  0.9118800E+02  0.7818608E-02  0.1180000E+00
       11   -1    0    0    0    0  0.00000000000E+00  0.00000000000E+00  0.39999999673E+01  0.40000000000E+01  0.51109989000E-03 0. -1.
     -623   -1    0    0    0    0  0.00000000000E+00  0.00000000000E+00  0.12525980253E-10  0.17130000000E+03  0.17130000000E+03 0.  1.
       11    1    1    2    0    0  0.82280535130E-02  0.39306707816E-02  0.65663745773E+00  0.65670096935E+00  0.51109989000E-03 0. -1.
     -623    1    1    2    0    0  0.17675626212E-02 -0.10175280558E-03  0.21522402318E-03  0.17130000001E+03  0.17130000000E+03 0.  1.
      622    1    1    2    0    0 -0.99956161343E-02 -0.38289179760E-02  0.33431472859E+01  0.33432990216E+01  0.30000000000E-01 0. -1.
</event>
<event>
 5   0  0.4961200E+08  0.9118800E+02  0.7818608E-02  0.1180000E+00
       11   -1    0    0    0    0  0.00000000000E+00  0.00000000000E+00  0.39999999673E+01  0.40000000000E+01  0.51109989000E-03 0. -1.
     -623   -1    0    0    0    0  0.00000000000E+00  0.00000000000E+00  0.12525980253E-10  0.17130000000E+03  0.17130000000E+03 0.  1.
       11    1    1    2    0    0 -0.53470013053E-03 -0.17369191240E-02  0.62305890982E-02  0.65103191842E-02  0.51109989000E-03 0. -1.
     -623    1    1    2    0    0  0.28743308916E-03  0.23667903133E-02  0.39245680838E-03  0.17130000002E+03  0.17130000000E+03 0.  1.
      622    1    1    2    0    0  0.24726704130E-03 -0.62987118993E-03  0.39933769225E+01  0.39934896648E+01  0.30000000000E-01 0. -1.
</event>
<event>
 5   0  0.4961200E+08  0.9118800E+02  0.7818608E-02  0.1180000E+00
       11   -1    0    0    0    0  0.00000000000E+00  0.00000000000E+00  0.39999999673E+01  0.40000000000E+01  0.51109989000E-03 0.  1.
     -623   -1    0    0    0    0  0.00000000000E+00  0.00000000000E+00  0.12525980253E-10  0.17130000000E+03  0.17130000000E+03 0.  1.
       11    1    1    2    0    0  0.27181001400E-02  0.74494404799E-02  0.27798385047E+00  0.27809740124E+00  0.51109989000E-03 0.  1.
     -623    1    1    2    0    0  0.67763494552E-03 -0.65232707779E-03  0.24218469122E-03  0.17130000000E+03  0.17130000000E+03 0.  1.
      622    1    1    2    0    0 -0.33957350855E-02 -0.67971134021E-02  0.37217739322E+01  0.37219025960E+01  0.30000000000E-01 0.  1.
</event>
<event>
 5   0  0.4961200E+08  0.9118800E+02  0.7818608E-02  0.1180000E+00
       11   -1    0    0    0    0  0.00000000000E+00  0.00000000000E+00  0.39999999673E+01  0.40000000000E+01  0.51109989000E-03 0.  1.
     -623   -1    0    0    0    0  0.00000000000E+00  0.00000000000E+00  0.12525980253E-10  0.17130000000E+03  0.17130000000E+03 0. -1.
       11    1    1    2    0    0 -0.73004388888E-03 -0.15576179329E-02  0.16549837681E+00  0.16550810580E+00  0.51109989000E-03 0.  1.
     -623    1    1    2    0    0 -0.21337995120E-02  0.29559227744E-02  0.12841727037E-03  0.17130000004E+03  0.17130000000E+03 0. -1.
      622    1    1    2    0    0  0.28638434009E-02 -0.13983048415E-02  0.38343731733E+01  0.38344918554E+01  0.30000000000E-01 0.  1.
</event>
<event>
 5   0  0.4961200E+08  0.9118800E+02  0.7818608E-02  0.1180000E+00
       11   -1    0    0    0    0  0.00000000000E+00  0.00000000000E+00  0.39999999673E+01  0.40000000000E+01  0.51109989000E-03 0.  1.
     -623   -1    0    0    0    0  0.00000000000E+00  0.00000000000E+00  0.12525980253E-10  0.17130000000E+03  0.17130000000E+03 0. -1.
       11    1    1    2    0    0  0.22092152858E-02 -0.16216858778E-02  0.52917156880E-02  0.59811349496E-02  0.51109989000E-03 0.  1.
     -623    1    1    2    0    0 -0.26425338301E-02 -0.11197828510E-03  0.80247875981E-03  0.17130000002E+03  0.17130000000E+03 0. -1.
      622    1    1    2    0    0  0.43331854442E-03  0.17336641629E-02  0.39939057731E+01  0.39940188430E+01  0.30000000000E-01 0.  1.
</event>
<event>
 5   0  0.4961200E+08  0.9118800E+02  0.7818608E-02  0.1180000E+00
       11   -1    0    0    0    0  0.00000000000E+00  0.00000000000E+00  0.39999999673E+01  0.40000000000E+01  0.51109989000E-03 0. -1.
     -623   -1    0    0    0    0  0.00000000000E+00  0.00000000000E+00  0.12525980253E-10  0.17130000000E+03  0.17130000000E+03 0. -1.
       11    1    1    2    0    0 -0.14072237516E-02  0.57494779982E-03  0.73109666513E-01  0.73127254860E-01  0.51109989000E-03 0. -1.
     -623    1    1    2    0    0 -0.99027655503E-03 -0.22382801307E-02  0.13325410933E-03  0.17130000002E+03  0.17130000000E+03 0. -1.
      622    1    1    2    0    0  0.23975003066E-02  0.16633323308E-02  0.39267570467E+01  0.39268727276E+01  0.30000000000E-01 0. -1.
</event>
<event>
 5   0  0.4961200E+08  0.9118800E+02  0.7818608E-02  0.1180000E+00
       11   -1    0    0    0    0  0.00000000000E+00  0.00000000000E+00  0.39999999673E+01  0.40000000000E+01  0.51109989000E-03 0.  1.
     -623   -1    0    0    0    0  0.00000000000E+00  0.00000000000E+00  0.12525980253E-10  0.17130000000E+03  0.17130000000E+03 0.  1.
       11    1    1    2    0    0 -0.54093214137E-02  0.18845221357E-02  0.31464659364E+00  0.31469914568E+00  0.51109989000E-03 0.  1.
     -623    1    1    2    0    0  0.18760488636E-02 -0.25879043242E-02  0.17641900114E-03  0.17130000003E+03  0.17130000000E+03 0.  1.
      622    1    1    2    0    0  0.35332725501E-02  0.70338218840E-03  0.36851769545E+01  0.36853008242E+01  0.30000000000E-01 0.  1.
</event>
<event>
 5   0  0.4961200E+08  0.9118800E+02  0.7818608E-02  0.1180000E+00
       11   -1    0    0    0    0  0.00000000000E+00  0.00000000000E+00  0.39999999673E+01  0.40000000000E+01  0.51109989000E-03 0.  1.
     -623   -1    0    0    0    0  0.00000000000E+00  0.00000000000E+00  0.12525980253E-10  0.17130000000E+03  0.17130000000E+03 0. -1.
       11    1    1    2    0    0  0.86376625576E-03 -0.26370653606E-02  0.84184784370E-02  0.88787502569E-02  0.51109989000E-03 0.  1.
     -623    1    1    2    0    0 -0.91178548760E-02  0.21802645706E-02  0.58181015883E-03  0.17130000026E+03  0.17130000000E+03 0. -1.
      622    1    1    2    0    0  0.82540886202E-02  0.45680079006E-03  0.39909996788E+01  0.39911209922E+01  0.30000000000E-01 0.  1.
</event>
<event>
 5   0  0.4961200E+08  0.9118800E+02  0.7818608E-02  0.1180000E+00
       11   -1    0    0    0    0  0.00000000000E+00  0.00000000000E+00  0.39999999673E+01  0.40000000000E+01  0.51109989000E-03 0.  1.
     -623   -1    0    0    0    0  0.00000000000E+00  0.00000000000E+00  0.12525980253E-10  0.17130000000E+03  0.17130000000E+03 0. -1.
       11    1    1    2    0    0 -0.71245603675E-02 -0.13579829584E-02  0.37954734855E-01  0.38644878035E-01  0.51109989000E-03 0.  1.
     -623    1    1    2    0    0  0.73519078713E-02 -0.54306776594E-02  0.80977906303E-03  0.17130000025E+03  0.17130000000E+03 0. -1.
      622    1    1    2    0    0 -0.22734750380E-03  0.67886606177E-02  0.39612354534E+01  0.39613548762E+01  0.30000000000E-01 0.  1.
</event>
<event>
 5   0  0.4961200E+08  0.9118800E+02  0.7818608E-02  0.1180000E+00
       11   -1    0    0    0    0  0.00000000000E+00  0.00000000000E+00  0.39999999673E+01  0.40000000000E+01  0.51109989000E-03 0. -1.
     -623   -1    0    0    0    0  0.00000000000E+00  0.00000000000E+00  0.12525980253E-10  0.17130000000E+03  0.17130000000E+03 0.  1.
       11    1    1    2    0    0  0.10413986588E-01 -0.30324720039E-01  0.72052884170E+00  0.72124206249E+00  0.51109989000E-03 0. -1.
     -623    1    1    2    0    0 -0.15518005322E-01  0.29896679813E-01  0.85775300502E-03  0.17130000331E+03  0.17130000000E+03 0.  1.
      622    1    1    2    0    0  0.51040187369E-02  0.42804022155E-03  0.32786133732E+01  0.32787546241E+01  0.30000000000E-01 0. -1.
</event>
<event>
 5   0  0.4961200E+08  0.9118800E+02  0.7818608E-02  0.1180000E+00
       11   -1    0    0    0    0  0.00000000000E+00  0.00000000000E+00  0.39999999673E+01  0.40000000000E+01  0.51109989000E-03 0.  1.
     -623   -1    0    0    0    0  0.00000000000E+00  0.00000000000E+00  0.12525980253E-10  0.17130000000E+03  0.17130000000E+03 0.  1.
       11    1    1    2    0    0  0.59522992989E-02  0.81940012420E-02  0.22115976784E-01  0.24330005662E-01  0.51109989000E-03 0.  1.
     -623    1    1    2    0    0 -0.14910456911E-01  0.57116798703E-02  0.23623592887E-02  0.17130000076E+03  0.17130000000E+03 0.  1.
      622    1    1    2    0    0  0.89581576117E-02 -0.13905681112E-01  0.39755216313E+01  0.39756692339E+01  0.30000000000E-01 0.  1.
</event>
<event>
 5   0  0.4961200E+08  0.9118800E+02  0.7818608E-02  0.1180000E+00
       11   -1    0    0    0    0  0.00000000000E+00  0.00000000000E+00  0.39999999673E+01  0.40000000000E+01  0.51109989000E-03 0. -1.
     -623   -1    0    0    0    0  0.00000000000E+00  0.00000000000E+00  0.12525980253E-10  0.17130000000E+03  0.17130000000E+03 0.  1.
       11    1    1    2    0    0  0.21462357082E-02  0.36999316601E-02  0.54012618658E-01  0.54184130698E-01  0.51109989000E-03 0. -1.
     -623    1    1    2    0    0  0.18428644483E-02 -0.12932105017E-02  0.28829143075E-03  0.17130000002E+03  0.17130000000E+03 0.  1.
      622    1    1    2    0    0 -0.39891001567E-02 -0.24067211583E-02  0.39456990575E+01  0.39458158545E+01  0.30000000000E-01 0. -1.
</event>
<event>
 5   0  0.4961200E+08  0.9118800E+02  0.7818608E-02  0.1180000E+00
       11   -1    0    0    0    0  0.00000000000E+00  0.00000000000E+00  0.39999999673E+01  0.40000000000E+01  0.51109989000E-03 0. -1.
     -623   -1    0    0    0    0  0.00000000000E+00  0.00000000000E+00  0.12525980253E-10  0.17130000000E+03  0.17130000000E+03 0. -1.
       11    1    1    2    0    0 -0.12278232188E-02 -0.10770798560E-02  0.53217144485E+00  0.53217419666E+00  0.51109989000E-03 0. -1.
     -623    1    1    2    0    0  0.82241144929E-02  0.50568047230E-03  0.13978893736E-03  0.17130000020E+03  0.17130000000E+03 0. -1.
      622    1    1    2    0    0 -0.69962912741E-02  0.57139938370E-03  0.34676887336E+01  0.34678256051E+01  0.30000000000E-01 0. -1.
</event>
<event>
 5   0  0.4961200E+08  0.9118800E+02  0.7818608E-02  0.1180000E+00
       11   -1    0    0    0    0  0.00000000000E+00  0.00000000000E+00  0.39999999673E+01  0.40000000000E+01  0.51109989000E-03 0.  1.
     -623   -1    0    0    0    0  0.00000000000E+00  0.00000000000E+00  0.12525980253E-10  0.17130000000E+03  0.17130000000E+03 0.  1.
       11    1    1    2    0    0 -0.66113479796E-03 -0.31132540957E-02  0.81362503126E-01  0.81426332276E-01  0.51109989000E-03 0.  1.
     -623    1    1    2    0    0 -0.84009131861E-03  0.11035258521E-02  0.17944455908E-03  0.17130000001E+03  0.17130000000E+03 0.  1.
      622    1    1    2    0    0  0.15012261166E-02  0.20097282436E-02  0.39184580197E+01  0.39185736620E+01  0.30000000000E-01 0.  0.
</event>
<event>
 5   0  0.4961200E+08  0.9118800E+02  0.7818608E-02  0.1180000E+00
       11   -1    0    0    0    0  0.00000000000E+00  0.00000000000E+00  0.39999999673E+01  0.40000000000E+01  0.51109989000E-03 0.  1.
     -623   -1    0    0    0    0  0.00000000000E+00  0.00000000000E+00  0.12525980253E-10  0.17130000000E+03  0.17130000000E+03 0. -1.
       11    1    1    2    0    0 -0.10636277735E-03 -0.37573925192E-02  0.17332743290E+00  0.17336894050E+00  0.51109989000E-03 0.  1.
     -623    1    1    2    0    0  0.40751744398E-02 -0.33446223090E-02  0.16780377683E-03  0.17130000008E+03  0.17130000000E+03 0. -1.
      622    1    1    2    0    0 -0.39688116612E-02  0.71020148271E-02  0.38265047294E+01  0.38266309771E+01  0.30000000000E-01 0.  1.
</event>
<event>
 5   0  0.4961200E+08  0.9118800E+02  0.7818608E-02  0.1180000E+00
       11   -1    0    0    0    0  0.00000000000E+00  0.00000000000E+00  0.39999999673E+01  0.40000000000E+01  0.51109989000E-03 0. -1.
     -623   -1    0    0    0    0  0.00000000000E+00  0.00000000000E+00  0.12525980253E-10  0.17130000000E+03  0.17130000000E+03 0.  1.
       11    1    1    2    0    0 -0.20771578303E-01  0.99626544549E-03  0.15094444232E+00  0.15237105007E+00  0.51109989000E-03 0. -1.
     -623    1    1    2    0    0  0.14308678162E-01 -0.87377149236E-02  0.15575758299E-02  0.17130000083E+03  0.17130000000E+03 0.  1.
      622    1    1    2    0    0  0.64629001415E-02  0.77414494781E-02  0.38474979492E+01  0.38476281224E+01  0.30000000000E-01 0. -1.
</event>
<event>
 5   0  0.4961200E+08  0.9118800E+02  0.7818608E-02  0.1180000E+00
       11   -1    0    0    0    0  0.00000000000E+00  0.00000000000E+00  0.39999999673E+01  0.40000000000E+01  0.51109989000E-03 0.  1.
     -623   -1    0    0    0    0  0.00000000000E+00  0.00000000000E+00  0.12525980253E-10  0.17130000000E+03  0.17130000000E+03 0.  1.
       11    1    1    2    0    0 -0.78569589944E-02 -0.10678259337E-01  0.24657806956E+00  0.24693473356E+00  0.51109989000E-03 0.  1.
     -623    1    1    2    0    0  0.22335125958E-03  0.71202368026E-03  0.49753422134E-03  0.17130000000E+03  0.17130000000E+03 0.  1.
      622    1    1    2    0    0  0.76336077348E-02  0.99662356568E-02  0.37529243636E+01  0.37530652641E+01  0.30000000000E-01 0.  0.
</event>
<event>
 5   0  0.4961200E+08  0.9118800E+02  0.7818608E-02  0.1180000E+00
       11   -1    0    0    0    0  0.00000000000E+00  0.00000000000E+00  0.39999999673E+01  0.40000000000E+01  0.51109989000E-03 0. -1.
     -623   -1    0    0    0    0  0.00000000000E+00  0.00000000000E+00  0.12525980253E-10  0.17130000000E+03  0.17130000000E+03 0. -1.
       11    1    1    2    0    0 -0.73833932299E-02 -0.20621622844E-01  0.54978518373E+00  0.55022156928E+00  0.51109989000E-03 0. -1.
     -623    1    1    2    0    0 -0.38945080465E-02  0.70334105553E-02  0.61218604305E-03  0.17130000019E+03  0.17130000000E+03 0. -1.
      622    1    1    2    0    0  0.11277901276E-01  0.13588212289E-01  0.34496025974E+01  0.34497782407E+01  0.30000000000E-01 0. -1.
</event>
<event>
 5   0  0.4961200E+08  0.9118800E+02  0.7818608E-02  0.1180000E+00
       11   -1    0    0    0    0  0.00000000000E+00  0.00000000000E+00  0.39999999673E+01  0.40000000000E+01  0.51109989000E-03 0.  1.
     -623   -1    0    0    0    0  0.00000000000E+00  0.00000000000E+00  0.12525980253E-10  0.17130000000E+03  0.17130000000E+03 0.  1.
       11    1    1    2    0    0 -0.56955720967E-02 -0.11786439126E-01  0.63800661954E+00  0.63814110311E+00  0.51109989000E-03 0.  1.
     -623    1    1    2    0    0  0.41415021195E-02  0.59329265539E-02  0.27391650120E-03  0.17130000015E+03  0.17130000000E+03 0.  1.
      622    1    1    2    0    0  0.15540699772E-02  0.58535125721E-02  0.33617194313E+01  0.33618587439E+01  0.30000000000E-01 0.  0.
</event>
<event>
 5   0  0.4961200E+08  0.9118800E+02  0.7818608E-02  0.1180000E+00
       11   -1    0    0    0    0  0.00000000000E+00  0.00000000000E+00  0.39999999673E+01  0.40000000000E+01  0.51109989000E-03 0.  1.
     -623   -1    0    0    0    0  0.00000000000E+00  0.00000000000E+00  0.12525980253E-10  0.17130000000E+03  0.17130000000E+03 0. -1.
       11    1    1    2    0    0  0.66097640887E-02  0.56504062354E-02  0.22961847043E-01  0.24558577184E-01  0.51109989000E-03 0.  1.
     -623    1    1    2    0    0 -0.80213148964E-02  0.11636318506E-04  0.17143732966E-02  0.17130000020E+03  0.17130000000E+03 0. -1.
      622    1    1    2    0    0  0.14115508077E-02 -0.56620425539E-02  0.39753237470E+01  0.39754412264E+01  0.30000000000E-01 0.  1.
</event>
<event>
 5   0  0.4961200E+08  0.9118800E+02  0.7818608E-02  0.1180000E+00
       11   -1    0    0    0    0  0.00000000000E+00  0.00000000000E+00  0.39999999673E+01  0.40000000000E+01  0.51109989000E-03 0.  1.
     -623   -1    0    0    0    0  0.00000000000E+00  0.00000000000E+00  0.12525980253E-10  0.17130000000E+03  0.17130000000E+03 0. -1.
       11    1    1    2    0    0 -0.81966214471E-02 -0.50400808663E-02  0.31048143581E+00  0.31063092284E+00  0.51109989000E-03 0.  1.
     -623    1    1    2    0    0 -0.10079498507E-01  0.55291859625E-02  0.31711620386E-03  0.17130000039E+03  0.17130000000E+03 0. -1.
      622    1    1    2    0    0  0.18276119956E-01 -0.48910509713E-03  0.36892014161E+01  0.36893686918E+01  0.30000000000E-01 0.  1.
</event>
<event>
 5   0  0.4961200E+08  0.9118800E+02  0.7818608E-02  0.1180000E+00
       11   -1    0    0    0    0  0.00000000000E+00  0.00000000000E+00  0.39999999673E+01  0.40000000000E+01  0.51109989000E-03 0. -1.
     -623   -1    0    0    0    0  0.00000000000E+00  0.00000000000E+00  0.12525980253E-10  0.17130000000E+03  0.17130000000E+03 0. -1.
       11    1    1    2    0    0 -0.11252507795E-01  0.49956373866E-02  0.27722129890E+00  0.27749501817E+00  0.51109989000E-03 0. -1.
     -623    1    1    2    0    0 -0.10126130056E-01 -0.58208351306E-02  0.45645732096E-03  0.17130000040E+03  0.17130000000E+03 0. -1.
      622    1    1    2    0    0  0.21378637850E-01  0.82519774368E-03  0.37223222109E+01  0.37225045828E+01  0.30000000000E-01 0. -1.
</event>
<event>
 5   0  0.4961200E+08  0.9118800E+02  0.7818608E-02  0.1180000E+00
       11   -1    0    0    0    0  0.00000000000E+00  0.00000000000E+00  0.39999999673E+01  0.40000000000E+01  0.51109989000E-03 0. -1.
     -623   -1    0    0    0    0  0.00000000000E+00  0.00000000000E+00  0.12525980253E-10  0.17130000000E+03  0.17130000000E+03 0.  1.
       11    1    1    2    0    0  0.78597031336E-02 -0.23484184183E-02  0.31272741386E+00  0.31283539858E+00  0.51109989000E-03 0. -1.
     -623    1    1    2    0    0 -0.12280082850E-01 -0.19120787421E-02  0.23556147206E-03  0.17130000045E+03  0.17130000000E+03 0.  1.
      622    1    1    2    0    0  0.44203797163E-02  0.42604971604E-02  0.36870369920E+01  0.36871641504E+01  0.30000000000E-01 0. -1.
</event>
<event>
 5   0  0.4961200E+08  0.9118800E+02  0.7818608E-02  0.1180000E+00
       11   -1    0    0    0    0  0.00000000000E+00  0.00000000000E+00  0.39999999673E+01  0.40000000000E+01  0.51109989000E-03 0.  1.
     -623   -1    0    0    0    0  0.00000000000E+00  0.00000000000E+00  0.12525980253E-10  0.17130000000E+03  0.17130000000E+03 0. -1.
       11    1    1    2    0    0  0.13077145914E-01 -0.15720240231E-02  0.22634196460E+00  0.22672544886E+00  0.51109989000E-03 0.  1.
     -623    1    1    2    0    0 -0.58507690176E-02  0.56318638582E-02  0.51201076021E-03  0.17130000019E+03  0.17130000000E+03 0. -1.
      622    1    1    2    0    0 -0.72263768969E-02 -0.40598398351E-02  0.37731459920E+01  0.37732743579E+01  0.30000000000E-01 0.  1.
</event>
<event>
 5   0  0.4961200E+08  0.9118800E+02  0.7818608E-02  0.1180000E+00
       11   -1    0    0    0    0  0.00000000000E+00  0.00000000000E+00  0.39999999673E+01  0.40000000000E+01  0.51109989000E-03 0.  1.
     -623   -1    0    0    0    0  0.00000000000E+00  0.00000000000E+00  0.12525980253E-10  0.17130000000E+03  0.17130000000E+03 0.  1.
       11    1    1    2    0    0  0.10162952917E-01  0.77388670209E-02  0.57702400559E+00  0.57716560876E+00  0.51109989000E-03 0.  1.
     -623    1    1    2    0    0  0.13988864731E-02 -0.10280551749E-03  0.30109505661E-03  0.17130000001E+03  0.17130000000E+03 0.  1.
      622    1    1    2    0    0 -0.11561839390E-01 -0.76360615034E-02  0.34226748667E+01  0.34228343852E+01  0.30000000000E-01 0.  1.
</event>
<event>
 5   0  0.4961200E+08  0.9118800E+02  0.7818608E-02  0.1180000E+00
       11   -1    0    0    0    0  0.00000000000E+00  0.00000000000E+00  0.39999999673E+01  0.40000000000E+01  0.51109989000E-03 0. -1.
     -623   -1    0    0    0    0  0.00000000000E+00  0.00000000000E+00  0.12525980253E-10  0.17130000000E+03  0.17130000000E+03 0. -1.
       11    1    1    2    0    0 -0.45608593743E-02 -0.24967311407E-02  0.10486848965E+01  0.10486979110E+01  0.51109989000E-03 0. -1.
     -623    1    1    2    0    0  0.17076352828E-02  0.27135118871E-02  0.16687816381E-03  0.17130000003E+03  0.17130000000E+03 0. -1.
      622    1    1    2    0    0  0.28532240915E-02 -0.21678074642E-03  0.29511481927E+01  0.29513020589E+01  0.30000000000E-01 0. -1.
</event>
<event>
 5   0  0.4961200E+08  0.9118800E+02  0.7818608E-02  0.1180000E+00
       11   -1    0    0    0    0  0.00000000000E+00  0.00000000000E+00  0.39999999673E+01  0.40000000000E+01  0.51109989000E-03 0. -1.
     -623   -1    0    0    0    0  0.00000000000E+00  0.00000000000E+00  0.12525980253E-10  0.17130000000E+03  0.17130000000E+03 0. -1.
       11    1    1    2    0    0 -0.13971270149E-02 -0.63520074432E-02  0.21277619287E+00  0.21287618334E+00  0.51109989000E-03 0. -1.
     -623    1    1    2    0    0 -0.10334883818E-02  0.78578374139E-03  0.22365915221E-03  0.17130000001E+03  0.17130000000E+03 0. -1.
      622    1    1    2    0    0  0.24306153967E-02  0.55662237018E-02  0.37870001153E+01  0.37871238116E+01  0.30000000000E-01 0. -1.
</event>
<event>
 5   0  0.4961200E+08  0.9118800E+02  0.7818608E-02  0.1180000E+00
       11   -1    0    0    0    0  0.00000000000E+00  0.00000000000E+00  0.39999999673E+01  0.40000000000E+01  0.51109989000E-03 0.  1.
     -623   -1    0    0    0    0  0.00000000000E+00  0.00000000000E+00  0.12525980253E-10  0.17130000000E+03  0.17130000000E+03 0.  1.
       11    1    1    2    0    0 -0.16008578511E-02 -0.98022300269E-03  0.31954719694E-01  0.32013886273E-01  0.51109989000E-03 0.  1.
     -623    1    1    2    0    0  0.46078804137E-03 -0.56628476027E-03  0.17301002442E-03  0.17130000000E+03  0.17130000000E+03 0.  1.
      622    1    1    2    0    0  0.11400698097E-02  0.15465077630E-02  0.39678722376E+01  0.39679861121E+01  0.30000000000E-01 0.  1.
</event>
<event>
 5   0  0.4961200E+08  0.9118800E+02  0.7818608E-02  0.1180000E+00
       11   -1    0    0    0    0  0.00000000000E+00  0.00000000000E+00  0.39999999673E+01  0.40000000000E+01  0.51109989000E-03 0.  1.
     -623   -1    0    0    0    0  0.00000000000E+00  0.00000000000E+00  0.12525980253E-10  0.17130000000E+03  0.17130000000E+03 0. -1.
       11    1    1    2    0    0  0.54342531037E-01 -0.23271873665E-02  0.66565773910E+00  0.66787649556E+00  0.51109989000E-03 0.  1.
     -623    1    1    2    0    0 -0.22121075466E-03 -0.52074127894E-03  0.27945904990E-02  0.17130000002E+03  0.17130000000E+03 0. -1.
      622    1    1    2    0    0 -0.54121320282E-01  0.28479286455E-02  0.33315476378E+01  0.33321234807E+01  0.30000000000E-01 0.  1.
</event>
<event>
 5   0  0.4961200E+08  0.9118800E+02  0.7818608E-02  0.1180000E+00
       11   -1    0    0    0    0  0.00000000000E+00  0.00000000000E+00  0.39999999673E+01  0.40000000000E+01  0.51109989000E-03 0.  1.
     -623   -1    0    0    0    0  0.00000000000E+00  0.00000000000E+00  0.12525980253E-10  0.17130000000E+03  0.17130000000E+03 0.  1.
       11    1    1    2    0    0 -0.62558664285E-03  0.12621641423E-01  0.38492601627E+00  0.38513373835E+00  0.51109989000E-03 0.  1.
     -623    1    1    2    0    0 -0.15312833360E-02 -0.33234436251E-02  0.34481932888E-03  0.17130000004E+03  0.17130000000E+03 0.  1.
      622    1    1    2    0    0  0.21568699788E-02 -0.92981977981E-02  0.36147291318E+01  0.36148662222E+01  0.30000000000E-01 0.  1.
</event>
<event>
 5   0  0.4961200E+08  0.9118800E+02  0.7818608E-02  0.1180000E+00
       11   -1    0    0    0    0  0.00000000000E+00  0.00000000000E+00  0.39999999673E+01  0.40000000000E+01  0.51109989000E-03 0. -1.
     -623   -1    0    0    0    0  0.00000000000E+00  0.00000000000E+00  0.12525980253E-10  0.17130000000E+03  0.17130000000E+03 0. -1.
       11    1    1    2    0    0  0.21031806494E-03  0.16331207494E-02  0.92796747304E-01  0.92812762315E-01  0.51109989000E-03 0. -1.
     -623    1    1    2    0    0  0.28908186186E-02 -0.23793793124E-02  0.13249939599E-03  0.17130000004E+03  0.17130000000E+03 0. -1.
      622    1    1    2    0    0 -0.31011366835E-02  0.74625856298E-03  0.39070707207E+01  0.39071871967E+01  0.30000000000E-01 0. -1.
</event>
<event>
 5   0  0.4961200E+08  0.9118800E+02  0.7818608E-02  0.1180000E+00
       11   -1    0    0    0    0  0.00000000000E+00  0.00000000000E+00  0.39999999673E+01  0.40000000000E+01  0.51109989000E-03 0. -1.
     -623   -1    0    0    0    0  0.00000000000E+00  0.00000000000E+00  0.12525980253E-10  0.17130000000E+03  0.17130000000E+03 0.  1.
       11    1    1    2    0    0  0.34791564006E-02 -0.65768121504E-03  0.10053024483E+00  0.10059387865E+00  0.51109989000E-03 0. -1.
     -623    1    1    2    0    0 -0.14059368513E-02  0.30729923944E-03  0.17957811786E-03  0.17130000001E+03  0.17130000000E+03 0.  1.
      622    1    1    2    0    0 -0.20732195498E-02  0.35038197571E-03  0.38992901429E+01  0.38994061137E+01  0.30000000000E-01 0. -1.
</event>
<event>
 5   0  0.4961200E+08  0.9118800E+02  0.7818608E-02  0.1180000E+00
       11   -1    0    0    0    0  0.00000000000E+00  0.00000000000E+00  0.39999999673E+01  0.40000000000E+01  0.51109989000E-03 0.  1.
     -623   -1    0    0    0    0  0.00000000000E+00  0.00000000000E+00  0.12525980253E-10  0.17130000000E+03  0.17130000000E+03 0. -1.
       11    1    1    2    0    0  0.11499265526E-01  0.34872975262E-02  0.69310511751E+00  0.69320946292E+00  0.51109989000E-03 0.  1.
     -623    1    1    2    0    0 -0.11189970971E-01  0.54617961610E-02  0.25297630698E-03  0.17130000045E+03  0.17130000000E+03 0. -1.
      622    1    1    2    0    0 -0.30929455545E-03 -0.89490936872E-02  0.33066418735E+01  0.33067900843E+01  0.30000000000E-01 0.  1.
</event>
<event>
 5   0  0.4961200E+08  0.9118800E+02  0.7818608E-02  0.1180000E+00
       11   -1    0    0    0    0  0.00000000000E+00  0.00000000000E+00  0.39999999673E+01  0.40000000000E+01  0.51109989000E-03 0. -1.
     -623   -1    0    0    0    0  0.00000000000E+00  0.00000000000E+00  0.12525980253E-10  0.17130000000E+03  0.17130000000E+03 0.  1.
       11    1    1    2    0    0  0.55445377328E-02 -0.18943655678E-01  0.31941513657E+00  0.32002483448E+00  0.51109989000E-03 0. -1.
     -623    1    1    2    0    0  0.25471732862E-02  0.54610391608E-02  0.76565459445E-03  0.17130000011E+03  0.17130000000E+03 0.  1.
      622    1    1    2    0    0 -0.80917110190E-02  0.13482616517E-01  0.36798191762E+01  0.36799750578E+01  0.30000000000E-01 0. -1.
</event>
<event>
 5   0  0.4961200E+08  0.9118800E+02  0.7818608E-02  0.1180000E+00
       11   -1    0    0    0    0  0.00000000000E+00  0.00000000000E+00  0.39999999673E+01  0.40000000000E+01  0.51109989000E-03 0. -1.
     -623   -1    0    0    0    0  0.00000000000E+00  0.00000000000E+00  0.12525980253E-10  0.17130000000E+03  0.17130000000E+03 0. -1.
       11    1    1    2    0    0 -0.13492376458E-01 -0.30028834208E-01  0.20777057826E+00  0.21036313726E+00  0.51109989000E-03 0. -1.
     -623    1    1    2    0    0  0.88634840822E-02  0.84208976835E-02  0.27761640825E-02  0.17130000046E+03  0.17130000000E+03 0. -1.
      622    1    1    2    0    0  0.46288923761E-02  0.21607936525E-01  0.37894532250E+01  0.37896364040E+01  0.30000000000E-01 0. -1.
</event>
<event>
 5   0  0.4961200E+08  0.9118800E+02  0.7818608E-02  0.1180000E+00
       11   -1    0    0    0    0  0.00000000000E+00  0.00000000000E+00  0.39999999673E+01  0.40000000000E+01  0.51109989000E-03 0.  1.
     -623   -1    0    0    0    0  0.00000000000E+00  0.00000000000E+00  0.12525980253E-10  0.17130000000E+03  0.17130000000E+03 0. -1.
       11    1    1    2    0    0 -0.12569916162E-01  0.48511599957E-01  0.63381896215E+00  0.63579722878E+00  0.51109989000E-03 0.  1.
     -623    1    1    2    0    0 -0.51650395984E-02 -0.19925334228E-01  0.22814586531E-02  0.17130000125E+03  0.17130000000E+03 0. -1.
      622    1    1    2    0    0  0.17734955760E-01 -0.28586265729E-01  0.33638995466E+01  0.33642015194E+01  0.30000000000E-01 0.  1.
</event>
<event>
 5   0  0.4961200E+08  0.9118800E+02  0.7818608E-02  0.1180000E+00
       11   -1    0    0    0    0  0.00000000000E+00  0.00000000000E+00  0.39999999673E+01  0.40000000000E+01  0.51109989000E-03 0. -1.
     -623   -1    0    0    0    0  0.00000000000E+00  0.00000000000E+00  0.12525980253E-10  0.17130000000E+03  0.17130000000E+03 0. -1.
       11    1    1    2    0    0 -0.21262875004E-02  0.13297904607E-02  0.23358644476E+00  0.23360046626E+00  0.51109989000E-03 0. -1.
     -623    1    1    2    0    0 -0.21920850468E-03 -0.27745383370E-02  0.13449836816E-03  0.17130000002E+03  0.17130000000E+03 0. -1.
      622    1    1    2    0    0  0.23454960050E-02  0.14447478763E-02  0.37662790242E+01  0.37663995111E+01  0.30000000000E-01 0. -1.
</event>
<event>
 5   0  0.4961200E+08  0.9118800E+02  0.7818608E-02  0.1180000E+00
       11   -1    0    0    0    0  0.00000000000E+00  0.00000000000E+00  0.39999999673E+01  0.40000000000E+01  0.51109989000E-03 0. -1.
     -623   -1    0    0    0    0  0.00000000000E+00  0.00000000000E+00  0.12525980253E-10  0.17130000000E+03  0.17130000000E+03 0. -1.
       11    1    1    2    0    0 -0.61325123657E-03  0.65405799911E-05  0.15405004546E-02  0.17350748130E-02  0.51109989000E-03 0. -1.
     -623    1    1    2    0    0 -0.42979593042E-03  0.73698036044E-03  0.30729971376E-03  0.17130000000E+03  0.17130000000E+03 0. -1.
      622    1    1    2    0    0  0.10430471671E-02 -0.74352094067E-03  0.39981521684E+01  0.39982649240E+01  0.30000000000E-01 0. -1.
</event>
<event>
 5   0  0.4961200E+08  0.9118800E+02  0.7818608E-02  0.1180000E+00
       11   -1    0    0    0    0  0.00000000000E+00  0.00000000000E+00  0.39999999673E+01  0.40000000000E+01  0.51109989000E-03 0.  1.
     -623   -1    0    0    0    0  0.00000000000E+00  0.00000000000E+00  0.12525980253E-10  0.17130000000E+03  0.17130000000E+03 0.  1.
       11    1    1    2    0    0  0.81549398613E-02  0.13028325393E-02  0.63277471146E-01  0.63816142115E-01  0.51109989000E-03 0.  1.
     -623    1    1    2    0    0  0.22604108104E-02 -0.17375869320E-02  0.66679316150E-03  0.17130000003E+03  0.17130000000E+03 0.  1.
      622    1    1    2    0    0 -0.10415350672E-01  0.43475439290E-03  0.39360557035E+01  0.39361838333E+01  0.30000000000E-01 0.  1.
</event>
<event>
 5   0  0.4961200E+08  0.9118800E+02  0.7818608E-02  0.1180000E+00
       11   -1    0    0    0    0  0.00000000000E+00  0.00000000000E+00  0.39999999673E+01  0.40000000000E+01  0.51109989000E-03 0. -1.
     -623   -1    0    0    0    0  0.00000000000E+00  0.00000000000E+00  0.12525980253E-10  0.17130000000E+03  0.17130000000E+03 0.  1.
       11    1    1    2    0    0 -0.18540479232E-02  0.37609147868E-02  0.56908848005E-01  0.57065402619E-01  0.51109989000E-03 0. -1.
     -623    1    1    2    0    0  0.80008255256E-03 -0.80361331554E-03  0.27190571483E-03  0.17130000000E+03  0.17130000000E+03 0.  1.
      622    1    1    2    0    0  0.10539653706E-02 -0.29573014713E-02  0.39428192136E+01  0.39429345934E+01  0.30000000000E-01 0. -1.
</event>
<event>
 5   0  0.4961200E+08  0.9118800E+02  0.7818608E-02  0.1180000E+00
       11   -1    0    0    0    0  0.00000000000E+00  0.00000000000E+00  0.39999999673E+01  0.40000000000E+01  0.51109989000E-03 0.  1.
     -623   -1    0    0    0    0  0.00000000000E+00  0.00000000000E+00  0.12525980253E-10  0.17130000000E+03  0.17130000000E+03 0.  1.
       11    1    1    2    0    0 -0.27565727789E-02  0.19270970601E-04  0.93680564778E-02  0.97785872694E-02  0.51109989000E-03 0.  1.
     -623    1    1    2    0    0  0.14571859875E-02 -0.28565627416E-02  0.52452660798E-03  0.17130000003E+03  0.17130000000E+03 0.  1.
      622    1    1    2    0    0  0.12993867914E-02  0.28372917710E-02  0.39901073843E+01  0.39902213819E+01  0.30000000000E-01 0.  1.
</event>
<event>
 5   0  0.4961200E+08  0.9118800E+02  0.7818608E-02  0.1180000E+00
       11   -1    0    0    0    0  0.00000000000E+00  0.00000000000E+00  0.39999999673E+01  0.40000000000E+01  0.51109989000E-03 0.  1.
     -623   -1    0    0    0    0  0.00000000000E+00  0.00000000000E+00  0.12525980253E-10  0.17130000000E+03  0.17130000000E+03 0.  1.
       11    1    1    2    0    0  0.80443795745E-02  0.94469020573E-02  0.84064914758E+00  0.84074086766E+00  0.51109989000E-03 0.  1.
     -623    1    1    2    0    0 -0.41634238138E-02  0.16544706896E-02  0.25607735687E-03  0.17130000006E+03  0.17130000000E+03 0.  1.
      622    1    1    2    0    0 -0.38809557620E-02 -0.11101372746E-01  0.31590947411E+01  0.31592590723E+01  0.30000000000E-01 0.  1.
</event>
<event>
 5   0  0.4961200E+08  0.9118800E+02  0.7818608E-02  0.1180000E+00
       11   -1    0    0    0    0  0.00000000000E+00  0.00000000000E+00  0.39999999673E+01  0.40000000000E+01  0.51109989000E-03 0. -1.
     -623   -1    0    0    0    0  0.00000000000E+00  0.00000000000E+00  0.12525980253E-10  0.17130000000E+03  0.17130000000E+03 0.  1.
       11    1    1    2    0    0 -0.12612261193E-02 -0.32277763717E-02  0.13217484180E-01  0.13673782949E-01  0.51109989000E-03 0. -1.
     -623    1    1    2    0    0  0.31137414643E-02  0.26355454652E-02  0.56967759907E-03  0.17130000005E+03  0.17130000000E+03 0.  1.
      622    1    1    2    0    0 -0.18525153450E-02  0.59223090644E-03  0.39862128056E+01  0.39863261675E+01  0.30000000000E-01 0. -1.
</event>
<event>
 5   0  0.4961200E+08  0.9118800E+02  0.7818608E-02  0.1180000E+00
       11   -1    0    0    0    0  0.00000000000E+00  0.00000000000E+00  0.39999999673E+01  0.40000000000E+01  0.51109989000E-03 0.  1.
     -623   -1    0    0    0    0  0.00000000000E+00  0.00000000000E+00  0.12525980253E-10  0.17130000000E+03  0.17130000000E+03 0. -1.
       11    1    1    2    0    0  0.20006526357E-03  0.16338078920E-02  0.25910809773E-01  0.25968069619E-01  0.51109989000E-03 0.  1.
     -623    1    1    2    0    0 -0.18235003470E-02 -0.19672391226E-02  0.17083062442E-03  0.17130000002E+03  0.17130000000E+03 0. -1.
      622    1    1    2    0    0  0.16234350835E-02  0.33343123064E-03  0.39739183270E+01  0.39740319093E+01  0.30000000000E-01 0.  1.
</event>
<event>
 5   0  0.4961200E+08  0.9118800E+02  0.7818608E-02  0.1180000E+00
       11   -1    0    0    0    0  0.00000000000E+00  0.00000000000E+00  0.39999999673E+01  0.40000000000E+01  0.51109989000E-03 0. -1.
     -623   -1    0    0    0    0  0.00000000000E+00  0.00000000000E+00  0.12525980253E-10  0.17130000000E+03  0.17130000000E+03 0.  1.
       11    1    1    2    0    0  0.13542717564E-02 -0.47652949996E-02  0.27091445331E+00  0.27096022647E+00  0.51109989000E-03 0. -1.
     -623    1    1    2    0    0  0.30600708499E-03  0.16944500420E-02  0.16805976579E-03  0.17130000001E+03  0.17130000000E+03 0.  1.
      622    1    1    2    0    0 -0.16602788413E-02  0.30708449585E-02  0.37289174522E+01  0.37290397627E+01  0.30000000000E-01 0. -1.
</event>
<event>
 5   0  0.4961200E+08  0.9118800E+02  0.7818608E-02  0.1180000E+00
       11   -1    0    0    0    0  0.00000000000E+00  0.00000000000E+00  0.39999999673E+01  0.40000000000E+01  0.51109989000E-03 0. -1.
     -623   -1    0    0    0    0  0.00000000000E+00  0.00000000000E+00  0.12525980253E-10  0.17130000000E+03  0.17130000000E+03 0. -1.
       11    1    1    2    0    0  0.42429633600E-02  0.46884455157E-01  0.75191333324E+00  0.75338574237E+00  0.51109989000E-03 0. -1.
     -623    1    1    2    0    0  0.20384530507E-03 -0.25661471429E-02  0.19165744763E-02  0.17130000003E+03  0.17130000000E+03 0. -1.
      622    1    1    2    0    0 -0.44468086650E-02 -0.44318308014E-01  0.32461700596E+01  0.32466142275E+01  0.30000000000E-01 0. -1.
</event>
<event>
 5   0  0.4961200E+08  0.9118800E+02  0.7818608E-02  0.1180000E+00
       11   -1    0    0    0    0  0.00000000000E+00  0.00000000000E+00  0.39999999673E+01  0.40000000000E+01  0.51109989000E-03 0.  1.
     -623   -1    0    0    0    0  0.00000000000E+00  0.00000000000E+00  0.12525980253E-10  0.17130000000E+03  0.17130000000E+03 0. -1.
       11    1    1    2    0    0 -0.14374969239E-01  0.11879619730E-01  0.15279451455E+00  0.15392917204E+00  0.51109989000E-03 0.  1.
     -623    1    1    2    0    0 -0.33290255197E-03 -0.58265739154E-02  0.12846201508E-02  0.17130000010E+03  0.17130000000E+03 0. -1.
      622    1    1    2    0    0  0.14707871791E-01 -0.60530458144E-02  0.38459208327E+01  0.38460707237E+01  0.30000000000E-01 0.  1.
</event>
<event>
 5   0  0.4961200E+08  0.9118800E+02  0.7818608E-02  0.1180000E+00
       11   -1    0    0    0    0  0.00000000000E+00  0.00000000000E+00  0.39999999673E+01  0.40000000000E+01  0.51109989000E-03 0. -1.
     -623   -1    0    0    0    0  0.00000000000E+00  0.00000000000E+00  0.12525980253E-10  0.17130000000E+03  0.17130000000E+03 0. -1.
       11    1    1    2    0    0 -0.17108364303E-02  0.21454839329E-02  0.19737264819E+00  0.19739238470E+00  0.51109989000E-03 0. -1.
     -623    1    1    2    0    0 -0.26175925156E-02 -0.26631914333E-02  0.14058511981E-03  0.17130000004E+03  0.17130000000E+03 0. -1.
      622    1    1    2    0    0  0.43284289459E-02  0.51770750040E-03  0.38024867340E+01  0.38026075745E+01  0.30000000000E-01 0. -1.
</event>
<event>
 5   0  0.4961200E+08  0.9118800E+02  0.7818608E-02  0.1180000E+00
       11   -1    0    0    0    0  0.00000000000E+00  0.00000000000E+00  0.39999999673E+01  0.40000000000E+01  0.51109989000E-03 0.  1.
     -623   -1    0    0    0    0  0.00000000000E+00  0.00000000000E+00  0.12525980253E-10  0.17130000000E+03  0.17130000000E+03 0.  1.
       11    1    1    2    0    0 -0.19770536428E-02 -0.34109929157E-03  0.11271449590E+00  0.11273350832E+00  0.51109989000E-03 0.  1.
     -623    1    1    2    0    0  0.18529736904E-03 -0.52536019187E-04  0.13517712890E-03  0.17130000000E+03  0.17130000000E+03 0.  1.
      622    1    1    2    0    0  0.17917562735E-02  0.39363531082E-03  0.38871502989E+01  0.38872664960E+01  0.30000000000E-01 0.  1.
</event>
<event>
 5   0  0.4961200E+08  0.9118800E+02  0.7818608E-02  0.1180000E+00
       11   -1    0    0    0    0  0.00000000000E+00  0.00000000000E+00  0.39999999673E+01  0.40000000000E+01  0.51109989000E-03 0.  1.
     -623   -1    0    0    0    0  0.00000000000E+00  0.00000000000E+00  0.12525980253E-10  0.17130000000E+03  0.17130000000E+03 0. -1.
       11    1    1    2    0    0  0.31905674756E-02 -0.20453735417E-02  0.19678051467E+00  0.19681767058E+00  0.51109989000E-03 0.  1.
     -623    1    1    2    0    0  0.35457271789E-04 -0.14295729071E-02  0.15840895139E-03  0.17130000001E+03  0.17130000000E+03 0. -1.
      622    1    1    2    0    0 -0.32260247474E-02  0.34749464481E-02  0.38030610418E+01  0.38031823215E+01  0.30000000000E-01 0.  1.
</event>
<event>
 5   0  0.4961200E+08  0.9118800E+02  0.7818608E-02  0.1180000E+00
       11   -1    0    0    0    0  0.00000000000E+00  0.00000000000E+00  0.39999999673E+01  0.40000000000E+01  0.51109989000E-03 0.  1.
     -623   -1    0    0    0    0  0.00000000000E+00  0.00000000000E+00  0.12525980253E-10  0.17130000000E+03  0.17130000000E+03 0.  1.
       11    1    1    2    0    0  0.14853007181E-02 -0.35938444279E-02  0.77293625328E-01  0.77393071882E-01  0.51109989000E-03 0.  1.
     -623    1    1    2    0    0 -0.14883276112E-02  0.15475667888E-02  0.21468255934E-03  0.17130000001E+03  0.17130000000E+03 0.  1.
      622    1    1    2    0    0  0.30268936363E-05  0.20462776385E-02  0.39224916609E+01  0.39226069160E+01  0.30000000000E-01 0.  1.
</event>
<event>
 5   0  0.4961200E+08  0.9118800E+02  0.7818608E-02  0.1180000E+00
       11   -1    0    0    0    0  0.00000000000E+00  0.00000000000E+00  0.39999999673E+01  0.40000000000E+01  0.51109989000E-03 0.  1.
     -623   -1    0    0    0    0  0.00000000000E+00  0.00000000000E+00  0.12525980253E-10  0.17130000000E+03  0.17130000000E+03 0. -1.
       11    1    1    2    0    0 -0.14764772621E-02 -0.92672556904E-03  0.51857550873E-01  0.51889359323E-01  0.51109989000E-03 0.  1.
     -623    1    1    2    0    0  0.36583373037E-04  0.50615160917E-03  0.14604181548E-03  0.17130000000E+03  0.17130000000E+03 0. -1.
      622    1    1    2    0    0  0.14398938891E-02  0.42057395952E-03  0.39479963775E+01  0.39481106427E+01  0.30000000000E-01 0.  1.
</event>
<event>
 5   0  0.4961200E+08  0.9118800E+02  0.7818608E-02  0.1180000E+00
       11   -1    0    0    0    0  0.00000000000E+00  0.00000000000E+00  0.39999999673E+01  0.40000000000E+01  0.51109989000E-03 0. -1.
     -623   -1    0    0    0    0  0.00000000000E+00  0.00000000000E+00  0.12525980253E-10  0.17130000000E+03  0.17130000000E+03 0.  1.
       11    1    1    2    0    0 -0.79551021919E-02 -0.43554397838E-02  0.24520693584E+00  0.24537513345E+00  0.51109989000E-03 0. -1.
     -623    1    1    2    0    0  0.90173990822E-04  0.13706187195E-02  0.29744901787E-03  0.17130000001E+03  0.17130000000E+03 0.  1.
      622    1    1    2    0    0  0.78649282011E-02  0.29848210644E-02  0.37544955825E+01  0.37546248608E+01  0.30000000000E-01 0. -1.
</event>
<event>
 5   0  0.4961200E+08  0.9118800E+02  0.7818608E-02  0.1180000E+00
       11   -1    0    0    0    0  0.00000000000E+00  0.00000000000E+00  0.39999999673E+01  0.40000000000E+01  0.51109989000E-03 0.  1.
     -623   -1    0    0    0    0  0.00000000000E+00  0.00000000000E+00  0.12525980253E-10  0.17130000000E+03  0.17130000000E+03 0. -1.
       11    1    1    2    0    0 -0.95768679924E-02  0.34088365358E-02  0.97444938820E+00  0.97450254384E+00  0.51109989000E-03 0.  1.
     -623    1    1    2    0    0  0.24444131948E-02  0.24776771703E-02  0.21603245531E-03  0.17130000004E+03  0.17130000000E+03 0. -1.
      622    1    1    2    0    0  0.71324547978E-02 -0.58865137059E-02  0.30253345464E+01  0.30254974204E+01  0.30000000000E-01 0.  1.
</event>
<event>
 5   0  0.4961200E+08  0.9118800E+02  0.7818608E-02  0.1180000E+00
       11   -1    0    0    0    0  0.00000000000E+00  0.00000000000E+00  0.39999999673E+01  0.40000000000E+01  0.51109989000E-03 0.  1.
     -623   -1    0    0    0    0  0.00000000000E+00  0.00000000000E+00  0.12525980253E-10  0.17130000000E+03  0.17130000000E+03 0.  1.
       11    1    1    2    0    0  0.15003009726E-01  0.46577702799E-01  0.79685679695E+00  0.79835805800E+00  0.51109989000E-03 0.  1.
     -623    1    1    2    0    0 -0.10737272551E-02 -0.81147882079E-02  0.19033505772E-02  0.17130000021E+03  0.17130000000E+03 0.  1.
      622    1    1    2    0    0 -0.13929282471E-01 -0.38462914591E-01  0.32012398201E+01  0.32016417361E+01  0.30000000000E-01 0.  1.
</event>
<event>
 5   0  0.4961200E+08  0.9118800E+02  0.7818608E-02  0.1180000E+00
       11   -1    0    0    0    0  0.00000000000E+00  0.00000000000E+00  0.39999999673E+01  0.40000000000E+01  0.51109989000E-03 0. -1.
     -623   -1    0    0    0    0  0.00000000000E+00  0.00000000000E+00  0.12525980253E-10  0.17130000000E+03  0.17130000000E+03 0.  1.
       11    1    1    2    0    0  0.19656360649E-02 -0.10897986149E-02  0.11508976368E+00  0.11511284165E+00  0.51109989000E-03 0. -1.
     -623    1    1    2    0    0  0.43007372658E-02 -0.44659525510E-02  0.14801958195E-03  0.17130000011E+03  0.17130000000E+03 0.  1.
      622    1    1    2    0    0 -0.62663733335E-02  0.55557511688E-02  0.38847621868E+01  0.38848870487E+01  0.30000000000E-01 0. -1.
</event>
<event>
 5   0  0.4961200E+08  0.9118800E+02  0.7818608E-02  0.1180000E+00
       11   -1    0    0    0    0  0.00000000000E+00  0.00000000000E+00  0.39999999673E+01  0.40000000000E+01  0.51109989000E-03 0. -1.
     -623   -1    0    0    0    0  0.00000000000E+00  0.00000000000E+00  0.12525980253E-10  0.17130000000E+03  0.17130000000E+03 0.  1.
       11    1    1    2    0    0  0.28922755416E-02  0.12045955258E-01  0.10048096065E+01  0.10048861014E+01  0.51109989000E-03 0. -1.
     -623    1    1    2    0    0 -0.42549227640E-03  0.17282929559E-03  0.25265250318E-03  0.17130000000E+03  0.17130000000E+03 0.  1.
      622    1    1    2    0    0 -0.24667832652E-02 -0.12218784553E-01  0.29949377083E+01  0.29951138978E+01  0.30000000000E-01 0. -1.
</event>
<event>
 5   0  0.4961200E+08  0.9118800E+02  0.7818608E-02  0.1180000E+00
       11   -1    0    0    0    0  0.00000000000E+00  0.00000000000E+00  0.39999999673E+01  0.40000000000E+01  0.51109989000E-03 0.  1.
     -623   -1    0    0    0    0  0.00000000000E+00  0.00000000000E+00  0.12525980253E-10  0.17130000000E+03  0.17130000000E+03 0. -1.
       11    1    1    2    0    0 -0.14934639916E-03 -0.61813546909E-03  0.19124559644E-01  0.19141953894E-01  0.51109989000E-03 0.  1.
     -623    1    1    2    0    0  0.27250318597E-03  0.33881587206E-03  0.13041647709E-03  0.17130000000E+03  0.17130000000E+03 0. -1.
      622    1    1    2    0    0 -0.12315678681E-03  0.27931959703E-03  0.39807449912E+01  0.39808580455E+01  0.30000000000E-01 0.  1.
</event>
<event>
 5   0  0.4961200E+08  0.9118800E+02  0.7818608E-02  0.1180000E+00
       11   -1    0    0    0    0  0.00000000000E+00  0.00000000000E+00  0.39999999673E+01  0.40000000000E+01  0.51109989000E-03 0. -1.
     -623   -1    0    0    0    0  0.00000000000E+00  0.00000000000E+00  0.12525980253E-10  0.17130000000E+03  0.17130000000E+03 0. -1.
       11    1    1    2    0    0  0.21538032322E-03 -0.13201922839E-02  0.62052905900E-02  0.63683711225E-02  0.51109989000E-03 0. -1.
     -623    1    1    2    0    0  0.28266142179E-02  0.33057596564E-03  0.27703395266E-03  0.17130000002E+03  0.17130000000E+03 0. -1.
      622    1    1    2    0    0 -0.30419945415E-02  0.98961631826E-03  0.39935176433E+01  0.39936316055E+01  0.30000000000E-01 0. -1.
</event>
<event>
 5   0  0.4961200E+08  0.9118800E+02  0.7818608E-02  0.1180000E+00
       11   -1    0    0    0    0  0.00000000000E+00  0.00000000000E+00  0.39999999673E+01  0.40000000000E+01  0.51109989000E-03 0.  1.
     -623   -1    0    0    0    0  0.00000000000E+00  0.00000000000E+00  0.12525980253E-10  0.17130000000E+03  0.17130000000E+03 0.  1.
       11    1    1    2    0    0  0.43540125757E-02  0.10281020929E-03  0.34671797596E-01  0.34948000866E-01  0.51109989000E-03 0.  1.
     -623    1    1    2    0    0  0.25450878772E-03  0.76495014939E-03  0.39243942095E-03  0.17130000000E+03  0.17130000000E+03 0.  1.
      622    1    1    2    0    0 -0.46085213635E-02 -0.86776035868E-03  0.39649357303E+01  0.39650519968E+01  0.30000000000E-01 0.  1.
</event>
<event>
 5   0  0.4961200E+08  0.9118800E+02  0.7818608E-02  0.1180000E+00
       11   -1    0    0    0    0  0.00000000000E+00  0.00000000000E+00  0.39999999673E+01  0.40000000000E+01  0.51109989000E-03 0. -1.
     -623   -1    0    0    0    0  0.00000000000E+00  0.00000000000E+00  0.12525980253E-10  0.17130000000E+03  0.17130000000E+03 0. -1.
       11    1    1    2    0    0 -0.11869236937E-02 -0.30135244381E-02  0.70186052040E-01  0.70262602012E-01  0.51109989000E-03 0. -1.
     -623    1    1    2    0    0 -0.21731337025E-04  0.19771616422E-02  0.19136452386E-03  0.17130000001E+03  0.17130000000E+03 0. -1.
      622    1    1    2    0    0  0.12086550308E-02  0.10363627947E-02  0.39296225532E+01  0.39297373889E+01  0.30000000000E-01 0. -1.
</event>
<event>
 5   0  0.4961200E+08  0.9118800E+02  0.7818608E-02  0.1180000E+00
       11   -1    0    0    0    0  0.00000000000E+00  0.00000000000E+00  0.39999999673E+01  0.40000000000E+01  0.51109989000E-03 0.  1.
     -623   -1    0    0    0    0  0.00000000000E+00  0.00000000000E+00  0.12525980253E-10  0.17130000000E+03  0.17130000000E+03 0. -1.
       11    1    1    2    0    0 -0.38755994386E-02  0.42670638976E-02  0.42607829950E-01  0.42999029050E-01  0.51109989000E-03 0.  1.
     -623    1    1    2    0    0 -0.11297641157E-02 -0.36073004963E-03  0.50998949385E-03  0.17130000000E+03  0.17130000000E+03 0. -1.
      622    1    1    2    0    0  0.50053635543E-02 -0.39063338480E-02  0.39568821479E+01  0.39570009661E+01  0.30000000000E-01 0.  1.
</event>
<event>
 5   0  0.4961200E+08  0.9118800E+02  0.7818608E-02  0.1180000E+00
       11   -1    0    0    0    0  0.00000000000E+00  0.00000000000E+00  0.39999999673E+01  0.40000000000E+01  0.51109989000E-03 0. -1.
     -623   -1    0    0    0    0  0.00000000000E+00  0.00000000000E+00  0.12525980253E-10  0.17130000000E+03  0.17130000000E+03 0.  1.
       11    1    1    2    0    0  0.59937935133E-02 -0.12591700625E-01  0.31565230071E+00  0.31596061883E+00  0.51109989000E-03 0. -1.
     -623    1    1    2    0    0 -0.54947646016E-03  0.16727606975E-01  0.43759889173E-03  0.17130000082E+03  0.17130000000E+03 0.  1.
      622    1    1    2    0    0 -0.54443170532E-02 -0.41359063502E-02  0.36839100679E+01  0.36840385631E+01  0.30000000000E-01 0. -1.
</event>
<event>
 5   0  0.4961200E+08  0.9118800E+02  0.7818608E-02  0.1180000E+00
       11   -1    0    0    0    0  0.00000000000E+00  0.00000000000E+00  0.39999999673E+01  0.40000000000E+01  0.51109989000E-03 0.  1.
     -623   -1    0    0    0    0  0.00000000000E+00  0.00000000000E+00  0.12525980253E-10  0.17130000000E+03  0.17130000000E+03 0. -1.
       11    1    1    2    0    0 -0.60194162617E-02  0.80297232811E-03  0.15776745374E+00  0.15788511272E+00  0.51109989000E-03 0.  1.
     -623    1    1    2    0    0  0.30963748146E-04 -0.22632145225E-02  0.23971079133E-03  0.17130000002E+03  0.17130000000E+03 0. -1.
      622    1    1    2    0    0  0.59884525135E-02  0.14602421944E-02  0.38419928028E+01  0.38421148722E+01  0.30000000000E-01 0.  1.
</event>
<event>
 5   0  0.4961200E+08  0.9118800E+02  0.7818608E-02  0.1180000E+00
       11   -1    0    0    0    0  0.00000000000E+00  0.00000000000E+00  0.39999999673E+01  0.40000000000E+01  0.51109989000E-03 0. -1.
     -623   -1    0    0    0    0  0.00000000000E+00  0.00000000000E+00  0.12525980253E-10  0.17130000000E+03  0.17130000000E+03 0. -1.
       11    1    1    2    0    0  0.18573426821E-02  0.40772897964E-03  0.57345232823E-01  0.57379028533E-01  0.51109989000E-03 0. -1.
     -623    1    1    2    0    0 -0.39134190550E-03 -0.44194225996E-03  0.14817578550E-03  0.17130000000E+03  0.17130000000E+03 0. -1.
      622    1    1    2    0    0 -0.14660007766E-02  0.34213280311E-04  0.39425065587E+01  0.39426209703E+01  0.30000000000E-01 0. -1.
</event>
<event>
 5   0  0.4961200E+08  0.9118800E+02  0.7818608E-02  0.1180000E+00
       11   -1    0    0    0    0  0.00000000000E+00  0.00000000000E+00  0.39999999673E+01  0.40000000000E+01  0.51109989000E-03 0. -1.
     -623   -1    0    0    0    0  0.00000000000E+00  0.00000000000E+00  0.12525980253E-10  0.17130000000E+03  0.17130000000E+03 0. -1.
       11    1    1    2    0    0 -0.34663851594E-03 -0.21126676638E-03  0.11655692666E-02  0.13358767608E-02  0.51109989000E-03 0. -1.
     -623    1    1    2    0    0  0.18550615873E-02 -0.17617113937E-02  0.28360463783E-03  0.17130000002E+03  0.17130000000E+03 0. -1.
      622    1    1    2    0    0 -0.15084230720E-02  0.19729781607E-02  0.39985507948E+01  0.39986641053E+01  0.30000000000E-01 0. -1.
</event>
<event>
 5   0  0.4961200E+08  0.9118800E+02  0.7818608E-02  0.1180000E+00
       11   -1    0    0    0    0  0.00000000000E+00  0.00000000000E+00  0.39999999673E+01  0.40000000000E+01  0.51109989000E-03 0.  1.
     -623   -1    0    0    0    0  0.00000000000E+00  0.00000000000E+00  0.12525980253E-10  0.17130000000E+03  0.17130000000E+03 0. -1.
       11    1    1    2    0    0  0.95875467476E-02 -0.17044414527E-01  0.78138615379E-01  0.80550217590E-01  0.51109989000E-03 0.  1.
     -623    1    1    2    0    0 -0.27065707751E-02  0.10968742008E-01  0.25375241465E-02  0.17130000039E+03  0.17130000000E+03 0. -1.
      622    1    1    2    0    0 -0.68809759724E-02  0.60756725187E-02  0.39193238278E+01  0.39194493911E+01  0.30000000000E-01 0.  1.
</event>
<event>
 5   0  0.4961200E+08  0.9118800E+02  0.7818608E-02  0.1180000E+00
       11   -1    0    0    0    0  0.00000000000E+00  0.00000000000E+00  0.39999999673E+01  0.40000000000E+01  0.51109989000E-03 0.  1.
     -623   -1    0    0    0    0  0.00000000000E+00  0.00000000000E+00  0.12525980253E-10  0.17130000000E+03  0.17130000000E+03 0.  1.
       11    1    1    2    0    0 -0.25949501960E-01 -0.15884269088E-01  0.64104743254E+00  0.64176924097E+00  0.51109989000E-03 0.  1.
     -623    1    1    2    0    0 -0.37975994225E-02  0.51723767710E-02  0.10047434954E-02  0.17130000012E+03  0.17130000000E+03 0.  1.
      622    1    1    2    0    0  0.29747101383E-01  0.10711892317E-01  0.33579477912E+01  0.33582306358E+01  0.30000000000E-01 0.  1.
</event>
<event>
 5   0  0.4961200E+08  0.9118800E+02  0.7818608E-02  0.1180000E+00
       11   -1    0    0    0    0  0.00000000000E+00  0.00000000000E+00  0.39999999673E+01  0.40000000000E+01  0.51109989000E-03 0.  1.
     -623   -1    0    0    0    0  0.00000000000E+00  0.00000000000E+00  0.12525980253E-10  0.17130000000E+03  0.17130000000E+03 0.  1.
       11    1    1    2    0    0 -0.88537812622E-02  0.24001804624E-02  0.89406336884E-01  0.89877163990E-01  0.51109989000E-03 0.  1.
     -623    1    1    2    0    0 -0.61491972498E-04  0.21013910782E-03  0.59691850929E-03  0.17130000000E+03  0.17130000000E+03 0.  1.
      622    1    1    2    0    0  0.89152732347E-02 -0.26103195702E-02  0.39099967123E+01  0.39101228352E+01  0.30000000000E-01 0.  1.
</event>
<event>
 5   0  0.4961200E+08  0.9118800E+02  0.7818608E-02  0.1180000E+00
       11   -1    0    0    0    0  0.00000000000E+00  0.00000000000E+00  0.39999999673E+01  0.40000000000E+01  0.51109989000E-03 0. -1.
     -623   -1    0    0    0    0  0.00000000000E+00  0.00000000000E+00  0.12525980253E-10  0.17130000000E+03  0.17130000000E+03 0. -1.
       11    1    1    2    0    0 -0.37351942755E-02 -0.31716208345E-02  0.41739078287E-01  0.42028832179E-01  0.51109989000E-03 0. -1.
     -623    1    1    2    0    0 -0.15535152666E-02  0.37716998098E-03  0.40794549321E-03  0.17130000001E+03  0.17130000000E+03 0. -1.
      622    1    1    2    0    0  0.52887095421E-02  0.27944508535E-02  0.39578529436E+01  0.39579711599E+01  0.30000000000E-01 0. -1.
</event>
<event>
 5   0  0.4961200E+08  0.9118800E+02  0.7818608E-02  0.1180000E+00
       11   -1    0    0    0    0  0.00000000000E+00  0.00000000000E+00  0.39999999673E+01  0.40000000000E+01  0.51109989000E-03 0.  1.
     -623   -1    0    0    0    0  0.00000000000E+00  0.00000000000E+00  0.12525980253E-10  0.17130000000E+03  0.17130000000E+03 0. -1.
       11    1    1    2    0    0 -0.92357799792E-02 -0.16537550539E-02  0.29406473986E+00  0.29421483135E+00  0.51109989000E-03 0.  1.
     -623    1    1    2    0    0  0.46825683399E-03  0.38197875471E-03  0.28208403771E-03  0.17130000000E+03  0.17130000000E+03 0. -1.
      622    1    1    2    0    0  0.87675231452E-02  0.12717762992E-02  0.37056531435E+01  0.37057851674E+01  0.30000000000E-01 0.  0.
</event>
<event>
 5   0  0.4961200E+08  0.9118800E+02  0.7818608E-02  0.1180000E+00
       11   -1    0    0    0    0  0.00000000000E+00  0.00000000000E+00  0.39999999673E+01  0.40000000000E+01  0.51109989000E-03 0. -1.
     -623   -1    0    0    0    0  0.00000000000E+00  0.00000000000E+00  0.12525980253E-10  0.17130000000E+03  0.17130000000E+03 0. -1.
       11    1    1    2    0    0  0.21476692993E-03 -0.16366466488E-02  0.45335126714E+00  0.45335456033E+00  0.51109989000E-03 0. -1.
     -623    1    1    2    0    0  0.11514542789E-02  0.10574387278E-02  0.13046091803E-03  0.17130000001E+03  0.17130000000E+03 0. -1.
      622    1    1    2    0    0 -0.13662212089E-02  0.57920792093E-03  0.35465182393E+01  0.35466454325E+01  0.30000000000E-01 0. -1.
</event>
<event>
 5   0  0.4961200E+08  0.9118800E+02  0.7818608E-02  0.1180000E+00
       11   -1    0    0    0    0  0.00000000000E+00  0.00000000000E+00  0.39999999673E+01  0.40000000000E+01  0.51109989000E-03 0.  1.
     -623   -1    0    0    0    0  0.00000000000E+00  0.00000000000E+00  0.12525980253E-10  0.17130000000E+03  0.17130000000E+03 0. -1.
       11    1    1    2    0    0  0.65094974740E-02  0.12258090874E-01  0.76220844064E+00  0.76233496742E+00  0.51109989000E-03 0.  1.
     -623    1    1    2    0    0  0.29764391443E-03 -0.33486237193E-03  0.29459896920E-03  0.17130000000E+03  0.17130000000E+03 0. -1.
      622    1    1    2    0    0 -0.68071413884E-02 -0.11923228502E-01  0.32374969278E+01  0.32376650317E+01  0.30000000000E-01 0.  1.
</event>
<event>
 5   0  0.4961200E+08  0.9118800E+02  0.7818608E-02  0.1180000E+00
       11   -1    0    0    0    0  0.00000000000E+00  0.00000000000E+00  0.39999999673E+01  0.40000000000E+01  0.51109989000E-03 0.  1.
     -623   -1    0    0    0    0  0.00000000000E+00  0.00000000000E+00  0.12525980253E-10  0.17130000000E+03  0.17130000000E+03 0. -1.
       11    1    1    2    0    0 -0.14677036050E-03 -0.27942971290E-03  0.30728733293E-01  0.30734604201E-01  0.51109989000E-03 0.  1.
     -623    1    1    2    0    0  0.15027183850E-03  0.56124855310E-04  0.11921739071E-03  0.17130000000E+03  0.17130000000E+03 0. -1.
      622    1    1    2    0    0 -0.35014780249E-05  0.22330485759E-03  0.39691520172E+01  0.39692653962E+01  0.30000000000E-01 0.  1.
</event>
<event>
 5   0  0.4961200E+08  0.9118800E+02  0.7818608E-02  0.1180000E+00
       11   -1    0    0    0    0  0.00000000000E+00  0.00000000000E+00  0.39999999673E+01  0.40000000000E+01  0.51109989000E-03 0. -1.
     -623   -1    0    0    0    0  0.00000000000E+00  0.00000000000E+00  0.12525980253E-10  0.17130000000E+03  0.17130000000E+03 0. -1.
       11    1    1    2    0    0  0.12379736744E-01 -0.84093707561E-02  0.82948966260E+00  0.82962481700E+00  0.51109989000E-03 0. -1.
     -623    1    1    2    0    0 -0.68979800211E-03  0.23529127285E-02  0.30441986065E-03  0.17130000002E+03  0.17130000000E+03 0. -1.
      622    1    1    2    0    0 -0.11689938741E-01  0.60564580270E-02  0.31702058860E+01  0.31703751663E+01  0.30000000000E-01 0.  0.
</event>
<event>
 5   0  0.4961200E+08  0.9118800E+02  0.7818608E-02  0.1180000E+00
       11   -1    0    0    0    0  0.00000000000E+00  0.00000000000E+00  0.39999999673E+01  0.40000000000E+01  0.51109989000E-03 0. -1.
     -623   -1    0    0    0    0  0.00000000000E+00  0.00000000000E+00  0.12525980253E-10  0.17130000000E+03  0.17130000000E+03 0.  1.
       11    1    1    2    0    0 -0.28888918148E-03  0.22671453669E-02  0.11198067762E-01  0.11440338605E-01  0.51109989000E-03 0. -1.
     -623    1    1    2    0    0  0.17061357871E-02  0.20529074631E-03  0.35608960276E-03  0.17130000001E+03  0.17130000000E+03 0.  1.
      622    1    1    2    0    0 -0.14172466056E-02 -0.24724361132E-02  0.39884458100E+01  0.39885596524E+01  0.30000000000E-01 0. -1.
</event>
<event>
 5   0  0.4961200E+08  0.9118800E+02  0.7818608E-02  0.1180000E+00
       11   -1    0    0    0    0  0.00000000000E+00  0.00000000000E+00  0.39999999673E+01  0.40000000000E+01  0.51109989000E-03 0.  1.
     -623   -1    0    0    0    0  0.00000000000E+00  0.00000000000E+00  0.12525980253E-10  0.17130000000E+03  0.17130000000E+03 0. -1.
       11    1    1    2    0    0 -0.23494446457E-02 -0.30145428996E-02  0.11818507132E+00  0.11824795840E+00  0.51109989000E-03 0.  1.
     -623    1    1    2    0    0  0.22100093569E-03 -0.11571958572E-03  0.18062919757E-03  0.17130000000E+03  0.17130000000E+03 0. -1.
      622    1    1    2    0    0  0.21284437100E-02  0.31302624853E-02  0.38816342677E+01  0.38817520421E+01  0.30000000000E-01 0.  1.
</event>
<event>
 5   0  0.4961200E+08  0.9118800E+02  0.7818608E-02  0.1180000E+00
       11   -1    0    0    0    0  0.00000000000E+00  0.00000000000E+00  0.39999999673E+01  0.40000000000E+01  0.51109989000E-03 0.  1.
     -623   -1    0    0    0    0  0.00000000000E+00  0.00000000000E+00  0.12525980253E-10  0.17130000000E+03  0.17130000000E+03 0. -1.
       11    1    1    2    0    0 -0.12939079766E-01  0.33753173204E-02  0.83041964952E+00  0.83052746378E+00  0.51109989000E-03 0.  1.
     -623    1    1    2    0    0  0.84496416516E-03 -0.19468946509E-02  0.27317508151E-03  0.17130000001E+03  0.17130000000E+03 0. -1.
      622    1    1    2    0    0  0.12094115601E-01 -0.14284226698E-02  0.31693071422E+01  0.31694725223E+01  0.30000000000E-01 0.  1.
</event>
<event>
 5   0  0.4961200E+08  0.9118800E+02  0.7818608E-02  0.1180000E+00
       11   -1    0    0    0    0  0.00000000000E+00  0.00000000000E+00  0.39999999673E+01  0.40000000000E+01  0.51109989000E-03 0. -1.
     -623   -1    0    0    0    0  0.00000000000E+00  0.00000000000E+00  0.12525980253E-10  0.17130000000E+03  0.17130000000E+03 0.  1.
       11    1    1    2    0    0  0.12761140911E-03 -0.43857172536E-03  0.21624665116E-01  0.21635526177E-01  0.51109989000E-03 0. -1.
     -623    1    1    2    0    0 -0.21595104910E-04 -0.16506957952E-03  0.12398917348E-03  0.17130000000E+03  0.17130000000E+03 0.  1.
      622    1    1    2    0    0 -0.10601630420E-03  0.60364130489E-03  0.39782513131E+01  0.39783644737E+01  0.30000000000E-01 0. -1.
</event>
<event>
 5   0  0.4961200E+08  0.9118800E+02  0.7818608E-02  0.1180000E+00
       11   -1    0    0    0    0  0.00000000000E+00  0.00000000000E+00  0.39999999673E+01  0.40000000000E+01  0.51109989000E-03 0.  1.
     -623   -1    0    0    0    0  0.00000000000E+00  0.00000000000E+00  0.12525980253E-10  0.17130000000E+03  0.17130000000E+03 0.  1.
       11    1    1    2    0    0  0.58719700696E-03 -0.11982358800E-04  0.28311359595E-02  0.29362387199E-02  0.51109989000E-03 0.  1.
     -623    1    1    2    0    0 -0.89124554146E-03  0.14945986867E-02  0.21794986878E-03  0.17130000001E+03  0.17130000000E+03 0.  1.
      622    1    1    2    0    0  0.30404853487E-03 -0.14826163285E-02  0.39969508832E+01  0.39970637540E+01  0.30000000000E-01 0.  1.
</event>
<event>
 5   0  0.4961200E+08  0.9118800E+02  0.7818608E-02  0.1180000E+00
       11   -1    0    0    0    0  0.00000000000E+00  0.00000000000E+00  0.39999999673E+01  0.40000000000E+01  0.51109989000E-03 0. -1.
     -623   -1    0    0    0    0  0.00000000000E+00  0.00000000000E+00  0.12525980253E-10  0.17130000000E+03  0.17130000000E+03 0.  1.
       11    1    1    2    0    0  0.50766848440E-03  0.25022633621E-02  0.10560844587E-01  0.10877118677E-01  0.51109989000E-03 0. -1.
     -623    1    1    2    0    0 -0.66403482089E-03 -0.21698145531E-02  0.42908228313E-03  0.17130000002E+03  0.17130000000E+03 0.  1.
      622    1    1    2    0    0  0.15636633652E-03 -0.33244880889E-03  0.39890100407E+01  0.39891228660E+01  0.30000000000E-01 0. -1.
</event>
<event>
 5   0  0.4961200E+08  0.9118800E+02  0.7818608E-02  0.1180000E+00
       11   -1    0    0    0    0  0.00000000000E+00  0.00000000000E+00  0.39999999673E+01  0.40000000000E+01  0.51109989000E-03 0.  1.
     -623   -1    0    0    0    0  0.00000000000E+00  0.00000000000E+00  0.12525980253E-10  0.17130000000E+03  0.17130000000E+03 0. -1.
       11    1    1    2    0    0 -0.31411964078E-01 -0.18301511159E-01  0.24243214664E+00  0.24514335345E+00  0.51109989000E-03 0.  1.
     -623    1    1    2    0    0 -0.11847914088E-01  0.12748491495E-01  0.30852551799E-02  0.17130000091E+03  0.17130000000E+03 0. -1.
      622    1    1    2    0    0  0.43259878167E-01  0.55530196635E-02  0.37544825655E+01  0.37548557346E+01  0.30000000000E-01 0.  1.
</event>
<event>
 5   0  0.4961200E+08  0.9118800E+02  0.7818608E-02  0.1180000E+00
       11   -1    0    0    0    0  0.00000000000E+00  0.00000000000E+00  0.39999999673E+01  0.40000000000E+01  0.51109989000E-03 0. -1.
     -623   -1    0    0    0    0  0.00000000000E+00  0.00000000000E+00  0.12525980253E-10  0.17130000000E+03  0.17130000000E+03 0. -1.
       11    1    1    2    0    0  0.25367623702E-02 -0.19557480247E-05  0.26362507311E-01  0.26489208762E-01  0.51109989000E-03 0. -1.
     -623    1    1    2    0    0 -0.95096909940E-02 -0.98203076740E-03  0.24642761617E-03  0.17130000027E+03  0.17130000000E+03 0. -1.
      622    1    1    2    0    0  0.69729286238E-02  0.98398651543E-03  0.39733910324E+01  0.39735105243E+01  0.30000000000E-01 0. -1.
</event>
<event>
 5   0  0.4961200E+08  0.9118800E+02  0.7818608E-02  0.1180000E+00
       11   -1    0    0    0    0  0.00000000000E+00  0.00000000000E+00  0.39999999673E+01  0.40000000000E+01  0.51109989000E-03 0. -1.
     -623   -1    0    0    0    0  0.00000000000E+00  0.00000000000E+00  0.12525980253E-10  0.17130000000E+03  0.17130000000E+03 0. -1.
       11    1    1    2    0    0 -0.12438544674E-01  0.11485200310E-01  0.22453091573E+00  0.22516887121E+00  0.51109989000E-03 0. -1.
     -623    1    1    2    0    0  0.11536548914E-01 -0.11973206067E-01  0.75808328608E-03  0.17130000081E+03  0.17130000000E+03 0. -1.
      622    1    1    2    0    0  0.90199575873E-03  0.48800575795E-03  0.37747109688E+01  0.37748303207E+01  0.30000000000E-01 0. -1.
</event>
<event>
 5   0  0.4961200E+08  0.9118800E+02  0.7818608E-02  0.1180000E+00
       11   -1    0    0    0    0  0.00000000000E+00  0.00000000000E+00  0.39999999673E+01  0.40000000000E+01  0.51109989000E-03 0.  1.
     -623   -1    0    0    0    0  0.00000000000E+00  0.00000000000E+00  0.12525980253E-10  0.17130000000E+03  0.17130000000E+03 0.  1.
       11    1    1    2    0    0 -0.10921615103E-02 -0.69426833451E-03  0.28703794900E-02  0.31898474570E-02  0.51109989000E-03 0.  1.
     -623    1    1    2    0    0  0.27174369452E-03  0.14780204898E-02  0.43219488803E-03  0.17130000001E+03  0.17130000000E+03 0.  1.
      622    1    1    2    0    0  0.82041781564E-03 -0.78375215578E-03  0.39966973944E+01  0.39968101468E+01  0.30000000000E-01 0.  1.
</event>
<event>
 5   0  0.4961200E+08  0.9118800E+02  0.7818608E-02  0.1180000E+00
       11   -1    0    0    0    0  0.00000000000E+00  0.00000000000E+00  0.39999999673E+01  0.40000000000E+01  0.51109989000E-03 0.  1.
     -623   -1    0    0    0    0  0.00000000000E+00  0.00000000000E+00  0.12525980253E-10  0.17130000000E+03  0.17130000000E+03 0. -1.
       11    1    1    2    0    0  0.16965646056E-02 -0.22354195147E-02  0.10118397395E+00  0.10122417318E+00  0.51109989000E-03 0.  1.
     -623    1    1    2    0    0 -0.30142008718E-03  0.24178754495E-03  0.15634901543E-03  0.17130000000E+03  0.17130000000E+03 0. -1.
      622    1    1    2    0    0 -0.13951445185E-02  0.19936319698E-02  0.38986596444E+01  0.38987758263E+01  0.30000000000E-01 0.  1.
</event>
<event>
 5   0  0.4961200E+08  0.9118800E+02  0.7818608E-02  0.1180000E+00
       11   -1    0    0    0    0  0.00000000000E+00  0.00000000000E+00  0.39999999673E+01  0.40000000000E+01  0.51109989000E-03 0. -1.
     -623   -1    0    0    0    0  0.00000000000E+00  0.00000000000E+00  0.12525980253E-10  0.17130000000E+03  0.17130000000E+03 0. -1.
       11    1    1    2    0    0  0.16809924731E-03 -0.19990872263E-03  0.28206547729E-01  0.28212386973E-01  0.51109989000E-03 0. -1.
     -623    1    1    2    0    0 -0.43663082361E-03  0.13489607763E-03  0.11911759098E-03  0.17130000000E+03  0.17130000000E+03 0. -1.
      622    1    1    2    0    0  0.26853157635E-03  0.65012644994E-04  0.39716743025E+01  0.39717876128E+01  0.30000000000E-01 0. -1.
</event>
<event>
 5   0  0.4961200E+08  0.9118800E+02  0.7818608E-02  0.1180000E+00
       11   -1    0    0    0    0  0.00000000000E+00  0.00000000000E+00  0.39999999673E+01  0.40000000000E+01  0.51109989000E-03 0.  1.
     -623   -1    0    0    0    0  0.00000000000E+00  0.00000000000E+00  0.12525980253E-10  0.17130000000E+03  0.17130000000E+03 0.  1.
       11    1    1    2    0    0 -0.28491335134E-01 -0.41309350648E-02  0.36945007910E+00  0.37057042917E+00  0.51109989000E-03 0.  1.
     -623    1    1    2    0    0  0.33840890259E-02  0.91965958242E-02  0.13349728074E-02  0.17130000029E+03  0.17130000000E+03 0.  1.
      622    1    1    2    0    0  0.25107246108E-01 -0.50656607594E-02  0.36292149155E+01  0.36294292853E+01  0.30000000000E-01 0.  1.
</event>
<event>
 5   0  0.4961200E+08  0.9118800E+02  0.7818608E-02  0.1180000E+00
       11   -1    0    0    0    0  0.00000000000E+00  0.00000000000E+00  0.39999999673E+01  0.40000000000E+01  0.51109989000E-03 0.  1.
     -623   -1    0    0    0    0  0.00000000000E+00  0.00000000000E+00  0.12525980253E-10  0.17130000000E+03  0.17130000000E+03 0.  1.
       11    1    1    2    0    0 -0.16730863220E-02 -0.80608879800E-02  0.50161898016E+00  0.50168679434E+00  0.51109989000E-03 0.  1.
     -623    1    1    2    0    0  0.38387892430E-03 -0.10973116321E-03  0.20619743937E-03  0.17130000000E+03  0.17130000000E+03 0.  1.
      622    1    1    2    0    0  0.12892073976E-02  0.81706191433E-02  0.34981747906E+01  0.34983132059E+01  0.30000000000E-01 0.  1.
</event>
<event>
 5   0  0.4961200E+08  0.9118800E+02  0.7818608E-02  0.1180000E+00
       11   -1    0    0    0    0  0.00000000000E+00  0.00000000000E+00  0.39999999673E+01  0.40000000000E+01  0.51109989000E-03 0.  1.
     -623   -1    0    0    0    0  0.00000000000E+00  0.00000000000E+00  0.12525980253E-10  0.17130000000E+03  0.17130000000E+03 0. -1.
       11    1    1    2    0    0  0.65165801388E-02 -0.10660602739E-02  0.10844320242E+00  0.10864525611E+00  0.51109989000E-03 0.  1.
     -623    1    1    2    0    0 -0.89987437563E-03 -0.10696437817E-02  0.32230947117E-03  0.17130000001E+03  0.17130000000E+03 0. -1.
      622    1    1    2    0    0 -0.56167057630E-02  0.21357040558E-02  0.38912344564E+01  0.38913547388E+01  0.30000000000E-01 0.  1.
</event>
<event>
 5   0  0.4961200E+08  0.9118800E+02  0.7818608E-02  0.1180000E+00
       11   -1    0    0    0    0  0.00000000000E+00  0.00000000000E+00  0.39999999673E+01  0.40000000000E+01  0.51109989000E-03 0.  1.
     -623   -1    0    0    0    0  0.00000000000E+00  0.00000000000E+00  0.12525980253E-10  0.17130000000E+03  0.17130000000E+03 0. -1.
       11    1    1    2    0    0 -0.23258784377E-01  0.42410787513E-01  0.23586042647E+00  0.24076969897E+00  0.51109989000E-03 0.  1.
     -623    1    1    2    0    0  0.33149988770E-01 -0.13583148168E-01  0.51563221357E-02  0.17130000382E+03  0.17130000000E+03 0. -1.
      622    1    1    2    0    0 -0.98912043934E-02 -0.28827639344E-01  0.37589832188E+01  0.37592264773E+01  0.30000000000E-01 0.  1.
</event>
<event>
 5   0  0.4961200E+08  0.9118800E+02  0.7818608E-02  0.1180000E+00
       11   -1    0    0    0    0  0.00000000000E+00  0.00000000000E+00  0.39999999673E+01  0.40000000000E+01  0.51109989000E-03 0. -1.
     -623   -1    0    0    0    0  0.00000000000E+00  0.00000000000E+00  0.12525980253E-10  0.17130000000E+03  0.17130000000E+03 0. -1.
       11    1    1    2    0    0  0.13522566146E-02  0.10971689593E-02  0.15922186835E-01  0.16025281102E-01  0.51109989000E-03 0. -1.
     -623    1    1    2    0    0  0.11096134045E-03 -0.54507286746E-04  0.21642108635E-03  0.17130000000E+03  0.17130000000E+03 0. -1.
      622    1    1    2    0    0 -0.14632179551E-02 -0.10426616726E-02  0.39838613599E+01  0.39839747192E+01  0.30000000000E-01 0. -1.
</event>
<event>
 5   0  0.4961200E+08  0.9118800E+02  0.7818608E-02  0.1180000E+00
       11   -1    0    0    0    0  0.00000000000E+00  0.00000000000E+00  0.39999999673E+01  0.40000000000E+01  0.51109989000E-03 0.  1.
     -623   -1    0    0    0    0  0.00000000000E+00  0.00000000000E+00  0.12525980253E-10  0.17130000000E+03  0.17130000000E+03 0. -1.
       11    1    1    2    0    0 -0.13555274212E-01  0.31705718120E-02  0.39550685570E+00  0.39575210943E+00  0.51109989000E-03 0.  1.
     -623    1    1    2    0    0  0.80780439761E-02  0.87572066414E-02  0.39439007484E-03  0.17130000041E+03  0.17130000000E+03 0. -1.
      622    1    1    2    0    0  0.54772302356E-02 -0.11927778454E-01  0.36040987218E+01  0.36042474760E+01  0.30000000000E-01 0.  1.
</event>
<event>
 5   0  0.4961200E+08  0.9118800E+02  0.7818608E-02  0.1180000E+00
       11   -1    0    0    0    0  0.00000000000E+00  0.00000000000E+00  0.39999999673E+01  0.40000000000E+01  0.51109989000E-03 0. -1.
     -623   -1    0    0    0    0  0.00000000000E+00  0.00000000000E+00  0.12525980253E-10  0.17130000000E+03  0.17130000000E+03 0.  1.
       11    1    1    2    0    0 -0.18660453525E-02  0.48012376700E-03  0.13435422226E-01  0.13582504741E-01  0.51109989000E-03 0. -1.
     -623    1    1    2    0    0 -0.11120809529E-02 -0.58783590874E-03  0.26105351897E-03  0.17130000000E+03  0.17130000000E+03 0.  1.
      622    1    1    2    0    0  0.29781263054E-02  0.10771214174E-03  0.39863034916E+01  0.39864174904E+01  0.30000000000E-01 0. -1.
</event>
<event>
 5   0  0.4961200E+08  0.9118800E+02  0.7818608E-02  0.1180000E+00
       11   -1    0    0    0    0  0.00000000000E+00  0.00000000000E+00  0.39999999673E+01  0.40000000000E+01  0.51109989000E-03 0. -1.
     -623   -1    0    0    0    0  0.00000000000E+00  0.00000000000E+00  0.12525980253E-10  0.17130000000E+03  0.17130000000E+03 0. -1.
       11    1    1    2    0    0  0.14058831338E-01  0.13000293550E-01  0.58996592358E+00  0.59027680844E+00  0.51109989000E-03 0. -1.
     -623    1    1    2    0    0 -0.40355552937E-02  0.12613261319E-03  0.48287906224E-03  0.17130000005E+03  0.17130000000E+03 0. -1.
      622    1    1    2    0    0 -0.10023276044E-01 -0.13126426163E-01  0.34095511647E+01  0.34097231433E+01  0.30000000000E-01 0. -1.
</event>
<event>
 5   0  0.4961200E+08  0.9118800E+02  0.7818608E-02  0.1180000E+00
       11   -1    0    0    0    0  0.00000000000E+00  0.00000000000E+00  0.39999999673E+01  0.40000000000E+01  0.51109989000E-03 0.  1.
     -623   -1    0    0    0    0  0.00000000000E+00  0.00000000000E+00  0.12525980253E-10  0.17130000000E+03  0.17130000000E+03 0. -1.
       11    1    1    2    0    0  0.37773776132E-02 -0.70783519079E-02  0.11681222562E+01  0.11681499212E+01  0.51109989000E-03 0.  1.
     -623    1    1    2    0    0 -0.16364719480E-03  0.13868384484E-02  0.19457496502E-03  0.17130000001E+03  0.17130000000E+03 0. -1.
      622    1    1    2    0    0 -0.36137304184E-02  0.56915134595E-02  0.28316831362E+01  0.28318500730E+01  0.30000000000E-01 0.  1.
</event>
<event>
 5   0  0.4961200E+08  0.9118800E+02  0.7818608E-02  0.1180000E+00
       11   -1    0    0    0    0  0.00000000000E+00  0.00000000000E+00  0.39999999673E+01  0.40000000000E+01  0.51109989000E-03 0.  1.
     -623   -1    0    0    0    0  0.00000000000E+00  0.00000000000E+00  0.12525980253E-10  0.17130000000E+03  0.17130000000E+03 0.  1.
       11    1    1    2    0    0  0.88955783549E-02 -0.79959906038E-02  0.77563560088E-01  0.78482063280E-01  0.51109989000E-03 0.  1.
     -623    1    1    2    0    0 -0.10389554055E-01  0.70046893462E-02  0.10340950180E-02  0.17130000046E+03  0.17130000000E+03 0.  1.
      622    1    1    2    0    0  0.14939756992E-02  0.99130125791E-03  0.39214023121E+01  0.39215174751E+01  0.30000000000E-01 0.  1.
</event>
<event>
 5   0  0.4961200E+08  0.9118800E+02  0.7818608E-02  0.1180000E+00
       11   -1    0    0    0    0  0.00000000000E+00  0.00000000000E+00  0.39999999673E+01  0.40000000000E+01  0.51109989000E-03 0.  1.
     -623   -1    0    0    0    0  0.00000000000E+00  0.00000000000E+00  0.12525980253E-10  0.17130000000E+03  0.17130000000E+03 0.  1.
       11    1    1    2    0    0 -0.24793318825E-01  0.18242296200E-02  0.33642733321E+00  0.33734499882E+00  0.51109989000E-03 0.  1.
     -623    1    1    2    0    0 -0.50413859961E-03 -0.60985143414E-02  0.11304709396E-02  0.17130000011E+03  0.17130000000E+03 0.  1.
      622    1    1    2    0    0  0.25297457425E-01  0.42742847214E-02  0.36624421632E+01  0.36626548881E+01  0.30000000000E-01 0.  1.
</event>
<event>
 5   0  0.4961200E+08  0.9118800E+02  0.7818608E-02  0.1180000E+00
       11   -1    0    0    0    0  0.00000000000E+00  0.00000000000E+00  0.39999999673E+01  0.40000000000E+01  0.51109989000E-03 0.  1.
     -623   -1    0    0    0    0  0.00000000000E+00  0.00000000000E+00  0.12525980253E-10  0.17130000000E+03  0.17130000000E+03 0.  1.
       11    1    1    2    0    0 -0.25423205381E-02 -0.28995170772E-03  0.43829362075E-01  0.43906966061E-01  0.51109989000E-03 0.  1.
     -623    1    1    2    0    0 -0.53613701686E-03  0.68442885956E-03  0.19254134775E-03  0.17130000000E+03  0.17130000000E+03 0.  1.
      622    1    1    2    0    0  0.30784575549E-02 -0.39447715177E-03  0.39559780636E+01  0.39560930312E+01  0.30000000000E-01 0.  0.
</event>
<event>
 5   0  0.4961200E+08  0.9118800E+02  0.7818608E-02  0.1180000E+00
       11   -1    0    0    0    0  0.00000000000E+00  0.00000000000E+00  0.39999999673E+01  0.40000000000E+01  0.51109989000E-03 0. -1.
     -623   -1    0    0    0    0  0.00000000000E+00  0.00000000000E+00  0.12525980253E-10  0.17130000000E+03  0.17130000000E+03 0. -1.
       11    1    1    2    0    0  0.16304740223E-01  0.37428774269E-03  0.13601150547E+00  0.13698677121E+00  0.51109989000E-03 0. -1.
     -623    1    1    2    0    0 -0.10982607513E-01  0.28146531840E-02  0.10970855403E-02  0.17130000038E+03  0.17130000000E+03 0. -1.
      622    1    1    2    0    0 -0.53221327105E-02 -0.31889409267E-02  0.38628913763E+01  0.38630128501E+01  0.30000000000E-01 0. -1.
</event>
<event>
 5   0  0.4961200E+08  0.9118800E+02  0.7818608E-02  0.1180000E+00
       11   -1    0    0    0    0  0.00000000000E+00  0.00000000000E+00  0.39999999673E+01  0.40000000000E+01  0.51109989000E-03 0.  1.
     -623   -1    0    0    0    0  0.00000000000E+00  0.00000000000E+00  0.12525980253E-10  0.17130000000E+03  0.17130000000E+03 0. -1.
       11    1    1    2    0    0 -0.49546720740E-01  0.48550722969E-01  0.61107573974E+00  0.61500070826E+00  0.51109989000E-03 0.  1.
     -623    1    1    2    0    0  0.26027137366E-01 -0.50487579134E-01  0.41496137360E-02  0.17130000947E+03  0.17130000000E+03 0. -1.
      622    1    1    2    0    0  0.23519583374E-01  0.19368561647E-02  0.33847746139E+01  0.33849898241E+01  0.30000000000E-01 0.  1.
</event>
<event>
 5   0  0.4961200E+08  0.9118800E+02  0.7818608E-02  0.1180000E+00
       11   -1    0    0    0    0  0.00000000000E+00  0.00000000000E+00  0.39999999673E+01  0.40000000000E+01  0.51109989000E-03 0.  1.
     -623   -1    0    0    0    0  0.00000000000E+00  0.00000000000E+00  0.12525980253E-10  0.17130000000E+03  0.17130000000E+03 0. -1.
       11    1    1    2    0    0  0.83529251266E-04  0.16568339896E-02  0.27781137562E-02  0.32758533460E-02  0.51109989000E-03 0.  1.
     -623    1    1    2    0    0 -0.62202058298E-03 -0.24721981961E-02  0.61044025163E-03  0.17130000002E+03  0.17130000000E+03 0. -1.
      622    1    1    2    0    0  0.53849133177E-03  0.81536420671E-03  0.39966114138E+01  0.39967241270E+01  0.30000000000E-01 0.  1.
</event>
<event>
 5   0  0.4961200E+08  0.9118800E+02  0.7818608E-02  0.1180000E+00
       11   -1    0    0    0    0  0.00000000000E+00  0.00000000000E+00  0.39999999673E+01  0.40000000000E+01  0.51109989000E-03 0.  1.
     -623   -1    0    0    0    0  0.00000000000E+00  0.00000000000E+00  0.12525980253E-10  0.17130000000E+03  0.17130000000E+03 0. -1.
       11    1    1    2    0    0  0.18110183539E-02  0.39962927795E-03  0.42067325156E-01  0.42111287781E-01  0.51109989000E-03 0.  1.
     -623    1    1    2    0    0 -0.22584165143E-02  0.16947847117E-03  0.15770984907E-03  0.17130000002E+03  0.17130000000E+03 0. -1.
      622    1    1    2    0    0  0.44739816031E-03 -0.56910774911E-03  0.39577749324E+01  0.39578886972E+01  0.30000000000E-01 0.  1.
</event>
<event>
 5   0  0.4961200E+08  0.9118800E+02  0.7818608E-02  0.1180000E+00
       11   -1    0    0    0    0  0.00000000000E+00  0.00000000000E+00  0.39999999673E+01  0.40000000000E+01  0.51109989000E-03 0. -1.
     -623   -1    0    0    0    0  0.00000000000E+00  0.00000000000E+00  0.12525980253E-10  0.17130000000E+03  0.17130000000E+03 0. -1.
       11    1    1    2    0    0 -0.70294171353E-02  0.21050157212E-02  0.10523509317E+00  0.10549184734E+00  0.51109989000E-03 0. -1.
     -623    1    1    2    0    0  0.12386340244E-01 -0.92599013256E-02  0.38322605154E-03  0.17130000070E+03  0.17130000000E+03 0. -1.
      622    1    1    2    0    0 -0.53569231099E-02  0.71548856050E-02  0.38943816484E+01  0.38945074544E+01  0.30000000000E-01 0. -1.
</event>
<event>
 5   0  0.4961200E+08  0.9118800E+02  0.7818608E-02  0.1180000E+00
       11   -1    0    0    0    0  0.00000000000E+00  0.00000000000E+00  0.39999999673E+01  0.40000000000E+01  0.51109989000E-03 0. -1.
     -623   -1    0    0    0    0  0.00000000000E+00  0.00000000000E+00  0.12525980253E-10  0.17130000000E+03  0.17130000000E+03 0. -1.
       11    1    1    2    0    0 -0.18610995525E-03 -0.45510862582E-03  0.90864510111E-02  0.91140866713E-02  0.51109989000E-03 0. -1.
     -623    1    1    2    0    0 -0.10976820517E-02  0.11062183740E-02  0.14062828583E-03  0.17130000001E+03  0.17130000000E+03 0. -1.
      622    1    1    2    0    0  0.12837920072E-02 -0.65110974843E-03  0.39907728889E+01  0.39908859070E+01  0.30000000000E-01 0. -1.
</event>
<event>
 5   0  0.4961200E+08  0.9118800E+02  0.7818608E-02  0.1180000E+00
       11   -1    0    0    0    0  0.00000000000E+00  0.00000000000E+00  0.39999999673E+01  0.40000000000E+01  0.51109989000E-03 0.  1.
     -623   -1    0    0    0    0  0.00000000000E+00  0.00000000000E+00  0.12525980253E-10  0.17130000000E+03  0.17130000000E+03 0.  1.
       11    1    1    2    0    0  0.14891349895E-01  0.34583044174E-01  0.58295415789E+00  0.58416911136E+00  0.51109989000E-03 0.  1.
     -623    1    1    2    0    0  0.10031707732E-01 -0.10034589632E-01  0.15264033947E-02  0.17130000059E+03  0.17130000000E+03 0.  1.
      622    1    1    2    0    0 -0.24923057626E-01 -0.24548454542E-01  0.34155194061E+01  0.34158302942E+01  0.30000000000E-01 0. -1.
</event>
<event>
 5   0  0.4961200E+08  0.9118800E+02  0.7818608E-02  0.1180000E+00
       11   -1    0    0    0    0  0.00000000000E+00  0.00000000000E+00  0.39999999673E+01  0.40000000000E+01  0.51109989000E-03 0. -1.
     -623   -1    0    0    0    0  0.00000000000E+00  0.00000000000E+00  0.12525980253E-10  0.17130000000E+03  0.17130000000E+03 0.  1.
       11    1    1    2    0    0  0.22286024347E-01 -0.64227545513E-02  0.72001494987E+00  0.72038858119E+00  0.51109989000E-03 0. -1.
     -623    1    1    2    0    0 -0.33773771214E-03 -0.10846809407E-01  0.63007620608E-03  0.17130000034E+03  0.17130000000E+03 0.  1.
      622    1    1    2    0    0 -0.21948286635E-01  0.17269563959E-01  0.32793549416E+01  0.32796110742E+01  0.30000000000E-01 0. -1.
</event>
<event>
 5   0  0.4961200E+08  0.9118800E+02  0.7818608E-02  0.1180000E+00
       11   -1    0    0    0    0  0.00000000000E+00  0.00000000000E+00  0.39999999673E+01  0.40000000000E+01  0.51109989000E-03 0. -1.
     -623   -1    0    0    0    0  0.00000000000E+00  0.00000000000E+00  0.12525980253E-10  0.17130000000E+03  0.17130000000E+03 0.  1.
       11    1    1    2    0    0 -0.32730061529E-02 -0.27909546818E-02  0.31565196361E+00  0.31568168359E+00  0.51109989000E-03 0. -1.
     -623    1    1    2    0    0  0.47059137705E-02  0.48379678443E-02  0.15280900683E-03  0.17130000013E+03  0.17130000000E+03 0.  1.
      622    1    1    2    0    0 -0.14329076176E-02 -0.20470131625E-02  0.36841951947E+01  0.36843181834E+01  0.30000000000E-01 0. -1.
</event>
<event>
 5   0  0.4961200E+08  0.9118800E+02  0.7818608E-02  0.1180000E+00
       11   -1    0    0    0    0  0.00000000000E+00  0.00000000000E+00  0.39999999673E+01  0.40000000000E+01  0.51109989000E-03 0.  1.
     -623   -1    0    0    0    0  0.00000000000E+00  0.00000000000E+00  0.12525980253E-10  0.17130000000E+03  0.17130000000E+03 0. -1.
       11    1    1    2    0    0  0.10325338645E-01 -0.72212529467E-03  0.78130967336E+00  0.78137839808E+00  0.51109989000E-03 0.  1.
     -623    1    1    2    0    0 -0.16010532826E-01 -0.11287941173E-01  0.23705655491E-03  0.17130000112E+03  0.17130000000E+03 0. -1.
      622    1    1    2    0    0  0.56851941735E-02  0.12010066462E-01  0.32184532356E+01  0.32186204798E+01  0.30000000000E-01 0.  1.
</event>
<event>
 5   0  0.4961200E+08  0.9118800E+02  0.7818608E-02  0.1180000E+00
       11   -1    0    0    0    0  0.00000000000E+00  0.00000000000E+00  0.39999999673E+01  0.40000000000E+01  0.51109989000E-03 0. -1.
     -623   -1    0    0    0    0  0.00000000000E+00  0.00000000000E+00  0.12525980253E-10  0.17130000000E+03  0.17130000000E+03 0.  1.
       11    1    1    2    0    0  0.37020293089E-03 -0.49707154859E-03  0.43135966031E-03  0.91182486726E-03  0.51109989000E-03 0. -1.
     -623    1    1    2    0    0 -0.51160650524E-03 -0.71702280479E-03  0.59314989290E-03  0.17130000000E+03  0.17130000000E+03 0.  1.
      622    1    1    2    0    0  0.14140357437E-03  0.12140943534E-02  0.39989754579E+01  0.39990881719E+01  0.30000000000E-01 0. -1.
</event>
<event>
 5   0  0.4961200E+08  0.9118800E+02  0.7818608E-02  0.1180000E+00
       11   -1    0    0    0    0  0.00000000000E+00  0.00000000000E+00  0.39999999673E+01  0.40000000000E+01  0.51109989000E-03 0. -1.
     -623   -1    0    0    0    0  0.00000000000E+00  0.00000000000E+00  0.12525980253E-10  0.17130000000E+03  0.17130000000E+03 0.  1.
       11    1    1    2    0    0  0.10053693477E-02  0.93658054815E-03  0.65378596325E-02  0.67002076326E-02  0.51109989000E-03 0. -1.
     -623    1    1    2    0    0 -0.21154629930E-02 -0.14901222210E-02  0.27521814255E-03  0.17130000002E+03  0.17130000000E+03 0.  1.
      622    1    1    2    0    0  0.11100936453E-02  0.55354167291E-03  0.39931868897E+01  0.39932997728E+01  0.30000000000E-01 0. -1.
</event>
<event>
 5   0  0.4961200E+08  0.9118800E+02  0.7818608E-02  0.1180000E+00
       11   -1    0    0    0    0  0.00000000000E+00  0.00000000000E+00  0.39999999673E+01  0.40000000000E+01  0.51109989000E-03 0. -1.
     -623   -1    0    0    0    0  0.00000000000E+00  0.00000000000E+00  0.12525980253E-10  0.17130000000E+03  0.17130000000E+03 0. -1.
       11    1    1    2    0    0 -0.66887670237E-04  0.16450908691E-03  0.16092481259E-03  0.56449720369E-03  0.51109989000E-03 0. -1.
     -623    1    1    2    0    0 -0.15212049760E-03 -0.42237998618E-03  0.51607288833E-03  0.17130000000E+03  0.17130000000E+03 0. -1.
      622    1    1    2    0    0  0.21900816783E-03  0.25787089927E-03  0.39993229696E+01  0.39994355014E+01  0.30000000000E-01 0. -1.
</event>
<event>
 5   0  0.4961200E+08  0.9118800E+02  0.7818608E-02  0.1180000E+00
       11   -1    0    0    0    0  0.00000000000E+00  0.00000000000E+00  0.39999999673E+01  0.40000000000E+01  0.51109989000E-03 0. -1.
     -623   -1    0    0    0    0  0.00000000000E+00  0.00000000000E+00  0.12525980253E-10  0.17130000000E+03  0.17130000000E+03 0. -1.
       11    1    1    2    0    0 -0.32211833147E-02  0.26121957920E-02  0.10390802540E+01  0.10390886560E+01  0.51109989000E-03 0. -1.
     -623    1    1    2    0    0  0.10849028805E-02 -0.18981806801E-02  0.16122433387E-03  0.17130000001E+03  0.17130000000E+03 0. -1.
      622    1    1    2    0    0  0.21362804336E-02 -0.71401511086E-03  0.29607584912E+01  0.29609113321E+01  0.30000000000E-01 0. -1.
</event>
<event>
 5   0  0.4961200E+08  0.9118800E+02  0.7818608E-02  0.1180000E+00
       11   -1    0    0    0    0  0.00000000000E+00  0.00000000000E+00  0.39999999673E+01  0.40000000000E+01  0.51109989000E-03 0. -1.
     -623   -1    0    0    0    0  0.00000000000E+00  0.00000000000E+00  0.12525980253E-10  0.17130000000E+03  0.17130000000E+03 0. -1.
       11    1    1    2    0    0  0.10343956421E-01 -0.65148710595E-02  0.65295177373E+00  0.65306639862E+00  0.51109989000E-03 0. -1.
     -623    1    1    2    0    0 -0.10810623729E-02  0.50871684918E-03  0.26725852092E-03  0.17130000000E+03  0.17130000000E+03 0. -1.
      622    1    1    2    0    0 -0.92628940477E-02  0.60061542103E-02  0.33467809351E+01  0.33469335970E+01  0.30000000000E-01 0.  0.
</event>
<event>
 5   0  0.4961200E+08  0.9118800E+02  0.7818608E-02  0.1180000E+00
       11   -1    0    0    0    0  0.00000000000E+00  0.00000000000E+00  0.39999999673E+01  0.40000000000E+01  0.51109989000E-03 0. -1.
     -623   -1    0    0    0    0  0.00000000000E+00  0.00000000000E+00  0.12525980253E-10  0.17130000000E+03  0.17130000000E+03 0.  1.
       11    1    1    2    0    0 -0.11656597585E-02  0.61466844867E-03  0.11999329889E+00  0.12000162323E+00  0.51109989000E-03 0. -1.
     -623    1    1    2    0    0  0.20839892934E-02 -0.12790536106E-03  0.12442485102E-03  0.17130000001E+03  0.17130000000E+03 0.  1.
      622    1    1    2    0    0 -0.91832953492E-03 -0.48676308761E-03  0.38798822436E+01  0.38799983640E+01  0.30000000000E-01 0. -1.
</event>
<event>
 5   0  0.4961200E+08  0.9118800E+02  0.7818608E-02  0.1180000E+00
       11   -1    0    0    0    0  0.00000000000E+00  0.00000000000E+00  0.39999999673E+01  0.40000000000E+01  0.51109989000E-03 0.  1.
     -623   -1    0    0    0    0  0.00000000000E+00  0.00000000000E+00  0.12525980253E-10  0.17130000000E+03  0.17130000000E+03 0. -1.
       11    1    1    2    0    0 -0.64368446234E-02  0.41199828619E-03  0.27270014324E-01  0.28027087155E-01  0.51109989000E-03 0.  1.
     -623    1    1    2    0    0  0.38601196700E-03  0.74602594621E-02  0.88291125127E-03  0.17130000017E+03  0.17130000000E+03 0. -1.
      622    1    1    2    0    0  0.60508326564E-02 -0.78722577483E-02  0.39718470418E+01  0.39719727477E+01  0.30000000000E-01 0.  1.
</event>
<event>
 5   0  0.4961200E+08  0.9118800E+02  0.7818608E-02  0.1180000E+00
       11   -1    0    0    0    0  0.00000000000E+00  0.00000000000E+00  0.39999999673E+01  0.40000000000E+01  0.51109989000E-03 0.  1.
     -623   -1    0    0    0    0  0.00000000000E+00  0.00000000000E+00  0.12525980253E-10  0.17130000000E+03  0.17130000000E+03 0.  1.
       11    1    1    2    0    0 -0.24301134679E-01  0.10291340759E-01  0.55571363039E+00  0.55634014511E+00  0.51109989000E-03 0.  1.
     -623    1    1    2    0    0 -0.81927208305E-03 -0.66473348303E-02  0.85084807314E-03  0.17130000013E+03  0.17130000000E+03 0.  1.
      622    1    1    2    0    0  0.25120406762E-01 -0.36440059288E-02  0.34434354887E+01  0.34436597216E+01  0.30000000000E-01 0.  1.
</event>
<event>
 5   0  0.4961200E+08  0.9118800E+02  0.7818608E-02  0.1180000E+00
       11   -1    0    0    0    0  0.00000000000E+00  0.00000000000E+00  0.39999999673E+01  0.40000000000E+01  0.51109989000E-03 0. -1.
     -623   -1    0    0    0    0  0.00000000000E+00  0.00000000000E+00  0.12525980253E-10  0.17130000000E+03  0.17130000000E+03 0. -1.
       11    1    1    2    0    0 -0.30393659694E-02 -0.47709387081E-03  0.23530074157E-01  0.23735858423E-01  0.51109989000E-03 0. -1.
     -623    1    1    2    0    0 -0.17961535051E-02 -0.11319807653E-02  0.32220414794E-03  0.17130000001E+03  0.17130000000E+03 0. -1.
      622    1    1    2    0    0  0.48355194745E-02  0.16090746361E-02  0.39761476891E+01  0.39762641281E+01  0.30000000000E-01 0. -1.
</event>
<event>
 5   0  0.4961200E+08  0.9118800E+02  0.7818608E-02  0.1180000E+00
       11   -1    0    0    0    0  0.00000000000E+00  0.00000000000E+00  0.39999999673E+01  0.40000000000E+01  0.51109989000E-03 0.  1.
     -623   -1    0    0    0    0  0.00000000000E+00  0.00000000000E+00  0.12525980253E-10  0.17130000000E+03  0.17130000000E+03 0. -1.
       11    1    1    2    0    0 -0.15170743511E-02  0.17693327666E-01  0.27720322522E+00  0.27777192920E+00  0.51109989000E-03 0.  1.
     -623    1    1    2    0    0  0.11027503421E-02 -0.19956576733E-02  0.72271034019E-03  0.17130000002E+03  0.17130000000E+03 0. -1.
      622    1    1    2    0    0  0.41432400894E-03 -0.15697669993E-01  0.37220740321E+01  0.37222280544E+01  0.30000000000E-01 0.  1.
</event>
<event>
 5   0  0.4961200E+08  0.9118800E+02  0.7818608E-02  0.1180000E+00
       11   -1    0    0    0    0  0.00000000000E+00  0.00000000000E+00  0.39999999673E+01  0.40000000000E+01  0.51109989000E-03 0. -1.
     -623   -1    0    0    0    0  0.00000000000E+00  0.00000000000E+00  0.12525980253E-10  0.17130000000E+03  0.17130000000E+03 0.  1.
       11    1    1    2    0    0 -0.61396592239E-02  0.15480254185E-03  0.77706073698E-01  0.77950076921E-01  0.51109989000E-03 0. -1.
     -623    1    1    2    0    0  0.13555928155E-03  0.54322122809E-03  0.36336744424E-03  0.17130000000E+03  0.17130000000E+03 0.  1.
      622    1    1    2    0    0  0.60040999423E-02 -0.69802377010E-03  0.39219305275E+01  0.39220499230E+01  0.30000000000E-01 0. -1.
</event>
<event>
 5   0  0.4961200E+08  0.9118800E+02  0.7818608E-02  0.1180000E+00
       11   -1    0    0    0    0  0.00000000000E+00  0.00000000000E+00  0.39999999673E+01  0.40000000000E+01  0.51109989000E-03 0.  1.
     -623   -1    0    0    0    0  0.00000000000E+00  0.00000000000E+00  0.12525980253E-10  0.17130000000E+03  0.17130000000E+03 0. -1.
       11    1    1    2    0    0  0.11909469658E-02  0.38740334318E-02  0.42337683117E+00  0.42339653858E+00  0.51109989000E-03 0.  1.
     -623    1    1    2    0    0 -0.38113979904E-03 -0.10536166322E-03  0.14757247870E-03  0.17130000000E+03  0.17130000000E+03 0. -1.
      622    1    1    2    0    0 -0.80980716679E-03 -0.37686717686E-02  0.35764755632E+01  0.35766034603E+01  0.30000000000E-01 0.  1.
</event>
<event>
 5   0  0.4961200E+08  0.9118800E+02  0.7818608E-02  0.1180000E+00
       11   -1    0    0    0    0  0.00000000000E+00  0.00000000000E+00  0.39999999673E+01  0.40000000000E+01  0.51109989000E-03 0. -1.
     -623   -1    0    0    0    0  0.00000000000E+00  0.00000000000E+00  0.12525980253E-10  0.17130000000E+03  0.17130000000E+03 0. -1.
       11    1    1    2    0    0 -0.13206298121E-02  0.41827652521E-03  0.26584057197E-01  0.26625032178E-01  0.51109989000E-03 0. -1.
     -623    1    1    2    0    0  0.57029527029E-02 -0.74234556358E-02  0.16304577581E-03  0.17130000026E+03  0.17130000000E+03 0. -1.
      622    1    1    2    0    0 -0.43823228908E-02  0.70051791106E-02  0.39732528644E+01  0.39733747120E+01  0.30000000000E-01 0. -1.
</event>
<event>
 5   0  0.4961200E+08  0.9118800E+02  0.7818608E-02  0.1180000E+00
       11   -1    0    0    0    0  0.00000000000E+00  0.00000000000E+00  0.39999999673E+01  0.40000000000E+01  0.51109989000E-03 0.  1.
     -623   -1    0    0    0    0  0.00000000000E+00  0.00000000000E+00  0.12525980253E-10  0.17130000000E+03  0.17130000000E+03 0.  1.
       11    1    1    2    0    0  0.67452147990E-03 -0.10550821663E-02  0.11737109842E-01  0.11814785150E-01  0.51109989000E-03 0.  1.
     -623    1    1    2    0    0  0.14257602913E-02  0.99239665841E-03  0.19103999391E-03  0.17130000001E+03  0.17130000000E+03 0.  1.
      622    1    1    2    0    0 -0.21002817721E-02  0.62685507268E-04  0.39880718200E+01  0.39881852084E+01  0.30000000000E-01 0.  1.
</event>
<event>
 5   0  0.4961200E+08  0.9118800E+02  0.7818608E-02  0.1180000E+00
       11   -1    0    0    0    0  0.00000000000E+00  0.00000000000E+00  0.39999999673E+01  0.40000000000E+01  0.51109989000E-03 0.  1.
     -623   -1    0    0    0    0  0.00000000000E+00  0.00000000000E+00  0.12525980253E-10  0.17130000000E+03  0.17130000000E+03 0. -1.
       11    1    1    2    0    0  0.61660292014E-03  0.57493610975E-02  0.12836032128E+00  0.12849151199E+00  0.51109989000E-03 0.  1.
     -623    1    1    2    0    0 -0.78316375326E-03  0.72432782660E-03  0.25281328065E-03  0.17130000000E+03  0.17130000000E+03 0. -1.
      622    1    1    2    0    0  0.16656083312E-03 -0.64736889241E-02  0.38713868328E+01  0.38715084845E+01  0.30000000000E-01 0.  1.
</event>
<event>
 5   0  0.4961200E+08  0.9118800E+02  0.7818608E-02  0.1180000E+00
       11   -1    0    0    0    0  0.00000000000E+00  0.00000000000E+00  0.39999999673E+01  0.40000000000E+01  0.51109989000E-03 0. -1.
     -623   -1    0    0    0    0  0.00000000000E+00  0.00000000000E+00  0.12525980253E-10  0.17130000000E+03  0.17130000000E+03 0. -1.
       11    1    1    2    0    0 -0.11737852407E-01 -0.11606732468E-02  0.95430184763E+00  0.95437487496E+00  0.51109989000E-03 0. -1.
     -623    1    1    2    0    0 -0.11516720528E-02 -0.22602620331E-02  0.24996812440E-03  0.17130000002E+03  0.17130000000E+03 0. -1.
      622    1    1    2    0    0  0.12889524460E-01  0.34209352799E-02  0.30454481516E+01  0.30456251061E+01  0.30000000000E-01 0. -1.
</event>
<event>
 5   0  0.4961200E+08  0.9118800E+02  0.7818608E-02  0.1180000E+00
       11   -1    0    0    0    0  0.00000000000E+00  0.00000000000E+00  0.39999999673E+01  0.40000000000E+01  0.51109989000E-03 0.  1.
     -623   -1    0    0    0    0  0.00000000000E+00  0.00000000000E+00  0.12525980253E-10  0.17130000000E+03  0.17130000000E+03 0. -1.
       11    1    1    2    0    0 -0.10173219451E-01 -0.43323647761E-02  0.41957116930E+00  0.41971715609E+00  0.51109989000E-03 0.  1.
     -623    1    1    2    0    0 -0.13863815022E-03 -0.52244071738E-03  0.28978804220E-03  0.17130000000E+03  0.17130000000E+03 0. -1.
      622    1    1    2    0    0  0.10311857601E-01  0.48548054936E-02  0.35801390110E+01  0.35802828438E+01  0.30000000000E-01 0.  1.
</event>
<event>
 5   0  0.4961200E+08  0.9118800E+02  0.7818608E-02  0.1180000E+00
       11   -1    0    0    0    0  0.00000000000E+00  0.00000000000E+00  0.39999999673E+01  0.40000000000E+01  0.51109989000E-03 0. -1.
     -623   -1    0    0    0    0  0.00000000000E+00  0.00000000000E+00  0.12525980253E-10  0.17130000000E+03  0.17130000000E+03 0. -1.
       11    1    1    2    0    0  0.39603247354E-03 -0.63111349838E-03  0.22384674702E-01  0.22402902280E-01  0.51109989000E-03 0. -1.
     -623    1    1    2    0    0 -0.17452900781E-03  0.11637362754E-03  0.13136983118E-03  0.17130000000E+03  0.17130000000E+03 0. -1.
      622    1    1    2    0    0 -0.22150346573E-03  0.51473987085E-03  0.39774839227E+01  0.39775970974E+01  0.30000000000E-01 0. -1.
</event>
<event>
 5   0  0.4961200E+08  0.9118800E+02  0.7818608E-02  0.1180000E+00
       11   -1    0    0    0    0  0.00000000000E+00  0.00000000000E+00  0.39999999673E+01  0.40000000000E+01  0.51109989000E-03 0. -1.
     -623   -1    0    0    0    0  0.00000000000E+00  0.00000000000E+00  0.12525980253E-10  0.17130000000E+03  0.17130000000E+03 0.  1.
       11    1    1    2    0    0 -0.31189231967E-02 -0.36785224399E-02  0.78832185727E+00  0.78833677517E+00  0.51109989000E-03 0. -1.
     -623    1    1    2    0    0 -0.50396189429E-05 -0.12269272156E-03  0.15877173849E-03  0.17130000000E+03  0.17130000000E+03 0.  1.
      622    1    1    2    0    0  0.31239628157E-02  0.38012151615E-02  0.32115193405E+01  0.32116632268E+01  0.30000000000E-01 0. -1.
</event>
<event>
 5   0  0.4961200E+08  0.9118800E+02  0.7818608E-02  0.1180000E+00
       11   -1    0    0    0    0  0.00000000000E+00  0.00000000000E+00  0.39999999673E+01  0.40000000000E+01  0.51109989000E-03 0.  1.
     -623   -1    0    0    0    0  0.00000000000E+00  0.00000000000E+00  0.12525980253E-10  0.17130000000E+03  0.17130000000E+03 0.  1.
       11    1    1    2    0    0 -0.10450699967E-01  0.18009341426E-01  0.15513104460E+00  0.15652301981E+00  0.51109989000E-03 0.  1.
     -623    1    1    2    0    0  0.91302726917E-03 -0.89714453770E-03  0.15589675896E-02  0.17130000001E+03  0.17130000000E+03 0.  1.
      622    1    1    2    0    0  0.95376726974E-02 -0.17112196888E-01  0.38433099552E+01  0.38434769683E+01  0.30000000000E-01 0.  1.
</event>
<event>
 5   0  0.4961200E+08  0.9118800E+02  0.7818608E-02  0.1180000E+00
       11   -1    0    0    0    0  0.00000000000E+00  0.00000000000E+00  0.39999999673E+01  0.40000000000E+01  0.51109989000E-03 0. -1.
     -623   -1    0    0    0    0  0.00000000000E+00  0.00000000000E+00  0.12525980253E-10  0.17130000000E+03  0.17130000000E+03 0.  1.
       11    1    1    2    0    0 -0.10787098360E-01 -0.89097229571E-02  0.24860780483E+00  0.24900169979E+00  0.51109989000E-03 0.  1.
     -623    1    1    2    0    0 -0.13910125707E-01  0.91741750799E-02  0.59596203532E-03  0.17130000081E+03  0.17130000000E+03 0.  1.
      622    1    1    2    0    0  0.24697224070E-01 -0.26445212430E-03  0.37507962012E+01  0.37509974894E+01  0.30000000000E-01 0. -1.
</event>
<event>
 5   0  0.4961200E+08  0.9118800E+02  0.7818608E-02  0.1180000E+00
       11   -1    0    0    0    0  0.00000000000E+00  0.00000000000E+00  0.39999999673E+01  0.40000000000E+01  0.51109989000E-03 0. -1.
     -623   -1    0    0    0    0  0.00000000000E+00  0.00000000000E+00  0.12525980253E-10  0.17130000000E+03  0.17130000000E+03 0.  1.
       11    1    1    2    0    0 -0.18590845810E-02  0.11757418486E-02  0.54245003178E-01  0.54291989807E-01  0.51109989000E-03 0. -1.
     -623    1    1    2    0    0  0.38929128561E-02  0.92335430668E-03  0.16213296892E-03  0.17130000005E+03  0.17130000000E+03 0.  1.
      622    1    1    2    0    0 -0.20338282769E-02 -0.20990961557E-02  0.39455928331E+01  0.39457079653E+01  0.30000000000E-01 0. -1.
</event>
<event>
 5   0  0.4961200E+08  0.9118800E+02  0.7818608E-02  0.1180000E+00
       11   -1    0    0    0    0  0.00000000000E+00  0.00000000000E+00  0.39999999673E+01  0.40000000000E+01  0.51109989000E-03 0. -1.
     -623   -1    0    0    0    0  0.00000000000E+00  0.00000000000E+00  0.12525980253E-10  0.17130000000E+03  0.17130000000E+03 0. -1.
       11    1    1    2    0    0  0.67660239664E-03  0.54899100939E-04  0.19095055950E-01  0.19113952738E-01  0.51109989000E-03 0. -1.
     -623    1    1    2    0    0 -0.10270700419E-03 -0.16771881719E-03  0.13194904471E-03  0.17130000000E+03  0.17130000000E+03 0. -1.
      622    1    1    2    0    0 -0.57389539245E-03  0.11281971625E-03  0.39807729624E+01  0.39808860471E+01  0.30000000000E-01 0. -1.
</event>
<event>
 5   0  0.4961200E+08  0.9118800E+02  0.7818608E-02  0.1180000E+00
       11   -1    0    0    0    0  0.00000000000E+00  0.00000000000E+00  0.39999999673E+01  0.40000000000E+01  0.51109989000E-03 0.  1.
     -623   -1    0    0    0    0  0.00000000000E+00  0.00000000000E+00  0.12525980253E-10  0.17130000000E+03  0.17130000000E+03 0.  1.
       11    1    1    2    0    0 -0.30327561935E-03  0.31500558296E-03  0.73740217288E-04  0.67665747302E-03  0.51109989000E-03 0.  1.
     -623    1    1    2    0    0  0.21986396387E-02 -0.17171227039E-02  0.71612437562E-03  0.17130000002E+03  0.17130000000E+03 0.  1.
      622    1    1    2    0    0 -0.18953640194E-02  0.14021171210E-02  0.39992101030E+01  0.39993233185E+01  0.30000000000E-01 0.  1.
</event>
<event>
 5   0  0.4961200E+08  0.9118800E+02  0.7818608E-02  0.1180000E+00
       11   -1    0    0    0    0  0.00000000000E+00  0.00000000000E+00  0.39999999673E+01  0.40000000000E+01  0.51109989000E-03 0. -1.
     -623   -1    0    0    0    0  0.00000000000E+00  0.00000000000E+00  0.12525980253E-10  0.17130000000E+03  0.17130000000E+03 0. -1.
       11    1    1    2    0    0 -0.30606075448E-02 -0.26374260620E-02  0.25282467017E-01  0.25608352082E-01  0.51109989000E-03 0. -1.
     -623    1    1    2    0    0  0.17559263967E-02  0.35580870461E-02  0.43944621922E-03  0.17130000005E+03  0.17130000000E+03 0. -1.
      622    1    1    2    0    0  0.13046811477E-02 -0.92066098499E-03  0.39742780551E+01  0.39743916024E+01  0.30000000000E-01 0. -1.
</event>
<event>
 5   0  0.4961200E+08  0.9118800E+02  0.7818608E-02  0.1180000E+00
       11   -1    0    0    0    0  0.00000000000E+00  0.00000000000E+00  0.39999999673E+01  0.40000000000E+01  0.51109989000E-03 0.  1.
     -623   -1    0    0    0    0  0.00000000000E+00  0.00000000000E+00  0.12525980253E-10  0.17130000000E+03  0.17130000000E+03 0. -1.
       11    1    1    2    0    0 -0.26822493172E-02 -0.10705053709E-02  0.46589901049E+00  0.46590824166E+00  0.51109989000E-03 0.  1.
     -623    1    1    2    0    0  0.77491985327E-03 -0.65325300941E-04  0.13723103332E-03  0.17130000000E+03  0.17130000000E+03 0. -1.
      622    1    1    2    0    0  0.19073294639E-02  0.11358306718E-02  0.35339637258E+01  0.35340917565E+01  0.30000000000E-01 0.  1.
</event>
<event>
 5   0  0.4961200E+08  0.9118800E+02  0.7818608E-02  0.1180000E+00
       11   -1    0    0    0    0  0.00000000000E+00  0.00000000000E+00  0.39999999673E+01  0.40000000000E+01  0.51109989000E-03 0.  1.
     -623   -1    0    0    0    0  0.00000000000E+00  0.00000000000E+00  0.12525980253E-10  0.17130000000E+03  0.17130000000E+03 0.  1.
       11    1    1    2    0    0 -0.82079756693E-03  0.71681910061E-03  0.88339113324E-02  0.89155341002E-02  0.51109989000E-03 0. -1.
     -623    1    1    2    0    0  0.85782121016E-05  0.40863568201E-03  0.19458496623E-03  0.17130000000E+03  0.17130000000E+03 0.  1.
      622    1    1    2    0    0  0.81221935483E-03 -0.11254547826E-02  0.39909714711E+01  0.39910844653E+01  0.30000000000E-01 0.  1.
</event>
<event>
 5   0  0.4961200E+08  0.9118800E+02  0.7818608E-02  0.1180000E+00
       11   -1    0    0    0    0  0.00000000000E+00  0.00000000000E+00  0.39999999673E+01  0.40000000000E+01  0.51109989000E-03 0.  1.
     -623   -1    0    0    0    0  0.00000000000E+00  0.00000000000E+00  0.12525980253E-10  0.17130000000E+03  0.17130000000E+03 0.  1.
       11    1    1    2    0    0  0.29168851155E-02  0.27245029760E-02  0.38706501626E+00  0.38708593254E+00  0.51109989000E-03 0.  1.
     -623    1    1    2    0    0 -0.83779131016E-02 -0.84326828646E-03  0.15026319796E-03  0.17130000021E+03  0.17130000000E+03 0.  1.
      622    1    1    2    0    0  0.54610279861E-02 -0.18812346896E-02  0.36127846879E+01  0.36129138604E+01  0.30000000000E-01 0.  1.
</event>
<event>
 5   0  0.4961200E+08  0.9118800E+02  0.7818608E-02  0.1180000E+00
       11   -1    0    0    0    0  0.00000000000E+00  0.00000000000E+00  0.39999999673E+01  0.40000000000E+01  0.51109989000E-03 0. -1.
     -623   -1    0    0    0    0  0.00000000000E+00  0.00000000000E+00  0.12525980253E-10  0.17130000000E+03  0.17130000000E+03 0. -1.
       11    1    1    2    0    0 -0.21568431352E-02  0.80889363042E-02  0.23927803762E+00  0.23942498486E+00  0.51109989000E-03 0. -1.
     -623    1    1    2    0    0  0.95053555517E-02 -0.25770796253E-02  0.27808195726E-03  0.17130000028E+03  0.17130000000E+03 0. -1.
      622    1    1    2    0    0 -0.73485124192E-02 -0.55118566782E-02  0.37604438489E+01  0.37605747329E+01  0.30000000000E-01 0. -1.
</event>
<event>
 5   0  0.4961200E+08  0.9118800E+02  0.7818608E-02  0.1180000E+00
       11   -1    0    0    0    0  0.00000000000E+00  0.00000000000E+00  0.39999999673E+01  0.40000000000E+01  0.51109989000E-03 0.  1.
     -623   -1    0    0    0    0  0.00000000000E+00  0.00000000000E+00  0.12525980253E-10  0.17130000000E+03  0.17130000000E+03 0. -1.
       11    1    1    2    0    0  0.11751418750E-02 -0.41122236558E-03  0.15733636659E+00  0.15734212257E+00  0.51109989000E-03 0.  1.
     -623    1    1    2    0    0  0.94324746968E-03 -0.75993738468E-03  0.12359830695E-03  0.17130000000E+03  0.17130000000E+03 0. -1.
      622    1    1    2    0    0 -0.21183893446E-02  0.11711597503E-02  0.38425400025E+01  0.38426578731E+01  0.30000000000E-01 0.  1.
</event>
<event>
 5   0  0.4961200E+08  0.9118800E+02  0.7818608E-02  0.1180000E+00
       11   -1    0    0    0    0  0.00000000000E+00  0.00000000000E+00  0.39999999673E+01  0.40000000000E+01  0.51109989000E-03 0. -1.
     -623   -1    0    0    0    0  0.00000000000E+00  0.00000000000E+00  0.12525980253E-10  0.17130000000E+03  0.17130000000E+03 0.  1.
       11    1    1    2    0    0  0.13299976572E-01  0.37466339547E-02  0.30280962145E+00  0.30312514694E+00  0.51109989000E-03 0. -1.
     -623    1    1    2    0    0 -0.13408141972E-01  0.21993747121E-02  0.44254223337E-03  0.17130000054E+03  0.17130000000E+03 0.  1.
      622    1    1    2    0    0  0.10816540097E-03 -0.59460086668E-02  0.36967478039E+01  0.36968743138E+01  0.30000000000E-01 0. -1.
</event>
<event>
 5   0  0.4961200E+08  0.9118800E+02  0.7818608E-02  0.1180000E+00
       11   -1    0    0    0    0  0.00000000000E+00  0.00000000000E+00  0.39999999673E+01  0.40000000000E+01  0.51109989000E-03 0.  1.
     -623   -1    0    0    0    0  0.00000000000E+00  0.00000000000E+00  0.12525980253E-10  0.17130000000E+03  0.17130000000E+03 0. -1.
       11    1    1    2    0    0  0.34860370539E-01  0.66685143768E-02  0.17154733013E+00  0.17518122677E+00  0.51109989000E-03 0.  1.
     -623    1    1    2    0    0  0.86648997200E-02  0.21441481766E-01  0.41041032435E-02  0.17130000161E+03  0.17130000000E+03 0. -1.
      622    1    1    2    0    0 -0.43525270259E-01 -0.28109996142E-01  0.38243485340E+01  0.38248171630E+01  0.30000000000E-01 0.  1.
</event>
<event>
 5   0  0.4961200E+08  0.9118800E+02  0.7818608E-02  0.1180000E+00
       11   -1    0    0    0    0  0.00000000000E+00  0.00000000000E+00  0.39999999673E+01  0.40000000000E+01  0.51109989000E-03 0.  1.
     -623   -1    0    0    0    0  0.00000000000E+00  0.00000000000E+00  0.12525980253E-10  0.17130000000E+03  0.17130000000E+03 0. -1.
       11    1    1    2    0    0 -0.90653331158E-03 -0.32912323518E-02  0.35105520783E-01  0.35274818562E-01  0.51109989000E-03 0.  1.
     -623    1    1    2    0    0  0.25367839233E-02 -0.98356172692E-02  0.30513590307E-03  0.17130000030E+03  0.17130000000E+03 0. -1.
      622    1    1    2    0    0 -0.16302506117E-02  0.13126849621E-01  0.39645893107E+01  0.39647248800E+01  0.30000000000E-01 0.  1.
</event>
<event>
 5   0  0.4961200E+08  0.9118800E+02  0.7818608E-02  0.1180000E+00
       11   -1    0    0    0    0  0.00000000000E+00  0.00000000000E+00  0.39999999673E+01  0.40000000000E+01  0.51109989000E-03 0. -1.
     -623   -1    0    0    0    0  0.00000000000E+00  0.00000000000E+00  0.12525980253E-10  0.17130000000E+03  0.17130000000E+03 0. -1.
       11    1    1    2    0    0  0.10081472027E-01 -0.40104030383E-01  0.80516042095E+00  0.80622176478E+00  0.51109989000E-03 0. -1.
     -623    1    1    2    0    0  0.68403735881E-02  0.82254316142E-02  0.14064954286E-02  0.17130000034E+03  0.17130000000E+03 0. -1.
      622    1    1    2    0    0 -0.16921845615E-01  0.31878598769E-01  0.31934330510E+01  0.31937778954E+01  0.30000000000E-01 0. -1.
</event>
<event>
 5   0  0.4961200E+08  0.9118800E+02  0.7818608E-02  0.1180000E+00
       11   -1    0    0    0    0  0.00000000000E+00  0.00000000000E+00  0.39999999673E+01  0.40000000000E+01  0.51109989000E-03 0.  1.
     -623   -1    0    0    0    0  0.00000000000E+00  0.00000000000E+00  0.12525980253E-10  0.17130000000E+03  0.17130000000E+03 0.  1.
       11    1    1    2    0    0 -0.62861889816E-03  0.12802985993E-02  0.10159284376E-01  0.10271640926E-01  0.51109989000E-03 0.  1.
     -623    1    1    2    0    0  0.19768060135E-02 -0.74145637149E-03  0.22539247863E-03  0.17130000001E+03  0.17130000000E+03 0.  1.
      622    1    1    2    0    0 -0.13481871153E-02 -0.53884222782E-03  0.39896152905E+01  0.39897283459E+01  0.30000000000E-01 0.  1.
</event>
<event>
 5   0  0.4961200E+08  0.9118800E+02  0.7818608E-02  0.1180000E+00
       11   -1    0    0    0    0  0.00000000000E+00  0.00000000000E+00  0.39999999673E+01  0.40000000000E+01  0.51109989000E-03 0.  1.
     -623   -1    0    0    0    0  0.00000000000E+00  0.00000000000E+00  0.12525980253E-10  0.17130000000E+03  0.17130000000E+03 0.  1.
       11    1    1    2    0    0 -0.40273182692E-03  0.48956279414E-04  0.18849178318E-02  0.19946749038E-02  0.51109989000E-03 0.  1.
     -623    1    1    2    0    0  0.70183741518E-04  0.16138095991E-03  0.22230174316E-03  0.17130000000E+03  0.17130000000E+03 0.  1.
      622    1    1    2    0    0  0.33254808540E-03 -0.21033723933E-03  0.39978927478E+01  0.39980053249E+01  0.30000000000E-01 0.  1.
</event>
<event>
 5   0  0.4961200E+08  0.9118800E+02  0.7818608E-02  0.1180000E+00
       11   -1    0    0    0    0  0.00000000000E+00  0.00000000000E+00  0.39999999673E+01  0.40000000000E+01  0.51109989000E-03 0.  1.
     -623   -1    0    0    0    0  0.00000000000E+00  0.00000000000E+00  0.12525980253E-10  0.17130000000E+03  0.17130000000E+03 0.  1.
       11    1    1    2    0    0  0.12394731471E-02  0.14156143494E-02  0.74337287708E-01  0.74362852450E-01  0.51109989000E-03 0.  1.
     -623    1    1    2    0    0  0.75105282436E-03 -0.76860799125E-03  0.14072626879E-03  0.17130000000E+03  0.17130000000E+03 0.  1.
      622    1    1    2    0    0 -0.19905259717E-02 -0.64700635796E-03  0.39255219544E+01  0.39256371451E+01  0.30000000000E-01 0.  1.
</event>
<event>
 5   0  0.4961200E+08  0.9118800E+02  0.7818608E-02  0.1180000E+00
       11   -1    0    0    0    0  0.00000000000E+00  0.00000000000E+00  0.39999999673E+01  0.40000000000E+01  0.51109989000E-03 0.  1.
     -623   -1    0    0    0    0  0.00000000000E+00  0.00000000000E+00  0.12525980253E-10  0.17130000000E+03  0.17130000000E+03 0. -1.
       11    1    1    2    0    0  0.28642792643E-01 -0.13891382133E-02  0.89034554313E+00  0.89080737911E+00  0.51109989000E-03 0.  1.
     -623    1    1    2    0    0 -0.58343784446E-03  0.65978724939E-02  0.73765317725E-03  0.17130000013E+03  0.17130000000E+03 0. -1.
      622    1    1    2    0    0 -0.28059354798E-01 -0.52087342804E-02  0.31089167709E+01  0.31091924911E+01  0.30000000000E-01 0.  1.
</event>
<event>
 5   0  0.4961200E+08  0.9118800E+02  0.7818608E-02  0.1180000E+00
       11   -1    0    0    0    0  0.00000000000E+00  0.00000000000E+00  0.39999999673E+01  0.40000000000E+01  0.51109989000E-03 0. -1.
     -623   -1    0    0    0    0  0.00000000000E+00  0.00000000000E+00  0.12525980253E-10  0.17130000000E+03  0.17130000000E+03 0.  1.
       11    1    1    2    0    0  0.64377935876E-03  0.51836586336E-02  0.12826599301E+00  0.12837332649E+00  0.51109989000E-03 0. -1.
     -623    1    1    2    0    0  0.28899043687E-02 -0.27925127942E-02  0.22593117602E-03  0.17130000005E+03  0.17130000000E+03 0.  1.
      622    1    1    2    0    0 -0.35336837278E-02 -0.23911458390E-02  0.38715080437E+01  0.38716266267E+01  0.30000000000E-01 0. -1.
</event>
<event>
 5   0  0.4961200E+08  0.9118800E+02  0.7818608E-02  0.1180000E+00
       11   -1    0    0    0    0  0.00000000000E+00  0.00000000000E+00  0.39999999673E+01  0.40000000000E+01  0.51109989000E-03 0.  1.
     -623   -1    0    0    0    0  0.00000000000E+00  0.00000000000E+00  0.12525980253E-10  0.17130000000E+03  0.17130000000E+03 0. -1.
       11    1    1    2    0    0  0.12457563658E-02 -0.19690102950E-02  0.36224009788E+00  0.36224795189E+00  0.51109989000E-03 0.  1.
     -623    1    1    2    0    0 -0.20290314331E-02 -0.42744869131E-03  0.13241255934E-03  0.17130000001E+03  0.17130000000E+03 0. -1.
      622    1    1    2    0    0  0.78327506919E-03  0.23964589867E-02  0.36376274606E+01  0.36377520392E+01  0.30000000000E-01 0.  1.
</event>
<event>
 5   0  0.4961200E+08  0.9118800E+02  0.7818608E-02  0.1180000E+00
       11   -1    0    0    0    0  0.00000000000E+00  0.00000000000E+00  0.39999999673E+01  0.40000000000E+01  0.51109989000E-03 0. -1.
     -623   -1    0    0    0    0  0.00000000000E+00  0.00000000000E+00  0.12525980253E-10  0.17130000000E+03  0.17130000000E+03 0. -1.
       11    1    1    2    0    0 -0.21564712493E-01 -0.15557410774E-02  0.42802440017E+00  0.42857042072E+00  0.51109989000E-03 0. -1.
     -623    1    1    2    0    0  0.14587162004E-01  0.15131527408E-01  0.70590064833E-03  0.17130000129E+03  0.17130000000E+03 0. -1.
      622    1    1    2    0    0  0.69775504892E-02 -0.13575786331E-01  0.35712696665E+01  0.35714282884E+01  0.30000000000E-01 0. -1.
</event>
<event>
 5   0  0.4961200E+08  0.9118800E+02  0.7818608E-02  0.1180000E+00
       11   -1    0    0    0    0  0.00000000000E+00  0.00000000000E+00  0.39999999673E+01  0.40000000000E+01  0.51109989000E-03 0. -1.
     -623   -1    0    0    0    0  0.00000000000E+00  0.00000000000E+00  0.12525980253E-10  0.17130000000E+03  0.17130000000E+03 0.  1.
       11    1    1    2    0    0 -0.12321120942E-02  0.69533412119E-02  0.38055223902E+00  0.38061809587E+00  0.51109989000E-03 0. -1.
     -623    1    1    2    0    0 -0.13474382342E-03 -0.67881726585E-03  0.19585549039E-03  0.17130000000E+03  0.17130000000E+03 0.  1.
      622    1    1    2    0    0  0.13668559177E-02 -0.62745239460E-02  0.36192518728E+01  0.36193819026E+01  0.30000000000E-01 0. -1.
</event>
<event>
 5   0  0.4961200E+08  0.9118800E+02  0.7818608E-02  0.1180000E+00
       11   -1    0    0    0    0  0.00000000000E+00  0.00000000000E+00  0.39999999673E+01  0.40000000000E+01  0.51109989000E-03 0. -1.
     -623   -1    0    0    0    0  0.00000000000E+00  0.00000000000E+00  0.12525980253E-10  0.17130000000E+03  0.17130000000E+03 0. -1.
       11    1    1    2    0    0 -0.15014890511E-02  0.14642778179E-02  0.14594430567E-01  0.14753210009E-01  0.51109989000E-03 0. -1.
     -623    1    1    2    0    0  0.10939788288E-01 -0.36545196803E-02  0.28383205197E-03  0.17130000039E+03  0.17130000000E+03 0. -1.
      622    1    1    2    0    0 -0.94382992376E-02  0.21902418626E-02  0.39851217049E+01  0.39852464016E+01  0.30000000000E-01 0. -1.
</event>
<event>
 5   0  0.4961200E+08  0.9118800E+02  0.7818608E-02  0.1180000E+00
       11   -1    0    0    0    0  0.00000000000E+00  0.00000000000E+00  0.39999999673E+01  0.40000000000E+01  0.51109989000E-03 0. -1.
     -623   -1    0    0    0    0  0.00000000000E+00  0.00000000000E+00  0.12525980253E-10  0.17130000000E+03  0.17130000000E+03 0. -1.
       11    1    1    2    0    0  0.33226698520E-02  0.11675425215E-01  0.84302284147E+00  0.84311038906E+00  0.51109989000E-03 0. -1.
     -623    1    1    2    0    0 -0.87830432650E-04  0.30819252341E-03  0.25446761681E-03  0.17130000000E+03  0.17130000000E+03 0. -1.
      622    1    1    2    0    0 -0.32348394193E-02 -0.11983617738E-01  0.31567226609E+01  0.31568896130E+01  0.30000000000E-01 0.  0.
</event>
<event>
 5   0  0.4961200E+08  0.9118800E+02  0.7818608E-02  0.1180000E+00
       11   -1    0    0    0    0  0.00000000000E+00  0.00000000000E+00  0.39999999673E+01  0.40000000000E+01  0.51109989000E-03 0. -1.
     -623   -1    0    0    0    0  0.00000000000E+00  0.00000000000E+00  0.12525980253E-10  0.17130000000E+03  0.17130000000E+03 0. -1.
       11    1    1    2    0    0 -0.32133190659E-01 -0.51036170599E-01  0.69870720324E+00  0.70130538978E+00  0.51109989000E-03 0. -1.
     -623    1    1    2    0    0  0.54238729057E-01  0.43927600279E-01  0.28305494359E-02  0.17130001424E+03  0.17130000000E+03 0. -1.
      622    1    1    2    0    0 -0.22105538398E-01  0.71085703197E-02  0.32984622147E+01  0.32986803677E+01  0.30000000000E-01 0. -1.
</event>
<event>
 5   0  0.4961200E+08  0.9118800E+02  0.7818608E-02  0.1180000E+00
       11   -1    0    0    0    0  0.00000000000E+00  0.00000000000E+00  0.39999999673E+01  0.40000000000E+01  0.51109989000E-03 0.  1.
     -623   -1    0    0    0    0  0.00000000000E+00  0.00000000000E+00  0.12525980253E-10  0.17130000000E+03  0.17130000000E+03 0.  1.
       11    1    1    2    0    0 -0.32984584419E-02 -0.54059182086E-02  0.40820342567E+00  0.40825286494E+00  0.51109989000E-03 0.  1.
     -623    1    1    2    0    0 -0.70250669798E-03  0.13880926576E-02  0.17917897533E-03  0.17130000001E+03  0.17130000000E+03 0.  1.
      622    1    1    2    0    0  0.40009651399E-02  0.40178255510E-02  0.35916173627E+01  0.35917471279E+01  0.30000000000E-01 0.  1.
</event>
<event>
 5   0  0.4961200E+08  0.9118800E+02  0.7818608E-02  0.1180000E+00
       11   -1    0    0    0    0  0.00000000000E+00  0.00000000000E+00  0.39999999673E+01  0.40000000000E+01  0.51109989000E-03 0. -1.
     -623   -1    0    0    0    0  0.00000000000E+00  0.00000000000E+00  0.12525980253E-10  0.17130000000E+03  0.17130000000E+03 0.  1.
       11    1    1    2    0    0  0.15233698025E-01 -0.89569350071E-02  0.75101971494E-01  0.77154776816E-01  0.51109989000E-03 0. -1.
     -623    1    1    2    0    0 -0.40837081718E-02  0.22512205903E-01  0.22082964499E-02  0.17130000154E+03  0.17130000000E+03 0.  1.
      622    1    1    2    0    0 -0.11149989853E-01 -0.13555270896E-01  0.39226896994E+01  0.39228436810E+01  0.30000000000E-01 0. -1.
</event>
<event>
 5   0  0.4961200E+08  0.9118800E+02  0.7818608E-02  0.1180000E+00
       11   -1    0    0    0    0  0.00000000000E+00  0.00000000000E+00  0.39999999673E+01  0.40000000000E+01  0.51109989000E-03 0.  1.
     -623   -1    0    0    0    0  0.00000000000E+00  0.00000000000E+00  0.12525980253E-10  0.17130000000E+03  0.17130000000E+03 0. -1.
       11    1    1    2    0    0  0.21227149363E-02 -0.13458445068E-01  0.30726150493E+00  0.30756386214E+00  0.51109989000E-03 0.  1.
     -623    1    1    2    0    0 -0.10334119560E-01 -0.33467400471E-01  0.73511561277E-03  0.17130000358E+03  0.17130000000E+03 0. -1.
      622    1    1    2    0    0  0.82114046219E-02  0.46925845535E-01  0.36920033463E+01  0.36924325547E+01  0.30000000000E-01 0.  1.
</event>
<event>
 5   0  0.4961200E+08  0.9118800E+02  0.7818608E-02  0.1180000E+00
       11   -1    0    0    0    0  0.00000000000E+00  0.00000000000E+00  0.39999999673E+01  0.40000000000E+01  0.51109989000E-03 0.  1.
     -623   -1    0    0    0    0  0.00000000000E+00  0.00000000000E+00  0.12525980253E-10  0.17130000000E+03  0.17130000000E+03 0.  1.
       11    1    1    2    0    0 -0.58220812918E-02 -0.84748384026E-02  0.13492921158E+00  0.13532136888E+00  0.51109989000E-03 0.  1.
     -623    1    1    2    0    0  0.83756258396E-02  0.95711692303E-02  0.51003766158E-03  0.17130000047E+03  0.17130000000E+03 0.  1.
      622    1    1    2    0    0 -0.25535445478E-02 -0.10963308277E-02  0.38645607181E+01  0.38646781582E+01  0.30000000000E-01 0.  1.
</event>
<event>
 5   0  0.4961200E+08  0.9118800E+02  0.7818608E-02  0.1180000E+00
       11   -1    0    0    0    0  0.00000000000E+00  0.00000000000E+00  0.39999999673E+01  0.40000000000E+01  0.51109989000E-03 0.  1.
     -623   -1    0    0    0    0  0.00000000000E+00  0.00000000000E+00  0.12525980253E-10  0.17130000000E+03  0.17130000000E+03 0. -1.
       11    1    1    2    0    0 -0.10304690691E-01  0.60135126183E-02  0.45187990789E+00  0.45203767692E+00  0.51109989000E-03 0.  1.
     -623    1    1    2    0    0  0.14541902205E-01 -0.17256702051E-01  0.30640414034E-03  0.17130000149E+03  0.17130000000E+03 0. -1.
      622    1    1    2    0    0 -0.42372115141E-02  0.11243189433E-01  0.35478136553E+01  0.35479608363E+01  0.30000000000E-01 0.  1.
</event>
<event>
 5   0  0.4961200E+08  0.9118800E+02  0.7818608E-02  0.1180000E+00
       11   -1    0    0    0    0  0.00000000000E+00  0.00000000000E+00  0.39999999673E+01  0.40000000000E+01  0.51109989000E-03 0.  1.
     -623   -1    0    0    0    0  0.00000000000E+00  0.00000000000E+00  0.12525980253E-10  0.17130000000E+03  0.17130000000E+03 0. -1.
       11    1    1    2    0    0 -0.57270072636E-03  0.26112679851E-02  0.17279681276E-01  0.17492721745E-01  0.51109989000E-03 0.  1.
     -623    1    1    2    0    0 -0.16700393379E-02  0.82053689651E-03  0.32812418078E-03  0.17130000001E+03  0.17130000000E+03 0. -1.
      622    1    1    2    0    0  0.22427400643E-02 -0.34318048816E-02  0.39823921619E+01  0.39825072678E+01  0.30000000000E-01 0.  1.
</event>
<event>
 5   0  0.4961200E+08  0.9118800E+02  0.7818608E-02  0.1180000E+00
       11   -1    0    0    0    0  0.00000000000E+00  0.00000000000E+00  0.39999999673E+01  0.40000000000E+01  0.51109989000E-03 0. -1.
     -623   -1    0    0    0    0  0.00000000000E+00  0.00000000000E+00  0.12525980253E-10  0.17130000000E+03  0.17130000000E+03 0.  1.
       11    1    1    2    0    0 -0.11396356916E-01  0.67324408702E-01  0.82311248481E+00  0.82593999590E+00  0.51109989000E-03 0. -1.
     -623    1    1    2    0    0  0.54511750720E-02  0.80966201756E-03  0.37063506959E-02  0.17130000013E+03  0.17130000000E+03 0.  1.
      622    1    1    2    0    0  0.59451818437E-02 -0.68134070720E-01  0.31731811319E+01  0.31740598754E+01  0.30000000000E-01 0. -1.
</event>
<event>
 5   0  0.4961200E+08  0.9118800E+02  0.7818608E-02  0.1180000E+00
       11   -1    0    0    0    0  0.00000000000E+00  0.00000000000E+00  0.39999999673E+01  0.40000000000E+01  0.51109989000E-03 0.  1.
     -623   -1    0    0    0    0  0.00000000000E+00  0.00000000000E+00  0.12525980253E-10  0.17130000000E+03  0.17130000000E+03 0.  1.
       11    1    1    2    0    0  0.49540991405E-02 -0.78741691226E-02  0.23105778087E+00  0.23124555121E+00  0.51109989000E-03 0.  1.
     -623    1    1    2    0    0 -0.44209625054E-02  0.94104957308E-02  0.30780912672E-03  0.17130000032E+03  0.17130000000E+03 0.  1.
      622    1    1    2    0    0 -0.53313663507E-03 -0.15363266082E-02  0.37686343774E+01  0.37687541330E+01  0.30000000000E-01 0.  1.
</event>
<event>
 5   0  0.4961200E+08  0.9118800E+02  0.7818608E-02  0.1180000E+00
       11   -1    0    0    0    0  0.00000000000E+00  0.00000000000E+00  0.39999999673E+01  0.40000000000E+01  0.51109989000E-03 0. -1.
     -623   -1    0    0    0    0  0.00000000000E+00  0.00000000000E+00  0.12525980253E-10  0.17130000000E+03  0.17130000000E+03 0. -1.
       11    1    1    2    0    0  0.55837532583E-02 -0.33113989844E-02  0.41076258451E-01  0.41589228077E-01  0.51109989000E-03 0. -1.
     -623    1    1    2    0    0  0.45823950722E-02  0.17853455361E-02  0.64004152081E-03  0.17130000007E+03  0.17130000000E+03 0. -1.
      622    1    1    2    0    0 -0.10166148330E-01  0.15260534483E-02  0.39582836674E+01  0.39584107001E+01  0.30000000000E-01 0. -1.
</event>
<event>
 5   0  0.4961200E+08  0.9118800E+02  0.7818608E-02  0.1180000E+00
       11   -1    0    0    0    0  0.00000000000E+00  0.00000000000E+00  0.39999999673E+01  0.40000000000E+01  0.51109989000E-03 0. -1.
     -623   -1    0    0    0    0  0.00000000000E+00  0.00000000000E+00  0.12525980253E-10  0.17130000000E+03  0.17130000000E+03 0. -1.
       11    1    1    2    0    0 -0.61021579995E-03 -0.41711771735E-02  0.41103632535E+00  0.41105825993E+00  0.51109989000E-03 0. -1.
     -623    1    1    2    0    0  0.33601369974E-02  0.14725448913E-01  0.16452827871E-03  0.17130000067E+03  0.17130000000E+03 0. -1.
      622    1    1    2    0    0 -0.27499211974E-02 -0.10554271739E-01  0.35887991137E+01  0.35889410741E+01  0.30000000000E-01 0. -1.
</event>
<event>
 5   0  0.4961200E+08  0.9118800E+02  0.7818608E-02  0.1180000E+00
       11   -1    0    0    0    0  0.00000000000E+00  0.00000000000E+00  0.39999999673E+01  0.40000000000E+01  0.51109989000E-03 0.  1.
     -623   -1    0    0    0    0  0.00000000000E+00  0.00000000000E+00  0.12525980253E-10  0.17130000000E+03  0.17130000000E+03 0.  1.
       11    1    1    2    0    0 -0.50408956439E-03 -0.80600384105E-02  0.78977536376E-02  0.11307257010E-01  0.51109989000E-03 0.  1.
     -623    1    1    2    0    0 -0.73533773740E-02  0.80034980673E-03  0.35368338061E-02  0.17130000020E+03  0.17130000000E+03 0.  1.
      622    1    1    2    0    0  0.78574669384E-02  0.72596886038E-02  0.39885653799E+01  0.39886925468E+01  0.30000000000E-01 0.  1.
</event>
<event>
 5   0  0.4961200E+08  0.9118800E+02  0.7818608E-02  0.1180000E+00
       11   -1    0    0    0    0  0.00000000000E+00  0.00000000000E+00  0.39999999673E+01  0.40000000000E+01  0.51109989000E-03 0. -1.
     -623   -1    0    0    0    0  0.00000000000E+00  0.00000000000E+00  0.12525980253E-10  0.17130000000E+03  0.17130000000E+03 0.  1.
       11    1    1    2    0    0 -0.47484038622E-02  0.81679414734E-02  0.13835708409E+00  0.13868023128E+00  0.51109989000E-03 0. -1.
     -623    1    1    2    0    0 -0.19360157184E-02 -0.65509582081E-02  0.44591809557E-03  0.17130000014E+03  0.17130000000E+03 0.  1.
      622    1    1    2    0    0  0.66844195811E-02 -0.16169832637E-02  0.38611969662E+01  0.38613196329E+01  0.30000000000E-01 0. -1.
</event>
<event>
 5   0  0.4961200E+08  0.9118800E+02  0.7818608E-02  0.1180000E+00
       11   -1    0    0    0    0  0.00000000000E+00  0.00000000000E+00  0.39999999673E+01  0.40000000000E+01  0.51109989000E-03 0. -1.
     -623   -1    0    0    0    0  0.00000000000E+00  0.00000000000E+00  0.12525980253E-10  0.17130000000E+03  0.17130000000E+03 0.  1.
       11    1    1    2    0    0  0.31709180372E-03  0.29610302508E-03  0.23126198589E-01  0.23135913771E-01  0.51109989000E-03 0. -1.
     -623    1    1    2    0    0 -0.83689480472E-03  0.14774481987E-02  0.12327655113E-03  0.17130000001E+03  0.17130000000E+03 0.  1.
      622    1    1    2    0    0  0.51980300100E-03 -0.17735512238E-02  0.39767504922E+01  0.39768640778E+01  0.30000000000E-01 0. -1.
</event>
<event>
 5   0  0.4961200E+08  0.9118800E+02  0.7818608E-02  0.1180000E+00
       11   -1    0    0    0    0  0.00000000000E+00  0.00000000000E+00  0.39999999673E+01  0.40000000000E+01  0.51109989000E-03 0. -1.
     -623   -1    0    0    0    0  0.00000000000E+00  0.00000000000E+00  0.12525980253E-10  0.17130000000E+03  0.17130000000E+03 0.  1.
       11    1    1    2    0    0 -0.20314018300E-01 -0.17209061353E-02  0.19249823025E+00  0.19357543938E+00  0.51109989000E-03 0. -1.
     -623    1    1    2    0    0 -0.47995809152E-01 -0.18123302151E-01  0.18678415802E-02  0.17130000769E+03  0.17130000000E+03 0.  1.
      622    1    1    2    0    0  0.68309827454E-01  0.19844208287E-01  0.38056338957E+01  0.38064168680E+01  0.30000000000E-01 0. -1.
</event>
<event>
 5   0  0.4961200E+08  0.9118800E+02  0.7818608E-02  0.1180000E+00
       11   -1    0    0    0    0  0.00000000000E+00  0.00000000000E+00  0.39999999673E+01  0.40000000000E+01  0.51109989000E-03 0.  1.
     -623   -1    0    0    0    0  0.00000000000E+00  0.00000000000E+00  0.12525980253E-10  0.17130000000E+03  0.17130000000E+03 0.  1.
       11    1    1    2    0    0 -0.15220930088E-03 -0.21363556964E-02  0.27183301732E+00  0.27184193516E+00  0.51109989000E-03 0.  1.
     -623    1    1    2    0    0  0.38869436500E-04  0.18854329067E-03  0.13010091311E-03  0.17130000000E+03  0.17130000000E+03 0.  1.
      622    1    1    2    0    0  0.11333986438E-03  0.19478124057E-02  0.37280368491E+01  0.37281580647E+01  0.30000000000E-01 0.  1.
</event>
<event>
 5   0  0.4961200E+08  0.9118800E+02  0.7818608E-02  0.1180000E+00
       11   -1    0    0    0    0  0.00000000000E+00  0.00000000000E+00  0.39999999673E+01  0.40000000000E+01  0.51109989000E-03 0. -1.
     -623   -1    0    0    0    0  0.00000000000E+00  0.00000000000E+00  0.12525980253E-10  0.17130000000E+03  0.17130000000E+03 0. -1.
       11    1    1    2    0    0  0.12298952392E-02  0.23116640631E-03  0.32259964379E-01  0.32288273491E-01  0.51109989000E-03 0. -1.
     -623    1    1    2    0    0 -0.29155810354E-03 -0.66785433177E-04  0.14180827408E-03  0.17130000000E+03  0.17130000000E+03 0. -1.
      622    1    1    2    0    0 -0.93833713558E-03 -0.16438097311E-03  0.39675981957E+01  0.39677117272E+01  0.30000000000E-01 0. -1.
</event>
<event>
 5   0  0.4961200E+08  0.9118800E+02  0.7818608E-02  0.1180000E+00
       11   -1    0    0    0    0  0.00000000000E+00  0.00000000000E+00  0.39999999673E+01  0.40000000000E+01  0.51109989000E-03 0. -1.
     -623   -1    0    0    0    0  0.00000000000E+00  0.00000000000E+00  0.12525980253E-10  0.17130000000E+03  0.17130000000E+03 0. -1.
       11    1    1    2    0    0  0.69061582166E-03  0.12684522986E-01  0.32514040396E+00  0.32538887133E+00  0.51109989000E-03 0. -1.
     -623    1    1    2    0    0  0.83278425635E-02 -0.65131580602E-02  0.38747509926E-03  0.17130000033E+03  0.17130000000E+03 0. -1.
      622    1    1    2    0    0 -0.90184583846E-02 -0.61713649261E-02  0.36744720880E+01  0.36746108017E+01  0.30000000000E-01 0. -1.
</event>
<event>
 5   0  0.4961200E+08  0.9118800E+02  0.7818608E-02  0.1180000E+00
       11   -1    0    0    0    0  0.00000000000E+00  0.00000000000E+00  0.39999999673E+01  0.40000000000E+01  0.51109989000E-03 0.  1.
     -623   -1    0    0    0    0  0.00000000000E+00  0.00000000000E+00  0.12525980253E-10  0.17130000000E+03  0.17130000000E+03 0.  1.
       11    1    1    2    0    0  0.71843442519E-02 -0.33593221937E-01  0.87995677556E+00  0.88062722388E+00  0.51109989000E-03 0.  1.
     -623    1    1    2    0    0  0.11328887449E-04  0.16362508867E-02  0.98669596573E-03  0.17130000001E+03  0.17130000000E+03 0.  1.
      622    1    1    2    0    0 -0.71956731394E-02  0.31956971050E-01  0.31190564958E+01  0.31193727655E+01  0.30000000000E-01 0.  1.
</event>
<event>
 5   0  0.4961200E+08  0.9118800E+02  0.7818608E-02  0.1180000E+00
       11   -1    0    0    0    0  0.00000000000E+00  0.00000000000E+00  0.39999999673E+01  0.40000000000E+01  0.51109989000E-03 0. -1.
     -623   -1    0    0    0    0  0.00000000000E+00  0.00000000000E+00  0.12525980253E-10  0.17130000000E+03  0.17130000000E+03 0.  1.
       11    1    1    2    0    0  0.75466228689E-02 -0.52252148524E-02  0.48575657865E-01  0.49437942375E-01  0.51109989000E-03 0. -1.
     -623    1    1    2    0    0 -0.13855148192E-01  0.71401595905E-02  0.98237453606E-03  0.17130000071E+03  0.17130000000E+03 0.  1.
      622    1    1    2    0    0  0.63085253227E-02 -0.19149447381E-02  0.39504419350E+01  0.39505613457E+01  0.30000000000E-01 0. -1.
</event>
<event>
 5   0  0.4961200E+08  0.9118800E+02  0.7818608E-02  0.1180000E+00
       11   -1    0    0    0    0  0.00000000000E+00  0.00000000000E+00  0.39999999673E+01  0.40000000000E+01  0.51109989000E-03 0. -1.
     -623   -1    0    0    0    0  0.00000000000E+00  0.00000000000E+00  0.12525980253E-10  0.17130000000E+03  0.17130000000E+03 0. -1.
       11    1    1    2    0    0  0.83228971877E-02 -0.48905822604E-02  0.57194714311E+00  0.57202883157E+00  0.51109989000E-03 0. -1.
     -623    1    1    2    0    0 -0.23021956108E-02 -0.10209342777E-02  0.22333479255E-03  0.17130000002E+03  0.17130000000E+03 0. -1.
      622    1    1    2    0    0 -0.60207015769E-02  0.59115165381E-02  0.34278294894E+01  0.34279711497E+01  0.30000000000E-01 0. -1.
</event>
<event>
 5   0  0.4961200E+08  0.9118800E+02  0.7818608E-02  0.1180000E+00
       11   -1    0    0    0    0  0.00000000000E+00  0.00000000000E+00  0.39999999673E+01  0.40000000000E+01  0.51109989000E-03 0. -1.
     -623   -1    0    0    0    0  0.00000000000E+00  0.00000000000E+00  0.12525980253E-10  0.17130000000E+03  0.17130000000E+03 0. -1.
       11    1    1    2    0    0  0.19978940044E-02  0.21698456069E-04  0.17453224903E-01  0.17574650293E-01  0.51109989000E-03 0. -1.
     -623    1    1    2    0    0 -0.35192580021E-03 -0.28900116709E-03  0.23474071368E-03  0.17130000000E+03  0.17130000000E+03 0. -1.
      622    1    1    2    0    0 -0.16459682042E-02  0.26730271102E-03  0.39823120017E+01  0.39824253489E+01  0.30000000000E-01 0. -1.
</event>
<event>
 5   0  0.4961200E+08  0.9118800E+02  0.7818608E-02  0.1180000E+00
       11   -1    0    0    0    0  0.00000000000E+00  0.00000000000E+00  0.39999999673E+01  0.40000000000E+01  0.51109989000E-03 0. -1.
     -623   -1    0    0    0    0  0.00000000000E+00  0.00000000000E+00  0.12525980253E-10  0.17130000000E+03  0.17130000000E+03 0. -1.
       11    1    1    2    0    0  0.16664531325E-03 -0.15478469407E-03  0.38979835931E-02  0.39379218062E-02  0.51109989000E-03 0. -1.
     -623    1    1    2    0    0 -0.18423585449E-03  0.15500130359E-03  0.15251829880E-03  0.17130000000E+03  0.17130000000E+03 0. -1.
      622    1    1    2    0    0  0.17590541203E-04 -0.21660948961E-06  0.39959494647E+01  0.39960620772E+01  0.30000000000E-01 0. -1.
</event>
<event>
 5   0  0.4961200E+08  0.9118800E+02  0.7818608E-02  0.1180000E+00
       11   -1    0    0    0    0  0.00000000000E+00  0.00000000000E+00  0.39999999673E+01  0.40000000000E+01  0.51109989000E-03 0. -1.
     -623   -1    0    0    0    0  0.00000000000E+00  0.00000000000E+00  0.12525980253E-10  0.17130000000E+03  0.17130000000E+03 0.  1.
       11    1    1    2    0    0 -0.22466838699E-02 -0.34976976512E-02  0.11356327044E+00  0.11364048174E+00  0.51109989000E-03 0. -1.
     -623    1    1    2    0    0  0.25692416693E-04 -0.94700113272E-04  0.19526515827E-03  0.17130000000E+03  0.17130000000E+03 0.  1.
      622    1    1    2    0    0  0.22209914532E-02  0.35923977645E-02  0.38862414318E+01  0.38863595181E+01  0.30000000000E-01 0. -1.
</event>
<event>
 5   0  0.4961200E+08  0.9118800E+02  0.7818608E-02  0.1180000E+00
       11   -1    0    0    0    0  0.00000000000E+00  0.00000000000E+00  0.39999999673E+01  0.40000000000E+01  0.51109989000E-03 0. -1.
     -623   -1    0    0    0    0  0.00000000000E+00  0.00000000000E+00  0.12525980253E-10  0.17130000000E+03  0.17130000000E+03 0. -1.
       11    1    1    2    0    0 -0.60427974866E-03 -0.16892766601E-02  0.62860206212E-01  0.62887880834E-01  0.51109989000E-03 0. -1.
     -623    1    1    2    0    0 -0.62126025540E-03 -0.31651935106E-04  0.14250867500E-03  0.17130000000E+03  0.17130000000E+03 0. -1.
      622    1    1    2    0    0  0.12255400041E-02  0.17209285952E-02  0.39369972525E+01  0.39371121180E+01  0.30000000000E-01 0. -1.
</event>
<event>
 5   0  0.4961200E+08  0.9118800E+02  0.7818608E-02  0.1180000E+00
       11   -1    0    0    0    0  0.00000000000E+00  0.00000000000E+00  0.39999999673E+01  0.40000000000E+01  0.51109989000E-03 0.  1.
     -623   -1    0    0    0    0  0.00000000000E+00  0.00000000000E+00  0.12525980253E-10  0.17130000000E+03  0.17130000000E+03 0.  1.
       11    1    1    2    0    0 -0.42330545320E-02 -0.28815667571E-02  0.11161631278E+01  0.11161749914E+01  0.51109989000E-03 0.  1.
     -623    1    1    2    0    0  0.11834049604E-02 -0.12303770059E-02  0.17243074762E-03  0.17130000001E+03  0.17130000000E+03 0.  1.
      622    1    1    2    0    0  0.30496495717E-02  0.41119437630E-02  0.28836644088E+01  0.28838250000E+01  0.30000000000E-01 0.  1.
</event>
<event>
 5   0  0.4961200E+08  0.9118800E+02  0.7818608E-02  0.1180000E+00
       11   -1    0    0    0    0  0.00000000000E+00  0.00000000000E+00  0.39999999673E+01  0.40000000000E+01  0.51109989000E-03 0. -1.
     -623   -1    0    0    0    0  0.00000000000E+00  0.00000000000E+00  0.12525980253E-10  0.17130000000E+03  0.17130000000E+03 0.  1.
       11    1    1    2    0    0  0.16278371653E-02  0.15344372557E-02  0.10119656462E-01  0.10376561161E-01  0.51109989000E-03 0. -1.
     -623    1    1    2    0    0 -0.29215145945E-02 -0.22683569326E-02  0.36998384303E-03  0.17130000004E+03  0.17130000000E+03 0.  1.
      622    1    1    2    0    0  0.12936774300E-02  0.73391967751E-03  0.39895103282E+01  0.39896233996E+01  0.30000000000E-01 0. -1.
</event>
<event>
 5   0  0.4961200E+08  0.9118800E+02  0.7818608E-02  0.1180000E+00
       11   -1    0    0    0    0  0.00000000000E+00  0.00000000000E+00  0.39999999673E+01  0.40000000000E+01  0.51109989000E-03 0.  1.
     -623   -1    0    0    0    0  0.00000000000E+00  0.00000000000E+00  0.12525980253E-10  0.17130000000E+03  0.17130000000E+03 0.  1.
       11    1    1    2    0    0  0.24759000964E-04  0.36581485906E-02  0.29763434962E+00  0.29765726929E+00  0.51109989000E-03 0.  1.
     -623    1    1    2    0    0 -0.54233509191E-04 -0.13014825437E-02  0.14518889279E-03  0.17130000001E+03  0.17130000000E+03 0.  1.
      622    1    1    2    0    0  0.29474508254E-04 -0.23566660462E-02  0.37022204309E+01  0.37023427277E+01  0.30000000000E-01 0.  1.
</event>
<event>
 5   0  0.4961200E+08  0.9118800E+02  0.7818608E-02  0.1180000E+00
       11   -1    0    0    0    0  0.00000000000E+00  0.00000000000E+00  0.39999999673E+01  0.40000000000E+01  0.51109989000E-03 0.  1.
     -623   -1    0    0    0    0  0.00000000000E+00  0.00000000000E+00  0.12525980253E-10  0.17130000000E+03  0.17130000000E+03 0.  1.
       11    1    1    2    0    0  0.79224266484E-02  0.11251786938E-01  0.22193825120E+00  0.22236505149E+00  0.51109989000E-03 0.  1.
     -623    1    1    2    0    0  0.12844118987E-02  0.11503137198E-02  0.57748014426E-03  0.17130000001E+03  0.17130000000E+03 0.  1.
      622    1    1    2    0    0 -0.92068385471E-02 -0.12402100658E-01  0.37774842362E+01  0.37776349390E+01  0.30000000000E-01 0.  1.
</event>
<event>
 5   0  0.4961200E+08  0.9118800E+02  0.7818608E-02  0.1180000E+00
       11   -1    0    0    0    0  0.00000000000E+00  0.00000000000E+00  0.39999999673E+01  0.40000000000E+01  0.51109989000E-03 0. -1.
     -623   -1    0    0    0    0  0.00000000000E+00  0.00000000000E+00  0.12525980253E-10  0.17130000000E+03  0.17130000000E+03 0.  1.
       11    1    1    2    0    0  0.12697544048E-02 -0.26025763127E-02  0.30798020841E-01  0.30938083140E-01  0.51109989000E-03 0. -1.
     -623    1    1    2    0    0  0.21839364991E-03  0.21941520014E-02  0.25372257712E-03  0.17130000001E+03  0.17130000000E+03 0.  1.
      622    1    1    2    0    0 -0.14881480548E-02  0.40842431129E-03  0.39689482239E+01  0.39690619025E+01  0.30000000000E-01 0. -1.
</event>
<event>
 5   0  0.4961200E+08  0.9118800E+02  0.7818608E-02  0.1180000E+00
       11   -1    0    0    0    0  0.00000000000E+00  0.00000000000E+00  0.39999999673E+01  0.40000000000E+01  0.51109989000E-03 0. -1.
     -623   -1    0    0    0    0  0.00000000000E+00  0.00000000000E+00  0.12525980253E-10  0.17130000000E+03  0.17130000000E+03 0.  1.
       11    1    1    2    0    0  0.62109447082E-03 -0.76694450429E-03  0.77813441130E-02  0.78603117952E-02  0.51109989000E-03 0. -1.
     -623    1    1    2    0    0  0.34771803104E-03  0.28671351858E-03  0.19180528440E-03  0.17130000000E+03  0.17130000000E+03 0.  1.
      622    1    1    2    0    0 -0.96881250210E-03  0.48023098551E-03  0.39920268208E+01  0.39921396903E+01  0.30000000000E-01 0. -1.
</event>
<event>
 5   0  0.4961200E+08  0.9118800E+02  0.7818608E-02  0.1180000E+00
       11   -1    0    0    0    0  0.00000000000E+00  0.00000000000E+00  0.39999999673E+01  0.40000000000E+01  0.51109989000E-03 0.  1.
     -623   -1    0    0    0    0  0.00000000000E+00  0.00000000000E+00  0.12525980253E-10  0.17130000000E+03  0.17130000000E+03 0. -1.
       11    1    1    2    0    0 -0.68591958960E-04  0.14752760548E-01  0.28748976532E+00  0.28786850303E+00  0.51109989000E-03 0.  1.
     -623    1    1    2    0    0 -0.99932005263E-02 -0.18287192697E-01  0.51651912029E-03  0.17130000127E+03  0.17130000000E+03 0. -1.
      622    1    1    2    0    0  0.10061792486E-01  0.35344321502E-02  0.37119936832E+01  0.37121302289E+01  0.30000000000E-01 0.  1.
</event>
<event>
 5   0  0.4961200E+08  0.9118800E+02  0.7818608E-02  0.1180000E+00
       11   -1    0    0    0    0  0.00000000000E+00  0.00000000000E+00  0.39999999673E+01  0.40000000000E+01  0.51109989000E-03 0. -1.
     -623   -1    0    0    0    0  0.00000000000E+00  0.00000000000E+00  0.12525980253E-10  0.17130000000E+03  0.17130000000E+03 0.  1.
       11    1    1    2    0    0  0.28993968717E-03  0.69617648388E-03  0.75147839868E-03  0.11809613034E-02  0.51109989000E-03 0. -1.
     -623    1    1    2    0    0 -0.43910973639E-03 -0.79418790245E-03  0.54199231724E-03  0.17130000000E+03  0.17130000000E+03 0.  1.
      622    1    1    2    0    0  0.14917004928E-03  0.98011418664E-04  0.39987064971E+01  0.39988190359E+01  0.30000000000E-01 0. -1.
</event>
<event>
 5   0  0.4961200E+08  0.9118800E+02  0.7818608E-02  0.1180000E+00
       11   -1    0    0    0    0  0.00000000000E+00  0.00000000000E+00  0.39999999673E+01  0.40000000000E+01  0.51109989000E-03 0. -1.
     -623   -1    0    0    0    0  0.00000000000E+00  0.00000000000E+00  0.12525980253E-10  0.17130000000E+03  0.17130000000E+03 0.  1.
       11    1    1    2    0    0 -0.34674923259E-04 -0.54771770933E-02  0.77740576324E+00  0.77742522638E+00  0.51109989000E-03 0. -1.
     -623    1    1    2    0    0 -0.39171494698E-04  0.62384229457E-05  0.16371853657E-03  0.17130000000E+03  0.17130000000E+03 0.  1.
      622    1    1    2    0    0  0.73846417958E-04  0.54709386704E-02  0.32224304856E+01  0.32225747735E+01  0.30000000000E-01 0. -1.
</event>
<event>
 5   0  0.4961200E+08  0.9118800E+02  0.7818608E-02  0.1180000E+00
       11   -1    0    0    0    0  0.00000000000E+00  0.00000000000E+00  0.39999999673E+01  0.40000000000E+01  0.51109989000E-03 0.  1.
     -623   -1    0    0    0    0  0.00000000000E+00  0.00000000000E+00  0.12525980253E-10  0.17130000000E+03  0.17130000000E+03 0.  1.
       11    1    1    2    0    0  0.68323185099E-02 -0.59138898737E-02  0.43067596330E-01  0.44008337211E-01  0.51109989000E-03 0.  1.
     -623    1    1    2    0    0 -0.28299703250E-02  0.90852712134E-02  0.10580248738E-02  0.17130000027E+03  0.17130000000E+03 0.  1.
      622    1    1    2    0    0 -0.40023481849E-02 -0.31713813397E-02  0.39558743462E+01  0.39559913952E+01  0.30000000000E-01 0.  1.
</event>
<event>
 5   0  0.4961200E+08  0.9118800E+02  0.7818608E-02  0.1180000E+00
       11   -1    0    0    0    0  0.00000000000E+00  0.00000000000E+00  0.39999999673E+01  0.40000000000E+01  0.51109989000E-03 0.  1.
     -623   -1    0    0    0    0  0.00000000000E+00  0.00000000000E+00  0.12525980253E-10  0.17130000000E+03  0.17130000000E+03 0. -1.
       11    1    1    2    0    0 -0.87419017373E-03 -0.12539231613E-02  0.30885865867E-02  0.34838372458E-02  0.51109989000E-03 0.  1.
     -623    1    1    2    0    0 -0.35331294739E-03 -0.99934504086E-03  0.50864544652E-03  0.17130000000E+03  0.17130000000E+03 0. -1.
      622    1    1    2    0    0  0.12275031212E-02  0.22532682023E-02  0.39964027361E+01  0.39965161595E+01  0.30000000000E-01 0.  1.
</event>
<event>
 5   0  0.4961200E+08  0.9118800E+02  0.7818608E-02  0.1180000E+00
       11   -1    0    0    0    0  0.00000000000E+00  0.00000000000E+00  0.39999999673E+01  0.40000000000E+01  0.51109989000E-03 0. -1.
     -623   -1    0    0    0    0  0.00000000000E+00  0.00000000000E+00  0.12525980253E-10  0.17130000000E+03  0.17130000000E+03 0. -1.
       11    1    1    2    0    0  0.11520570219E-01  0.17917304513E-01  0.15945679217E+00  0.16087412201E+00  0.51109989000E-03 0. -1.
     -623    1    1    2    0    0 -0.17536256339E-02  0.65718886475E-04  0.15890729465E-02  0.17130000002E+03  0.17130000000E+03 0. -1.
      622    1    1    2    0    0 -0.97669445853E-02 -0.17983023399E-01  0.38389541023E+01  0.38391258617E+01  0.30000000000E-01 0. -1.
</event>
<event>
 5   0  0.4961200E+08  0.9118800E+02  0.7818608E-02  0.1180000E+00
       11   -1    0    0    0    0  0.00000000000E+00  0.00000000000E+00  0.39999999673E+01  0.40000000000E+01  0.51109989000E-03 0. -1.
     -623   -1    0    0    0    0  0.00000000000E+00  0.00000000000E+00  0.12525980253E-10  0.17130000000E+03  0.17130000000E+03 0. -1.
       11    1    1    2    0    0  0.83914297989E-03  0.17474350941E-02  0.58187312947E-02  0.61543925288E-02  0.51109989000E-03 0. -1.
     -623    1    1    2    0    0 -0.12133369207E-02  0.47692879743E-03  0.44894606703E-03  0.17130000001E+03  0.17130000000E+03 0. -1.
      622    1    1    2    0    0  0.37419394077E-03 -0.22243638915E-02  0.39937322900E+01  0.39938456019E+01  0.30000000000E-01 0. -1.
</event>
<event>
 5   0  0.4961200E+08  0.9118800E+02  0.7818608E-02  0.1180000E+00
       11   -1    0    0    0    0  0.00000000000E+00  0.00000000000E+00  0.39999999673E+01  0.40000000000E+01  0.51109989000E-03 0.  1.
     -623   -1    0    0    0    0  0.00000000000E+00  0.00000000000E+00  0.12525980253E-10  0.17130000000E+03  0.17130000000E+03 0.  1.
       11    1    1    2    0    0  0.36638360362E-03  0.97373010133E-03  0.93889659326E-02  0.94602479690E-02  0.51109989000E-03 0.  1.
     -623    1    1    2    0    0  0.30628190923E-03 -0.36362526791E-03  0.18412178427E-03  0.17130000000E+03  0.17130000000E+03 0.  1.
      622    1    1    2    0    0 -0.67266551293E-03 -0.61010483333E-03  0.39904268806E+01  0.39905397523E+01  0.30000000000E-01 0.  1.
</event>
<event>
 5   0  0.4961200E+08  0.9118800E+02  0.7818608E-02  0.1180000E+00
       11   -1    0    0    0    0  0.00000000000E+00  0.00000000000E+00  0.39999999673E+01  0.40000000000E+01  0.51109989000E-03 0. -1.
     -623   -1    0    0    0    0  0.00000000000E+00  0.00000000000E+00  0.12525980253E-10  0.17130000000E+03  0.17130000000E+03 0.  1.
       11    1    1    2    0    0 -0.15274730716E-01  0.93081931676E-03  0.33491190230E+00  0.33526172962E+00  0.51109989000E-03 0. -1.
     -623    1    1    2    0    0 -0.72946270313E-03 -0.29522183683E-03  0.50759337425E-03  0.17130000000E+03  0.17130000000E+03 0.  1.
      622    1    1    2    0    0  0.16004193419E-01 -0.63559747993E-03  0.36645804717E+01  0.36647382678E+01  0.30000000000E-01 0. -1.
</event>
<event>
 5   0  0.4961200E+08  0.9118800E+02  0.7818608E-02  0.1180000E+00
       11   -1    0    0    0    0  0.00000000000E+00  0.00000000000E+00  0.39999999673E+01  0.40000000000E+01  0.51109989000E-03 0. -1.
     -623   -1    0    0    0    0  0.00000000000E+00  0.00000000000E+00  0.12525980253E-10  0.17130000000E+03  0.17130000000E+03 0. -1.
       11    1    1    2    0    0  0.12974067550E-02  0.74804502742E-03  0.32461568690E+00  0.32461954383E+00  0.51109989000E-03 0. -1.
     -623    1    1    2    0    0  0.35679201534E-03 -0.60669083138E-02  0.13059151925E-03  0.17130000011E+03  0.17130000000E+03 0. -1.
      622    1    1    2    0    0 -0.16541987704E-02  0.53188632864E-02  0.36752536889E+01  0.36753803483E+01  0.30000000000E-01 0. -1.
</event>
<event>
 5   0  0.4961200E+08  0.9118800E+02  0.7818608E-02  0.1180000E+00
       11   -1    0    0    0    0  0.00000000000E+00  0.00000000000E+00  0.39999999673E+01  0.40000000000E+01  0.51109989000E-03 0. -1.
     -623   -1    0    0    0    0  0.00000000000E+00  0.00000000000E+00  0.12525980253E-10  0.17130000000E+03  0.17130000000E+03 0.  1.
       11    1    1    2    0    0 -0.68146469573E-02  0.21420527372E-01  0.69178830492E+00  0.69215359456E+00  0.51109989000E-03 0. -1.
     -623    1    1    2    0    0 -0.29474581973E-02  0.12763158228E-02  0.59360851901E-03  0.17130000003E+03  0.17130000000E+03 0.  1.
      622    1    1    2    0    0  0.97621051546E-02 -0.22696843194E-01  0.33076180539E+01  0.33078463743E+01  0.30000000000E-01 0. -1.
</event>
<event>
 5   0  0.4961200E+08  0.9118800E+02  0.7818608E-02  0.1180000E+00
       11   -1    0    0    0    0  0.00000000000E+00  0.00000000000E+00  0.39999999673E+01  0.40000000000E+01  0.51109989000E-03 0.  1.
     -623   -1    0    0    0    0  0.00000000000E+00  0.00000000000E+00  0.12525980253E-10  0.17130000000E+03  0.17130000000E+03 0.  1.
       11    1    1    2    0    0  0.34618984581E-03 -0.72129947518E-03  0.55355861874E-03  0.10989861620E-02  0.51109989000E-03 0.  1.
     -623    1    1    2    0    0 -0.14723061310E-02  0.16304276675E-02  0.65820466617E-03  0.17130000002E+03  0.17130000000E+03 0.  1.
      622    1    1    2    0    0  0.11261162851E-02 -0.90912819222E-03  0.39987882038E+01  0.39989009982E+01  0.30000000000E-01 0.  1.
</event>
<event>
 5   0  0.4961200E+08  0.9118800E+02  0.7818608E-02  0.1180000E+00
       11   -1    0    0    0    0  0.00000000000E+00  0.00000000000E+00  0.39999999673E+01  0.40000000000E+01  0.51109989000E-03 0. -1.
     -623   -1    0    0    0    0  0.00000000000E+00  0.00000000000E+00  0.12525980253E-10  0.17130000000E+03  0.17130000000E+03 0.  1.
       11    1    1    2    0    0 -0.10603087224E-02 -0.15547618517E-01  0.95145290441E+00  0.95158065513E+00  0.51109989000E-03 0. -1.
     -623    1    1    2    0    0  0.34586116335E-02  0.89466741255E-02  0.28369849344E-03  0.17130000027E+03  0.17130000000E+03 0.  1.
      622    1    1    2    0    0 -0.23983029111E-02  0.66009443918E-02  0.30482633645E+01  0.30484190761E+01  0.30000000000E-01 0.  0.
</event>
<event>
 5   0  0.4961200E+08  0.9118800E+02  0.7818608E-02  0.1180000E+00
       11   -1    0    0    0    0  0.00000000000E+00  0.00000000000E+00  0.39999999673E+01  0.40000000000E+01  0.51109989000E-03 0.  1.
     -623   -1    0    0    0    0  0.00000000000E+00  0.00000000000E+00  0.12525980253E-10  0.17130000000E+03  0.17130000000E+03 0. -1.
       11    1    1    2    0    0 -0.75464976765E-02  0.56396945432E-02  0.84280355614E+00  0.84285636454E+00  0.51109989000E-03 0.  1.
     -623    1    1    2    0    0  0.13627629221E-03  0.13577109723E-03  0.20929277077E-03  0.17130000000E+03  0.17130000000E+03 0. -1.
      622    1    1    2    0    0  0.74102213843E-02 -0.57754656404E-02  0.31569871185E+01  0.31571436352E+01  0.30000000000E-01 0.  1.
</event>
<event>
 5   0  0.4961200E+08  0.9118800E+02  0.7818608E-02  0.1180000E+00
       11   -1    0    0    0    0  0.00000000000E+00  0.00000000000E+00  0.39999999673E+01  0.40000000000E+01  0.51109989000E-03 0.  1.
     -623   -1    0    0    0    0  0.00000000000E+00  0.00000000000E+00  0.12525980253E-10  0.17130000000E+03  0.17130000000E+03 0.  1.
       11    1    1    2    0    0  0.75055420212E-02 -0.13351191300E-03  0.16009789331E+00  0.16027460076E+00  0.51109989000E-03 0.  1.
     -623    1    1    2    0    0 -0.34864516764E-02  0.18754459911E-02  0.29641710335E-03  0.17130000005E+03  0.17130000000E+03 0.  1.
      622    1    1    2    0    0 -0.40190903448E-02 -0.17419340781E-02  0.38396056569E+01  0.38397253532E+01  0.30000000000E-01 0.  1.
</event>
<event>
 5   0  0.4961200E+08  0.9118800E+02  0.7818608E-02  0.1180000E+00
       11   -1    0    0    0    0  0.00000000000E+00  0.00000000000E+00  0.39999999673E+01  0.40000000000E+01  0.51109989000E-03 0. -1.
     -623   -1    0    0    0    0  0.00000000000E+00  0.00000000000E+00  0.12525980253E-10  0.17130000000E+03  0.17130000000E+03 0. -1.
       11    1    1    2    0    0  0.30641893576E-02  0.13379314928E-02  0.34195478500E+00  0.34197151274E+00  0.51109989000E-03 0. -1.
     -623    1    1    2    0    0  0.46567629422E-02 -0.26159888439E-02  0.14816940351E-03  0.17130000008E+03  0.17130000000E+03 0. -1.
      622    1    1    2    0    0 -0.77209523025E-02  0.12780573526E-02  0.36578970153E+01  0.36580284063E+01  0.30000000000E-01 0. -1.
</event>
<event>
 5   0  0.4961200E+08  0.9118800E+02  0.7818608E-02  0.1180000E+00
       11   -1    0    0    0    0  0.00000000000E+00  0.00000000000E+00  0.39999999673E+01  0.40000000000E+01  0.51109989000E-03 0. -1.
     -623   -1    0    0    0    0  0.00000000000E+00  0.00000000000E+00  0.12525980253E-10  0.17130000000E+03  0.17130000000E+03 0.  1.
       11    1    1    2    0    0 -0.60594668686E-03  0.14738700583E-02  0.28406861559E-01  0.28456114828E-01  0.51109989000E-03 0. -1.
     -623    1    1    2    0    0  0.10229211256E-02 -0.25370018560E-04  0.16281748589E-03  0.17130000000E+03  0.17130000000E+03 0.  1.
      622    1    1    2    0    0 -0.41697443993E-03 -0.14485000397E-02  0.39714302930E+01  0.39715438867E+01  0.30000000000E-01 0. -1.
</event>
<event>
 5   0  0.4961200E+08  0.9118800E+02  0.7818608E-02  0.1180000E+00
       11   -1    0    0    0    0  0.00000000000E+00  0.00000000000E+00  0.39999999673E+01  0.40000000000E+01  0.51109989000E-03 0.  1.
     -623   -1    0    0    0    0  0.00000000000E+00  0.00000000000E+00  0.12525980253E-10  0.17130000000E+03  0.17130000000E+03 0. -1.
       11    1    1    2    0    0 -0.23932909823E-02  0.12736907998E-03  0.17724195052E-01  0.17892802406E-01  0.51109989000E-03 0.  1.
     -623    1    1    2    0    0  0.41462666094E-02 -0.95384060327E-03  0.28210650317E-03  0.17130000005E+03  0.17130000000E+03 0. -1.
      622    1    1    2    0    0 -0.17529756273E-02  0.82647152333E-03  0.39819936660E+01  0.39821071447E+01  0.30000000000E-01 0.  1.
</event>
<event>
 5   0  0.4961200E+08  0.9118800E+02  0.7818608E-02  0.1180000E+00
       11   -1    0    0    0    0  0.00000000000E+00  0.00000000000E+00  0.39999999673E+01  0.40000000000E+01  0.51109989000E-03 0.  1.
     -623   -1    0    0    0    0  0.00000000000E+00  0.00000000000E+00  0.12525980253E-10  0.17130000000E+03  0.17130000000E+03 0. -1.
       11    1    1    2    0    0 -0.16966606837E-02  0.75700365069E-03  0.11969489347E+00  0.11971040246E+00  0.51109989000E-03 0.  1.
     -623    1    1    2    0    0  0.30068988677E-02  0.18993950282E-02  0.13261629310E-03  0.17130000004E+03  0.17130000000E+03 0. -1.
      622    1    1    2    0    0 -0.13102381841E-02 -0.26563986789E-02  0.38801724576E+01  0.38802895606E+01  0.30000000000E-01 0.  1.
</event>
<event>
 5   0  0.4961200E+08  0.9118800E+02  0.7818608E-02  0.1180000E+00
       11   -1    0    0    0    0  0.00000000000E+00  0.00000000000E+00  0.39999999673E+01  0.40000000000E+01  0.51109989000E-03 0. -1.
     -623   -1    0    0    0    0  0.00000000000E+00  0.00000000000E+00  0.12525980253E-10  0.17130000000E+03  0.17130000000E+03 0. -1.
       11    1    1    2    0    0 -0.14216443863E-02  0.41929973596E-02  0.57420237383E-02  0.72687247388E-02  0.51109989000E-03 0. -1.
     -623    1    1    2    0    0  0.30020945983E-02  0.14996778775E-02  0.16437866305E-02  0.17130000004E+03  0.17130000000E+03 0. -1.
      622    1    1    2    0    0 -0.15804502122E-02 -0.56926752372E-02  0.39926141572E+01  0.39927312347E+01  0.30000000000E-01 0. -1.
</event>
<event>
 5   0  0.4961200E+08  0.9118800E+02  0.7818608E-02  0.1180000E+00
       11   -1    0    0    0    0  0.00000000000E+00  0.00000000000E+00  0.39999999673E+01  0.40000000000E+01  0.51109989000E-03 0.  1.
     -623   -1    0    0    0    0  0.00000000000E+00  0.00000000000E+00  0.12525980253E-10  0.17130000000E+03  0.17130000000E+03 0. -1.
       11    1    1    2    0    0 -0.56780565685E-02  0.92446525575E-02  0.18535753570E+00  0.18567547278E+00  0.51109989000E-03 0.  1.
     -623    1    1    2    0    0  0.27390265008E-02 -0.19000438880E-01  0.45056766010E-03  0.17130000108E+03  0.17130000000E+03 0. -1.
      622    1    1    2    0    0  0.29390300679E-02  0.97557863207E-02  0.38141918636E+01  0.38143234506E+01  0.30000000000E-01 0.  1.
</event>
<event>
 5   0  0.4961200E+08  0.9118800E+02  0.7818608E-02  0.1180000E+00
       11   -1    0    0    0    0  0.00000000000E+00  0.00000000000E+00  0.39999999673E+01  0.40000000000E+01  0.51109989000E-03 0. -1.
     -623   -1    0    0    0    0  0.00000000000E+00  0.00000000000E+00  0.12525980253E-10  0.17130000000E+03  0.17130000000E+03 0.  1.
       11    1    1    2    0    0  0.17702667253E-02  0.12537058498E-03  0.61313021180E-01  0.61340829396E-01  0.51109989000E-03 0. -1.
     -623    1    1    2    0    0  0.42960827829E-03 -0.72161243419E-03  0.14269093236E-03  0.17130000000E+03  0.17130000000E+03 0.  1.
      622    1    1    2    0    0 -0.21998750036E-02  0.59624184921E-03  0.39385442552E+01  0.39386591685E+01  0.30000000000E-01 0. -1.
</event>
<event>
 5   0  0.4961200E+08  0.9118800E+02  0.7818608E-02  0.1180000E+00
       11   -1    0    0    0    0  0.00000000000E+00  0.00000000000E+00  0.39999999673E+01  0.40000000000E+01  0.51109989000E-03 0.  1.
     -623   -1    0    0    0    0  0.00000000000E+00  0.00000000000E+00  0.12525980253E-10  0.17130000000E+03  0.17130000000E+03 0. -1.
       11    1    1    2    0    0 -0.16919877735E-02 -0.36116230817E-02  0.14180870752E+00  0.14186570196E+00  0.51109989000E-03 0.  1.
     -623    1    1    2    0    0  0.51417872482E-03  0.15978478044E-03  0.17532518470E-03  0.17130000000E+03  0.17130000000E+03 0. -1.
      622    1    1    2    0    0  0.11778090487E-02  0.34518383012E-02  0.38580159347E+01  0.38581342971E+01  0.30000000000E-01 0.  1.
</event>
<event>
 5   0  0.4961200E+08  0.9118800E+02  0.7818608E-02  0.1180000E+00
       11   -1    0    0    0    0  0.00000000000E+00  0.00000000000E+00  0.39999999673E+01  0.40000000000E+01  0.51109989000E-03 0.  1.
     -623   -1    0    0    0    0  0.00000000000E+00  0.00000000000E+00  0.12525980253E-10  0.17130000000E+03  0.17130000000E+03 0.  1.
       11    1    1    2    0    0 -0.64082481308E-03 -0.26516144876E-02  0.23639777435E-01  0.23802143099E-01  0.51109989000E-03 0.  1.
     -623    1    1    2    0    0  0.14324941404E-02  0.21922523721E-02  0.27563366622E-03  0.17130000002E+03  0.17130000000E+03 0.  1.
      622    1    1    2    0    0 -0.79166932703E-03  0.45936211592E-03  0.39760845555E+01  0.39761978359E+01  0.30000000000E-01 0.  1.
</event>
<event>
 5   0  0.4961200E+08  0.9118800E+02  0.7818608E-02  0.1180000E+00
       11   -1    0    0    0    0  0.00000000000E+00  0.00000000000E+00  0.39999999673E+01  0.40000000000E+01  0.51109989000E-03 0. -1.
     -623   -1    0    0    0    0  0.00000000000E+00  0.00000000000E+00  0.12525980253E-10  0.17130000000E+03  0.17130000000E+03 0.  1.
       11    1    1    2    0    0 -0.58843721517E-03  0.55545684850E-03  0.23279174336E-01  0.23298840562E-01  0.51109989000E-03 0. -1.
     -623    1    1    2    0    0 -0.10681757436E-02 -0.33142674346E-03  0.13314939398E-03  0.17130000000E+03  0.17130000000E+03 0.  1.
      622    1    1    2    0    0  0.16566129586E-02 -0.22403010510E-03  0.39765876429E+01  0.39767011551E+01  0.30000000000E-01 0. -1.
</event>
<event>
 5   0  0.4961200E+08  0.9118800E+02  0.7818608E-02  0.1180000E+00
       11   -1    0    0    0    0  0.00000000000E+00  0.00000000000E+00  0.39999999673E+01  0.40000000000E+01  0.51109989000E-03 0. -1.
     -623   -1    0    0    0    0  0.00000000000E+00  0.00000000000E+00  0.12525980253E-10  0.17130000000E+03  0.17130000000E+03 0. -1.
       11    1    1    2    0    0  0.53148801348E-03  0.74308931061E-03  0.40723415715E-01  0.40736868675E-01  0.51109989000E-03 0. -1.
     -623    1    1    2    0    0  0.10899309812E-03 -0.26707019591E-04  0.12719616693E-03  0.17130000000E+03  0.17130000000E+03 0. -1.
      622    1    1    2    0    0 -0.64048111160E-03 -0.71638229102E-03  0.39591493555E+01  0.39592631312E+01  0.30000000000E-01 0. -1.
</event>
<event>
 5   0  0.4961200E+08  0.9118800E+02  0.7818608E-02  0.1180000E+00
       11   -1    0    0    0    0  0.00000000000E+00  0.00000000000E+00  0.39999999673E+01  0.40000000000E+01  0.51109989000E-03 0.  1.
     -623   -1    0    0    0    0  0.00000000000E+00  0.00000000000E+00  0.12525980253E-10  0.17130000000E+03  0.17130000000E+03 0. -1.
       11    1    1    2    0    0 -0.48789883430E-02  0.85232301435E-02  0.75866951162E-01  0.76501669778E-01  0.51109989000E-03 0. -1.
     -623    1    1    2    0    0  0.24681449567E-02 -0.68170561979E-02  0.75064798297E-03  0.17130000016E+03  0.17130000000E+03 0. -1.
      622    1    1    2    0    0  0.24108433863E-02 -0.17061739457E-02  0.39233823682E+01  0.39234981752E+01  0.30000000000E-01 0.  1.
</event>
<event>
 5   0  0.4961200E+08  0.9118800E+02  0.7818608E-02  0.1180000E+00
       11   -1    0    0    0    0  0.00000000000E+00  0.00000000000E+00  0.39999999673E+01  0.40000000000E+01  0.51109989000E-03 0.  1.
     -623   -1    0    0    0    0  0.00000000000E+00  0.00000000000E+00  0.12525980253E-10  0.17130000000E+03  0.17130000000E+03 0. -1.
       11    1    1    2    0    0  0.18632955289E-01  0.17634210577E-01  0.73159998193E+00  0.73204982562E+00  0.51109989000E-03 0.  1.
     -623    1    1    2    0    0  0.41390541232E-02 -0.19519869422E-01  0.66856779331E-03  0.17130000116E+03  0.17130000000E+03 0. -1.
      622    1    1    2    0    0 -0.22772009412E-01  0.18856588485E-02  0.32677314183E+01  0.32679490115E+01  0.30000000000E-01 0.  1.
</event>
<event>
 5   0  0.4961200E+08  0.9118800E+02  0.7818608E-02  0.1180000E+00
       11   -1    0    0    0    0  0.00000000000E+00  0.00000000000E+00  0.39999999673E+01  0.40000000000E+01  0.51109989000E-03 0. -1.
     -623   -1    0    0    0    0  0.00000000000E+00  0.00000000000E+00  0.12525980253E-10  0.17130000000E+03  0.17130000000E+03 0. -1.
       11    1    1    2    0    0 -0.54286981002E-03 -0.17693210450E-03  0.56765993275E-02  0.57280900501E-02  0.51109989000E-03 0.  1.
     -623    1    1    2    0    0 -0.11076427508E-02 -0.22435738513E-04  0.16447066419E-03  0.17130000000E+03  0.17130000000E+03 0. -1.
      622    1    1    2    0    0  0.16505125611E-02  0.19936784301E-03  0.39941588980E+01  0.39942719070E+01  0.30000000000E-01 0. -1.
</event>
<event>
 5   0  0.4961200E+08  0.9118800E+02  0.7818608E-02  0.1180000E+00
       11   -1    0    0    0    0  0.00000000000E+00  0.00000000000E+00  0.39999999673E+01  0.40000000000E+01  0.51109989000E-03 0.  1.
     -623   -1    0    0    0    0  0.00000000000E+00  0.00000000000E+00  0.12525980253E-10  0.17130000000E+03  0.17130000000E+03 0. -1.
       11    1    1    2    0    0 -0.39609166531E-01  0.47931125572E-01  0.82458899395E+00  0.82693019599E+00  0.51109989000E-03 0.  1.
     -623    1    1    2    0    0  0.20950421794E-01 -0.15933985331E-01  0.27012408704E-02  0.17130000204E+03  0.17130000000E+03 0. -1.
      622    1    1    2    0    0  0.18658744737E-01 -0.31997140241E-01  0.31727097326E+01  0.31730677605E+01  0.30000000000E-01 0.  1.
</event>
<event>
 5   0  0.4961200E+08  0.9118800E+02  0.7818608E-02  0.1180000E+00
       11   -1    0    0    0    0  0.00000000000E+00  0.00000000000E+00  0.39999999673E+01  0.40000000000E+01  0.51109989000E-03 0. -1.
     -623   -1    0    0    0    0  0.00000000000E+00  0.00000000000E+00  0.12525980253E-10  0.17130000000E+03  0.17130000000E+03 0. -1.
       11    1    1    2    0    0  0.35986511663E-04  0.18091274543E-03  0.22195849228E-02  0.22851268625E-02  0.51109989000E-03 0. -1.
     -623    1    1    2    0    0 -0.52767646212E-03 -0.19248977657E-03  0.17810645855E-03  0.17130000000E+03  0.17130000000E+03 0. -1.
      622    1    1    2    0    0  0.49168995044E-03  0.11577031140E-04  0.39976022759E+01  0.39977148720E+01  0.30000000000E-01 0. -1.
</event>
<event>
 5   0  0.4961200E+08  0.9118800E+02  0.7818608E-02  0.1180000E+00
       11   -1    0    0    0    0  0.00000000000E+00  0.00000000000E+00  0.39999999673E+01  0.40000000000E+01  0.51109989000E-03 0.  1.
     -623   -1    0    0    0    0  0.00000000000E+00  0.00000000000E+00  0.12525980253E-10  0.17130000000E+03  0.17130000000E+03 0.  1.
       11    1    1    2    0    0  0.24472242077E-02  0.68867782876E-02  0.75954990484E-01  0.76307525344E-01  0.51109989000E-03 0.  1.
     -623    1    1    2    0    0  0.23240385856E-02 -0.59027234794E-02  0.47033434507E-03  0.17130000012E+03  0.17130000000E+03 0.  1.
      622    1    1    2    0    0 -0.47712627941E-02 -0.98405480644E-03  0.39235746438E+01  0.39236923578E+01  0.30000000000E-01 0.  1.
</event>
<event>
 5   0  0.4961200E+08  0.9118800E+02  0.7818608E-02  0.1180000E+00
       11   -1    0    0    0    0  0.00000000000E+00  0.00000000000E+00  0.39999999673E+01  0.40000000000E+01  0.51109989000E-03 0.  1.
     -623   -1    0    0    0    0  0.00000000000E+00  0.00000000000E+00  0.12525980253E-10  0.17130000000E+03  0.17130000000E+03 0. -1.
       11    1    1    2    0    0  0.26397523440E-03 -0.23334452701E-03  0.27449243820E-03  0.67875016674E-03  0.51109989000E-03 0.  1.
     -623    1    1    2    0    0 -0.78541571285E-03  0.16398053821E-03  0.51678301884E-03  0.17130000000E+03  0.17130000000E+03 0. -1.
      622    1    1    2    0    0  0.52144047846E-03  0.69363988800E-04  0.39992086920E+01  0.39993212472E+01  0.30000000000E-01 0.  1.
</event>
<event>
 5   0  0.4961200E+08  0.9118800E+02  0.7818608E-02  0.1180000E+00
       11   -1    0    0    0    0  0.00000000000E+00  0.00000000000E+00  0.39999999673E+01  0.40000000000E+01  0.51109989000E-03 0.  1.
     -623   -1    0    0    0    0  0.00000000000E+00  0.00000000000E+00  0.12525980253E-10  0.17130000000E+03  0.17130000000E+03 0.  1.
       11    1    1    2    0    0  0.50742547975E-01 -0.39469917543E-01  0.11658855512E+01  0.11676566534E+01  0.51109989000E-03 0.  1.
     -623    1    1    2    0    0 -0.64766137011E-02  0.65902011929E-02  0.24670560689E-02  0.17130000027E+03  0.17130000000E+03 0.  1.
      622    1    1    2    0    0 -0.44265934274E-01  0.32879716350E-01  0.28316473600E+01  0.28323430795E+01  0.30000000000E-01 0.  0.
</event>
<event>
 5   0  0.4961200E+08  0.9118800E+02  0.7818608E-02  0.1180000E+00
       11   -1    0    0    0    0  0.00000000000E+00  0.00000000000E+00  0.39999999673E+01  0.40000000000E+01  0.51109989000E-03 0. -1.
     -623   -1    0    0    0    0  0.00000000000E+00  0.00000000000E+00  0.12525980253E-10  0.17130000000E+03  0.17130000000E+03 0.  1.
       11    1    1    2    0    0  0.47791230647E-03 -0.83498800611E-04  0.19506032365E-01  0.19518757440E-01  0.51109989000E-03 0. -1.
     -623    1    1    2    0    0 -0.32644024770E-03 -0.59657737611E-03  0.12580807361E-03  0.17130000000E+03  0.17130000000E+03 0.  1.
      622    1    1    2    0    0 -0.15147205877E-03  0.68007617672E-03  0.39803681269E+01  0.39804812412E+01  0.30000000000E-01 0. -1.
</event>
<event>
 5   0  0.4961200E+08  0.9118800E+02  0.7818608E-02  0.1180000E+00
       11   -1    0    0    0    0  0.00000000000E+00  0.00000000000E+00  0.39999999673E+01  0.40000000000E+01  0.51109989000E-03 0. -1.
     -623   -1    0    0    0    0  0.00000000000E+00  0.00000000000E+00  0.12525980253E-10  0.17130000000E+03  0.17130000000E+03 0.  1.
       11    1    1    2    0    0 -0.67396136619E-02 -0.26895129590E-03  0.11070894837E+01  0.11071101485E+01  0.51109989000E-03 0. -1.
     -623    1    1    2    0    0 -0.68580994027E-03  0.61741218655E-03  0.18574395203E-03  0.17130000000E+03  0.17130000000E+03 0.  1.
      622    1    1    2    0    0  0.74254236020E-02 -0.34846089050E-03  0.28927247387E+01  0.28928898480E+01  0.30000000000E-01 0.  1.
</event>
<event>
 5   0  0.4961200E+08  0.9118800E+02  0.7818608E-02  0.1180000E+00
       11   -1    0    0    0    0  0.00000000000E+00  0.00000000000E+00  0.39999999673E+01  0.40000000000E+01  0.51109989000E-03 0.  1.
     -623   -1    0    0    0    0  0.00000000000E+00  0.00000000000E+00  0.12525980253E-10  0.17130000000E+03  0.17130000000E+03 0.  1.
       11    1    1    2    0    0 -0.29678482472E-02  0.16561264996E-02  0.61660728945E-01  0.61756437672E-01  0.51109989000E-03 0. -1.
     -623    1    1    2    0    0  0.45963098524E-03 -0.40842344316E-03  0.21093951555E-03  0.17130000000E+03  0.17130000000E+03 0.  1.
      622    1    1    2    0    0  0.25082172620E-02 -0.12477030564E-02  0.39381282989E+01  0.39382435611E+01  0.30000000000E-01 0.  1.
</event>
<event>
 5   0  0.4961200E+08  0.9118800E+02  0.7818608E-02  0.1180000E+00
       11   -1    0    0    0    0  0.00000000000E+00  0.00000000000E+00  0.39999999673E+01  0.40000000000E+01  0.51109989000E-03 0.  1.
     -623   -1    0    0    0    0  0.00000000000E+00  0.00000000000E+00  0.12525980253E-10  0.17130000000E+03  0.17130000000E+03 0. -1.
       11    1    1    2    0    0 -0.54362534196E-03 -0.11183462265E-02  0.28205353389E-01  0.28237376073E-01  0.51109989000E-03 0.  1.
     -623    1    1    2    0    0  0.55209789227E-03  0.46349977319E-04  0.14543712196E-03  0.17130000000E+03  0.17130000000E+03 0. -1.
      622    1    1    2    0    0 -0.84725503072E-05  0.10719962492E-02  0.39716491768E+01  0.39717626230E+01  0.30000000000E-01 0.  1.
</event>
<event>
 5   0  0.4961200E+08  0.9118800E+02  0.7818608E-02  0.1180000E+00
       11   -1    0    0    0    0  0.00000000000E+00  0.00000000000E+00  0.39999999673E+01  0.40000000000E+01  0.51109989000E-03 0. -1.
     -623   -1    0    0    0    0  0.00000000000E+00  0.00000000000E+00  0.12525980253E-10  0.17130000000E+03  0.17130000000E+03 0. -1.
       11    1    1    2    0    0 -0.12079813288E-02 -0.37572518743E-04  0.61666281530E+00  0.61666421140E+00  0.51109989000E-03 0. -1.
     -623    1    1    2    0    0  0.13128392284E-04  0.81484462950E-04  0.13458225932E-03  0.17130000000E+03  0.17130000000E+03 0. -1.
      622    1    1    2    0    0  0.11948529365E-02 -0.43911944207E-04  0.33832025698E+01  0.33833357885E+01  0.30000000000E-01 0. -1.
</event>
<event>
 5   0  0.4961200E+08  0.9118800E+02  0.7818608E-02  0.1180000E+00
       11   -1    0    0    0    0  0.00000000000E+00  0.00000000000E+00  0.39999999673E+01  0.40000000000E+01  0.51109989000E-03 0.  1.
     -623   -1    0    0    0    0  0.00000000000E+00  0.00000000000E+00  0.12525980253E-10  0.17130000000E+03  0.17130000000E+03 0.  1.
       11    1    1    2    0    0  0.85772768729E-02  0.17717395956E-01  0.48214048155E+00  0.48254241365E+00  0.51109989000E-03 0.  1.
     -623    1    1    2    0    0 -0.24587110682E-01 -0.14863955619E-01  0.56983918706E-03  0.17130000241E+03  0.17130000000E+03 0.  1.
      622    1    1    2    0    0  0.16009833809E-01 -0.28534403375E-02  0.35172896466E+01  0.35174551760E+01  0.30000000000E-01 0.  1.
</event>
<event>
 5   0  0.4961200E+08  0.9118800E+02  0.7818608E-02  0.1180000E+00
       11   -1    0    0    0    0  0.00000000000E+00  0.00000000000E+00  0.39999999673E+01  0.40000000000E+01  0.51109989000E-03 0.  1.
     -623   -1    0    0    0    0  0.00000000000E+00  0.00000000000E+00  0.12525980253E-10  0.17130000000E+03  0.17130000000E+03 0.  1.
       11    1    1    2    0    0  0.48312127658E-02  0.31573623398E-02  0.52175441202E-01  0.52496165969E-01  0.51109989000E-03 0.  1.
     -623    1    1    2    0    0 -0.22366872882E-02 -0.29150031147E-03  0.43659825868E-03  0.17130000002E+03  0.17130000000E+03 0.  1.
      622    1    1    2    0    0 -0.25945254777E-02 -0.28658620284E-02  0.39473879278E+01  0.39475038185E+01  0.30000000000E-01 0.  1.
</event>
<event>
 5   0  0.4961200E+08  0.9118800E+02  0.7818608E-02  0.1180000E+00
       11   -1    0    0    0    0  0.00000000000E+00  0.00000000000E+00  0.39999999673E+01  0.40000000000E+01  0.51109989000E-03 0.  1.
     -623   -1    0    0    0    0  0.00000000000E+00  0.00000000000E+00  0.12525980253E-10  0.17130000000E+03  0.17130000000E+03 0. -1.
       11    1    1    2    0    0 -0.13200997841E-02  0.87991770930E-03  0.15008400017E-01  0.15100669282E-01  0.51109989000E-03 0.  1.
     -623    1    1    2    0    0  0.99785970252E-03 -0.54668832604E-03  0.20519540563E-03  0.17130000000E+03  0.17130000000E+03 0. -1.
      622    1    1    2    0    0  0.32224008130E-03 -0.33322938310E-03  0.39847863731E+01  0.39848993280E+01  0.30000000000E-01 0.  1.
</event>
<event>
 5   0  0.4961200E+08  0.9118800E+02  0.7818608E-02  0.1180000E+00
       11   -1    0    0    0    0  0.00000000000E+00  0.00000000000E+00  0.39999999673E+01  0.40000000000E+01  0.51109989000E-03 0. -1.
     -623   -1    0    0    0    0  0.00000000000E+00  0.00000000000E+00  0.12525980253E-10  0.17130000000E+03  0.17130000000E+03 0.  1.
       11    1    1    2    0    0  0.34506546152E-01 -0.25146645238E-01  0.47104464665E+00  0.47297608380E+00  0.51109989000E-03 0. -1.
     -623    1    1    2    0    0 -0.14437864344E-01  0.41776042714E-01  0.21610122109E-02  0.17130000572E+03  0.17130000000E+03 0.  1.
      622    1    1    2    0    0 -0.20068681808E-01 -0.16629397476E-01  0.35267943085E+01  0.35270182000E+01  0.30000000000E-01 0. -1.
</event>
<event>
 5   0  0.4961200E+08  0.9118800E+02  0.7818608E-02  0.1180000E+00
       11   -1    0    0    0    0  0.00000000000E+00  0.00000000000E+00  0.39999999673E+01  0.40000000000E+01  0.51109989000E-03 0. -1.
     -623   -1    0    0    0    0  0.00000000000E+00  0.00000000000E+00  0.12525980253E-10  0.17130000000E+03  0.17130000000E+03 0. -1.
       11    1    1    2    0    0 -0.88342711565E-02 -0.92438034885E-02  0.71142080424E+00  0.71153588397E+00  0.51109989000E-03 0. -1.
     -623    1    1    2    0    0 -0.69151058523E-03  0.83302352449E-04  0.27845054541E-03  0.17130000000E+03  0.17130000000E+03 0. -1.
      622    1    1    2    0    0  0.95257817417E-02  0.91605011360E-02  0.32883007126E+01  0.32884641144E+01  0.30000000000E-01 0.  0.
</event>
<event>
 5   0  0.4961200E+08  0.9118800E+02  0.7818608E-02  0.1180000E+00
       11   -1    0    0    0    0  0.00000000000E+00  0.00000000000E+00  0.39999999673E+01  0.40000000000E+01  0.51109989000E-03 0.  1.
     -623   -1    0    0    0    0  0.00000000000E+00  0.00000000000E+00  0.12525980253E-10  0.17130000000E+03  0.17130000000E+03 0.  1.
       11    1    1    2    0    0 -0.25834565455E-03  0.21535800357E-02  0.35778836919E-01  0.35848166533E-01  0.51109989000E-03 0.  1.
     -623    1    1    2    0    0  0.46975834884E-03 -0.63493775271E-03  0.18311440299E-03  0.17130000000E+03  0.17130000000E+03 0.  1.
      622    1    1    2    0    0 -0.21141269439E-03 -0.15186422828E-02  0.39640380169E+01  0.39641518324E+01  0.30000000000E-01 0.  1.
</event>
<event>
 5   0  0.4961200E+08  0.9118800E+02  0.7818608E-02  0.1180000E+00
       11   -1    0    0    0    0  0.00000000000E+00  0.00000000000E+00  0.39999999673E+01  0.40000000000E+01  0.51109989000E-03 0. -1.
     -623   -1    0    0    0    0  0.00000000000E+00  0.00000000000E+00  0.12525980253E-10  0.17130000000E+03  0.17130000000E+03 0.  1.
       11    1    1    2    0    0  0.21468283467E-02 -0.61216068342E-03  0.48807740473E-01  0.48861440471E-01  0.51109989000E-03 0. -1.
     -623    1    1    2    0    0  0.32269566449E-03  0.33904079979E-02  0.16934272186E-03  0.17130000003E+03  0.17130000000E+03 0.  1.
      622    1    1    2    0    0 -0.24695240112E-02 -0.27782473145E-02  0.39510228842E+01  0.39511385256E+01  0.30000000000E-01 0. -1.
</event>
<event>
 5   0  0.4961200E+08  0.9118800E+02  0.7818608E-02  0.1180000E+00
       11   -1    0    0    0    0  0.00000000000E+00  0.00000000000E+00  0.39999999673E+01  0.40000000000E+01  0.51109989000E-03 0.  1.
     -623   -1    0    0    0    0  0.00000000000E+00  0.00000000000E+00  0.12525980253E-10  0.17130000000E+03  0.17130000000E+03 0.  1.
       11    1    1    2    0    0 -0.39969867181E-02 -0.91992819845E-02  0.53481086458E+00  0.53490515495E+00  0.51109989000E-03 0.  1.
     -623    1    1    2    0    0 -0.34937933168E-02  0.27160917253E-02  0.23834636423E-03  0.17130000006E+03  0.17130000000E+03 0.  1.
      622    1    1    2    0    0  0.74907800354E-02  0.64831902589E-02  0.34649507569E+01  0.34650947882E+01  0.30000000000E-01 0.  1.
</event>
<event>
 5   0  0.4961200E+08  0.9118800E+02  0.7818608E-02  0.1180000E+00
       11   -1    0    0    0    0  0.00000000000E+00  0.00000000000E+00  0.39999999673E+01  0.40000000000E+01  0.51109989000E-03 0.  1.
     -623   -1    0    0    0    0  0.00000000000E+00  0.00000000000E+00  0.12525980253E-10  0.17130000000E+03  0.17130000000E+03 0. -1.
       11    1    1    2    0    0  0.26785314178E-02 -0.31053442062E-02  0.43442034281E-01  0.43638162871E-01  0.51109989000E-03 0.  1.
     -623    1    1    2    0    0 -0.26984139018E-02 -0.58990221956E-04  0.31112551060E-03  0.17130000002E+03  0.17130000000E+03 0. -1.
      622    1    1    2    0    0  0.19882484669E-04  0.31643344281E-02  0.39562468085E+01  0.39563618165E+01  0.30000000000E-01 0.  1.
</event>
<event>
 5   0  0.4961200E+08  0.9118800E+02  0.7818608E-02  0.1180000E+00
       11   -1    0    0    0    0  0.00000000000E+00  0.00000000000E+00  0.39999999673E+01  0.40000000000E+01  0.51109989000E-03 0.  1.
     -623   -1    0    0    0    0  0.00000000000E+00  0.00000000000E+00  0.12525980253E-10  0.17130000000E+03  0.17130000000E+03 0. -1.
       11    1    1    2    0    0  0.13660488678E-02 -0.47685024613E-02  0.17825347435E+00  0.17832320950E+00  0.51109989000E-03 0.  1.
     -623    1    1    2    0    0 -0.81611931048E-03 -0.29544622054E-03  0.19085067703E-03  0.17130000000E+03  0.17130000000E+03 0. -1.
      622    1    1    2    0    0 -0.54992955730E-03  0.50639486818E-02  0.38215556423E+01  0.38216767882E+01  0.30000000000E-01 0.  1.
</event>
<event>
 5   0  0.4961200E+08  0.9118800E+02  0.7818608E-02  0.1180000E+00
       11   -1    0    0    0    0  0.00000000000E+00  0.00000000000E+00  0.39999999673E+01  0.40000000000E+01  0.51109989000E-03 0.  1.
     -623   -1    0    0    0    0  0.00000000000E+00  0.00000000000E+00  0.12525980253E-10  0.17130000000E+03  0.17130000000E+03 0. -1.
       11    1    1    2    0    0  0.30336573119E-02 -0.13052306408E-02  0.82752467193E-02  0.89245522557E-02  0.51109989000E-03 0. -1.
     -623    1    1    2    0    0 -0.97364665371E-03  0.21861577985E-03  0.76271024029E-03  0.17130000000E+03  0.17130000000E+03 0. -1.
      622    1    1    2    0    0 -0.20600106582E-02  0.10866148610E-02  0.39909620104E+01  0.39910754431E+01  0.30000000000E-01 0.  1.
</event>
<event>
 5   0  0.4961200E+08  0.9118800E+02  0.7818608E-02  0.1180000E+00
       11   -1    0    0    0    0  0.00000000000E+00  0.00000000000E+00  0.39999999673E+01  0.40000000000E+01  0.51109989000E-03 0. -1.
     -623   -1    0    0    0    0  0.00000000000E+00  0.00000000000E+00  0.12525980253E-10  0.17130000000E+03  0.17130000000E+03 0. -1.
       11    1    1    2    0    0  0.55301121691E-03  0.66863559274E-03  0.14093687813E-01  0.14129619748E-01  0.51109989000E-03 0. -1.
     -623    1    1    2    0    0 -0.85089524090E-04  0.11344151735E-03  0.14890401725E-03  0.17130000000E+03  0.17130000000E+03 0. -1.
      622    1    1    2    0    0 -0.46792169283E-03 -0.78207711007E-03  0.39857573749E+01  0.39858703795E+01  0.30000000000E-01 0. -1.
</event>
<event>
 5   0  0.4961200E+08  0.9118800E+02  0.7818608E-02  0.1180000E+00
       11   -1    0    0    0    0  0.00000000000E+00  0.00000000000E+00  0.39999999673E+01  0.40000000000E+01  0.51109989000E-03 0. -1.
     -623   -1    0    0    0    0  0.00000000000E+00  0.00000000000E+00  0.12525980253E-10  0.17130000000E+03  0.17130000000E+03 0. -1.
       11    1    1    2    0    0 -0.17209575182E-02 -0.15306404210E-02  0.84059054070E-01  0.84092153909E-01  0.51109989000E-03 0. -1.
     -623    1    1    2    0    0 -0.18799796025E-03 -0.10118176310E-02  0.14927862022E-03  0.17130000000E+03  0.17130000000E+03 0. -1.
      622    1    1    2    0    0  0.19089554785E-02  0.25424580518E-02  0.39157916339E+01  0.39159078422E+01  0.30000000000E-01 0. -1.
</event>
<event>
 5   0  0.4961200E+08  0.9118800E+02  0.7818608E-02  0.1180000E+00
       11   -1    0    0    0    0  0.00000000000E+00  0.00000000000E+00  0.39999999673E+01  0.40000000000E+01  0.51109989000E-03 0. -1.
     -623   -1    0    0    0    0  0.00000000000E+00  0.00000000000E+00  0.12525980253E-10  0.17130000000E+03  0.17130000000E+03 0. -1.
       11    1    1    2    0    0  0.11348278438E-01 -0.21938684085E-01  0.13237209907E+00  0.13465780006E+00  0.51109989000E-03 0. -1.
     -623    1    1    2    0    0 -0.62186072301E-02  0.66378606352E-02  0.24360369383E-02  0.17130000026E+03  0.17130000000E+03 0. -1.
      622    1    1    2    0    0 -0.51296712083E-02  0.15300823450E-01  0.38651918314E+01  0.38653419411E+01  0.30000000000E-01 0. -1.
</event>
<event>
 5   0  0.4961200E+08  0.9118800E+02  0.7818608E-02  0.1180000E+00
       11   -1    0    0    0    0  0.00000000000E+00  0.00000000000E+00  0.39999999673E+01  0.40000000000E+01  0.51109989000E-03 0. -1.
     -623   -1    0    0    0    0  0.00000000000E+00  0.00000000000E+00  0.12525980253E-10  0.17130000000E+03  0.17130000000E+03 0. -1.
       11    1    1    2    0    0 -0.17550592123E-02 -0.30634096512E-03  0.68565289450E-01  0.68590336176E-01  0.51109989000E-03 0. -1.
     -623    1    1    2    0    0  0.30070480708E-03  0.28454197488E-03  0.13974814312E-03  0.17130000000E+03  0.17130000000E+03 0. -1.
      622    1    1    2    0    0  0.14543544052E-02  0.21798990235E-04  0.39312949298E+01  0.39314096633E+01  0.30000000000E-01 0. -1.
</event>
<event>
 5   0  0.4961200E+08  0.9118800E+02  0.7818608E-02  0.1180000E+00
       11   -1    0    0    0    0  0.00000000000E+00  0.00000000000E+00  0.39999999673E+01  0.40000000000E+01  0.51109989000E-03 0.  1.
     -623   -1    0    0    0    0  0.00000000000E+00  0.00000000000E+00  0.12525980253E-10  0.17130000000E+03  0.17130000000E+03 0.  1.
       11    1    1    2    0    0 -0.38956277966E-02 -0.30244958239E-03  0.18801525096E+00  0.18805654259E+00  0.51109989000E-03 0.  1.
     -623    1    1    2    0    0  0.12751330772E-02 -0.11283232318E-02  0.16048863776E-03  0.17130000001E+03  0.17130000000E+03 0.  1.
      622    1    1    2    0    0  0.26204947188E-02  0.14307728148E-02  0.38118242296E+01  0.38119434508E+01  0.30000000000E-01 0.  1.
</event>
<event>
 5   0  0.4961200E+08  0.9118800E+02  0.7818608E-02  0.1180000E+00
       11   -1    0    0    0    0  0.00000000000E+00  0.00000000000E+00  0.39999999673E+01  0.40000000000E+01  0.51109989000E-03 0.  1.
     -623   -1    0    0    0    0  0.00000000000E+00  0.00000000000E+00  0.12525980253E-10  0.17130000000E+03  0.17130000000E+03 0.  1.
       11    1    1    2    0    0 -0.17622381529E-01 -0.16568083607E-01  0.68755731522E+00  0.68798282876E+00  0.51109989000E-03 0.  1.
     -623    1    1    2    0    0  0.39031593402E-02 -0.55410693702E-02  0.66370205700E-03  0.17130000014E+03  0.17130000000E+03 0.  1.
      622    1    1    2    0    0  0.13719222189E-01  0.22109152978E-01  0.33117789504E+01  0.33120170362E+01  0.30000000000E-01 0.  1.
</event>
<event>
 5   0  0.4961200E+08  0.9118800E+02  0.7818608E-02  0.1180000E+00
       11   -1    0    0    0    0  0.00000000000E+00  0.00000000000E+00  0.39999999673E+01  0.40000000000E+01  0.51109989000E-03 0. -1.
     -623   -1    0    0    0    0  0.00000000000E+00  0.00000000000E+00  0.12525980253E-10  0.17130000000E+03  0.17130000000E+03 0. -1.
       11    1    1    2    0    0 -0.59155727035E-03 -0.13322105349E-01  0.33959370904E+00  0.33985581777E+00  0.51109989000E-03 0. -1.
     -623    1    1    2    0    0  0.12210406637E-01  0.83326525766E-02  0.40750564034E-03  0.17130000064E+03  0.17130000000E+03 0. -1.
      622    1    1    2    0    0 -0.11618849367E-01  0.49894527720E-02  0.36599987527E+01  0.36601435439E+01  0.30000000000E-01 0. -1.
</event>
<event>
 5   0  0.4961200E+08  0.9118800E+02  0.7818608E-02  0.1180000E+00
       11   -1    0    0    0    0  0.00000000000E+00  0.00000000000E+00  0.39999999673E+01  0.40000000000E+01  0.51109989000E-03 0. -1.
     -623   -1    0    0    0    0  0.00000000000E+00  0.00000000000E+00  0.12525980253E-10  0.17130000000E+03  0.17130000000E+03 0. -1.
       11    1    1    2    0    0  0.51788451951E-02  0.41274056900E-02  0.30840207213E+00  0.30847358920E+00  0.51109989000E-03 0. -1.
     -623    1    1    2    0    0  0.14712293917E-04  0.10529609327E-03  0.19946756769E-03  0.17130000000E+03  0.17130000000E+03 0. -1.
      622    1    1    2    0    0 -0.51935574890E-02 -0.42327017833E-02  0.36913984279E+01  0.36915264109E+01  0.30000000000E-01 0.  0.
</event>
<event>
 5   0  0.4961200E+08  0.9118800E+02  0.7818608E-02  0.1180000E+00
       11   -1    0    0    0    0  0.00000000000E+00  0.00000000000E+00  0.39999999673E+01  0.40000000000E+01  0.51109989000E-03 0.  1.
     -623   -1    0    0    0    0  0.00000000000E+00  0.00000000000E+00  0.12525980253E-10  0.17130000000E+03  0.17130000000E+03 0.  1.
       11    1    1    2    0    0 -0.29421683018E-02 -0.41762431949E-02  0.30598599707E+00  0.30602906559E+00  0.51109989000E-03 0.  1.
     -623    1    1    2    0    0  0.24643341933E-03  0.11266422584E-03  0.16807713303E-03  0.17130000000E+03  0.17130000000E+03 0.  1.
      622    1    1    2    0    0  0.26957348825E-02  0.40635789691E-02  0.36938458932E+01  0.36939709341E+01  0.30000000000E-01 0.  1.
</event>
<event>
 5   0  0.4961200E+08  0.9118800E+02  0.7818608E-02  0.1180000E+00
       11   -1    0    0    0    0  0.00000000000E+00  0.00000000000E+00  0.39999999673E+01  0.40000000000E+01  0.51109989000E-03 0.  1.
     -623   -1    0    0    0    0  0.00000000000E+00  0.00000000000E+00  0.12525980253E-10  0.17130000000E+03  0.17130000000E+03 0. -1.
       11    1    1    2    0    0  0.12515074393E-03 -0.50587653325E-03  0.41814685459E-01  0.41821055904E-01  0.51109989000E-03 0.  1.
     -623    1    1    2    0    0  0.75699318708E-03  0.50253131616E-03  0.12012883820E-03  0.17130000000E+03  0.17130000000E+03 0. -1.
      622    1    1    2    0    0 -0.88214393162E-03  0.33452166948E-05  0.39580651562E+01  0.39581789448E+01  0.30000000000E-01 0.  1.
</event>
<event>
 5   0  0.4961200E+08  0.9118800E+02  0.7818608E-02  0.1180000E+00
       11   -1    0    0    0    0  0.00000000000E+00  0.00000000000E+00  0.39999999673E+01  0.40000000000E+01  0.51109989000E-03 0. -1.
     -623   -1    0    0    0    0  0.00000000000E+00  0.00000000000E+00  0.12525980253E-10  0.17130000000E+03  0.17130000000E+03 0. -1.
       11    1    1    2    0    0  0.14304298806E-02  0.30967472381E-02  0.38013418894E-01  0.38169584910E-01  0.51109989000E-03 0. -1.
     -623    1    1    2    0    0  0.20334879326E-03  0.80486108669E-04  0.27133014455E-03  0.17130000000E+03  0.17130000000E+03 0. -1.
      622    1    1    2    0    0 -0.16337786739E-02 -0.31772333468E-02  0.39617152192E+01  0.39618304156E+01  0.30000000000E-01 0. -1.
</event>
<event>
 5   0  0.4961200E+08  0.9118800E+02  0.7818608E-02  0.1180000E+00
       11   -1    0    0    0    0  0.00000000000E+00  0.00000000000E+00  0.39999999673E+01  0.40000000000E+01  0.51109989000E-03 0. -1.
     -623   -1    0    0    0    0  0.00000000000E+00  0.00000000000E+00  0.12525980253E-10  0.17130000000E+03  0.17130000000E+03 0.  1.
       11    1    1    2    0    0 -0.31050888373E-02 -0.48156983596E-03  0.66529907595E-01  0.66606030601E-01  0.51109989000E-03 0. -1.
     -623    1    1    2    0    0  0.35172114878E-02 -0.21542632749E-02  0.19145158333E-03  0.17130000005E+03  0.17130000000E+03 0.  1.
      622    1    1    2    0    0 -0.41212265048E-03  0.26358331109E-02  0.39332786082E+01  0.39333939196E+01  0.30000000000E-01 0. -1.
</event>
<event>
 5   0  0.4961200E+08  0.9118800E+02  0.7818608E-02  0.1180000E+00
       11   -1    0    0    0    0  0.00000000000E+00  0.00000000000E+00  0.39999999673E+01  0.40000000000E+01  0.51109989000E-03 0.  1.
     -623   -1    0    0    0    0  0.00000000000E+00  0.00000000000E+00  0.12525980253E-10  0.17130000000E+03  0.17130000000E+03 0.  1.
       11    1    1    2    0    0  0.13755509504E-02  0.40694209554E-03  0.71089282505E-02  0.72702012527E-02  0.51109989000E-03 0.  1.
     -623    1    1    2    0    0  0.98202979351E-04 -0.12834002819E-02  0.27432005097E-03  0.17130000001E+03  0.17130000000E+03 0.  1.
      622    1    1    2    0    0 -0.14737539297E-02  0.87645818634E-03  0.39926167191E+01  0.39927297937E+01  0.30000000000E-01 0.  1.
</event>
<event>
 5   0  0.4961200E+08  0.9118800E+02  0.7818608E-02  0.1180000E+00
       11   -1    0    0    0    0  0.00000000000E+00  0.00000000000E+00  0.39999999673E+01  0.40000000000E+01  0.51109989000E-03 0. -1.
     -623   -1    0    0    0    0  0.00000000000E+00  0.00000000000E+00  0.12525980253E-10  0.17130000000E+03  0.17130000000E+03 0. -1.
       11    1    1    2    0    0 -0.40965540816E-02  0.11059385750E-02  0.17054786741E+00  0.17060141018E+00  0.51109989000E-03 0. -1.
     -623    1    1    2    0    0  0.28064952991E-02  0.16889893893E-02  0.17229255759E-03  0.17130000003E+03  0.17130000000E+03 0. -1.
      622    1    1    2    0    0  0.12900587809E-02 -0.27949279652E-02  0.38292798096E+01  0.38293985607E+01  0.30000000000E-01 0. -1.
</event>
<event>
 5   0  0.4961200E+08  0.9118800E+02  0.7818608E-02  0.1180000E+00
       11   -1    0    0    0    0  0.00000000000E+00  0.00000000000E+00  0.39999999673E+01  0.40000000000E+01  0.51109989000E-03 0.  1.
     -623   -1    0    0    0    0  0.00000000000E+00  0.00000000000E+00  0.12525980253E-10  0.17130000000E+03  0.17130000000E+03 0.  1.
       11    1    1    2    0    0  0.59807834616E-03  0.49605023489E-03  0.43563602503E-02  0.44545326659E-02  0.51109989000E-03 0.  1.
     -623    1    1    2    0    0 -0.16835717011E-02 -0.50580223057E-03  0.21092340363E-03  0.17130000001E+03  0.17130000000E+03 0.  1.
      622    1    1    2    0    0  0.10854933549E-02  0.97519956599E-05  0.39954326836E+01  0.39955454580E+01  0.30000000000E-01 0.  1.
</event>
<event>
 5   0  0.4961200E+08  0.9118800E+02  0.7818608E-02  0.1180000E+00
       11   -1    0    0    0    0  0.00000000000E+00  0.00000000000E+00  0.39999999673E+01  0.40000000000E+01  0.51109989000E-03 0.  1.
     -623   -1    0    0    0    0  0.00000000000E+00  0.00000000000E+00  0.12525980253E-10  0.17130000000E+03  0.17130000000E+03 0. -1.
       11    1    1    2    0    0  0.11443416905E-01 -0.10968681135E-01  0.19282256176E+00  0.19347368116E+00  0.51109989000E-03 0.  1.
     -623    1    1    2    0    0  0.14079860077E-02  0.14294620945E-02  0.80296829740E-03  0.17130000001E+03  0.17130000000E+03 0. -1.
      622    1    1    2    0    0 -0.12851402913E-01  0.95392190401E-02  0.38063744373E+01  0.38065263052E+01  0.30000000000E-01 0.  1.
</event>
<event>
 5   0  0.4961200E+08  0.9118800E+02  0.7818608E-02  0.1180000E+00
       11   -1    0    0    0    0  0.00000000000E+00  0.00000000000E+00  0.39999999673E+01  0.40000000000E+01  0.51109989000E-03 0. -1.
     -623   -1    0    0    0    0  0.00000000000E+00  0.00000000000E+00  0.12525980253E-10  0.17130000000E+03  0.17130000000E+03 0. -1.
       11    1    1    2    0    0 -0.30084731976E-02 -0.12427878252E-01  0.70746408302E+00  0.70757981392E+00  0.51109989000E-03 0. -1.
     -623    1    1    2    0    0 -0.15445521675E-01  0.40265861917E-02  0.31556192234E-03  0.17130000074E+03  0.17130000000E+03 0. -1.
      622    1    1    2    0    0  0.18453994876E-01  0.84012920597E-02  0.32922203232E+01  0.32924194429E+01  0.30000000000E-01 0. -1.
</event>
<event>
 5   0  0.4961200E+08  0.9118800E+02  0.7818608E-02  0.1180000E+00
       11   -1    0    0    0    0  0.00000000000E+00  0.00000000000E+00  0.39999999673E+01  0.40000000000E+01  0.51109989000E-03 0.  1.
     -623   -1    0    0    0    0  0.00000000000E+00  0.00000000000E+00  0.12525980253E-10  0.17130000000E+03  0.17130000000E+03 0. -1.
       11    1    1    2    0    0  0.10539287198E-01  0.52295244574E-03  0.13669426052E+00  0.13710190420E+00  0.51109989000E-03 0.  1.
     -623    1    1    2    0    0 -0.30040735467E-02  0.32179311907E-02  0.53332401620E-03  0.17130000006E+03  0.17130000000E+03 0. -1.
      622    1    1    2    0    0 -0.75352136511E-02 -0.37408836365E-02  0.38627723828E+01  0.38628980384E+01  0.30000000000E-01 0.  1.
</event>
<event>
 5   0  0.4961200E+08  0.9118800E+02  0.7818608E-02  0.1180000E+00
       11   -1    0    0    0    0  0.00000000000E+00  0.00000000000E+00  0.39999999673E+01  0.40000000000E+01  0.51109989000E-03 0.  1.
     -623   -1    0    0    0    0  0.00000000000E+00  0.00000000000E+00  0.12525980253E-10  0.17130000000E+03  0.17130000000E+03 0.  1.
       11    1    1    2    0    0  0.26681606530E-01  0.10737615890E-01  0.87811717642E-01  0.92403265629E-01  0.51109989000E-03 0.  1.
     -623    1    1    2    0    0 -0.18931992726E-01  0.32623904494E-02  0.47405852860E-02  0.17130000114E+03  0.17130000000E+03 0.  1.
      622    1    1    2    0    0 -0.77496138042E-02 -0.14000006339E-01  0.39074476644E+01  0.39075955915E+01  0.30000000000E-01 0.  1.
</event>
<event>
 5   0  0.4961200E+08  0.9118800E+02  0.7818608E-02  0.1180000E+00
       11   -1    0    0    0    0  0.00000000000E+00  0.00000000000E+00  0.39999999673E+01  0.40000000000E+01  0.51109989000E-03 0.  1.
     -623   -1    0    0    0    0  0.00000000000E+00  0.00000000000E+00  0.12525980253E-10  0.17130000000E+03  0.17130000000E+03 0. -1.
       11    1    1    2    0    0  0.53370024957E-01  0.26197976891E-01  0.12992062174E+00  0.14287869937E+00  0.51109989000E-03 0.  1.
     -623    1    1    2    0    0 -0.59771499435E-02  0.21828566540E-01  0.13666977221E-01  0.17130000204E+03  0.17130000000E+03 0. -1.
      622    1    1    2    0    0 -0.47392875013E-01 -0.48026543431E-01  0.38564123684E+01  0.38571192604E+01  0.30000000000E-01 0.  1.
</event>
<event>
 5   0  0.4961200E+08  0.9118800E+02  0.7818608E-02  0.1180000E+00
       11   -1    0    0    0    0  0.00000000000E+00  0.00000000000E+00  0.39999999673E+01  0.40000000000E+01  0.51109989000E-03 0. -1.
     -623   -1    0    0    0    0  0.00000000000E+00  0.00000000000E+00  0.12525980253E-10  0.17130000000E+03  0.17130000000E+03 0.  1.
       11    1    1    2    0    0  0.48658333957E-02 -0.53073228676E-02  0.76036999867E+00  0.76040426097E+00  0.51109989000E-03 0. -1.
     -623    1    1    2    0    0  0.47796390584E-03  0.15015601516E-03  0.18165232656E-03  0.17130000000E+03  0.17130000000E+03 0.  1.
      622    1    1    2    0    0 -0.53437973016E-02  0.51571668524E-02  0.32394483166E+01  0.32395957384E+01  0.30000000000E-01 0. -1.
</event>
<event>
 5   0  0.4961200E+08  0.9118800E+02  0.7818608E-02  0.1180000E+00
       11   -1    0    0    0    0  0.00000000000E+00  0.00000000000E+00  0.39999999673E+01  0.40000000000E+01  0.51109989000E-03 0. -1.
     -623   -1    0    0    0    0  0.00000000000E+00  0.00000000000E+00  0.12525980253E-10  0.17130000000E+03  0.17130000000E+03 0. -1.
       11    1    1    2    0    0 -0.44452157767E-02  0.12914641660E-01  0.18037151647E+00  0.18088862067E+00  0.51109989000E-03 0. -1.
     -623    1    1    2    0    0 -0.28533143507E-02 -0.91363194763E-03  0.66075986830E-03  0.17130000003E+03  0.17130000000E+03 0. -1.
      622    1    1    2    0    0  0.72985301276E-02 -0.12001009713E-01  0.38189676913E+01  0.38191113521E+01  0.30000000000E-01 0. -1.
</event>
<event>
 5   0  0.4961200E+08  0.9118800E+02  0.7818608E-02  0.1180000E+00
       11   -1    0    0    0    0  0.00000000000E+00  0.00000000000E+00  0.39999999673E+01  0.40000000000E+01  0.51109989000E-03 0. -1.
     -623   -1    0    0    0    0  0.00000000000E+00  0.00000000000E+00  0.12525980253E-10  0.17130000000E+03  0.17130000000E+03 0.  1.
       11    1    1    2    0    0  0.20822730124E-02  0.58437858439E-02  0.24581294428E-01  0.25357187376E-01  0.51109989000E-03 0. -1.
     -623    1    1    2    0    0  0.28793596254E-02 -0.10140881822E-01  0.89482622486E-03  0.17130000033E+03  0.17130000000E+03 0.  1.
      622    1    1    2    0    0 -0.49616326378E-02  0.42970959785E-02  0.39745238467E+01  0.39746424859E+01  0.30000000000E-01 0. -1.
</event>
<event>
 5   0  0.4961200E+08  0.9118800E+02  0.7818608E-02  0.1180000E+00
       11   -1    0    0    0    0  0.00000000000E+00  0.00000000000E+00  0.39999999673E+01  0.40000000000E+01  0.51109989000E-03 0. -1.
     -623   -1    0    0    0    0  0.00000000000E+00  0.00000000000E+00  0.12525980253E-10  0.17130000000E+03  0.17130000000E+03 0. -1.
       11    1    1    2    0    0  0.15274199698E-01  0.43929435793E-02  0.41628513174E+00  0.41658873155E+00  0.51109989000E-03 0. -1.
     -623    1    1    2    0    0  0.21260593090E-03 -0.69643674832E-03  0.46452369709E-03  0.17130000000E+03  0.17130000000E+03 0. -1.
      622    1    1    2    0    0 -0.15486805629E-01 -0.36965068310E-02  0.35832503119E+01  0.35834112663E+01  0.30000000000E-01 0. -1.
</event>
<event>
 5   0  0.4961200E+08  0.9118800E+02  0.7818608E-02  0.1180000E+00
       11   -1    0    0    0    0  0.00000000000E+00  0.00000000000E+00  0.39999999673E+01  0.40000000000E+01  0.51109989000E-03 0.  1.
     -623   -1    0    0    0    0  0.00000000000E+00  0.00000000000E+00  0.12525980253E-10  0.17130000000E+03  0.17130000000E+03 0.  1.
       11    1    1    2    0    0 -0.18342739024E-02 -0.24079665140E-02  0.25607208140E+00  0.25609048197E+00  0.51109989000E-03 0.  1.
     -623    1    1    2    0    0 -0.69052971095E-03  0.85498685515E-03  0.13974211988E-03  0.17130000000E+03  0.17130000000E+03 0.  1.
      622    1    1    2    0    0  0.25248036134E-02  0.15529796589E-02  0.37437881438E+01  0.37439095144E+01  0.30000000000E-01 0.  1.
</event>
<event>
 5   0  0.4961200E+08  0.9118800E+02  0.7818608E-02  0.1180000E+00
       11   -1    0    0    0    0  0.00000000000E+00  0.00000000000E+00  0.39999999673E+01  0.40000000000E+01  0.51109989000E-03 0. -1.
     -623   -1    0    0    0    0  0.00000000000E+00  0.00000000000E+00  0.12525980253E-10  0.17130000000E+03  0.17130000000E+03 0.  1.
       11    1    1    2    0    0 -0.18716237716E-01  0.17492629297E-01  0.93654605273E+00  0.93689650429E+00  0.51109989000E-03 0. -1.
     -623    1    1    2    0    0  0.17206036343E-01 -0.51039865397E-02  0.52369966006E-03  0.17130000094E+03  0.17130000000E+03 0.  1.
      622    1    1    2    0    0  0.15102013715E-02 -0.12388642757E-01  0.30629302152E+01  0.30631025550E+01  0.30000000000E-01 0.  0.
</event>
<event>
 5   0  0.4961200E+08  0.9118800E+02  0.7818608E-02  0.1180000E+00
       11   -1    0    0    0    0  0.00000000000E+00  0.00000000000E+00  0.39999999673E+01  0.40000000000E+01  0.51109989000E-03 0.  1.
     -623   -1    0    0    0    0  0.00000000000E+00  0.00000000000E+00  0.12525980253E-10  0.17130000000E+03  0.17130000000E+03 0.  1.
       11    1    1    2    0    0 -0.10382849209E-02 -0.81727862239E-03  0.76463880708E-01  0.76477004752E-01  0.51109989000E-03 0.  1.
     -623    1    1    2    0    0  0.14429021563E-02 -0.20919042609E-03  0.12794731465E-03  0.17130000001E+03  0.17130000000E+03 0.  1.
      622    1    1    2    0    0 -0.40461723598E-03  0.10264690486E-02  0.39234081409E+01  0.39235229906E+01  0.30000000000E-01 0.  1.
</event>
<event>
 5   0  0.4961200E+08  0.9118800E+02  0.7818608E-02  0.1180000E+00
       11   -1    0    0    0    0  0.00000000000E+00  0.00000000000E+00  0.39999999673E+01  0.40000000000E+01  0.51109989000E-03 0. -1.
     -623   -1    0    0    0    0  0.00000000000E+00  0.00000000000E+00  0.12525980253E-10  0.17130000000E+03  0.17130000000E+03 0.  1.
       11    1    1    2    0    0 -0.18199722406E-02 -0.24397395326E-03  0.17609226768E+00  0.17610258312E+00  0.51109989000E-03 0. -1.
     -623    1    1    2    0    0  0.34842386284E-02 -0.29576721368E-02  0.12972915475E-03  0.17130000006E+03  0.17130000000E+03 0.  1.
      622    1    1    2    0    0 -0.16642663878E-02  0.32016460901E-02  0.38237779705E+01  0.38238973559E+01  0.30000000000E-01 0. -1.
</event>
<event>
 5   0  0.4961200E+08  0.9118800E+02  0.7818608E-02  0.1180000E+00
       11   -1    0    0    0    0  0.00000000000E+00  0.00000000000E+00  0.39999999673E+01  0.40000000000E+01  0.51109989000E-03 0. -1.
     -623   -1    0    0    0    0  0.00000000000E+00  0.00000000000E+00  0.12525980253E-10  0.17130000000E+03  0.17130000000E+03 0. -1.
       11    1    1    2    0    0  0.31775602510E-01 -0.71045926474E-02  0.72188074279E+00  0.72261485743E+00  0.51109989000E-03 0. -1.
     -623    1    1    2    0    0 -0.28967890583E-02 -0.12017872591E-02  0.10091893042E-02  0.17130000003E+03  0.17130000000E+03 0. -1.
      622    1    1    2    0    0 -0.28878813451E-01  0.83063799065E-02  0.32771100353E+01  0.32773851109E+01  0.30000000000E-01 0. -1.
</event>
<event>
 5   0  0.4961200E+08  0.9118800E+02  0.7818608E-02  0.1180000E+00
       11   -1    0    0    0    0  0.00000000000E+00  0.00000000000E+00  0.39999999673E+01  0.40000000000E+01  0.51109989000E-03 0.  1.
     -623   -1    0    0    0    0  0.00000000000E+00  0.00000000000E+00  0.12525980253E-10  0.17130000000E+03  0.17130000000E+03 0.  1.
       11    1    1    2    0    0 -0.83470388853E-04 -0.82162999425E-03  0.19889300356E-02  0.22133930824E-02  0.51109989000E-03 0. -1.
     -623    1    1    2    0    0  0.20459806608E-02 -0.16547777083E-03  0.33761048857E-03  0.17130000001E+03  0.17130000000E+03 0.  1.
      622    1    1    2    0    0 -0.19625102718E-02  0.98710776507E-03  0.39976734265E+01  0.39977865939E+01  0.30000000000E-01 0.  1.
</event>
<event>
 5   0  0.4961200E+08  0.9118800E+02  0.7818608E-02  0.1180000E+00
       11   -1    0    0    0    0  0.00000000000E+00  0.00000000000E+00  0.39999999673E+01  0.40000000000E+01  0.51109989000E-03 0. -1.
     -623   -1    0    0    0    0  0.00000000000E+00  0.00000000000E+00  0.12525980253E-10  0.17130000000E+03  0.17130000000E+03 0. -1.
       11    1    1    2    0    0 -0.18905327085E-02  0.30418859255E-01  0.16097317969E+00  0.16383377831E+00  0.51109989000E-03 0. -1.
     -623    1    1    2    0    0  0.18405111745E-01 -0.42850992250E-02  0.31035138370E-02  0.17130000107E+03  0.17130000000E+03 0. -1.
      622    1    1    2    0    0 -0.16514579037E-01 -0.26133760030E-01  0.38359232739E+01  0.38361651513E+01  0.30000000000E-01 0. -1.
</event>
<event>
 5   0  0.4961200E+08  0.9118800E+02  0.7818608E-02  0.1180000E+00
       11   -1    0    0    0    0  0.00000000000E+00  0.00000000000E+00  0.39999999673E+01  0.40000000000E+01  0.51109989000E-03 0.  1.
     -623   -1    0    0    0    0  0.00000000000E+00  0.00000000000E+00  0.12525980253E-10  0.17130000000E+03  0.17130000000E+03 0.  1.
       11    1    1    2    0    0 -0.12580818618E-03 -0.40931806477E-03  0.11581885688E-02  0.13364104295E-02  0.51109989000E-03 0.  1.
     -623    1    1    2    0    0  0.66249397153E-03  0.13610634608E-03  0.29077533629E-03  0.17130000000E+03  0.17130000000E+03 0.  1.
      622    1    1    2    0    0 -0.53668578553E-03  0.27321171865E-03  0.39985510045E+01  0.39986635891E+01  0.30000000000E-01 0.  1.
</event>
<event>
 5   0  0.4961200E+08  0.9118800E+02  0.7818608E-02  0.1180000E+00
       11   -1    0    0    0    0  0.00000000000E+00  0.00000000000E+00  0.39999999673E+01  0.40000000000E+01  0.51109989000E-03 0.  1.
     -623   -1    0    0    0    0  0.00000000000E+00  0.00000000000E+00  0.12525980253E-10  0.17130000000E+03  0.17130000000E+03 0. -1.
       11    1    1    2    0    0  0.11921537125E-01  0.95191365005E-02  0.16968853175E+00  0.17037369526E+00  0.51109989000E-03 0.  1.
     -623    1    1    2    0    0  0.53971292586E-02 -0.37037187504E-03  0.85281495457E-03  0.17130000009E+03  0.17130000000E+03 0. -1.
      622    1    1    2    0    0 -0.17318666383E-01 -0.91487646255E-02  0.38294586207E+01  0.38296262172E+01  0.30000000000E-01 0.  1.
</event>
<event>
 5   0  0.4961200E+08  0.9118800E+02  0.7818608E-02  0.1180000E+00
       11   -1    0    0    0    0  0.00000000000E+00  0.00000000000E+00  0.39999999673E+01  0.40000000000E+01  0.51109989000E-03 0. -1.
     -623   -1    0    0    0    0  0.00000000000E+00  0.00000000000E+00  0.12525980253E-10  0.17130000000E+03  0.17130000000E+03 0.  1.
       11    1    1    2    0    0 -0.38690555259E-03  0.10730852176E-02  0.74996111693E-01  0.75006527715E-01  0.51109989000E-03 0. -1.
     -623    1    1    2    0    0  0.16603418025E-04 -0.11000269478E-02  0.12505606878E-03  0.17130000000E+03  0.17130000000E+03 0.  1.
      622    1    1    2    0    0  0.37030213457E-03  0.26941730242E-04  0.39248787997E+01  0.39249934688E+01  0.30000000000E-01 0. -1.
</event>
<event>
 5   0  0.4961200E+08  0.9118800E+02  0.7818608E-02  0.1180000E+00
       11   -1    0    0    0    0  0.00000000000E+00  0.00000000000E+00  0.39999999673E+01  0.40000000000E+01  0.51109989000E-03 0.  1.
     -623   -1    0    0    0    0  0.00000000000E+00  0.00000000000E+00  0.12525980253E-10  0.17130000000E+03  0.17130000000E+03 0. -1.
       11    1    1    2    0    0  0.97842609217E-03  0.14436768357E-03  0.28293930655E-01  0.28315824103E-01  0.51109989000E-03 0.  1.
     -623    1    1    2    0    0 -0.84823058017E-04  0.25388891277E-03  0.13528524570E-03  0.17130000000E+03  0.17130000000E+03 0. -1.
      622    1    1    2    0    0 -0.89360303421E-03 -0.39825659620E-03  0.39715707492E+01  0.39716841733E+01  0.30000000000E-01 0.  1.
</event>
<event>
 5   0  0.4961200E+08  0.9118800E+02  0.7818608E-02  0.1180000E+00
       11   -1    0    0    0    0  0.00000000000E+00  0.00000000000E+00  0.39999999673E+01  0.40000000000E+01  0.51109989000E-03 0. -1.
     -623   -1    0    0    0    0  0.00000000000E+00  0.00000000000E+00  0.12525980253E-10  0.17130000000E+03  0.17130000000E+03 0. -1.
       11    1    1    2    0    0  0.17004424170E-01  0.16500213503E-01  0.43018219625E+00  0.43083452819E+00  0.51109989000E-03 0. -1.
     -623    1    1    2    0    0 -0.10284061698E-02 -0.26028460553E-02  0.84122071476E-03  0.17130000002E+03  0.17130000000E+03 0. -1.
      622    1    1    2    0    0 -0.15976018001E-01 -0.13897367448E-01  0.35689765504E+01  0.35691654469E+01  0.30000000000E-01 0. -1.
</event>
<event>
 5   0  0.4961200E+08  0.9118800E+02  0.7818608E-02  0.1180000E+00
       11   -1    0    0    0    0  0.00000000000E+00  0.00000000000E+00  0.39999999673E+01  0.40000000000E+01  0.51109989000E-03 0.  1.
     -623   -1    0    0    0    0  0.00000000000E+00  0.00000000000E+00  0.12525980253E-10  0.17130000000E+03  0.17130000000E+03 0. -1.
       11    1    1    2    0    0 -0.24460371842E-02 -0.13620705609E-01  0.87444809995E+00  0.87455774392E+00  0.51109989000E-03 0.  1.
     -623    1    1    2    0    0  0.51810561496E-04 -0.55475902630E-03  0.28666061194E-03  0.17130000000E+03  0.17130000000E+03 0. -1.
      622    1    1    2    0    0  0.23942266227E-02  0.14175464635E-01  0.31252652068E+01  0.31254422549E+01  0.30000000000E-01 0.  1.
</event>
<event>
 5   0  0.4961200E+08  0.9118800E+02  0.7818608E-02  0.1180000E+00
       11   -1    0    0    0    0  0.00000000000E+00  0.00000000000E+00  0.39999999673E+01  0.40000000000E+01  0.51109989000E-03 0.  1.
     -623   -1    0    0    0    0  0.00000000000E+00  0.00000000000E+00  0.12525980253E-10  0.17130000000E+03  0.17130000000E+03 0.  1.
       11    1    1    2    0    0 -0.51893394759E-04  0.10021957950E-03  0.15438692062E-02  0.16301816193E-02  0.51109989000E-03 0.  1.
     -623    1    1    2    0    0 -0.89490634298E-03 -0.12237629310E-02  0.19910401435E-03  0.17130000001E+03  0.17130000000E+03 0.  1.
      622    1    1    2    0    0  0.94679973782E-03  0.11235433516E-02  0.39982569945E+01  0.39983698119E+01  0.30000000000E-01 0.  1.
</event>
<event>
 5   0  0.4961200E+08  0.9118800E+02  0.7818608E-02  0.1180000E+00
       11   -1    0    0    0    0  0.00000000000E+00  0.00000000000E+00  0.39999999673E+01  0.40000000000E+01  0.51109989000E-03 0. -1.
     -623   -1    0    0    0    0  0.00000000000E+00  0.00000000000E+00  0.12525980253E-10  0.17130000000E+03  0.17130000000E+03 0. -1.
       11    1    1    2    0    0  0.11345687588E-02  0.14241542016E-01  0.11254800168E+01  0.11255708055E+01  0.51109989000E-03 0. -1.
     -623    1    1    2    0    0  0.20357445986E-02  0.38639519007E-02  0.30614279758E-03  0.17130000006E+03  0.17130000000E+03 0. -1.
      622    1    1    2    0    0 -0.31703133574E-02 -0.18105493916E-01  0.28742138078E+01  0.28744291386E+01  0.30000000000E-01 0.  0.
</event>
<event>
 5   0  0.4961200E+08  0.9118800E+02  0.7818608E-02  0.1180000E+00
       11   -1    0    0    0    0  0.00000000000E+00  0.00000000000E+00  0.39999999673E+01  0.40000000000E+01  0.51109989000E-03 0. -1.
     -623   -1    0    0    0    0  0.00000000000E+00  0.00000000000E+00  0.12525980253E-10  0.17130000000E+03  0.17130000000E+03 0.  1.
       11    1    1    2    0    0 -0.12334536605E-02 -0.41394930593E-02  0.48295733300E-01  0.48491193925E-01  0.51109989000E-03 0. -1.
     -623    1    1    2    0    0 -0.22826060581E-02  0.10055203099E-02  0.31213578974E-03  0.17130000002E+03  0.17130000000E+03 0.  1.
      622    1    1    2    0    0  0.35160597186E-02  0.31339727495E-02  0.39513920983E+01  0.39515087876E+01  0.30000000000E-01 0. -1.
</event>
<event>
 5   0  0.4961200E+08  0.9118800E+02  0.7818608E-02  0.1180000E+00
       11   -1    0    0    0    0  0.00000000000E+00  0.00000000000E+00  0.39999999673E+01  0.40000000000E+01  0.51109989000E-03 0.  1.
     -623   -1    0    0    0    0  0.00000000000E+00  0.00000000000E+00  0.12525980253E-10  0.17130000000E+03  0.17130000000E+03 0.  1.
       11    1    1    2    0    0 -0.76650163593E-03  0.51990886102E-02  0.11744304621E+00  0.11756167902E+00  0.51109989000E-03 0.  1.
     -623    1    1    2    0    0  0.72740454054E-03 -0.52690016740E-02  0.23459200724E-03  0.17130000008E+03  0.17130000000E+03 0.  1.
      622    1    1    2    0    0  0.39097095165E-04  0.69913065459E-04  0.38823223304E+01  0.38824382395E+01  0.30000000000E-01 0.  1.
</event>
<event>
 5   0  0.4961200E+08  0.9118800E+02  0.7818608E-02  0.1180000E+00
       11   -1    0    0    0    0  0.00000000000E+00  0.00000000000E+00  0.39999999673E+01  0.40000000000E+01  0.51109989000E-03 0.  1.
     -623   -1    0    0    0    0  0.00000000000E+00  0.00000000000E+00  0.12525980253E-10  0.17130000000E+03  0.17130000000E+03 0.  1.
       11    1    1    2    0    0 -0.27481168114E-03 -0.18177071142E-03  0.18466049440E-02  0.19441540496E-02  0.51109989000E-03 0.  1.
     -623    1    1    2    0    0  0.31073171626E-03 -0.54468352100E-03  0.21014019467E-03  0.17130000000E+03  0.17130000000E+03 0.  1.
      622    1    1    2    0    0 -0.35920035186E-04  0.72645423254E-03  0.39979432231E+01  0.39980558455E+01  0.30000000000E-01 0.  1.
</event>
<event>
 5   0  0.4961200E+08  0.9118800E+02  0.7818608E-02  0.1180000E+00
       11   -1    0    0    0    0  0.00000000000E+00  0.00000000000E+00  0.39999999673E+01  0.40000000000E+01  0.51109989000E-03 0.  1.
     -623   -1    0    0    0    0  0.00000000000E+00  0.00000000000E+00  0.12525980253E-10  0.17130000000E+03  0.17130000000E+03 0. -1.
       11    1    1    2    0    0 -0.12885523044E-02 -0.42957628330E-02  0.29459246573E+00  0.29462704565E+00  0.51109989000E-03 0.  1.
     -623    1    1    2    0    0  0.22852668704E-02  0.11890055697E-03  0.15849820643E-03  0.17130000002E+03  0.17130000000E+03 0. -1.
      622    1    1    2    0    0 -0.99671456599E-03  0.41768622761E-02  0.37052490034E+01  0.37053729390E+01  0.30000000000E-01 0.  1.
</event>
<event>
 5   0  0.4961200E+08  0.9118800E+02  0.7818608E-02  0.1180000E+00
       11   -1    0    0    0    0  0.00000000000E+00  0.00000000000E+00  0.39999999673E+01  0.40000000000E+01  0.51109989000E-03 0.  1.
     -623   -1    0    0    0    0  0.00000000000E+00  0.00000000000E+00  0.12525980253E-10  0.17130000000E+03  0.17130000000E+03 0. -1.
       11    1    1    2    0    0 -0.56302966576E-03 -0.12524078320E-02  0.13302413170E-01  0.13382860127E-01  0.51109989000E-03 0.  1.
     -623    1    1    2    0    0  0.21366248900E-02  0.47725816685E-03  0.19369360507E-03  0.17130000001E+03  0.17130000000E+03 0. -1.
      622    1    1    2    0    0 -0.15735952242E-02  0.77514966516E-03  0.39865038606E+01  0.39866171258E+01  0.30000000000E-01 0.  1.
</event>
<event>
 5   0  0.4961200E+08  0.9118800E+02  0.7818608E-02  0.1180000E+00
       11   -1    0    0    0    0  0.00000000000E+00  0.00000000000E+00  0.39999999673E+01  0.40000000000E+01  0.51109989000E-03 0. -1.
     -623   -1    0    0    0    0  0.00000000000E+00  0.00000000000E+00  0.12525980253E-10  0.17130000000E+03  0.17130000000E+03 0.  1.
       11    1    1    2    0    0 -0.15886106013E-03 -0.14055052591E-02  0.12798430624E+00  0.12799314257E+00  0.51109989000E-03 0. -1.
     -623    1    1    2    0    0 -0.20725374796E-02  0.65883446895E-03  0.12575307012E-03  0.17130000001E+03  0.17130000000E+03 0.  1.
      622    1    1    2    0    0  0.22313985397E-02  0.74667079011E-03  0.38718899080E+01  0.38720068436E+01  0.30000000000E-01 0. -1.
</event>
<event>
 5   0  0.4961200E+08  0.9118800E+02  0.7818608E-02  0.1180000E+00
       11   -1    0    0    0    0  0.00000000000E+00  0.00000000000E+00  0.39999999673E+01  0.40000000000E+01  0.51109989000E-03 0. -1.
     -623   -1    0    0    0    0  0.00000000000E+00  0.00000000000E+00  0.12525980253E-10  0.17130000000E+03  0.17130000000E+03 0.  1.
       11    1    1    2    0    0  0.33582863704E-02  0.39604848605E-02  0.20921120788E+00  0.20927626299E+00  0.51109989000E-03 0. -1.
     -623    1    1    2    0    0  0.62604516645E-02 -0.30256426334E-02  0.19619557655E-03  0.17130000014E+03  0.17130000000E+03 0.  1.
      622    1    1    2    0    0 -0.96187380349E-02 -0.93484222718E-03  0.37905925639E+01  0.37907235958E+01  0.30000000000E-01 0. -1.
</event>
<event>
 5   0  0.4961200E+08  0.9118800E+02  0.7818608E-02  0.1180000E+00
       11   -1    0    0    0    0  0.00000000000E+00  0.00000000000E+00  0.39999999673E+01  0.40000000000E+01  0.51109989000E-03 0. -1.
     -623   -1    0    0    0    0  0.00000000000E+00  0.00000000000E+00  0.12525980253E-10  0.17130000000E+03  0.17130000000E+03 0. -1.
       11    1    1    2    0    0 -0.53028597303E-01  0.12075968927E-01  0.49280113008E+00  0.49579338054E+00  0.51109989000E-03 0. -1.
     -623    1    1    2    0    0  0.70382976733E-02 -0.17572740562E-01  0.34278489080E-02  0.17130000108E+03  0.17130000000E+03 0. -1.
      622    1    1    2    0    0  0.45990299630E-01  0.54967716354E-02  0.35037709884E+01  0.35042055392E+01  0.30000000000E-01 0. -1.
</event>
<event>
 5   0  0.4961200E+08  0.9118800E+02  0.7818608E-02  0.1180000E+00
       11   -1    0    0    0    0  0.00000000000E+00  0.00000000000E+00  0.39999999673E+01  0.40000000000E+01  0.51109989000E-03 0. -1.
     -623   -1    0    0    0    0  0.00000000000E+00  0.00000000000E+00  0.12525980253E-10  0.17130000000E+03  0.17130000000E+03 0. -1.
       11    1    1    2    0    0  0.49896591355E-02  0.40475943512E-03  0.74031068014E+00  0.74032778205E+00  0.51109989000E-03 0. -1.
     -623    1    1    2    0    0 -0.65295048626E-04  0.15351064742E-03  0.15889061165E-03  0.17130000000E+03  0.17130000000E+03 0. -1.
      622    1    1    2    0    0 -0.49243640868E-02 -0.55827008260E-03  0.32595303983E+01  0.32596722195E+01  0.30000000000E-01 0. -1.
</event>
<event>
 5   0  0.4961200E+08  0.9118800E+02  0.7818608E-02  0.1180000E+00
       11   -1    0    0    0    0  0.00000000000E+00  0.00000000000E+00  0.39999999673E+01  0.40000000000E+01  0.51109989000E-03 0.  1.
     -623   -1    0    0    0    0  0.00000000000E+00  0.00000000000E+00  0.12525980253E-10  0.17130000000E+03  0.17130000000E+03 0.  1.
       11    1    1    2    0    0  0.18768525747E-02 -0.25122281453E-02  0.45231049679E-01  0.45342507015E-01  0.51109989000E-03 0.  1.
     -623    1    1    2    0    0  0.25262573769E-02 -0.52603457730E-02  0.23540548216E-03  0.17130000010E+03  0.17130000000E+03 0.  1.
      622    1    1    2    0    0 -0.44031099516E-02  0.77725739183E-02  0.39545335122E+01  0.39546573934E+01  0.30000000000E-01 0.  0.
</event>
<event>
 5   0  0.4961200E+08  0.9118800E+02  0.7818608E-02  0.1180000E+00
       11   -1    0    0    0    0  0.00000000000E+00  0.00000000000E+00  0.39999999673E+01  0.40000000000E+01  0.51109989000E-03 0.  1.
     -623   -1    0    0    0    0  0.00000000000E+00  0.00000000000E+00  0.12525980253E-10  0.17130000000E+03  0.17130000000E+03 0. -1.
       11    1    1    2    0    0  0.35751181065E-02  0.18195288448E-02  0.45020570365E+00  0.45022386541E+00  0.51109989000E-03 0.  1.
     -623    1    1    2    0    0 -0.26746946790E-02  0.11343124509E-01  0.16981534705E-03  0.17130000040E+03  0.17130000000E+03 0. -1.
      622    1    1    2    0    0 -0.90042342760E-03 -0.13162653354E-01  0.35496244481E+01  0.35497757378E+01  0.30000000000E-01 0.  1.
</event>
<event>
 5   0  0.4961200E+08  0.9118800E+02  0.7818608E-02  0.1180000E+00
       11   -1    0    0    0    0  0.00000000000E+00  0.00000000000E+00  0.39999999673E+01  0.40000000000E+01  0.51109989000E-03 0. -1.
     -623   -1    0    0    0    0  0.00000000000E+00  0.00000000000E+00  0.12525980253E-10  0.17130000000E+03  0.17130000000E+03 0. -1.
       11    1    1    2    0    0 -0.38707209994E-02 -0.40233544777E-02  0.25036202146E+00  0.25042478487E+00  0.51109989000E-03 0. -1.
     -623    1    1    2    0    0  0.70347498074E-02  0.21122455525E-02  0.18472590933E-03  0.17130000016E+03  0.17130000000E+03 0. -1.
      622    1    1    2    0    0 -0.31640288138E-02  0.19111089234E-02  0.37494532233E+01  0.37495750609E+01  0.30000000000E-01 0. -1.
</event>
<event>
 5   0  0.4961200E+08  0.9118800E+02  0.7818608E-02  0.1180000E+00
       11   -1    0    0    0    0  0.00000000000E+00  0.00000000000E+00  0.39999999673E+01  0.40000000000E+01  0.51109989000E-03 0. -1.
     -623   -1    0    0    0    0  0.00000000000E+00  0.00000000000E+00  0.12525980253E-10  0.17130000000E+03  0.17130000000E+03 0.  1.
       11    1    1    2    0    0 -0.10298417646E-02  0.22599640826E-02  0.10643348873E-01  0.10941211544E-01  0.51109989000E-03 0. -1.
     -623    1    1    2    0    0 -0.24649117396E-03 -0.35911234004E-03  0.41129833768E-03  0.17130000000E+03  0.17130000000E+03 0.  1.
      622    1    1    2    0    0  0.12763329386E-02 -0.19008517425E-02  0.39889453207E+01  0.39890587879E+01  0.30000000000E-01 0. -1.
</event>
<event>
 5   0  0.4961200E+08  0.9118800E+02  0.7818608E-02  0.1180000E+00
       11   -1    0    0    0    0  0.00000000000E+00  0.00000000000E+00  0.39999999673E+01  0.40000000000E+01  0.51109989000E-03 0. -1.
     -623   -1    0    0    0    0  0.00000000000E+00  0.00000000000E+00  0.12525980253E-10  0.17130000000E+03  0.17130000000E+03 0. -1.
       11    1    1    2    0    0  0.54445548348E-02 -0.11107349843E-02  0.31852918567E+00  0.31857805990E+00  0.51109989000E-03 0. -1.
     -623    1    1    2    0    0 -0.30778252398E-03  0.92258309628E-03  0.17467051088E-03  0.17130000000E+03  0.17130000000E+03 0. -1.
      622    1    1    2    0    0 -0.51367723108E-02  0.18815188804E-03  0.36812961112E+01  0.36814219372E+01  0.30000000000E-01 0. -1.
</event>
<event>
 5   0  0.4961200E+08  0.9118800E+02  0.7818608E-02  0.1180000E+00
       11   -1    0    0    0    0  0.00000000000E+00  0.00000000000E+00  0.39999999673E+01  0.40000000000E+01  0.51109989000E-03 0. -1.
     -623   -1    0    0    0    0  0.00000000000E+00  0.00000000000E+00  0.12525980253E-10  0.17130000000E+03  0.17130000000E+03 0.  1.
       11    1    1    2    0    0  0.49884404998E-03 -0.14682281045E-01  0.72139696913E-01  0.73622111589E-01  0.51109989000E-03 0. -1.
     -623    1    1    2    0    0 -0.17729458207E-02  0.77102552291E-02  0.16035803511E-02  0.17130000019E+03  0.17130000000E+03 0.  1.
      622    1    1    2    0    0  0.12741017707E-02  0.69720258163E-02  0.39262566901E+01  0.39263776982E+01  0.30000000000E-01 0. -1.
</event>
<event>
 5   0  0.4961200E+08  0.9118800E+02  0.7818608E-02  0.1180000E+00
       11   -1    0    0    0    0  0.00000000000E+00  0.00000000000E+00  0.39999999673E+01  0.40000000000E+01  0.51109989000E-03 0. -1.
     -623   -1    0    0    0    0  0.00000000000E+00  0.00000000000E+00  0.12525980253E-10  0.17130000000E+03  0.17130000000E+03 0.  1.
       11    1    1    2    0    0  0.14432273438E-02 -0.41850608024E-03  0.61845227750E-02  0.63849507123E-02  0.51109989000E-03 0. -1.
     -623    1    1    2    0    0  0.21930650932E-03 -0.61165120883E-03  0.31355720360E-03  0.17130000000E+03  0.17130000000E+03 0.  1.
      622    1    1    2    0    0 -0.16625338532E-02  0.10301572891E-02  0.39935018874E+01  0.39936150478E+01  0.30000000000E-01 0. -1.
</event>
<event>
 5   0  0.4961200E+08  0.9118800E+02  0.7818608E-02  0.1180000E+00
       11   -1    0    0    0    0  0.00000000000E+00  0.00000000000E+00  0.39999999673E+01  0.40000000000E+01  0.51109989000E-03 0.  1.
     -623   -1    0    0    0    0  0.00000000000E+00  0.00000000000E+00  0.12525980253E-10  0.17130000000E+03  0.17130000000E+03 0. -1.
       11    1    1    2    0    0  0.58270133621E-02  0.33760604955E-02  0.84273996964E+00  0.84276703158E+00  0.51109989000E-03 0.  1.
     -623    1    1    2    0    0 -0.30161225047E-02  0.93815025155E-02  0.19687357990E-03  0.17130000028E+03  0.17130000000E+03 0. -1.
      622    1    1    2    0    0 -0.28108908574E-02 -0.12757563011E-01  0.31570631241E+01  0.31572326849E+01  0.30000000000E-01 0.  1.
</event>
<event>
 5   0  0.4961200E+08  0.9118800E+02  0.7818608E-02  0.1180000E+00
       11   -1    0    0    0    0  0.00000000000E+00  0.00000000000E+00  0.39999999673E+01  0.40000000000E+01  0.51109989000E-03 0. -1.
     -623   -1    0    0    0    0  0.00000000000E+00  0.00000000000E+00  0.12525980253E-10  0.17130000000E+03  0.17130000000E+03 0.  1.
       11    1    1    2    0    0 -0.41653453278E-03  0.29626664357E-03  0.15636140947E-02  0.17226105410E-02  0.51109989000E-03 0. -1.
     -623    1    1    2    0    0  0.30161901720E-03  0.19914247744E-03  0.27154680046E-03  0.17130000000E+03  0.17130000000E+03 0.  1.
      622    1    1    2    0    0  0.11491551563E-03 -0.49540912098E-03  0.39981648058E+01  0.39982773882E+01  0.30000000000E-01 0. -1.
</event>
<event>
 5   0  0.4961200E+08  0.9118800E+02  0.7818608E-02  0.1180000E+00
       11   -1    0    0    0    0  0.00000000000E+00  0.00000000000E+00  0.39999999673E+01  0.40000000000E+01  0.51109989000E-03 0.  1.
     -623   -1    0    0    0    0  0.00000000000E+00  0.00000000000E+00  0.12525980253E-10  0.17130000000E+03  0.17130000000E+03 0.  1.
       11    1    1    2    0    0  0.93243862946E-02  0.12015407146E-01  0.97625377350E+00  0.97637237040E+00  0.51109989000E-03 0.  1.
     -623    1    1    2    0    0  0.12296752586E-02  0.12956739177E-02  0.31512778497E-03  0.17130000001E+03  0.17130000000E+03 0.  1.
      622    1    1    2    0    0 -0.10554061553E-01 -0.13311081064E-01  0.30234310661E+01  0.30236276200E+01  0.30000000000E-01 0.  0.
</event>
<event>
 5   0  0.4961200E+08  0.9118800E+02  0.7818608E-02  0.1180000E+00
       11   -1    0    0    0    0  0.00000000000E+00  0.00000000000E+00  0.39999999673E+01  0.40000000000E+01  0.51109989000E-03 0.  1.
     -623   -1    0    0    0    0  0.00000000000E+00  0.00000000000E+00  0.12525980253E-10  0.17130000000E+03  0.17130000000E+03 0.  1.
       11    1    1    2    0    0  0.60984956774E-04  0.10693417999E-02  0.12660607872E+00  0.12661164086E+00  0.51109989000E-03 0.  1.
     -623    1    1    2    0    0 -0.13969582991E-03 -0.10524451371E-02  0.12171277045E-03  0.17130000000E+03  0.17130000000E+03 0.  1.
      622    1    1    2    0    0  0.78710873077E-04 -0.16896663317E-04  0.38732721741E+01  0.38733883540E+01  0.30000000000E-01 0.  1.
</event>
<event>
 5   0  0.4961200E+08  0.9118800E+02  0.7818608E-02  0.1180000E+00
       11   -1    0    0    0    0  0.00000000000E+00  0.00000000000E+00  0.39999999673E+01  0.40000000000E+01  0.51109989000E-03 0. -1.
     -623   -1    0    0    0    0  0.00000000000E+00  0.00000000000E+00  0.12525980253E-10  0.17130000000E+03  0.17130000000E+03 0. -1.
       11    1    1    2    0    0 -0.12820641255E-01  0.98140087508E-02  0.91385949631E+00  0.91400225592E+00  0.51109989000E-03 0. -1.
     -623    1    1    2    0    0  0.23534121905E-02 -0.45204569701E-03  0.32052135848E-03  0.17130000002E+03  0.17130000000E+03 0. -1.
      622    1    1    2    0    0  0.10467229064E-01 -0.93619630538E-02  0.30858199501E+01  0.30859977275E+01  0.30000000000E-01 0.  0.
</event>
<event>
 5   0  0.4961200E+08  0.9118800E+02  0.7818608E-02  0.1180000E+00
       11   -1    0    0    0    0  0.00000000000E+00  0.00000000000E+00  0.39999999673E+01  0.40000000000E+01  0.51109989000E-03 0.  1.
     -623   -1    0    0    0    0  0.00000000000E+00  0.00000000000E+00  0.12525980253E-10  0.17130000000E+03  0.17130000000E+03 0.  1.
       11    1    1    2    0    0  0.19131352557E-02  0.60775683290E-03  0.12528055868E-01  0.12698143899E-01  0.51109989000E-03 0.  1.
     -623    1    1    2    0    0 -0.12128142440E-02 -0.22343391649E-02  0.28332764775E-03  0.17130000002E+03  0.17130000000E+03 0.  1.
      622    1    1    2    0    0 -0.70032101167E-03  0.16265823320E-02  0.39871885838E+01  0.39873018370E+01  0.30000000000E-01 0.  1.
</event>
<event>
 5   0  0.4961200E+08  0.9118800E+02  0.7818608E-02  0.1180000E+00
       11   -1    0    0    0    0  0.00000000000E+00  0.00000000000E+00  0.39999999673E+01  0.40000000000E+01  0.51109989000E-03 0.  1.
     -623   -1    0    0    0    0  0.00000000000E+00  0.00000000000E+00  0.12525980253E-10  0.17130000000E+03  0.17130000000E+03 0. -1.
       11    1    1    2    0    0 -0.58212823818E-02 -0.25192986939E-02  0.27096279135E+00  0.27103750610E+00  0.51109989000E-03 0.  1.
     -623    1    1    2    0    0  0.27307676106E-01 -0.19259208080E-02  0.26210361347E-03  0.17130000219E+03  0.17130000000E+03 0. -1.
      622    1    1    2    0    0 -0.21486393723E-01  0.44452195018E-02  0.37287750722E+01  0.37289603061E+01  0.30000000000E-01 0.  1.
</event>
<event>
 5   0  0.4961200E+08  0.9118800E+02  0.7818608E-02  0.1180000E+00
       11   -1    0    0    0    0  0.00000000000E+00  0.00000000000E+00  0.39999999673E+01  0.40000000000E+01  0.51109989000E-03 0.  1.
     -623   -1    0    0    0    0  0.00000000000E+00  0.00000000000E+00  0.12525980253E-10  0.17130000000E+03  0.17130000000E+03 0.  1.
       11    1    1    2    0    0 -0.41424645572E-01 -0.49411820609E-02  0.22420123053E+00  0.22805014697E+00  0.51109989000E-03 0.  1.
     -623    1    1    2    0    0  0.94828390716E-02 -0.72416354449E-03  0.41080078095E-02  0.17130000031E+03  0.17130000000E+03 0.  1.
      622    1    1    2    0    0  0.31941806500E-01  0.56653456054E-02  0.37716907290E+01  0.37719495398E+01  0.30000000000E-01 0.  1.
</event>
<event>
 5   0  0.4961200E+08  0.9118800E+02  0.7818608E-02  0.1180000E+00
       11   -1    0    0    0    0  0.00000000000E+00  0.00000000000E+00  0.39999999673E+01  0.40000000000E+01  0.51109989000E-03 0. -1.
     -623   -1    0    0    0    0  0.00000000000E+00  0.00000000000E+00  0.12525980253E-10  0.17130000000E+03  0.17130000000E+03 0. -1.
       11    1    1    2    0    0  0.27643404529E-03  0.19239291276E-02  0.35081970392E+00  0.35082546059E+00  0.51109989000E-03 0. -1.
     -623    1    1    2    0    0  0.24441197739E-03 -0.97810263873E-03  0.12920444152E-03  0.17130000000E+03  0.17130000000E+03 0. -1.
      622    1    1    2    0    0 -0.52084602287E-03 -0.94582648813E-03  0.36490510621E+01  0.36491745395E+01  0.30000000000E-01 0. -1.
</event>
<event>
 5   0  0.4961200E+08  0.9118800E+02  0.7818608E-02  0.1180000E+00
       11   -1    0    0    0    0  0.00000000000E+00  0.00000000000E+00  0.39999999673E+01  0.40000000000E+01  0.51109989000E-03 0.  1.
     -623   -1    0    0    0    0  0.00000000000E+00  0.00000000000E+00  0.12525980253E-10  0.17130000000E+03  0.17130000000E+03 0. -1.
       11    1    1    2    0    0  0.32630536256E-03 -0.30131449428E-03  0.10206166249E+00  0.10206390860E+00  0.51109989000E-03 0.  1.
     -623    1    1    2    0    0  0.35972244980E-04  0.35119321341E-03  0.11767844981E-03  0.17130000000E+03  0.17130000000E+03 0. -1.
      622    1    1    2    0    0 -0.36227760753E-03 -0.49878719081E-04  0.38978206258E+01  0.38979360904E+01  0.30000000000E-01 0.  1.
</event>
<event>
 5   0  0.4961200E+08  0.9118800E+02  0.7818608E-02  0.1180000E+00
       11   -1    0    0    0    0  0.00000000000E+00  0.00000000000E+00  0.39999999673E+01  0.40000000000E+01  0.51109989000E-03 0. -1.
     -623   -1    0    0    0    0  0.00000000000E+00  0.00000000000E+00  0.12525980253E-10  0.17130000000E+03  0.17130000000E+03 0.  1.
       11    1    1    2    0    0 -0.57244778041E-04 -0.50787091279E-02  0.39558571280E-01  0.39886568519E-01  0.51109989000E-03 0. -1.
     -623    1    1    2    0    0  0.57298359131E-02 -0.15300639540E-02  0.45128015653E-03  0.17130000010E+03  0.17130000000E+03 0.  1.
      622    1    1    2    0    0 -0.56725911345E-02  0.66087730817E-02  0.39599901155E+01  0.39601133278E+01  0.30000000000E-01 0. -1.
</event>
<event>
 5   0  0.4961200E+08  0.9118800E+02  0.7818608E-02  0.1180000E+00
       11   -1    0    0    0    0  0.00000000000E+00  0.00000000000E+00  0.39999999673E+01  0.40000000000E+01  0.51109989000E-03 0. -1.
     -623   -1    0    0    0    0  0.00000000000E+00  0.00000000000E+00  0.12525980253E-10  0.17130000000E+03  0.17130000000E+03 0.  1.
       11    1    1    2    0    0  0.34972092091E-02  0.30146720176E-02  0.16041737937E+00  0.16048462714E+00  0.51109989000E-03 0. -1.
     -623    1    1    2    0    0 -0.57689962510E-03 -0.20124699249E-03  0.18656182236E-03  0.17130000000E+03  0.17130000000E+03 0.  1.
      622    1    1    2    0    0 -0.29203095839E-02 -0.28134250250E-02  0.38393960268E+01  0.38395153723E+01  0.30000000000E-01 0. -1.
</event>
<event>
 5   0  0.4961200E+08  0.9118800E+02  0.7818608E-02  0.1180000E+00
       11   -1    0    0    0    0  0.00000000000E+00  0.00000000000E+00  0.39999999673E+01  0.40000000000E+01  0.51109989000E-03 0. -1.
     -623   -1    0    0    0    0  0.00000000000E+00  0.00000000000E+00  0.12525980253E-10  0.17130000000E+03  0.17130000000E+03 0.  1.
       11    1    1    2    0    0 -0.38213779734E-02 -0.38817667016E-02  0.21351851610E+00  0.21358859749E+00  0.51109989000E-03 0. -1.
     -623    1    1    2    0    0  0.35030982253E-03 -0.16139319039E-03  0.19264697604E-03  0.17130000000E+03  0.17130000000E+03 0.  1.
      622    1    1    2    0    0  0.34710681508E-02  0.40431598920E-02  0.37862888043E+01  0.37864114020E+01  0.30000000000E-01 0. -1.
</event>
<event>
 5   0  0.4961200E+08  0.9118800E+02  0.7818608E-02  0.1180000E+00
       11   -1    0    0    0    0  0.00000000000E+00  0.00000000000E+00  0.39999999673E+01  0.40000000000E+01  0.51109989000E-03 0.  1.
     -623   -1    0    0    0    0  0.00000000000E+00  0.00000000000E+00  0.12525980253E-10  0.17130000000E+03  0.17130000000E+03 0.  1.
       11    1    1    2    0    0  0.37872742103E-02  0.49544329481E-02  0.16810609445E+00  0.16822250166E+00  0.51109989000E-03 0.  1.
     -623    1    1    2    0    0 -0.19275844885E-02 -0.96925629069E-03  0.23635280687E-03  0.17130000001E+03  0.17130000000E+03 0.  1.
      622    1    1    2    0    0 -0.18596897218E-02 -0.39851766574E-02  0.38316575201E+01  0.38317774846E+01  0.30000000000E-01 0.  1.
</event>
<event>
 5   0  0.4961200E+08  0.9118800E+02  0.7818608E-02  0.1180000E+00
       11   -1    0    0    0    0  0.00000000000E+00  0.00000000000E+00  0.39999999673E+01  0.40000000000E+01  0.51109989000E-03 0. -1.
     -623   -1    0    0    0    0  0.00000000000E+00  0.00000000000E+00  0.12525980253E-10  0.17130000000E+03  0.17130000000E+03 0. -1.
       11    1    1    2    0    0  0.14625013767E-01 -0.61357907766E-01  0.44129280024E+00  0.44577828641E+00  0.51109989000E-03 0. -1.
     -623    1    1    2    0    0 -0.17055849685E-02  0.35980963106E-02  0.51050492467E-02  0.17130000012E+03  0.17130000000E+03 0. -1.
      622    1    1    2    0    0 -0.12919428798E-01  0.57759811455E-01  0.35536021179E+01  0.35542215912E+01  0.30000000000E-01 0.  0.
</event>
<event>
 5   0  0.4961200E+08  0.9118800E+02  0.7818608E-02  0.1180000E+00
       11   -1    0    0    0    0  0.00000000000E+00  0.00000000000E+00  0.39999999673E+01  0.40000000000E+01  0.51109989000E-03 0.  1.
     -623   -1    0    0    0    0  0.00000000000E+00  0.00000000000E+00  0.12525980253E-10  0.17130000000E+03  0.17130000000E+03 0. -1.
       11    1    1    2    0    0 -0.82205910844E-02 -0.26348496160E-02  0.16594101545E+00  0.16616618905E+00  0.51109989000E-03 0.  1.
     -623    1    1    2    0    0  0.63211856287E-03 -0.42379269212E-02  0.35624352182E-03  0.17130000005E+03  0.17130000000E+03 0. -1.
      622    1    1    2    0    0  0.75884725214E-02  0.68727765381E-02  0.38337027092E+01  0.38338337578E+01  0.30000000000E-01 0.  1.
</event>
<event>
 5   0  0.4961200E+08  0.9118800E+02  0.7818608E-02  0.1180000E+00
       11   -1    0    0    0    0  0.00000000000E+00  0.00000000000E+00  0.39999999673E+01  0.40000000000E+01  0.51109989000E-03 0. -1.
     -623   -1    0    0    0    0  0.00000000000E+00  0.00000000000E+00  0.12525980253E-10  0.17130000000E+03  0.17130000000E+03 0.  1.
       11    1    1    2    0    0  0.19315330910E-02 -0.18060079978E-02  0.32963513629E-02  0.42567170889E-02  0.51109989000E-03 0. -1.
     -623    1    1    2    0    0 -0.90925955265E-03 -0.11923964133E-03  0.10735549418E-02  0.17130000001E+03  0.17130000000E+03 0.  1.
      622    1    1    2    0    0 -0.10222735383E-02  0.19252476392E-02  0.39956300615E+01  0.39957432775E+01  0.30000000000E-01 0. -1.
</event>
<event>
 5   0  0.4961200E+08  0.9118800E+02  0.7818608E-02  0.1180000E+00
       11   -1    0    0    0    0  0.00000000000E+00  0.00000000000E+00  0.39999999673E+01  0.40000000000E+01  0.51109989000E-03 0. -1.
     -623   -1    0    0    0    0  0.00000000000E+00  0.00000000000E+00  0.12525980253E-10  0.17130000000E+03  0.17130000000E+03 0.  1.
       11    1    1    2    0    0  0.60119726864E-02 -0.21520609532E-01  0.97483741378E+00  0.97509359806E+00  0.51109989000E-03 0. -1.
     -623    1    1    2    0    0  0.22035552905E-03 -0.35593384614E-02  0.51535670980E-03  0.17130000004E+03  0.17130000000E+03 0.  1.
      622    1    1    2    0    0 -0.62323282154E-02  0.25079947994E-01  0.30246471969E+01  0.30249063640E+01  0.30000000000E-01 0.  0.
</event>
<event>
 5   0  0.4961200E+08  0.9118800E+02  0.7818608E-02  0.1180000E+00
       11   -1    0    0    0    0  0.00000000000E+00  0.00000000000E+00  0.39999999673E+01  0.40000000000E+01  0.51109989000E-03 0.  1.
     -623   -1    0    0    0    0  0.00000000000E+00  0.00000000000E+00  0.12525980253E-10  0.17130000000E+03  0.17130000000E+03 0. -1.
       11    1    1    2    0    0  0.29530746929E-02  0.34389325679E-02  0.11530486064E+00  0.11539505630E+00  0.51109989000E-03 0.  1.
     -623    1    1    2    0    0 -0.98866125804E-03 -0.17040333245E-03  0.20788153307E-03  0.17130000000E+03  0.17130000000E+03 0. -1.
      622    1    1    2    0    0 -0.19644134344E-02 -0.32685292353E-02  0.38844872271E+01  0.38846049425E+01  0.30000000000E-01 0.  1.
</event>
<event>
 5   0  0.4961200E+08  0.9118800E+02  0.7818608E-02  0.1180000E+00
       11   -1    0    0    0    0  0.00000000000E+00  0.00000000000E+00  0.39999999673E+01  0.40000000000E+01  0.51109989000E-03 0. -1.
     -623   -1    0    0    0    0  0.00000000000E+00  0.00000000000E+00  0.12525980253E-10  0.17130000000E+03  0.17130000000E+03 0.  1.
       11    1    1    2    0    0  0.48985992840E-02  0.13110769231E-02  0.84174803651E-01  0.84328962940E-01  0.51109989000E-03 0. -1.
     -623    1    1    2    0    0 -0.78826678261E-02 -0.61425388007E-02  0.27346078666E-03  0.17130000029E+03  0.17130000000E+03 0.  1.
      622    1    1    2    0    0  0.29840685438E-02  0.48314618789E-02  0.39155517038E+01  0.39156707462E+01  0.30000000000E-01 0. -1.
</event>
<event>
 5   0  0.4961200E+08  0.9118800E+02  0.7818608E-02  0.1180000E+00
       11   -1    0    0    0    0  0.00000000000E+00  0.00000000000E+00  0.39999999673E+01  0.40000000000E+01  0.51109989000E-03 0. -1.
     -623   -1    0    0    0    0  0.00000000000E+00  0.00000000000E+00  0.12525980253E-10  0.17130000000E+03  0.17130000000E+03 0. -1.
       11    1    1    2    0    0  0.22753842909E-01 -0.90147389078E-02  0.10949686215E+01  0.10952422317E+01  0.51109989000E-03 0. -1.
     -623    1    1    2    0    0 -0.14427946894E-01  0.10055580637E-01  0.44152273819E-03  0.17130000090E+03  0.17130000000E+03 0. -1.
      622    1    1    2    0    0 -0.83258960151E-02 -0.10408417289E-02  0.29045898231E+01  0.29047568650E+01  0.30000000000E-01 0.  0.
</event>
<event>
 5   0  0.4961200E+08  0.9118800E+02  0.7818608E-02  0.1180000E+00
       11   -1    0    0    0    0  0.00000000000E+00  0.00000000000E+00  0.39999999673E+01  0.40000000000E+01  0.51109989000E-03 0.  1.
     -623   -1    0    0    0    0  0.00000000000E+00  0.00000000000E+00  0.12525980253E-10  0.17130000000E+03  0.17130000000E+03 0. -1.
       11    1    1    2    0    0  0.10792097244E-02 -0.88417754568E-03  0.27550526151E-02  0.31301759649E-02  0.51109989000E-03 0.  1.
     -623    1    1    2    0    0 -0.11372255343E-02 -0.26301041576E-02  0.48925051169E-03  0.17130000002E+03  0.17130000000E+03 0. -1.
      622    1    1    2    0    0  0.58015810104E-04  0.35142817038E-02  0.39967556650E+01  0.39968698002E+01  0.30000000000E-01 0.  1.
</event>
<event>
 5   0  0.4961200E+08  0.9118800E+02  0.7818608E-02  0.1180000E+00
       11   -1    0    0    0    0  0.00000000000E+00  0.00000000000E+00  0.39999999673E+01  0.40000000000E+01  0.51109989000E-03 0. -1.
     -623   -1    0    0    0    0  0.00000000000E+00  0.00000000000E+00  0.12525980253E-10  0.17130000000E+03  0.17130000000E+03 0. -1.
       11    1    1    2    0    0  0.40596163914E-03 -0.43363802597E-02  0.32067611631E+00  0.32070609878E+00  0.51109989000E-03 0. -1.
     -623    1    1    2    0    0  0.89063044255E-02  0.11808537083E-02  0.16563188206E-03  0.17130000024E+03  0.17130000000E+03 0. -1.
      622    1    1    2    0    0 -0.93122660646E-02  0.31555265514E-02  0.36791582192E+01  0.36792936655E+01  0.30000000000E-01 0. -1.
</event>
<event>
 5   0  0.4961200E+08  0.9118800E+02  0.7818608E-02  0.1180000E+00
       11   -1    0    0    0    0  0.00000000000E+00  0.00000000000E+00  0.39999999673E+01  0.40000000000E+01  0.51109989000E-03 0. -1.
     -623   -1    0    0    0    0  0.00000000000E+00  0.00000000000E+00  0.12525980253E-10  0.17130000000E+03  0.17130000000E+03 0. -1.
       11    1    1    2    0    0  0.12006486917E-02  0.16804790156E-02  0.42484178888E-01  0.42537421712E-01  0.51109989000E-03 0. -1.
     -623    1    1    2    0    0 -0.15319711339E-01 -0.32455956078E-02  0.19313359541E-03  0.17130000072E+03  0.17130000000E+03 0. -1.
      622    1    1    2    0    0  0.14119062658E-01  0.15651165946E-02  0.39573226578E+01  0.39574618654E+01  0.30000000000E-01 0. -1.
</event>
<event>
 5   0  0.4961200E+08  0.9118800E+02  0.7818608E-02  0.1180000E+00
       11   -1    0    0    0    0  0.00000000000E+00  0.00000000000E+00  0.39999999673E+01  0.40000000000E+01  0.51109989000E-03 0.  1.
     -623   -1    0    0    0    0  0.00000000000E+00  0.00000000000E+00  0.12525980253E-10  0.17130000000E+03  0.17130000000E+03 0. -1.
       11    1    1    2    0    0  0.26452343836E-01 -0.31628211784E-02  0.64070529293E+00  0.64125912356E+00  0.51109989000E-03 0.  1.
     -623    1    1    2    0    0  0.57906009305E-03 -0.27099003003E-01  0.93504839222E-03  0.17130000215E+03  0.17130000000E+03 0. -1.
      622    1    1    2    0    0 -0.27031403929E-01  0.30261824183E-01  0.33583596262E+01  0.33587387296E+01  0.30000000000E-01 0.  0.
</event>
<event>
 5   0  0.4961200E+08  0.9118800E+02  0.7818608E-02  0.1180000E+00
       11   -1    0    0    0    0  0.00000000000E+00  0.00000000000E+00  0.39999999673E+01  0.40000000000E+01  0.51109989000E-03 0. -1.
     -623   -1    0    0    0    0  0.00000000000E+00  0.00000000000E+00  0.12525980253E-10  0.17130000000E+03  0.17130000000E+03 0. -1.
       11    1    1    2    0    0  0.17660414339E-01 -0.89925304896E-02  0.11414027561E+00  0.11584912420E+00  0.51109989000E-03 0. -1.
     -623    1    1    2    0    0  0.78790132326E-03  0.28971174366E-02  0.18733056232E-02  0.17130000004E+03  0.17130000000E+03 0. -1.
      622    1    1    2    0    0 -0.18448315662E-01  0.60954130530E-02  0.38839863861E+01  0.38841508393E+01  0.30000000000E-01 0. -1.
</event>
<event>
 5   0  0.4961200E+08  0.9118800E+02  0.7818608E-02  0.1180000E+00
       11   -1    0    0    0    0  0.00000000000E+00  0.00000000000E+00  0.39999999673E+01  0.40000000000E+01  0.51109989000E-03 0. -1.
     -623   -1    0    0    0    0  0.00000000000E+00  0.00000000000E+00  0.12525980253E-10  0.17130000000E+03  0.17130000000E+03 0. -1.
       11    1    1    2    0    0  0.32832177476E-01 -0.21941087270E-01  0.41444163171E+00  0.41631897687E+00  0.51109989000E-03 0. -1.
     -623    1    1    2    0    0 -0.17274947193E-01 -0.87508656599E-03  0.21101752909E-02  0.17130000089E+03  0.17130000000E+03 0. -1.
      622    1    1    2    0    0 -0.15557230283E-01  0.22816173836E-01  0.35834481604E+01  0.35836801368E+01  0.30000000000E-01 0. -1.
</event>
<event>
 5   0  0.4961200E+08  0.9118800E+02  0.7818608E-02  0.1180000E+00
       11   -1    0    0    0    0  0.00000000000E+00  0.00000000000E+00  0.39999999673E+01  0.40000000000E+01  0.51109989000E-03 0. -1.
     -623   -1    0    0    0    0  0.00000000000E+00  0.00000000000E+00  0.12525980253E-10  0.17130000000E+03  0.17130000000E+03 0.  1.
       11    1    1    2    0    0 -0.62357913090E-03 -0.64665839015E-02  0.17354266447E+00  0.17366497393E+00  0.51109989000E-03 0. -1.
     -623    1    1    2    0    0 -0.75526307162E-02 -0.14509778491E-03  0.25449973147E-03  0.17130000017E+03  0.17130000000E+03 0.  1.
      622    1    1    2    0    0  0.81762098471E-02  0.66116816864E-02  0.38262028032E+01  0.38263348593E+01  0.30000000000E-01 0. -1.
</event>
<event>
 5   0  0.4961200E+08  0.9118800E+02  0.7818608E-02  0.1180000E+00
       11   -1    0    0    0    0  0.00000000000E+00  0.00000000000E+00  0.39999999673E+01  0.40000000000E+01  0.51109989000E-03 0.  1.
     -623   -1    0    0    0    0  0.00000000000E+00  0.00000000000E+00  0.12525980253E-10  0.17130000000E+03  0.17130000000E+03 0.  1.
       11    1    1    2    0    0 -0.74248573327E-03 -0.19319814217E-01  0.53262124660E+00  0.53297228827E+00  0.51109989000E-03 0.  1.
     -623    1    1    2    0    0 -0.87878836670E-02  0.12133394512E-01  0.50200913831E-03  0.17130000066E+03  0.17130000000E+03 0.  1.
      622    1    1    2    0    0  0.95303694007E-02  0.71864197044E-02  0.34668767118E+01  0.34670270561E+01  0.30000000000E-01 0.  1.
</event>
<event>
 5   0  0.4961200E+08  0.9118800E+02  0.7818608E-02  0.1180000E+00
       11   -1    0    0    0    0  0.00000000000E+00  0.00000000000E+00  0.39999999673E+01  0.40000000000E+01  0.51109989000E-03 0. -1.
     -623   -1    0    0    0    0  0.00000000000E+00  0.00000000000E+00  0.12525980253E-10  0.17130000000E+03  0.17130000000E+03 0. -1.
       11    1    1    2    0    0 -0.86176241561E-02  0.17866505547E-01  0.32587966671E-01  0.38153797444E-01  0.51109989000E-03 0. -1.
     -623    1    1    2    0    0  0.70906591983E-02 -0.25961770354E-01  0.56901569124E-02  0.17130000221E+03  0.17130000000E+03 0. -1.
      622    1    1    2    0    0  0.15269649579E-02  0.80952648072E-02  0.39617218438E+01  0.39618439939E+01  0.30000000000E-01 0. -1.
</event>
<event>
 5   0  0.4961200E+08  0.9118800E+02  0.7818608E-02  0.1180000E+00
       11   -1    0    0    0    0  0.00000000000E+00  0.00000000000E+00  0.39999999673E+01  0.40000000000E+01  0.51109989000E-03 0. -1.
     -623   -1    0    0    0    0  0.00000000000E+00  0.00000000000E+00  0.12525980253E-10  0.17130000000E+03  0.17130000000E+03 0. -1.
       11    1    1    2    0    0  0.46582615985E-02  0.85152221397E-02  0.79633970079E+00  0.79639901349E+00  0.51109989000E-03 0. -1.
     -623    1    1    2    0    0  0.33098297704E-03 -0.75100673795E-03  0.21304650737E-03  0.17130000000E+03  0.17130000000E+03 0. -1.
      622    1    1    2    0    0 -0.49892445757E-02 -0.77642154013E-02  0.32034472220E+01  0.32036009864E+01  0.30000000000E-01 0. -1.
</event>
<event>
 5   0  0.4961200E+08  0.9118800E+02  0.7818608E-02  0.1180000E+00
       11   -1    0    0    0    0  0.00000000000E+00  0.00000000000E+00  0.39999999673E+01  0.40000000000E+01  0.51109989000E-03 0.  1.
     -623   -1    0    0    0    0  0.00000000000E+00  0.00000000000E+00  0.12525980253E-10  0.17130000000E+03  0.17130000000E+03 0.  1.
       11    1    1    2    0    0  0.26682300608E-01 -0.27592733291E-02  0.67873344333E+00  0.67926350342E+00  0.51109989000E-03 0.  1.
     -623    1    1    2    0    0 -0.14391208166E-02 -0.33690606792E-02  0.76718905744E-03  0.17130000004E+03  0.17130000000E+03 0.  1.
      622    1    1    2    0    0 -0.25243179791E-01  0.61283340082E-02  0.33204993350E+01  0.33207364557E+01  0.30000000000E-01 0.  1.
</event>
<event>
 5   0  0.4961200E+08  0.9118800E+02  0.7818608E-02  0.1180000E+00
       11   -1    0    0    0    0  0.00000000000E+00  0.00000000000E+00  0.39999999673E+01  0.40000000000E+01  0.51109989000E-03 0.  1.
     -623   -1    0    0    0    0  0.00000000000E+00  0.00000000000E+00  0.12525980253E-10  0.17130000000E+03  0.17130000000E+03 0. -1.
       11    1    1    2    0    0  0.27805020204E-03 -0.64912383176E-03  0.61019156924E-03  0.10640632089E-02  0.51109989000E-03 0.  1.
     -623    1    1    2    0    0 -0.56020638674E-03  0.14833660028E-02  0.56647576815E-03  0.17130000001E+03  0.17130000000E+03 0. -1.
      622    1    1    2    0    0  0.28215618471E-03 -0.83424217108E-03  0.39988233000E+01  0.39989359285E+01  0.30000000000E-01 0.  1.
</event>
<event>
 5   0  0.4961200E+08  0.9118800E+02  0.7818608E-02  0.1180000E+00
       11   -1    0    0    0    0  0.00000000000E+00  0.00000000000E+00  0.39999999673E+01  0.40000000000E+01  0.51109989000E-03 0. -1.
     -623   -1    0    0    0    0  0.00000000000E+00  0.00000000000E+00  0.12525980253E-10  0.17130000000E+03  0.17130000000E+03 0.  1.
       11    1    1    2    0    0  0.85196049751E-02 -0.15187250306E-02  0.30587328904E-01  0.31792076162E-01  0.51109989000E-03 0. -1.
     -623    1    1    2    0    0 -0.26176450232E-02  0.23977862331E-02  0.13226459674E-02  0.17130000004E+03  0.17130000000E+03 0.  1.
      622    1    1    2    0    0 -0.59019599519E-02 -0.87906120259E-03  0.39680899925E+01  0.39682078819E+01  0.30000000000E-01 0. -1.
</event>
<event>
 5   0  0.4961200E+08  0.9118800E+02  0.7818608E-02  0.1180000E+00
       11   -1    0    0    0    0  0.00000000000E+00  0.00000000000E+00  0.39999999673E+01  0.40000000000E+01  0.51109989000E-03 0.  1.
     -623   -1    0    0    0    0  0.00000000000E+00  0.00000000000E+00  0.12525980253E-10  0.17130000000E+03  0.17130000000E+03 0. -1.
       11    1    1    2    0    0 -0.67823738319E-02  0.55514436614E-02  0.21047308853E+00  0.21065612106E+00  0.51109989000E-03 0.  1.
     -623    1    1    2    0    0 -0.96535860887E-03 -0.48765714888E-03  0.31306386424E-03  0.17130000000E+03  0.17130000000E+03 0. -1.
      622    1    1    2    0    0  0.77477324410E-02 -0.50637865125E-02  0.37892138158E+01  0.37893438761E+01  0.30000000000E-01 0.  1.
</event>
<event>
 5   0  0.4961200E+08  0.9118800E+02  0.7818608E-02  0.1180000E+00
       11   -1    0    0    0    0  0.00000000000E+00  0.00000000000E+00  0.39999999673E+01  0.40000000000E+01  0.51109989000E-03 0. -1.
     -623   -1    0    0    0    0  0.00000000000E+00  0.00000000000E+00  0.12525980253E-10  0.17130000000E+03  0.17130000000E+03 0. -1.
       11    1    1    2    0    0  0.43672439840E-03 -0.56034646540E-03  0.18494520692E-02  0.20460724364E-02  0.51109989000E-03 0.  1.
     -623    1    1    2    0    0 -0.24812478862E-02 -0.57830364229E-03  0.30985105880E-03  0.17130000002E+03  0.17130000000E+03 0. -1.
      622    1    1    2    0    0  0.20445234876E-02  0.11386501077E-02  0.39978406640E+01  0.39979539081E+01  0.30000000000E-01 0. -1.
</event>
<event>
 5   0  0.4961200E+08  0.9118800E+02  0.7818608E-02  0.1180000E+00
       11   -1    0    0    0    0  0.00000000000E+00  0.00000000000E+00  0.39999999673E+01  0.40000000000E+01  0.51109989000E-03 0. -1.
     -623   -1    0    0    0    0  0.00000000000E+00  0.00000000000E+00  0.12525980253E-10  0.17130000000E+03  0.17130000000E+03 0. -1.
       11    1    1    2    0    0  0.72443733670E-03 -0.32070341432E-02  0.13956139804E-01  0.14347297241E-01  0.51109989000E-03 0. -1.
     -623    1    1    2    0    0  0.92852148443E-03  0.76730989500E-03  0.50512585062E-03  0.17130000000E+03  0.17130000000E+03 0. -1.
      622    1    1    2    0    0 -0.16529588211E-02  0.24397242482E-02  0.39855387017E+01  0.39856526978E+01  0.30000000000E-01 0. -1.
</event>
<event>
 5   0  0.4961200E+08  0.9118800E+02  0.7818608E-02  0.1180000E+00
       11   -1    0    0    0    0  0.00000000000E+00  0.00000000000E+00  0.39999999673E+01  0.40000000000E+01  0.51109989000E-03 0.  1.
     -623   -1    0    0    0    0  0.00000000000E+00  0.00000000000E+00  0.12525980253E-10  0.17130000000E+03  0.17130000000E+03 0.  1.
       11    1    1    2    0    0 -0.13511776944E-01 -0.51337411229E-02  0.95763261856E+00  0.95774183200E+00  0.51109989000E-03 0.  1.
     -623    1    1    2    0    0  0.17007628805E-01  0.63963687319E-03  0.26327479046E-03  0.17130000085E+03  0.17130000000E+03 0.  1.
      622    1    1    2    0    0 -0.34958518602E-02  0.44941042497E-02  0.30421040740E+01  0.30422573223E+01  0.30000000000E-01 0.  1.
</event>
<event>
 5   0  0.4961200E+08  0.9118800E+02  0.7818608E-02  0.1180000E+00
       11   -1    0    0    0    0  0.00000000000E+00  0.00000000000E+00  0.39999999673E+01  0.40000000000E+01  0.51109989000E-03 0.  1.
     -623   -1    0    0    0    0  0.00000000000E+00  0.00000000000E+00  0.12525980253E-10  0.17130000000E+03  0.17130000000E+03 0. -1.
       11    1    1    2    0    0  0.17650020477E-02 -0.48720709077E-02  0.47121729637E-01  0.47408553387E-01  0.51109989000E-03 0.  1.
     -623    1    1    2    0    0 -0.94720925084E-04  0.43437370030E-02  0.40108591269E-03  0.17130000006E+03  0.17130000000E+03 0. -1.
      622    1    1    2    0    0 -0.16702811226E-02  0.52833390437E-03  0.39524771521E+01  0.39525913913E+01  0.30000000000E-01 0.  1.
</event>
<event>
 5   0  0.4961200E+08  0.9118800E+02  0.7818608E-02  0.1180000E+00
       11   -1    0    0    0    0  0.00000000000E+00  0.00000000000E+00  0.39999999673E+01  0.40000000000E+01  0.51109989000E-03 0. -1.
     -623   -1    0    0    0    0  0.00000000000E+00  0.00000000000E+00  0.12525980253E-10  0.17130000000E+03  0.17130000000E+03 0.  1.
       11    1    1    2    0    0  0.90424449138E-03  0.26939306153E-02  0.33389061993E-01  0.33513662947E-01  0.51109989000E-03 0. -1.
     -623    1    1    2    0    0 -0.22878469496E-03  0.60699955568E-03  0.23945294707E-03  0.17130000000E+03  0.17130000000E+03 0.  1.
      622    1    1    2    0    0 -0.67545979638E-03 -0.33009301711E-02  0.39663714532E+01  0.39664863364E+01  0.30000000000E-01 0. -1.
</event>
<event>
 5   0  0.4961200E+08  0.9118800E+02  0.7818608E-02  0.1180000E+00
       11   -1    0    0    0    0  0.00000000000E+00  0.00000000000E+00  0.39999999673E+01  0.40000000000E+01  0.51109989000E-03 0.  1.
     -623   -1    0    0    0    0  0.00000000000E+00  0.00000000000E+00  0.12525980253E-10  0.17130000000E+03  0.17130000000E+03 0.  1.
       11    1    1    2    0    0 -0.40171070511E-02 -0.18781752600E-02  0.12714658606E+00  0.12722491997E+00  0.51109989000E-03 0.  1.
     -623    1    1    2    0    0 -0.13091232233E-03  0.89142796272E-03  0.19684843457E-03  0.17130000000E+03  0.17130000000E+03 0.  1.
      622    1    1    2    0    0  0.41480193735E-02  0.98674729696E-03  0.38726565344E+01  0.38727750791E+01  0.30000000000E-01 0.  1.
</event>
<event>
 5   0  0.4961200E+08  0.9118800E+02  0.7818608E-02  0.1180000E+00
       11   -1    0    0    0    0  0.00000000000E+00  0.00000000000E+00  0.39999999673E+01  0.40000000000E+01  0.51109989000E-03 0.  1.
     -623   -1    0    0    0    0  0.00000000000E+00  0.00000000000E+00  0.12525980253E-10  0.17130000000E+03  0.17130000000E+03 0.  1.
       11    1    1    2    0    0 -0.32363005853E-02  0.25758657425E-02  0.14404869838E-01  0.14995673508E-01  0.51109989000E-03 0.  1.
     -623    1    1    2    0    0  0.37945212802E-02 -0.17023927311E-02  0.70388273357E-03  0.17130000005E+03  0.17130000000E+03 0.  1.
      622    1    1    2    0    0 -0.55822069510E-03 -0.87347301125E-03  0.39848912149E+01  0.39850042747E+01  0.30000000000E-01 0.  1.
</event>
<event>
 5   0  0.4961200E+08  0.9118800E+02  0.7818608E-02  0.1180000E+00
       11   -1    0    0    0    0  0.00000000000E+00  0.00000000000E+00  0.39999999673E+01  0.40000000000E+01  0.51109989000E-03 0. -1.
     -623   -1    0    0    0    0  0.00000000000E+00  0.00000000000E+00  0.12525980253E-10  0.17130000000E+03  0.17130000000E+03 0.  1.
       11    1    1    2    0    0  0.66059239768E-02  0.62629316956E-02  0.21446357116E-01  0.23303862377E-01  0.51109989000E-03 0. -1.
     -623    1    1    2    0    0  0.97797635173E-02 -0.18406378616E-02  0.20071524457E-02  0.17130000030E+03  0.17130000000E+03 0.  1.
      622    1    1    2    0    0 -0.16385687494E-01 -0.44222938340E-02  0.39765464579E+01  0.39766958369E+01  0.30000000000E-01 0. -1.
</event>
<event>
 5   0  0.4961200E+08  0.9118800E+02  0.7818608E-02  0.1180000E+00
       11   -1    0    0    0    0  0.00000000000E+00  0.00000000000E+00  0.39999999673E+01  0.40000000000E+01  0.51109989000E-03 0. -1.
     -623   -1    0    0    0    0  0.00000000000E+00  0.00000000000E+00  0.12525980253E-10  0.17130000000E+03  0.17130000000E+03 0. -1.
       11    1    1    2    0    0 -0.13691523247E-02 -0.73127781777E-03  0.29187649733E-01  0.29233362197E-01  0.51109989000E-03 0. -1.
     -623    1    1    2    0    0  0.29336629973E-03  0.57837910872E-03  0.15915966219E-03  0.17130000000E+03  0.17130000000E+03 0. -1.
      622    1    1    2    0    0  0.10757860251E-02  0.15289870918E-03  0.39706531571E+01  0.39707666356E+01  0.30000000000E-01 0. -1.
</event>
<event>
 5   0  0.4961200E+08  0.9118800E+02  0.7818608E-02  0.1180000E+00
       11   -1    0    0    0    0  0.00000000000E+00  0.00000000000E+00  0.39999999673E+01  0.40000000000E+01  0.51109989000E-03 0.  1.
     -623   -1    0    0    0    0  0.00000000000E+00  0.00000000000E+00  0.12525980253E-10  0.17130000000E+03  0.17130000000E+03 0. -1.
       11    1    1    2    0    0  0.21171473145E-02 -0.45696004807E-02  0.42588365191E+00  0.42591373510E+00  0.51109989000E-03 0.  1.
     -623    1    1    2    0    0  0.34182867283E-02  0.30243783063E-02  0.16064070571E-03  0.17130000006E+03  0.17130000000E+03 0. -1.
      622    1    1    2    0    0 -0.55354340428E-02  0.15452221744E-02  0.35739556747E+01  0.35740862040E+01  0.30000000000E-01 0.  1.
</event>
<event>
 5   0  0.4961200E+08  0.9118800E+02  0.7818608E-02  0.1180000E+00
       11   -1    0    0    0    0  0.00000000000E+00  0.00000000000E+00  0.39999999673E+01  0.40000000000E+01  0.51109989000E-03 0.  1.
     -623   -1    0    0    0    0  0.00000000000E+00  0.00000000000E+00  0.12525980253E-10  0.17130000000E+03  0.17130000000E+03 0.  1.
       11    1    1    2    0    0  0.18729848835E-02 -0.12234902646E-01  0.70693579133E+00  0.70704432336E+00  0.51109989000E-03 0.  1.
     -623    1    1    2    0    0 -0.38340140049E-02 -0.35002158876E-02  0.28341669161E-03  0.17130000008E+03  0.17130000000E+03 0.  1.
      622    1    1    2    0    0  0.19610291214E-02  0.15735118534E-01  0.32927807593E+01  0.32929555977E+01  0.30000000000E-01 0.  1.
</event>
<event>
 5   0  0.4961200E+08  0.9118800E+02  0.7818608E-02  0.1180000E+00
       11   -1    0    0    0    0  0.00000000000E+00  0.00000000000E+00  0.39999999673E+01  0.40000000000E+01  0.51109989000E-03 0.  1.
     -623   -1    0    0    0    0  0.00000000000E+00  0.00000000000E+00  0.12525980253E-10  0.17130000000E+03  0.17130000000E+03 0. -1.
       11    1    1    2    0    0  0.18900998914E-02  0.24114486078E-01  0.49950981841E+00  0.50009539172E+00  0.51109989000E-03 0.  1.
     -623    1    1    2    0    0  0.92936090423E-03 -0.19974874498E-02  0.78515505779E-03  0.17130000002E+03  0.17130000000E+03 0. -1.
      622    1    1    2    0    0 -0.28194607956E-02 -0.22116998629E-01  0.34997049939E+01  0.34999045923E+01  0.30000000000E-01 0.  1.
</event>
<event>
 5   0  0.4961200E+08  0.9118800E+02  0.7818608E-02  0.1180000E+00
       11   -1    0    0    0    0  0.00000000000E+00  0.00000000000E+00  0.39999999673E+01  0.40000000000E+01  0.51109989000E-03 0. -1.
     -623   -1    0    0    0    0  0.00000000000E+00  0.00000000000E+00  0.12525980253E-10  0.17130000000E+03  0.17130000000E+03 0. -1.
       11    1    1    2    0    0 -0.74558502874E-03  0.53316756636E-03  0.43039948962E-02  0.44300970478E-02  0.51109989000E-03 0.  1.
     -623    1    1    2    0    0 -0.98002344361E-03  0.21425625247E-03  0.23914148625E-03  0.17130000000E+03  0.17130000000E+03 0. -1.
      622    1    1    2    0    0  0.17256084727E-02 -0.74742381891E-03  0.39954568323E+01  0.39955699012E+01  0.30000000000E-01 0. -1.
</event>
<event>
 5   0  0.4961200E+08  0.9118800E+02  0.7818608E-02  0.1180000E+00
       11   -1    0    0    0    0  0.00000000000E+00  0.00000000000E+00  0.39999999673E+01  0.40000000000E+01  0.51109989000E-03 0. -1.
     -623   -1    0    0    0    0  0.00000000000E+00  0.00000000000E+00  0.12525980253E-10  0.17130000000E+03  0.17130000000E+03 0. -1.
       11    1    1    2    0    0  0.17107321097E-02  0.23318149483E-01  0.19085241367E-01  0.30185598566E-01  0.51109989000E-03 0. -1.
     -623    1    1    2    0    0 -0.28793636142E-01  0.33053712897E-01  0.11712362878E-01  0.17130000601E+03  0.17130000000E+03 0. -1.
      622    1    1    2    0    0  0.27082904032E-01 -0.56371862381E-01  0.39692023631E+01  0.39698083921E+01  0.30000000000E-01 0. -1.
</event>
<event>
 5   0  0.4961200E+08  0.9118800E+02  0.7818608E-02  0.1180000E+00
       11   -1    0    0    0    0  0.00000000000E+00  0.00000000000E+00  0.39999999673E+01  0.40000000000E+01  0.51109989000E-03 0.  1.
     -623   -1    0    0    0    0  0.00000000000E+00  0.00000000000E+00  0.12525980253E-10  0.17130000000E+03  0.17130000000E+03 0. -1.
       11    1    1    2    0    0  0.75556290802E-03  0.31362107471E-03  0.19397555826E+00  0.19397795663E+00  0.51109989000E-03 0.  1.
     -623    1    1    2    0    0 -0.63047464131E-03 -0.29366659712E-03  0.12060481210E-03  0.17130000000E+03  0.17130000000E+03 0. -1.
      622    1    1    2    0    0 -0.12508826661E-03 -0.19954477546E-04  0.38059038049E+01  0.38060220425E+01  0.30000000000E-01 0.  1.
</event>
<event>
 5   0  0.4961200E+08  0.9118800E+02  0.7818608E-02  0.1180000E+00
       11   -1    0    0    0    0  0.00000000000E+00  0.00000000000E+00  0.39999999673E+01  0.40000000000E+01  0.51109989000E-03 0.  1.
     -623   -1    0    0    0    0  0.00000000000E+00  0.00000000000E+00  0.12525980253E-10  0.17130000000E+03  0.17130000000E+03 0.  1.
       11    1    1    2    0    0 -0.18621098493E-02  0.26864927829E-02  0.24294377594E-01  0.24518619503E-01  0.51109989000E-03 0.  1.
     -623    1    1    2    0    0 -0.17668868867E-02 -0.56949925523E-03  0.33963519736E-03  0.17130000001E+03  0.17130000000E+03 0.  1.
      622    1    1    2    0    0  0.36289967361E-02 -0.21169935277E-02  0.39753659549E+01  0.39754813704E+01  0.30000000000E-01 0.  1.
</event>
<event>
 5   0  0.4961200E+08  0.9118800E+02  0.7818608E-02  0.1180000E+00
       11   -1    0    0    0    0  0.00000000000E+00  0.00000000000E+00  0.39999999673E+01  0.40000000000E+01  0.51109989000E-03 0. -1.
     -623   -1    0    0    0    0  0.00000000000E+00  0.00000000000E+00  0.12525980253E-10  0.17130000000E+03  0.17130000000E+03 0. -1.
       11    1    1    2    0    0 -0.49740326324E-02  0.26438296730E-02  0.24267098028E+00  0.24273688787E+00  0.51109989000E-03 0. -1.
     -623    1    1    2    0    0 -0.62413456029E-04  0.64733308751E-03  0.19046338718E-03  0.17130000000E+03  0.17130000000E+03 0. -1.
      622    1    1    2    0    0  0.50364460885E-02 -0.32911627604E-02  0.37571385231E+01  0.37572631102E+01  0.30000000000E-01 0. -1.
</event>
<event>
 5   0  0.4961200E+08  0.9118800E+02  0.7818608E-02  0.1180000E+00
       11   -1    0    0    0    0  0.00000000000E+00  0.00000000000E+00  0.39999999673E+01  0.40000000000E+01  0.51109989000E-03 0.  1.
     -623   -1    0    0    0    0  0.00000000000E+00  0.00000000000E+00  0.12525980253E-10  0.17130000000E+03  0.17130000000E+03 0. -1.
       11    1    1    2    0    0  0.15372356877E-02  0.19333112209E-02  0.18064564302E+00  0.18066325125E+00  0.51109989000E-03 0.  1.
     -623    1    1    2    0    0 -0.63950912553E-03 -0.26027052851E-02  0.13558409826E-03  0.17130000002E+03  0.17130000000E+03 0. -1.
      622    1    1    2    0    0 -0.89772656171E-03  0.66939406618E-03  0.38192187433E+01  0.38193367308E+01  0.30000000000E-01 0.  1.
</event>
<event>
 5   0  0.4961200E+08  0.9118800E+02  0.7818608E-02  0.1180000E+00
       11   -1    0    0    0    0  0.00000000000E+00  0.00000000000E+00  0.39999999673E+01  0.40000000000E+01  0.51109989000E-03 0. -1.
     -623   -1    0    0    0    0  0.00000000000E+00  0.00000000000E+00  0.12525980253E-10  0.17130000000E+03  0.17130000000E+03 0. -1.
       11    1    1    2    0    0  0.21817302401E-03 -0.20784024790E-02  0.91900342072E-02  0.94385013726E-02  0.51109989000E-03 0. -1.
     -623    1    1    2    0    0 -0.25843321703E-02  0.14955820128E-02  0.36197268590E-03  0.17130000003E+03  0.17130000000E+03 0. -1.
      622    1    1    2    0    0  0.23661591472E-02  0.58282046571E-03  0.39904479618E+01  0.39905614736E+01  0.30000000000E-01 0. -1.
</event>
<event>
 5   0  0.4961200E+08  0.9118800E+02  0.7818608E-02  0.1180000E+00
       11   -1    0    0    0    0  0.00000000000E+00  0.00000000000E+00  0.39999999673E+01  0.40000000000E+01  0.51109989000E-03 0. -1.
     -623   -1    0    0    0    0  0.00000000000E+00  0.00000000000E+00  0.12525980253E-10  0.17130000000E+03  0.17130000000E+03 0.  1.
       11    1    1    2    0    0 -0.11620081906E-02 -0.10070435399E-01  0.43867882478E+00  0.43879623570E+00  0.51109989000E-03 0. -1.
     -623    1    1    2    0    0 -0.61190599019E-03  0.64277819094E-03  0.25666610111E-03  0.17130000000E+03  0.17130000000E+03 0.  1.
      622    1    1    2    0    0  0.17739141808E-02  0.94276572084E-02  0.35610644765E+01  0.35612037618E+01  0.30000000000E-01 0. -1.
</event>
<event>
 5   0  0.4961200E+08  0.9118800E+02  0.7818608E-02  0.1180000E+00
       11   -1    0    0    0    0  0.00000000000E+00  0.00000000000E+00  0.39999999673E+01  0.40000000000E+01  0.51109989000E-03 0.  1.
     -623   -1    0    0    0    0  0.00000000000E+00  0.00000000000E+00  0.12525980253E-10  0.17130000000E+03  0.17130000000E+03 0. -1.
       11    1    1    2    0    0 -0.88581797712E-03 -0.44460279151E-02  0.12808764664E+00  0.12816886628E+00  0.51109989000E-03 0.  1.
     -623    1    1    2    0    0  0.27694183588E-02 -0.54899929689E-03  0.20111651502E-03  0.17130000002E+03  0.17130000000E+03 0. -1.
      622    1    1    2    0    0 -0.18836003817E-02  0.49950272120E-02  0.38717112042E+01  0.38718311103E+01  0.30000000000E-01 0.  1.
</event>
<event>
 5   0  0.4961200E+08  0.9118800E+02  0.7818608E-02  0.1180000E+00
       11   -1    0    0    0    0  0.00000000000E+00  0.00000000000E+00  0.39999999673E+01  0.40000000000E+01  0.51109989000E-03 0. -1.
     -623   -1    0    0    0    0  0.00000000000E+00  0.00000000000E+00  0.12525980253E-10  0.17130000000E+03  0.17130000000E+03 0. -1.
       11    1    1    2    0    0 -0.32337992445E-02 -0.29185762133E-01  0.50805170530E+00  0.50889985523E+00  0.51109989000E-03 0. -1.
     -623    1    1    2    0    0 -0.41386232910E-02 -0.78434747535E-04  0.11075179406E-02  0.17130000005E+03  0.17130000000E+03 0. -1.
      622    1    1    2    0    0  0.73724225354E-02  0.29264196881E-01  0.34908407440E+01  0.34911000911E+01  0.30000000000E-01 0. -1.
</event>
<event>
 5   0  0.4961200E+08  0.9118800E+02  0.7818608E-02  0.1180000E+00
       11   -1    0    0    0    0  0.00000000000E+00  0.00000000000E+00  0.39999999673E+01  0.40000000000E+01  0.51109989000E-03 0. -1.
     -623   -1    0    0    0    0  0.00000000000E+00  0.00000000000E+00  0.12525980253E-10  0.17130000000E+03  0.17130000000E+03 0. -1.
       11    1    1    2    0    0  0.65973160655E-03  0.12478768529E-03  0.96135707250E-01  0.96139410487E-01  0.51109989000E-03 0. -1.
     -623    1    1    2    0    0 -0.53212929276E-04 -0.58107218926E-03  0.11901762695E-03  0.17130000000E+03  0.17130000000E+03 0. -1.
      622    1    1    2    0    0 -0.60651867728E-03  0.45628450397E-03  0.39037452425E+01  0.39038605885E+01  0.30000000000E-01 0. -1.
</event>
<event>
 5   0  0.4961200E+08  0.9118800E+02  0.7818608E-02  0.1180000E+00
       11   -1    0    0    0    0  0.00000000000E+00  0.00000000000E+00  0.39999999673E+01  0.40000000000E+01  0.51109989000E-03 0. -1.
     -623   -1    0    0    0    0  0.00000000000E+00  0.00000000000E+00  0.12525980253E-10  0.17130000000E+03  0.17130000000E+03 0.  1.
       11    1    1    2    0    0 -0.36179250733E-02  0.15233319709E-01  0.20000727018E+00  0.20061982145E+00  0.51109989000E-03 0. -1.
     -623    1    1    2    0    0 -0.24182305389E-02 -0.95291842787E-02  0.74032165213E-03  0.17130000028E+03  0.17130000000E+03 0.  1.
      622    1    1    2    0    0  0.60361556122E-02 -0.57041354298E-02  0.37992523755E+01  0.37993798948E+01  0.30000000000E-01 0. -1.
</event>
<event>
 5   0  0.4961200E+08  0.9118800E+02  0.7818608E-02  0.1180000E+00
       11   -1    0    0    0    0  0.00000000000E+00  0.00000000000E+00  0.39999999673E+01  0.40000000000E+01  0.51109989000E-03 0. -1.
     -623   -1    0    0    0    0  0.00000000000E+00  0.00000000000E+00  0.12525980253E-10  0.17130000000E+03  0.17130000000E+03 0.  1.
       11    1    1    2    0    0  0.16948134544E-02 -0.35096726885E-02  0.53890880770E+00  0.53892314334E+00  0.51109989000E-03 0. -1.
     -623    1    1    2    0    0  0.65467097826E-03 -0.18527721516E-02  0.14928593408E-03  0.17130000001E+03  0.17130000000E+03 0.  1.
      622    1    1    2    0    0 -0.23494844326E-02  0.53624448401E-02  0.34609418737E+01  0.34610768453E+01  0.30000000000E-01 0.  0.
</event>
<event>
 5   0  0.4961200E+08  0.9118800E+02  0.7818608E-02  0.1180000E+00
       11   -1    0    0    0    0  0.00000000000E+00  0.00000000000E+00  0.39999999673E+01  0.40000000000E+01  0.51109989000E-03 0.  1.
     -623   -1    0    0    0    0  0.00000000000E+00  0.00000000000E+00  0.12525980253E-10  0.17130000000E+03  0.17130000000E+03 0.  1.
       11    1    1    2    0    0  0.29862054199E-02  0.21563626926E-02  0.34737233121E-01  0.34935711088E-01  0.51109989000E-03 0.  1.
     -623    1    1    2    0    0 -0.17749996923E-02 -0.15351507327E-02  0.31218819765E-03  0.17130000002E+03  0.17130000000E+03 0.  1.
      622    1    1    2    0    0 -0.12112057276E-02 -0.62121195989E-03  0.39649505460E+01  0.39650642726E+01  0.30000000000E-01 0.  1.
</event>
<event>
 5   0  0.4961200E+08  0.9118800E+02  0.7818608E-02  0.1180000E+00
       11   -1    0    0    0    0  0.00000000000E+00  0.00000000000E+00  0.39999999673E+01  0.40000000000E+01  0.51109989000E-03 0. -1.
     -623   -1    0    0    0    0  0.00000000000E+00  0.00000000000E+00  0.12525980253E-10  0.17130000000E+03  0.17130000000E+03 0.  1.
       11    1    1    2    0    0 -0.13001664604E-02  0.14242900691E-02  0.13900292948E+00  0.13901724592E+00  0.51109989000E-03 0. -1.
     -623    1    1    2    0    0  0.41404481023E-03  0.73723046777E-03  0.13154508609E-03  0.17130000000E+03  0.17130000000E+03 0.  1.
      622    1    1    2    0    0  0.88612164995E-03 -0.21615205372E-02  0.38608654945E+01  0.38609827536E+01  0.30000000000E-01 0. -1.
</event>
<event>
 5   0  0.4961200E+08  0.9118800E+02  0.7818608E-02  0.1180000E+00
       11   -1    0    0    0    0  0.00000000000E+00  0.00000000000E+00  0.39999999673E+01  0.40000000000E+01  0.51109989000E-03 0. -1.
     -623   -1    0    0    0    0  0.00000000000E+00  0.00000000000E+00  0.12525980253E-10  0.17130000000E+03  0.17130000000E+03 0. -1.
       11    1    1    2    0    0 -0.24622221706E-03  0.20930974321E-03  0.18415977490E-01  0.18425902513E-01  0.51109989000E-03 0. -1.
     -623    1    1    2    0    0  0.61545212568E-03  0.42283503476E-03  0.12298358942E-03  0.17130000000E+03  0.17130000000E+03 0. -1.
      622    1    1    2    0    0 -0.36922990863E-03 -0.63214477797E-03  0.39814610063E+01  0.39815740958E+01  0.30000000000E-01 0. -1.
</event>
<event>
 5   0  0.4961200E+08  0.9118800E+02  0.7818608E-02  0.1180000E+00
       11   -1    0    0    0    0  0.00000000000E+00  0.00000000000E+00  0.39999999673E+01  0.40000000000E+01  0.51109989000E-03 0.  1.
     -623   -1    0    0    0    0  0.00000000000E+00  0.00000000000E+00  0.12525980253E-10  0.17130000000E+03  0.17130000000E+03 0. -1.
       11    1    1    2    0    0  0.23306856618E-02 -0.20466817823E-02  0.52945876493E-01  0.53039118230E-01  0.51109989000E-03 0.  1.
     -623    1    1    2    0    0  0.38315060100E-03  0.35031090419E-04  0.20866874090E-03  0.17130000000E+03  0.17130000000E+03 0. -1.
      622    1    1    2    0    0 -0.27138362627E-02  0.20116506919E-02  0.39468454205E+01  0.39469608796E+01  0.30000000000E-01 0.  1.
</event>
<event>
 5   0  0.4961200E+08  0.9118800E+02  0.7818608E-02  0.1180000E+00
       11   -1    0    0    0    0  0.00000000000E+00  0.00000000000E+00  0.39999999673E+01  0.40000000000E+01  0.51109989000E-03 0.  1.
     -623   -1    0    0    0    0  0.00000000000E+00  0.00000000000E+00  0.12525980253E-10  0.17130000000E+03  0.17130000000E+03 0. -1.
       11    1    1    2    0    0  0.16278519551E-03  0.49625878759E-03  0.13443106486E-01  0.13462953127E-01  0.51109989000E-03 0.  1.
     -623    1    1    2    0    0  0.27375081690E-03 -0.18882929955E-03  0.13273165336E-03  0.17130000000E+03  0.17130000000E+03 0. -1.
      622    1    1    2    0    0 -0.43653601239E-03 -0.30742948805E-03  0.39864241289E+01  0.39865370462E+01  0.30000000000E-01 0.  1.
</event>
<event>
 5   0  0.4961200E+08  0.9118800E+02  0.7818608E-02  0.1180000E+00
       11   -1    0    0    0    0  0.00000000000E+00  0.00000000000E+00  0.39999999673E+01  0.40000000000E+01  0.51109989000E-03 0.  1.
     -623   -1    0    0    0    0  0.00000000000E+00  0.00000000000E+00  0.12525980253E-10  0.17130000000E+03  0.17130000000E+03 0.  1.
       11    1    1    2    0    0 -0.10441536440E-03 -0.37476511351E-04  0.47141106150E-03  0.70410123114E-03  0.51109989000E-03 0. -1.
     -623    1    1    2    0    0  0.91888827484E-04 -0.82287536089E-03  0.34527383197E-03  0.17130000000E+03  0.17130000000E+03 0.  1.
      622    1    1    2    0    0  0.12526536901E-04  0.86035187237E-03  0.39991832831E+01  0.39992958971E+01  0.30000000000E-01 0.  1.
</event>
<event>
 5   0  0.4961200E+08  0.9118800E+02  0.7818608E-02  0.1180000E+00
       11   -1    0    0    0    0  0.00000000000E+00  0.00000000000E+00  0.39999999673E+01  0.40000000000E+01  0.51109989000E-03 0.  1.
     -623   -1    0    0    0    0  0.00000000000E+00  0.00000000000E+00  0.12525980253E-10  0.17130000000E+03  0.17130000000E+03 0.  1.
       11    1    1    2    0    0 -0.40402065435E-02 -0.30790644147E-03  0.43562715294E-02  0.59712979778E-02  0.51109989000E-03 0.  1.
     -623    1    1    2    0    0  0.13860079173E-02 -0.61802149130E-03  0.17286683052E-02  0.17130000002E+03  0.17130000000E+03 0.  1.
      622    1    1    2    0    0  0.26541986262E-02  0.92592793277E-03  0.39939150275E+01  0.39940286866E+01  0.30000000000E-01 0.  1.
</event>
<event>
 5   0  0.4961200E+08  0.9118800E+02  0.7818608E-02  0.1180000E+00
       11   -1    0    0    0    0  0.00000000000E+00  0.00000000000E+00  0.39999999673E+01  0.40000000000E+01  0.51109989000E-03 0. -1.
     -623   -1    0    0    0    0  0.00000000000E+00  0.00000000000E+00  0.12525980253E-10  0.17130000000E+03  0.17130000000E+03 0.  1.
       11    1    1    2    0    0 -0.47892923667E-02  0.40546898542E-02  0.81499014894E-01  0.81741840457E-01  0.51109989000E-03 0. -1.
     -623    1    1    2    0    0 -0.14229058875E-02 -0.12276347315E-02  0.36359686282E-03  0.17130000001E+03  0.17130000000E+03 0.  1.
      622    1    1    2    0    0  0.62121982543E-02 -0.28270551228E-02  0.39181373556E+01  0.39182581488E+01  0.30000000000E-01 0. -1.
</event>
<event>
 5   0  0.4961200E+08  0.9118800E+02  0.7818608E-02  0.1180000E+00
       11   -1    0    0    0    0  0.00000000000E+00  0.00000000000E+00  0.39999999673E+01  0.40000000000E+01  0.51109989000E-03 0.  1.
     -623   -1    0    0    0    0  0.00000000000E+00  0.00000000000E+00  0.12525980253E-10  0.17130000000E+03  0.17130000000E+03 0.  1.
       11    1    1    2    0    0  0.30191866460E-02  0.15645028945E-02  0.32796735871E-01  0.32976510794E-01  0.51109989000E-03 0.  1.
     -623    1    1    2    0    0  0.57575729638E-02 -0.45267626422E-02  0.30415122089E-03  0.17130000016E+03  0.17130000000E+03 0.  1.
      622    1    1    2    0    0 -0.87767596123E-02  0.29622597497E-02  0.39668990820E+01  0.39670233341E+01  0.30000000000E-01 0.  1.
</event>
<event>
 5   0  0.4961200E+08  0.9118800E+02  0.7818608E-02  0.1180000E+00
       11   -1    0    0    0    0  0.00000000000E+00  0.00000000000E+00  0.39999999673E+01  0.40000000000E+01  0.51109989000E-03 0. -1.
     -623   -1    0    0    0    0  0.00000000000E+00  0.00000000000E+00  0.12525980253E-10  0.17130000000E+03  0.17130000000E+03 0. -1.
       11    1    1    2    0    0  0.76855975151E-04 -0.71153181232E-02  0.15201312171E+00  0.15218043255E+00  0.51109989000E-03 0. -1.
     -623    1    1    2    0    0 -0.13532841458E-02  0.57246286432E-03  0.29001052990E-03  0.17130000001E+03  0.17130000000E+03 0. -1.
      622    1    1    2    0    0  0.12764281706E-02  0.65428552589E-02  0.38476968351E+01  0.38478195609E+01  0.30000000000E-01 0. -1.
</event>
<event>
 5   0  0.4961200E+08  0.9118800E+02  0.7818608E-02  0.1180000E+00
       11   -1    0    0    0    0  0.00000000000E+00  0.00000000000E+00  0.39999999673E+01  0.40000000000E+01  0.51109989000E-03 0.  1.
     -623   -1    0    0    0    0  0.00000000000E+00  0.00000000000E+00  0.12525980253E-10  0.17130000000E+03  0.17130000000E+03 0. -1.
       11    1    1    2    0    0  0.91867452274E-03 -0.67750163474E-02  0.58626398190E+00  0.58630407001E+00  0.51109989000E-03 0.  1.
     -623    1    1    2    0    0  0.11791079667E-02 -0.15109484400E-03  0.17955528882E-03  0.17130000000E+03  0.17130000000E+03 0. -1.
      622    1    1    2    0    0 -0.20977824894E-02  0.69261111914E-02  0.34135564302E+01  0.34136959258E+01  0.30000000000E-01 0.  1.
</event>
<event>
 5   0  0.4961200E+08  0.9118800E+02  0.7818608E-02  0.1180000E+00
       11   -1    0    0    0    0  0.00000000000E+00  0.00000000000E+00  0.39999999673E+01  0.40000000000E+01  0.51109989000E-03 0. -1.
     -623   -1    0    0    0    0  0.00000000000E+00  0.00000000000E+00  0.12525980253E-10  0.17130000000E+03  0.17130000000E+03 0.  1.
       11    1    1    2    0    0  0.26677722572E-02  0.44142650545E-02  0.78413386685E+00  0.78415099638E+00  0.51109989000E-03 0. -1.
     -623    1    1    2    0    0 -0.45460031447E-04 -0.36424880856E-03  0.16065193775E-03  0.17130000000E+03  0.17130000000E+03 0.  1.
      622    1    1    2    0    0 -0.26223122258E-02 -0.40500162461E-02  0.32157054476E+01  0.32158490022E+01  0.30000000000E-01 0. -1.
</event>
<event>
 5   0  0.4961200E+08  0.9118800E+02  0.7818608E-02  0.1180000E+00
       11   -1    0    0    0    0  0.00000000000E+00  0.00000000000E+00  0.39999999673E+01  0.40000000000E+01  0.51109989000E-03 0.  1.
     -623   -1    0    0    0    0  0.00000000000E+00  0.00000000000E+00  0.12525980253E-10  0.17130000000E+03  0.17130000000E+03 0.  1.
       11    1    1    2    0    0  0.15372485203E-02 -0.22680133220E-02  0.21663658307E-01  0.21842214405E-01  0.51109989000E-03 0.  1.
     -623    1    1    2    0    0  0.57314736713E-03 -0.14139095776E-03  0.29293347242E-03  0.17130000000E+03  0.17130000000E+03 0.  1.
      622    1    1    2    0    0 -0.21103958874E-02  0.24094042798E-02  0.39780433756E+01  0.39781577843E+01  0.30000000000E-01 0.  1.
</event>
<event>
 5   0  0.4961200E+08  0.9118800E+02  0.7818608E-02  0.1180000E+00
       11   -1    0    0    0    0  0.00000000000E+00  0.00000000000E+00  0.39999999673E+01  0.40000000000E+01  0.51109989000E-03 0.  1.
     -623   -1    0    0    0    0  0.00000000000E+00  0.00000000000E+00  0.12525980253E-10  0.17130000000E+03  0.17130000000E+03 0.  1.
       11    1    1    2    0    0  0.69260855929E-03 -0.19029915525E-03  0.88492023341E-02  0.88930042973E-02  0.51109989000E-03 0.  1.
     -623    1    1    2    0    0 -0.40589916893E-03  0.10021814427E-03  0.15653348553E-03  0.17130000000E+03  0.17130000000E+03 0.  1.
      622    1    1    2    0    0 -0.28670939014E-03  0.90081010922E-04  0.39909942336E+01  0.39911069972E+01  0.30000000000E-01 0.  1.
</event>
<event>
 5   0  0.4961200E+08  0.9118800E+02  0.7818608E-02  0.1180000E+00
       11   -1    0    0    0    0  0.00000000000E+00  0.00000000000E+00  0.39999999673E+01  0.40000000000E+01  0.51109989000E-03 0.  1.
     -623   -1    0    0    0    0  0.00000000000E+00  0.00000000000E+00  0.12525980253E-10  0.17130000000E+03  0.17130000000E+03 0.  1.
       11    1    1    2    0    0 -0.67528830915E-03  0.61141352066E-03  0.12639212014E-01  0.12682300363E-01  0.51109989000E-03 0.  1.
     -623    1    1    2    0    0 -0.49798232890E-03  0.82803891747E-04  0.15614900376E-03  0.17130000000E+03  0.17130000000E+03 0.  1.
      622    1    1    2    0    0  0.11732706380E-02 -0.69421741241E-03  0.39872046063E+01  0.39873176988E+01  0.30000000000E-01 0.  1.
</event>
<event>
 5   0  0.4961200E+08  0.9118800E+02  0.7818608E-02  0.1180000E+00
       11   -1    0    0    0    0  0.00000000000E+00  0.00000000000E+00  0.39999999673E+01  0.40000000000E+01  0.51109989000E-03 0.  1.
     -623   -1    0    0    0    0  0.00000000000E+00  0.00000000000E+00  0.12525980253E-10  0.17130000000E+03  0.17130000000E+03 0.  1.
       11    1    1    2    0    0 -0.24524831297E-01  0.87147876256E-02  0.42707373205E+00  0.42786639118E+00  0.51109989000E-03 0.  1.
     -623    1    1    2    0    0  0.45986652742E-02  0.34266868100E-03  0.98573105598E-03  0.17130000006E+03  0.17130000000E+03 0.  1.
      622    1    1    2    0    0  0.19926166022E-01 -0.90574563067E-02  0.35719405046E+01  0.35721335442E+01  0.30000000000E-01 0.  1.
</event>
<event>
 5   0  0.4961200E+08  0.9118800E+02  0.7818608E-02  0.1180000E+00
       11   -1    0    0    0    0  0.00000000000E+00  0.00000000000E+00  0.39999999673E+01  0.40000000000E+01  0.51109989000E-03 0. -1.
     -623   -1    0    0    0    0  0.00000000000E+00  0.00000000000E+00  0.12525980253E-10  0.17130000000E+03  0.17130000000E+03 0. -1.
       11    1    1    2    0    0  0.17827735091E-02 -0.25453143529E-02  0.17270226399E-01  0.17555023484E-01  0.51109989000E-03 0. -1.
     -623    1    1    2    0    0 -0.52507320833E-02 -0.48845350561E-02  0.40635352654E-03  0.17130000015E+03  0.17130000000E+03 0. -1.
      622    1    1    2    0    0  0.34679585752E-02  0.74298494099E-02  0.39823233882E+01  0.39824448267E+01  0.30000000000E-01 0. -1.
</event>
<event>
 5   0  0.4961200E+08  0.9118800E+02  0.7818608E-02  0.1180000E+00
       11   -1    0    0    0    0  0.00000000000E+00  0.00000000000E+00  0.39999999673E+01  0.40000000000E+01  0.51109989000E-03 0.  1.
     -623   -1    0    0    0    0  0.00000000000E+00  0.00000000000E+00  0.12525980253E-10  0.17130000000E+03  0.17130000000E+03 0. -1.
       11    1    1    2    0    0 -0.25667419423E-03 -0.32032599068E-04  0.71091088073E-03  0.91297596205E-03  0.51109989000E-03 0.  1.
     -623    1    1    2    0    0  0.22128165935E-03 -0.11641714953E-03  0.31456309104E-03  0.17130000000E+03  0.17130000000E+03 0. -1.
      622    1    1    2    0    0  0.35392534914E-04  0.14844974858E-03  0.39989744929E+01  0.39990870231E+01  0.30000000000E-01 0.  1.
</event>
<event>
 5   0  0.4961200E+08  0.9118800E+02  0.7818608E-02  0.1180000E+00
       11   -1    0    0    0    0  0.00000000000E+00  0.00000000000E+00  0.39999999673E+01  0.40000000000E+01  0.51109989000E-03 0. -1.
     -623   -1    0    0    0    0  0.00000000000E+00  0.00000000000E+00  0.12525980253E-10  0.17130000000E+03  0.17130000000E+03 0.  1.
       11    1    1    2    0    0  0.18360691958E-02 -0.32002377862E-02  0.50550757716E+00  0.50552129970E+00  0.51109989000E-03 0. -1.
     -623    1    1    2    0    0 -0.41735231017E-02  0.84856630108E-02  0.14750700783E-03  0.17130000026E+03  0.17130000000E+03 0.  1.
      622    1    1    2    0    0  0.23374539059E-02 -0.52854252246E-02  0.34943448832E+01  0.34944784392E+01  0.30000000000E-01 0. -1.
</event>
<event>
 5   0  0.4961200E+08  0.9118800E+02  0.7818608E-02  0.1180000E+00
       11   -1    0    0    0    0  0.00000000000E+00  0.00000000000E+00  0.39999999673E+01  0.40000000000E+01  0.51109989000E-03 0. -1.
     -623   -1    0    0    0    0  0.00000000000E+00  0.00000000000E+00  0.12525980253E-10  0.17130000000E+03  0.17130000000E+03 0.  1.
       11    1    1    2    0    0 -0.94833221404E-02 -0.34338544288E-02  0.32218537186E+00  0.32234360521E+00  0.51109989000E-03 0. -1.
     -623    1    1    2    0    0  0.88585237648E-02  0.46665269976E-02  0.28111579828E-03  0.17130000029E+03  0.17130000000E+03 0.  1.
      622    1    1    2    0    0  0.62479837335E-03 -0.12326725700E-02  0.36775334807E+01  0.36776561030E+01  0.30000000000E-01 0. -1.
</event>
<event>
 5   0  0.4961200E+08  0.9118800E+02  0.7818608E-02  0.1180000E+00
       11   -1    0    0    0    0  0.00000000000E+00  0.00000000000E+00  0.39999999673E+01  0.40000000000E+01  0.51109989000E-03 0. -1.
     -623   -1    0    0    0    0  0.00000000000E+00  0.00000000000E+00  0.12525980253E-10  0.17130000000E+03  0.17130000000E+03 0. -1.
       11    1    1    2    0    0 -0.11559700426E-02  0.46974098906E-03  0.26563839653E-02  0.29790136295E-02  0.51109989000E-03 0. -1.
     -623    1    1    2    0    0 -0.22435444579E-02  0.48246923661E-02  0.44021795727E-03  0.17130000008E+03  0.17130000000E+03 0. -1.
      622    1    1    2    0    0  0.33995145005E-02 -0.52944333553E-02  0.39969033656E+01  0.39970209033E+01  0.30000000000E-01 0. -1.
</event>
<event>
 5   0  0.4961200E+08  0.9118800E+02  0.7818608E-02  0.1180000E+00
       11   -1    0    0    0    0  0.00000000000E+00  0.00000000000E+00  0.39999999673E+01  0.40000000000E+01  0.51109989000E-03 0. -1.
     -623   -1    0    0    0    0  0.00000000000E+00  0.00000000000E+00  0.12525980253E-10  0.17130000000E+03  0.17130000000E+03 0. -1.
       11    1    1    2    0    0  0.28746713165E-02 -0.85917700675E-03  0.13718480327E+00  0.13721856067E+00  0.51109989000E-03 0. -1.
     -623    1    1    2    0    0 -0.49482873934E-02 -0.24433043943E-03  0.15100881603E-03  0.17130000007E+03  0.17130000000E+03 0. -1.
      622    1    1    2    0    0  0.20736160818E-02  0.11035074464E-02  0.38626641592E+01  0.38627813716E+01  0.30000000000E-01 0. -1.
</event>
<event>
 5   0  0.4961200E+08  0.9118800E+02  0.7818608E-02  0.1180000E+00
       11   -1    0    0    0    0  0.00000000000E+00  0.00000000000E+00  0.39999999673E+01  0.40000000000E+01  0.51109989000E-03 0.  1.
     -623   -1    0    0    0    0  0.00000000000E+00  0.00000000000E+00  0.12525980253E-10  0.17130000000E+03  0.17130000000E+03 0.  1.
       11    1    1    2    0    0  0.16451476303E-02 -0.53407969962E-03  0.32758893246E-01  0.32808505919E-01  0.51109989000E-03 0.  1.
     -623    1    1    2    0    0  0.11046574544E-03  0.52113654350E-03  0.16340142210E-03  0.17130000000E+03  0.17130000000E+03 0.  1.
      622    1    1    2    0    0 -0.17556133758E-02  0.12943156117E-04  0.39670776727E+01  0.39671914932E+01  0.30000000000E-01 0.  1.
</event>
<event>
 5   0  0.4961200E+08  0.9118800E+02  0.7818608E-02  0.1180000E+00
       11   -1    0    0    0    0  0.00000000000E+00  0.00000000000E+00  0.39999999673E+01  0.40000000000E+01  0.51109989000E-03 0.  1.
     -623   -1    0    0    0    0  0.00000000000E+00  0.00000000000E+00  0.12525980253E-10  0.17130000000E+03  0.17130000000E+03 0. -1.
       11    1    1    2    0    0  0.37917829911E-03 -0.34945436371E-02  0.92925425806E-01  0.92993287907E-01  0.51109989000E-03 0.  1.
     -623    1    1    2    0    0 -0.44047235728E-03  0.40090652453E-03  0.18423529655E-03  0.17130000000E+03  0.17130000000E+03 0. -1.
      622    1    1    2    0    0  0.61294058111E-04  0.30936371126E-02  0.39068903058E+01  0.39070067105E+01  0.30000000000E-01 0.  1.
</event>
<event>
 5   0  0.4961200E+08  0.9118800E+02  0.7818608E-02  0.1180000E+00
       11   -1    0    0    0    0  0.00000000000E+00  0.00000000000E+00  0.39999999673E+01  0.40000000000E+01  0.51109989000E-03 0. -1.
     -623   -1    0    0    0    0  0.00000000000E+00  0.00000000000E+00  0.12525980253E-10  0.17130000000E+03  0.17130000000E+03 0. -1.
       11    1    1    2    0    0  0.21197460312E-02  0.52363871749E-02  0.15097291558E+00  0.15107943452E+00  0.51109989000E-03 0. -1.
     -623    1    1    2    0    0  0.23423174964E-02 -0.11440788272E-03  0.22941486501E-03  0.17130000002E+03  0.17130000000E+03 0. -1.
      622    1    1    2    0    0 -0.44620635289E-02 -0.51219792921E-02  0.38487976392E+01  0.38489205515E+01  0.30000000000E-01 0. -1.
</event>
<event>
 5   0  0.4961200E+08  0.9118800E+02  0.7818608E-02  0.1180000E+00
       11   -1    0    0    0    0  0.00000000000E+00  0.00000000000E+00  0.39999999673E+01  0.40000000000E+01  0.51109989000E-03 0.  1.
     -623   -1    0    0    0    0  0.00000000000E+00  0.00000000000E+00  0.12525980253E-10  0.17130000000E+03  0.17130000000E+03 0.  1.
       11    1    1    2    0    0  0.78491231564E-03  0.27998460177E-02  0.28119287436E+00  0.28120837298E+00  0.51109989000E-03 0.  1.
     -623    1    1    2    0    0 -0.29294959765E-03 -0.82950087479E-03  0.13703185775E-03  0.17130000000E+03  0.17130000000E+03 0.  1.
      622    1    1    2    0    0 -0.49196271773E-03 -0.19703451422E-02  0.37186700645E+01  0.37187916281E+01  0.30000000000E-01 0.  1.
</event>
<event>
 5   0  0.4961200E+08  0.9118800E+02  0.7818608E-02  0.1180000E+00
       11   -1    0    0    0    0  0.00000000000E+00  0.00000000000E+00  0.39999999673E+01  0.40000000000E+01  0.51109989000E-03 0. -1.
     -623   -1    0    0    0    0  0.00000000000E+00  0.00000000000E+00  0.12525980253E-10  0.17130000000E+03  0.17130000000E+03 0.  1.
       11    1    1    2    0    0  0.37850038574E-02 -0.17294711856E-02  0.37868656073E-01  0.38100048010E-01  0.51109989000E-03 0. -1.
     -623    1    1    2    0    0 -0.43739731249E-03 -0.19374018221E-02  0.34806594010E-03  0.17130000001E+03  0.17130000000E+03 0.  1.
      622    1    1    2    0    0 -0.33476065449E-02  0.36668730076E-02  0.39617832453E+01  0.39618999401E+01  0.30000000000E-01 0. -1.
</event>
<event>
 5   0  0.4961200E+08  0.9118800E+02  0.7818608E-02  0.1180000E+00
       11   -1    0    0    0    0  0.00000000000E+00  0.00000000000E+00  0.39999999673E+01  0.40000000000E+01  0.51109989000E-03 0.  1.
     -623   -1    0    0    0    0  0.00000000000E+00  0.00000000000E+00  0.12525980253E-10  0.17130000000E+03  0.17130000000E+03 0.  1.
       11    1    1    2    0    0  0.20623955704E-01 -0.11969029407E-01  0.25426449959E+00  0.25538070049E+00  0.51109989000E-03 0.  1.
     -623    1    1    2    0    0  0.26783578727E-02  0.44008385904E-02  0.13165803054E-02  0.17130000008E+03  0.17130000000E+03 0.  1.
      622    1    1    2    0    0 -0.23302313576E-01  0.75681908165E-02  0.37444188875E+01  0.37446192170E+01  0.30000000000E-01 0.  1.
</event>
<event>
 5   0  0.4961200E+08  0.9118800E+02  0.7818608E-02  0.1180000E+00
       11   -1    0    0    0    0  0.00000000000E+00  0.00000000000E+00  0.39999999673E+01  0.40000000000E+01  0.51109989000E-03 0. -1.
     -623   -1    0    0    0    0  0.00000000000E+00  0.00000000000E+00  0.12525980253E-10  0.17130000000E+03  0.17130000000E+03 0.  1.
       11    1    1    2    0    0 -0.77707063583E-02  0.39585945451E-02  0.42335437790E-01  0.43227362438E-01  0.51109989000E-03 0. -1.
     -623    1    1    2    0    0  0.32255894550E-02  0.61592456075E-03  0.10109121360E-02  0.17130000003E+03  0.17130000000E+03 0.  1.
      622    1    1    2    0    0  0.45451169033E-02 -0.45745191059E-02  0.39566536174E+01  0.39567726031E+01  0.30000000000E-01 0. -1.
</event>
<event>
 5   0  0.4961200E+08  0.9118800E+02  0.7818608E-02  0.1180000E+00
       11   -1    0    0    0    0  0.00000000000E+00  0.00000000000E+00  0.39999999673E+01  0.40000000000E+01  0.51109989000E-03 0. -1.
     -623   -1    0    0    0    0  0.00000000000E+00  0.00000000000E+00  0.12525980253E-10  0.17130000000E+03  0.17130000000E+03 0. -1.
       11    1    1    2    0    0  0.19162078072E-02  0.31870433431E-02  0.32362152070E-01  0.32579122222E-01  0.51109989000E-03 0. -1.
     -623    1    1    2    0    0 -0.23530828401E-02  0.17926051015E-02  0.33353802242E-03  0.17130000003E+03  0.17130000000E+03 0. -1.
      622    1    1    2    0    0  0.43687503286E-03 -0.49796484446E-02  0.39673042773E+01  0.39674208519E+01  0.30000000000E-01 0. -1.
</event>
<event>
 5   0  0.4961200E+08  0.9118800E+02  0.7818608E-02  0.1180000E+00
       11   -1    0    0    0    0  0.00000000000E+00  0.00000000000E+00  0.39999999673E+01  0.40000000000E+01  0.51109989000E-03 0. -1.
     -623   -1    0    0    0    0  0.00000000000E+00  0.00000000000E+00  0.12525980253E-10  0.17130000000E+03  0.17130000000E+03 0. -1.
       11    1    1    2    0    0 -0.20487631067E-02  0.12501069551E-02  0.41729052977E-01  0.41801139724E-01  0.51109989000E-03 0. -1.
     -623    1    1    2    0    0  0.17040326333E-02 -0.37391877363E-02  0.18659085548E-03  0.17130000005E+03  0.17130000000E+03 0. -1.
      622    1    1    2    0    0  0.34473047341E-03  0.24890807812E-02  0.39580843235E+01  0.39581988109E+01  0.30000000000E-01 0. -1.
</event>
<event>
 5   0  0.4961200E+08  0.9118800E+02  0.7818608E-02  0.1180000E+00
       11   -1    0    0    0    0  0.00000000000E+00  0.00000000000E+00  0.39999999673E+01  0.40000000000E+01  0.51109989000E-03 0. -1.
     -623   -1    0    0    0    0  0.00000000000E+00  0.00000000000E+00  0.12525980253E-10  0.17130000000E+03  0.17130000000E+03 0. -1.
       11    1    1    2    0    0  0.24956375814E-03 -0.11161990676E-02  0.10558324361E-01  0.10632385342E-01  0.51109989000E-03 0. -1.
     -623    1    1    2    0    0 -0.25644155766E-03 -0.55692499340E-04  0.18700220532E-03  0.17130000000E+03  0.17130000000E+03 0. -1.
      622    1    1    2    0    0  0.68777995204E-05  0.11718915670E-02  0.39892546408E+01  0.39893676144E+01  0.30000000000E-01 0. -1.
</event>
<event>
 5   0  0.4961200E+08  0.9118800E+02  0.7818608E-02  0.1180000E+00
       11   -1    0    0    0    0  0.00000000000E+00  0.00000000000E+00  0.39999999673E+01  0.40000000000E+01  0.51109989000E-03 0.  1.
     -623   -1    0    0    0    0  0.00000000000E+00  0.00000000000E+00  0.12525980253E-10  0.17130000000E+03  0.17130000000E+03 0.  1.
       11    1    1    2    0    0  0.16243975956E-02 -0.54670239439E-02  0.83777047978E+00  0.83779004830E+00  0.51109989000E-03 0.  1.
     -623    1    1    2    0    0 -0.65078000609E-04  0.50606442610E-03  0.16612156202E-03  0.17130000000E+03  0.17130000000E+03 0.  1.
      622    1    1    2    0    0 -0.15593195950E-02  0.49609595178E-02  0.31620633660E+01  0.31622099509E+01  0.30000000000E-01 0.  1.
</event>
<event>
 5   0  0.4961200E+08  0.9118800E+02  0.7818608E-02  0.1180000E+00
       11   -1    0    0    0    0  0.00000000000E+00  0.00000000000E+00  0.39999999673E+01  0.40000000000E+01  0.51109989000E-03 0.  1.
     -623   -1    0    0    0    0  0.00000000000E+00  0.00000000000E+00  0.12525980253E-10  0.17130000000E+03  0.17130000000E+03 0.  1.
       11    1    1    2    0    0 -0.75350491856E-02 -0.59283299969E-02  0.44038838588E+00  0.44049303480E+00  0.51109989000E-03 0.  1.
     -623    1    1    2    0    0  0.93648110619E-06  0.22931972964E-03  0.24357698283E-03  0.17130000000E+03  0.17130000000E+03 0.  1.
      622    1    1    2    0    0  0.75341127045E-02  0.56990102672E-02  0.35593680046E+01  0.35595069650E+01  0.30000000000E-01 0.  1.
</event>
<event>
 5   0  0.4961200E+08  0.9118800E+02  0.7818608E-02  0.1180000E+00
       11   -1    0    0    0    0  0.00000000000E+00  0.00000000000E+00  0.39999999673E+01  0.40000000000E+01  0.51109989000E-03 0.  1.
     -623   -1    0    0    0    0  0.00000000000E+00  0.00000000000E+00  0.12525980253E-10  0.17130000000E+03  0.17130000000E+03 0. -1.
       11    1    1    2    0    0 -0.21690591469E-02  0.28223023635E-02  0.63345886967E-02  0.72841228208E-02  0.51109989000E-03 0.  1.
     -623    1    1    2    0    0  0.45828203803E-03 -0.59970173144E-02  0.10639459178E-02  0.17130000011E+03  0.17130000000E+03 0. -1.
      622    1    1    2    0    0  0.17107771089E-02  0.31747149508E-02  0.39926014327E+01  0.39927157682E+01  0.30000000000E-01 0.  1.
</event>
<event>
 5   0  0.4961200E+08  0.9118800E+02  0.7818608E-02  0.1180000E+00
       11   -1    0    0    0    0  0.00000000000E+00  0.00000000000E+00  0.39999999673E+01  0.40000000000E+01  0.51109989000E-03 0.  1.
     -623   -1    0    0    0    0  0.00000000000E+00  0.00000000000E+00  0.12525980253E-10  0.17130000000E+03  0.17130000000E+03 0. -1.
       11    1    1    2    0    0  0.28279934233E-02 -0.18783407079E-02  0.36190415294E+00  0.36192043718E+00  0.51109989000E-03 0.  1.
     -623    1    1    2    0    0  0.37298145940E-02  0.10270377357E-01  0.15588389493E-03  0.17130000035E+03  0.17130000000E+03 0. -1.
      622    1    1    2    0    0 -0.65578080213E-02 -0.83920366594E-02  0.36379399347E+01  0.36380792184E+01  0.30000000000E-01 0.  1.
</event>
<event>
 5   0  0.4961200E+08  0.9118800E+02  0.7818608E-02  0.1180000E+00
       11   -1    0    0    0    0  0.00000000000E+00  0.00000000000E+00  0.39999999673E+01  0.40000000000E+01  0.51109989000E-03 0.  1.
     -623   -1    0    0    0    0  0.00000000000E+00  0.00000000000E+00  0.12525980253E-10  0.17130000000E+03  0.17130000000E+03 0. -1.
       11    1    1    2    0    0  0.22050315398E-03 -0.63870432894E-03  0.29822608126E-02  0.31002689420E-02  0.51109989000E-03 0.  1.
     -623    1    1    2    0    0  0.25345700578E-03  0.10342525510E-04  0.23064217781E-03  0.17130000000E+03  0.17130000000E+03 0. -1.
      622    1    1    2    0    0 -0.47396015965E-03  0.62836180344E-03  0.39967870628E+01  0.39968997291E+01  0.30000000000E-01 0.  1.
</event>
<event>
 5   0  0.4961200E+08  0.9118800E+02  0.7818608E-02  0.1180000E+00
       11   -1    0    0    0    0  0.00000000000E+00  0.00000000000E+00  0.39999999673E+01  0.40000000000E+01  0.51109989000E-03 0.  1.
     -623   -1    0    0    0    0  0.00000000000E+00  0.00000000000E+00  0.12525980253E-10  0.17130000000E+03  0.17130000000E+03 0. -1.
       11    1    1    2    0    0 -0.66211529954E-02 -0.18554318244E-02  0.32688172810E+00  0.32695444283E+00  0.51109989000E-03 0.  1.
     -623    1    1    2    0    0  0.84666332852E-02  0.11776842440E-01  0.20967614343E-03  0.17130000061E+03  0.17130000000E+03 0. -1.
      622    1    1    2    0    0 -0.18454802898E-02 -0.99214106160E-02  0.36729085631E+01  0.36730449430E+01  0.30000000000E-01 0.  1.
</event>
<event>
 5   0  0.4961200E+08  0.9118800E+02  0.7818608E-02  0.1180000E+00
       11   -1    0    0    0    0  0.00000000000E+00  0.00000000000E+00  0.39999999673E+01  0.40000000000E+01  0.51109989000E-03 0.  1.
     -623   -1    0    0    0    0  0.00000000000E+00  0.00000000000E+00  0.12525980253E-10  0.17130000000E+03  0.17130000000E+03 0.  1.
       11    1    1    2    0    0  0.75047902598E-02 -0.98123198495E-02  0.62483404354E+00  0.62495635583E+00  0.51109989000E-03 0.  1.
     -623    1    1    2    0    0  0.15307171114E-02  0.18355069289E-01  0.27951158862E-03  0.17130000099E+03  0.17130000000E+03 0.  1.
      622    1    1    2    0    0 -0.90355073714E-02 -0.85427494415E-02  0.33748864126E+01  0.33750426541E+01  0.30000000000E-01 0.  1.
</event>
<event>
 5   0  0.4961200E+08  0.9118800E+02  0.7818608E-02  0.1180000E+00
       11   -1    0    0    0    0  0.00000000000E+00  0.00000000000E+00  0.39999999673E+01  0.40000000000E+01  0.51109989000E-03 0. -1.
     -623   -1    0    0    0    0  0.00000000000E+00  0.00000000000E+00  0.12525980253E-10  0.17130000000E+03  0.17130000000E+03 0. -1.
       11    1    1    2    0    0  0.36632964331E-02 -0.13394347884E-02  0.53810868361E+00  0.53812306253E+00  0.51109989000E-03 0. -1.
     -623    1    1    2    0    0 -0.20587942843E-02  0.70242090298E-03  0.14478033244E-03  0.17130000001E+03  0.17130000000E+03 0. -1.
      622    1    1    2    0    0 -0.16045021485E-02  0.63701388528E-03  0.34617465041E+01  0.34618769243E+01  0.30000000000E-01 0. -1.
</event>
<event>
 5   0  0.4961200E+08  0.9118800E+02  0.7818608E-02  0.1180000E+00
       11   -1    0    0    0    0  0.00000000000E+00  0.00000000000E+00  0.39999999673E+01  0.40000000000E+01  0.51109989000E-03 0. -1.
     -623   -1    0    0    0    0  0.00000000000E+00  0.00000000000E+00  0.12525980253E-10  0.17130000000E+03  0.17130000000E+03 0.  1.
       11    1    1    2    0    0 -0.25641479249E-02  0.56060678326E-02  0.10685044297E-01  0.12346426355E-01  0.51109989000E-03 0. -1.
     -623    1    1    2    0    0 -0.17373991720E-03 -0.42817887529E-02  0.17754219685E-02  0.17130000006E+03  0.17130000000E+03 0.  1.
      622    1    1    2    0    0  0.27378878421E-02 -0.13242790796E-02  0.39875395011E+01  0.39876535108E+01  0.30000000000E-01 0. -1.
</event>
<event>
 5   0  0.4961200E+08  0.9118800E+02  0.7818608E-02  0.1180000E+00
       11   -1    0    0    0    0  0.00000000000E+00  0.00000000000E+00  0.39999999673E+01  0.40000000000E+01  0.51109989000E-03 0.  1.
     -623   -1    0    0    0    0  0.00000000000E+00  0.00000000000E+00  0.12525980253E-10  0.17130000000E+03  0.17130000000E+03 0.  1.
       11    1    1    2    0    0  0.34224215666E-02 -0.17363189561E-02  0.10876758810E+00  0.10883647007E+00  0.51109989000E-03 0.  1.
     -623    1    1    2    0    0 -0.12443558469E-02  0.40192193300E-03  0.18534118548E-03  0.17130000001E+03  0.17130000000E+03 0.  1.
      622    1    1    2    0    0 -0.21780657197E-02  0.13343970231E-02  0.38910470381E+01  0.38911635248E+01  0.30000000000E-01 0.  1.
</event>
<event>
 5   0  0.4961200E+08  0.9118800E+02  0.7818608E-02  0.1180000E+00
       11   -1    0    0    0    0  0.00000000000E+00  0.00000000000E+00  0.39999999673E+01  0.40000000000E+01  0.51109989000E-03 0. -1.
     -623   -1    0    0    0    0  0.00000000000E+00  0.00000000000E+00  0.12525980253E-10  0.17130000000E+03  0.17130000000E+03 0. -1.
       11    1    1    2    0    0  0.35380330296E-03  0.19191221584E-03  0.33932696814E-01  0.33938932543E-01  0.51109989000E-03 0. -1.
     -623    1    1    2    0    0 -0.29113601982E-02 -0.43784041415E-04  0.12051962563E-03  0.17130000002E+03  0.17130000000E+03 0. -1.
      622    1    1    2    0    0  0.25575568953E-02 -0.14812817443E-03  0.39659467509E+01  0.39660610427E+01  0.30000000000E-01 0. -1.
</event>
<event>
 5   0  0.4961200E+08  0.9118800E+02  0.7818608E-02  0.1180000E+00
       11   -1    0    0    0    0  0.00000000000E+00  0.00000000000E+00  0.39999999673E+01  0.40000000000E+01  0.51109989000E-03 0.  1.
     -623   -1    0    0    0    0  0.00000000000E+00  0.00000000000E+00  0.12525980253E-10  0.17130000000E+03  0.17130000000E+03 0. -1.
       11    1    1    2    0    0  0.13756724956E-01 -0.25887659473E-01  0.32961020058E+00  0.33091171624E+00  0.51109989000E-03 0.  1.
     -623    1    1    2    0    0 -0.61028625794E-02  0.18290444851E-01  0.14410717177E-02  0.17130000109E+03  0.17130000000E+03 0. -1.
      622    1    1    2    0    0 -0.76538623770E-02  0.75972146217E-02  0.36689486951E+01  0.36690871925E+01  0.30000000000E-01 0.  1.
</event>
<event>
 5   0  0.4961200E+08  0.9118800E+02  0.7818608E-02  0.1180000E+00
       11   -1    0    0    0    0  0.00000000000E+00  0.00000000000E+00  0.39999999673E+01  0.40000000000E+01  0.51109989000E-03 0.  1.
     -623   -1    0    0    0    0  0.00000000000E+00  0.00000000000E+00  0.12525980253E-10  0.17130000000E+03  0.17130000000E+03 0.  1.
       11    1    1    2    0    0  0.13452843049E-02 -0.20035134136E-02  0.13723841661E+00  0.13726058455E+00  0.51109989000E-03 0.  1.
     -623    1    1    2    0    0 -0.12470672311E-01  0.13276258755E-01  0.17207469276E-03  0.17130000097E+03  0.17130000000E+03 0.  1.
      622    1    1    2    0    0  0.11125388006E-01 -0.11272745341E-01  0.38625894761E+01  0.38627384470E+01  0.30000000000E-01 0.  1.
</event>
<event>
 5   0  0.4961200E+08  0.9118800E+02  0.7818608E-02  0.1180000E+00
       11   -1    0    0    0    0  0.00000000000E+00  0.00000000000E+00  0.39999999673E+01  0.40000000000E+01  0.51109989000E-03 0.  1.
     -623   -1    0    0    0    0  0.00000000000E+00  0.00000000000E+00  0.12525980253E-10  0.17130000000E+03  0.17130000000E+03 0.  1.
       11    1    1    2    0    0 -0.96304881957E-04 -0.17416901245E-01  0.71407847511E+00  0.71429103841E+00  0.51109989000E-03 0.  1.
     -623    1    1    2    0    0  0.75049493762E-02  0.16971941404E-01  0.35887887882E-03  0.17130000101E+03  0.17130000000E+03 0.  1.
      622    1    1    2    0    0 -0.74086444943E-02  0.44495984076E-03  0.32855626134E+01  0.32857079560E+01  0.30000000000E-01 0.  1.
</event>
<event>
 5   0  0.4961200E+08  0.9118800E+02  0.7818608E-02  0.1180000E+00
       11   -1    0    0    0    0  0.00000000000E+00  0.00000000000E+00  0.39999999673E+01  0.40000000000E+01  0.51109989000E-03 0. -1.
     -623   -1    0    0    0    0  0.00000000000E+00  0.00000000000E+00  0.12525980253E-10  0.17130000000E+03  0.17130000000E+03 0. -1.
       11    1    1    2    0    0  0.18290721451E-02  0.51161597684E-02  0.86724735151E+00  0.86726452165E+00  0.51109989000E-03 0. -1.
     -623    1    1    2    0    0 -0.65866437389E-02  0.58894877837E-02  0.18395895370E-03  0.17130000023E+03  0.17130000000E+03 0. -1.
      622    1    1    2    0    0  0.47575715938E-02 -0.11005647552E-01  0.31325686569E+01  0.31327352504E+01  0.30000000000E-01 0. -1.
</event>
<event>
 5   0  0.4961200E+08  0.9118800E+02  0.7818608E-02  0.1180000E+00
       11   -1    0    0    0    0  0.00000000000E+00  0.00000000000E+00  0.39999999673E+01  0.40000000000E+01  0.51109989000E-03 0.  1.
     -623   -1    0    0    0    0  0.00000000000E+00  0.00000000000E+00  0.12525980253E-10  0.17130000000E+03  0.17130000000E+03 0.  1.
       11    1    1    2    0    0 -0.12339932530E-03  0.17148017127E-02  0.17704093899E-01  0.17794716525E-01  0.51109989000E-03 0. -1.
     -623    1    1    2    0    0 -0.78248084201E-04  0.69714496204E-03  0.20433142154E-03  0.17130000000E+03  0.17130000000E+03 0.  1.
      622    1    1    2    0    0  0.20164740954E-03 -0.24119466751E-02  0.39820915441E+01  0.39822052840E+01  0.30000000000E-01 0.  1.
</event>
<event>
 5   0  0.4961200E+08  0.9118800E+02  0.7818608E-02  0.1180000E+00
       11   -1    0    0    0    0  0.00000000000E+00  0.00000000000E+00  0.39999999673E+01  0.40000000000E+01  0.51109989000E-03 0.  1.
     -623   -1    0    0    0    0  0.00000000000E+00  0.00000000000E+00  0.12525980253E-10  0.17130000000E+03  0.17130000000E+03 0. -1.
       11    1    1    2    0    0  0.42612164580E-03 -0.15417613850E-02  0.24565791735E-02  0.29756700353E-02  0.51109989000E-03 0.  1.
     -623    1    1    2    0    0  0.33704686967E-02  0.15316028070E-02  0.63348790601E-03  0.17130000004E+03  0.17130000000E+03 0. -1.
      622    1    1    2    0    0 -0.37965903423E-02  0.10158578046E-04  0.39969099000E+01  0.39970242886E+01  0.30000000000E-01 0.  1.
</event>
<event>
 5   0  0.4961200E+08  0.9118800E+02  0.7818608E-02  0.1180000E+00
       11   -1    0    0    0    0  0.00000000000E+00  0.00000000000E+00  0.39999999673E+01  0.40000000000E+01  0.51109989000E-03 0.  1.
     -623   -1    0    0    0    0  0.00000000000E+00  0.00000000000E+00  0.12525980253E-10  0.17130000000E+03  0.17130000000E+03 0. -1.
       11    1    1    2    0    0  0.41841839389E-02 -0.49122248462E-02  0.30010256783E+00  0.30017236680E+00  0.51109989000E-03 0.  1.
     -623    1    1    2    0    0 -0.15927902931E-03  0.21875108988E-02  0.19460244309E-03  0.17130000001E+03  0.17130000000E+03 0. -1.
      622    1    1    2    0    0 -0.40249049096E-02  0.27247139474E-02  0.36997027971E+01  0.36998276191E+01  0.30000000000E-01 0.  1.
</event>
<event>
 5   0  0.4961200E+08  0.9118800E+02  0.7818608E-02  0.1180000E+00
       11   -1    0    0    0    0  0.00000000000E+00  0.00000000000E+00  0.39999999673E+01  0.40000000000E+01  0.51109989000E-03 0. -1.
     -623   -1    0    0    0    0  0.00000000000E+00  0.00000000000E+00  0.12525980253E-10  0.17130000000E+03  0.17130000000E+03 0.  1.
       11    1    1    2    0    0 -0.28786505328E-02 -0.22264623651E-02  0.30474641916E-01  0.30695419635E-01  0.51109989000E-03 0. -1.
     -623    1    1    2    0    0  0.12959842057E-02 -0.84995584914E-03  0.33563178362E-03  0.17130000001E+03  0.17130000000E+03 0.  1.
      622    1    1    2    0    0  0.15826663266E-02  0.30764182146E-02  0.39691896952E+01  0.39693045746E+01  0.30000000000E-01 0. -1.
</event>
<event>
 5   0  0.4961200E+08  0.9118800E+02  0.7818608E-02  0.1180000E+00
       11   -1    0    0    0    0  0.00000000000E+00  0.00000000000E+00  0.39999999673E+01  0.40000000000E+01  0.51109989000E-03 0.  1.
     -623   -1    0    0    0    0  0.00000000000E+00  0.00000000000E+00  0.12525980253E-10  0.17130000000E+03  0.17130000000E+03 0. -1.
       11    1    1    2    0    0  0.19551338744E-01 -0.94688702686E-02  0.98733558521E+00  0.98757467231E+00  0.51109989000E-03 0.  1.
     -623    1    1    2    0    0 -0.31110554733E-01  0.47149661016E-02  0.41725994459E-03  0.17130000289E+03  0.17130000000E+03 0. -1.
      622    1    1    2    0    0  0.11559215988E-01  0.47539041669E-02  0.30122471222E+01  0.30124224372E+01  0.30000000000E-01 0.  1.
</event>
<event>
 5   0  0.4961200E+08  0.9118800E+02  0.7818608E-02  0.1180000E+00
       11   -1    0    0    0    0  0.00000000000E+00  0.00000000000E+00  0.39999999673E+01  0.40000000000E+01  0.51109989000E-03 0. -1.
     -623   -1    0    0    0    0  0.00000000000E+00  0.00000000000E+00  0.12525980253E-10  0.17130000000E+03  0.17130000000E+03 0. -1.
       11    1    1    2    0    0 -0.70760121048E-02  0.10848323626E-02  0.47635298863E-01  0.48172914894E-01  0.51109989000E-03 0. -1.
     -623    1    1    2    0    0 -0.89273827615E-03  0.25849246289E-02  0.66121810285E-03  0.17130000002E+03  0.17130000000E+03 0. -1.
      622    1    1    2    0    0  0.79687503811E-02 -0.36697569919E-02  0.39517034511E+01  0.39518270627E+01  0.30000000000E-01 0. -1.
</event>
<event>
 5   0  0.4961200E+08  0.9118800E+02  0.7818608E-02  0.1180000E+00
       11   -1    0    0    0    0  0.00000000000E+00  0.00000000000E+00  0.39999999673E+01  0.40000000000E+01  0.51109989000E-03 0. -1.
     -623   -1    0    0    0    0  0.00000000000E+00  0.00000000000E+00  0.12525980253E-10  0.17130000000E+03  0.17130000000E+03 0. -1.
       11    1    1    2    0    0  0.15497205949E-02 -0.15025436678E-02  0.63034312163E-01  0.63073330355E-01  0.51109989000E-03 0. -1.
     -623    1    1    2    0    0 -0.16787691765E-03 -0.38678102677E-03  0.15398603000E-03  0.17130000000E+03  0.17130000000E+03 0. -1.
      622    1    1    2    0    0 -0.13818436773E-02  0.18893246945E-02  0.39368116692E+01  0.39369266691E+01  0.30000000000E-01 0. -1.
</event>
<event>
 5   0  0.4961200E+08  0.9118800E+02  0.7818608E-02  0.1180000E+00
       11   -1    0    0    0    0  0.00000000000E+00  0.00000000000E+00  0.39999999673E+01  0.40000000000E+01  0.51109989000E-03 0. -1.
     -623   -1    0    0    0    0  0.00000000000E+00  0.00000000000E+00  0.12525980253E-10  0.17130000000E+03  0.17130000000E+03 0.  1.
       11    1    1    2    0    0  0.49603144993E-01  0.31194859856E-01  0.11517399627E+01  0.11532297231E+01  0.51109989000E-03 0. -1.
     -623    1    1    2    0    0  0.39266739436E-02 -0.30141844600E-02  0.22907632252E-02  0.17130000009E+03  0.17130000000E+03 0.  1.
      622    1    1    2    0    0 -0.53529818936E-01 -0.28180675396E-01  0.28459692414E+01  0.28467701901E+01  0.30000000000E-01 0. -1.
</event>
<event>
 5   0  0.4961200E+08  0.9118800E+02  0.7818608E-02  0.1180000E+00
       11   -1    0    0    0    0  0.00000000000E+00  0.00000000000E+00  0.39999999673E+01  0.40000000000E+01  0.51109989000E-03 0. -1.
     -623   -1    0    0    0    0  0.00000000000E+00  0.00000000000E+00  0.12525980253E-10  0.17130000000E+03  0.17130000000E+03 0. -1.
       11    1    1    2    0    0 -0.12264795271E-02  0.86396323094E-03  0.82888629807E-02  0.84390258386E-02  0.51109989000E-03 0. -1.
     -623    1    1    2    0    0  0.21544409537E-03  0.39695984800E-03  0.26319767152E-03  0.17130000000E+03  0.17130000000E+03 0. -1.
      622    1    1    2    0    0  0.10110354317E-02 -0.12609230790E-02  0.39914479069E+01  0.39915609736E+01  0.30000000000E-01 0. -1.
</event>
<event>
 5   0  0.4961200E+08  0.9118800E+02  0.7818608E-02  0.1180000E+00
       11   -1    0    0    0    0  0.00000000000E+00  0.00000000000E+00  0.39999999673E+01  0.40000000000E+01  0.51109989000E-03 0. -1.
     -623   -1    0    0    0    0  0.00000000000E+00  0.00000000000E+00  0.12525980253E-10  0.17130000000E+03  0.17130000000E+03 0. -1.
       11    1    1    2    0    0 -0.27922216237E-02  0.25373407666E-02  0.66019393045E+00  0.66020490881E+00  0.51109989000E-03 0. -1.
     -623    1    1    2    0    0 -0.28448023356E-02  0.31749329578E-02  0.15538299404E-03  0.17130000005E+03  0.17130000000E+03 0. -1.
      622    1    1    2    0    0  0.56370239594E-02 -0.57122737244E-02  0.33396506539E+01  0.33397950381E+01  0.30000000000E-01 0. -1.
</event>
<event>
 5   0  0.4961200E+08  0.9118800E+02  0.7818608E-02  0.1180000E+00
       11   -1    0    0    0    0  0.00000000000E+00  0.00000000000E+00  0.39999999673E+01  0.40000000000E+01  0.51109989000E-03 0.  1.
     -623   -1    0    0    0    0  0.00000000000E+00  0.00000000000E+00  0.12525980253E-10  0.17130000000E+03  0.17130000000E+03 0. -1.
       11    1    1    2    0    0 -0.12442240853E-02 -0.61944841384E-03  0.86235402920E+00  0.86235530073E+00  0.51109989000E-03 0.  1.
     -623    1    1    2    0    0  0.24187014284E-02  0.98173458853E-03  0.14492254781E-03  0.17130000002E+03  0.17130000000E+03 0. -1.
      622    1    1    2    0    0 -0.11744773425E-02 -0.36228617447E-03  0.31375010147E+01  0.31376446784E+01  0.30000000000E-01 0.  1.
</event>
<event>
 5   0  0.4961200E+08  0.9118800E+02  0.7818608E-02  0.1180000E+00
       11   -1    0    0    0    0  0.00000000000E+00  0.00000000000E+00  0.39999999673E+01  0.40000000000E+01  0.51109989000E-03 0.  1.
     -623   -1    0    0    0    0  0.00000000000E+00  0.00000000000E+00  0.12525980253E-10  0.17130000000E+03  0.17130000000E+03 0.  1.
       11    1    1    2    0    0  0.10459083087E-01  0.43379585468E-02  0.60251266294E-01  0.61308128470E-01  0.51109989000E-03 0.  1.
     -623    1    1    2    0    0 -0.86757286635E-03  0.39603676651E-03  0.11856131056E-02  0.17130000001E+03  0.17130000000E+03 0.  1.
      622    1    1    2    0    0 -0.95915102203E-02 -0.47339953134E-02  0.39385630881E+01  0.39386918649E+01  0.30000000000E-01 0.  1.
</event>
<event>
 5   0  0.4961200E+08  0.9118800E+02  0.7818608E-02  0.1180000E+00
       11   -1    0    0    0    0  0.00000000000E+00  0.00000000000E+00  0.39999999673E+01  0.40000000000E+01  0.51109989000E-03 0.  1.
     -623   -1    0    0    0    0  0.00000000000E+00  0.00000000000E+00  0.12525980253E-10  0.17130000000E+03  0.17130000000E+03 0.  1.
       11    1    1    2    0    0 -0.15136415528E-02  0.39549374747E-03  0.31074404853E-01  0.31117959222E-01  0.51109989000E-03 0.  1.
     -623    1    1    2    0    0  0.51809537304E-03 -0.20070378594E-03  0.15703601963E-03  0.17130000000E+03  0.17130000000E+03 0.  1.
      622    1    1    2    0    0  0.99554617925E-03 -0.19478996134E-03  0.39687685303E+01  0.39688820436E+01  0.30000000000E-01 0.  1.
</event>
<event>
 5   0  0.4961200E+08  0.9118800E+02  0.7818608E-02  0.1180000E+00
       11   -1    0    0    0    0  0.00000000000E+00  0.00000000000E+00  0.39999999673E+01  0.40000000000E+01  0.51109989000E-03 0. -1.
     -623   -1    0    0    0    0  0.00000000000E+00  0.00000000000E+00  0.12525980253E-10  0.17130000000E+03  0.17130000000E+03 0.  1.
       11    1    1    2    0    0  0.35992869599E-03 -0.36333157774E-02  0.33430073977E+00  0.33432106779E+00  0.51109989000E-03 0. -1.
     -623    1    1    2    0    0  0.51910735487E-05 -0.10425702657E-03  0.14498155453E-03  0.17130000000E+03  0.17130000000E+03 0.  1.
      622    1    1    2    0    0 -0.36511976954E-03  0.37375728040E-02  0.36655542491E+01  0.36656789352E+01  0.30000000000E-01 0. -1.
</event>
<event>
 5   0  0.4961200E+08  0.9118800E+02  0.7818608E-02  0.1180000E+00
       11   -1    0    0    0    0  0.00000000000E+00  0.00000000000E+00  0.39999999673E+01  0.40000000000E+01  0.51109989000E-03 0.  1.
     -623   -1    0    0    0    0  0.00000000000E+00  0.00000000000E+00  0.12525980253E-10  0.17130000000E+03  0.17130000000E+03 0. -1.
       11    1    1    2    0    0  0.40465100581E-02  0.16810526901E-02  0.89379707848E-01  0.89488510869E-01  0.51109989000E-03 0.  1.
     -623    1    1    2    0    0  0.26403454073E-03  0.16329958045E-02  0.22763481838E-03  0.17130000001E+03  0.17130000000E+03 0. -1.
      622    1    1    2    0    0 -0.43105445988E-02 -0.33140484946E-02  0.39103926247E+01  0.39105114810E+01  0.30000000000E-01 0.  1.
</event>
<event>
 5   0  0.4961200E+08  0.9118800E+02  0.7818608E-02  0.1180000E+00
       11   -1    0    0    0    0  0.00000000000E+00  0.00000000000E+00  0.39999999673E+01  0.40000000000E+01  0.51109989000E-03 0.  1.
     -623   -1    0    0    0    0  0.00000000000E+00  0.00000000000E+00  0.12525980253E-10  0.17130000000E+03  0.17130000000E+03 0. -1.
       11    1    1    2    0    0  0.13668104290E-02 -0.13922097176E-02  0.10002628229E-01  0.10203931239E-01  0.51109989000E-03 0.  1.
     -623    1    1    2    0    0  0.82118952679E-03  0.39135446271E-04  0.31489135406E-03  0.17130000000E+03  0.17130000000E+03 0. -1.
      622    1    1    2    0    0 -0.21879999558E-02  0.13530742713E-02  0.39896824478E+01  0.39897960665E+01  0.30000000000E-01 0.  1.
</event>
<event>
 5   0  0.4961200E+08  0.9118800E+02  0.7818608E-02  0.1180000E+00
       11   -1    0    0    0    0  0.00000000000E+00  0.00000000000E+00  0.39999999673E+01  0.40000000000E+01  0.51109989000E-03 0. -1.
     -623   -1    0    0    0    0  0.00000000000E+00  0.00000000000E+00  0.12525980253E-10  0.17130000000E+03  0.17130000000E+03 0.  1.
       11    1    1    2    0    0  0.23524316508E-02  0.40872872052E-03  0.21299310825E+00  0.21300710406E+00  0.51109989000E-03 0. -1.
     -623    1    1    2    0    0  0.11282058879E-02  0.35409467370E-02  0.13649251334E-03  0.17130000004E+03  0.17130000000E+03 0.  1.
      622    1    1    2    0    0 -0.34806375395E-02 -0.39496754604E-02  0.37868703698E+01  0.37869928588E+01  0.30000000000E-01 0.  0.
</event>
<event>
 5   0  0.4961200E+08  0.9118800E+02  0.7818608E-02  0.1180000E+00
       11   -1    0    0    0    0  0.00000000000E+00  0.00000000000E+00  0.39999999673E+01  0.40000000000E+01  0.51109989000E-03 0. -1.
     -623   -1    0    0    0    0  0.00000000000E+00  0.00000000000E+00  0.12525980253E-10  0.17130000000E+03  0.17130000000E+03 0.  1.
       11    1    1    2    0    0 -0.86651398211E-02  0.20997913172E-02  0.46601475226E+00  0.46610031572E+00  0.51109989000E-03 0. -1.
     -623    1    1    2    0    0  0.37555088872E-02  0.55464952041E-02  0.22468533893E-03  0.17130000013E+03  0.17130000000E+03 0.  1.
      622    1    1    2    0    0  0.49096309319E-02 -0.76462865242E-02  0.35337605319E+01  0.35338995553E+01  0.30000000000E-01 0. -1.
</event>
<event>
 5   0  0.4961200E+08  0.9118800E+02  0.7818608E-02  0.1180000E+00
       11   -1    0    0    0    0  0.00000000000E+00  0.00000000000E+00  0.39999999673E+01  0.40000000000E+01  0.51109989000E-03 0.  1.
     -623   -1    0    0    0    0  0.00000000000E+00  0.00000000000E+00  0.12525980253E-10  0.17130000000E+03  0.17130000000E+03 0.  1.
       11    1    1    2    0    0  0.91077404002E-02  0.15537884997E-01  0.11877208508E+01  0.11878575072E+01  0.51109989000E-03 0.  1.
     -623    1    1    2    0    0  0.97714539209E-03 -0.78715577062E-03  0.35342712901E-03  0.17130000000E+03  0.17130000000E+03 0.  1.
      622    1    1    2    0    0 -0.10084885793E-01 -0.14750729226E-01  0.28119256904E+01  0.28121424888E+01  0.30000000000E-01 0.  1.
</event>
<event>
 5   0  0.4961200E+08  0.9118800E+02  0.7818608E-02  0.1180000E+00
       11   -1    0    0    0    0  0.00000000000E+00  0.00000000000E+00  0.39999999673E+01  0.40000000000E+01  0.51109989000E-03 0. -1.
     -623   -1    0    0    0    0  0.00000000000E+00  0.00000000000E+00  0.12525980253E-10  0.17130000000E+03  0.17130000000E+03 0.  1.
       11    1    1    2    0    0  0.83430670182E-03 -0.11329073260E-01  0.29891720075E-01  0.31981559034E-01  0.51109989000E-03 0. -1.
     -623    1    1    2    0    0  0.17144880154E-02 -0.83264368362E-04  0.22204681789E-02  0.17130000002E+03  0.17130000000E+03 0.  1.
      622    1    1    2    0    0 -0.25487947172E-02  0.11412337628E-01  0.39678877791E+01  0.39680184180E+01  0.30000000000E-01 0. -1.
</event>
<event>
 5   0  0.4961200E+08  0.9118800E+02  0.7818608E-02  0.1180000E+00
       11   -1    0    0    0    0  0.00000000000E+00  0.00000000000E+00  0.39999999673E+01  0.40000000000E+01  0.51109989000E-03 0. -1.
     -623   -1    0    0    0    0  0.00000000000E+00  0.00000000000E+00  0.12525980253E-10  0.17130000000E+03  0.17130000000E+03 0.  1.
       11    1    1    2    0    0 -0.31550738340E-04 -0.39916491438E-04 -0.71866136729E-04  0.51862955425E-03  0.51109989000E-03 0. -1.
     -623    1    1    2    0    0  0.10780439466E-02  0.91400724840E-05  0.70312109103E-03  0.17130000000E+03  0.17130000000E+03 0.  1.
      622    1    1    2    0    0 -0.10464932083E-02  0.30776418954E-04  0.39993687126E+01  0.39994813658E+01  0.30000000000E-01 0. -1.
</event>
<event>
 5   0  0.4961200E+08  0.9118800E+02  0.7818608E-02  0.1180000E+00
       11   -1    0    0    0    0  0.00000000000E+00  0.00000000000E+00  0.39999999673E+01  0.40000000000E+01  0.51109989000E-03 0.  1.
     -623   -1    0    0    0    0  0.00000000000E+00  0.00000000000E+00  0.12525980253E-10  0.17130000000E+03  0.17130000000E+03 0.  1.
       11    1    1    2    0    0  0.32755233835E-02  0.49713213405E-02  0.23193344790E+00  0.23201040616E+00  0.51109989000E-03 0.  1.
     -623    1    1    2    0    0 -0.36179913779E-02 -0.36413133073E-02  0.19668192096E-03  0.17130000008E+03  0.17130000000E+03 0.  1.
      622    1    1    2    0    0  0.34246799582E-03 -0.13300080318E-02  0.37678698391E+01  0.37679895184E+01  0.30000000000E-01 0.  1.
</event>
<event>
 5   0  0.4961200E+08  0.9118800E+02  0.7818608E-02  0.1180000E+00
       11   -1    0    0    0    0  0.00000000000E+00  0.00000000000E+00  0.39999999673E+01  0.40000000000E+01  0.51109989000E-03 0.  1.
     -623   -1    0    0    0    0  0.00000000000E+00  0.00000000000E+00  0.12525980253E-10  0.17130000000E+03  0.17130000000E+03 0. -1.
       11    1    1    2    0    0  0.22559739920E-02 -0.62241083199E-02  0.11727792177E+01  0.11727980149E+01  0.51109989000E-03 0.  1.
     -623    1    1    2    0    0  0.30582282731E-03  0.31462937970E-03  0.18527475784E-03  0.17130000000E+03  0.17130000000E+03 0. -1.
      622    1    1    2    0    0 -0.25617968193E-02  0.59094789402E-02  0.28270354749E+01  0.28272019844E+01  0.30000000000E-01 0. -1.
</event>
<event>
 5   0  0.4961200E+08  0.9118800E+02  0.7818608E-02  0.1180000E+00
       11   -1    0    0    0    0  0.00000000000E+00  0.00000000000E+00  0.39999999673E+01  0.40000000000E+01  0.51109989000E-03 0.  1.
     -623   -1    0    0    0    0  0.00000000000E+00  0.00000000000E+00  0.12525980253E-10  0.17130000000E+03  0.17130000000E+03 0.  1.
       11    1    1    2    0    0 -0.60066957145E-03 -0.10590766989E-02  0.80918608255E-02  0.81988950078E-02  0.51109989000E-03 0.  1.
     -623    1    1    2    0    0  0.30950604933E-02  0.43983338596E-03  0.22059027049E-03  0.17130000003E+03  0.17130000000E+03 0.  1.
      622    1    1    2    0    0 -0.24943909219E-02  0.61924331292E-03  0.39916875163E+01  0.39918010763E+01  0.30000000000E-01 0.  1.
</event>
<event>
 5   0  0.4961200E+08  0.9118800E+02  0.7818608E-02  0.1180000E+00
       11   -1    0    0    0    0  0.00000000000E+00  0.00000000000E+00  0.39999999673E+01  0.40000000000E+01  0.51109989000E-03 0.  1.
     -623   -1    0    0    0    0  0.00000000000E+00  0.00000000000E+00  0.12525980253E-10  0.17130000000E+03  0.17130000000E+03 0. -1.
       11    1    1    2    0    0  0.46291471465E-03 -0.17283246551E-02  0.13396476365E-01  0.13525095089E-01  0.51109989000E-03 0.  1.
     -623    1    1    2    0    0 -0.38592568582E-03  0.26515089389E-03  0.24173944583E-03  0.17130000000E+03  0.17130000000E+03 0. -1.
      622    1    1    2    0    0 -0.76989028830E-04  0.14631737612E-02  0.39863617515E+01  0.39864749041E+01  0.30000000000E-01 0.  1.
</event>
<event>
 5   0  0.4961200E+08  0.9118800E+02  0.7818608E-02  0.1180000E+00
       11   -1    0    0    0    0  0.00000000000E+00  0.00000000000E+00  0.39999999673E+01  0.40000000000E+01  0.51109989000E-03 0. -1.
     -623   -1    0    0    0    0  0.00000000000E+00  0.00000000000E+00  0.12525980253E-10  0.17130000000E+03  0.17130000000E+03 0. -1.
       11    1    1    2    0    0 -0.16855110243E-02 -0.13906766349E-02  0.13275948023E-01  0.13464284160E-01  0.51109989000E-03 0. -1.
     -623    1    1    2    0    0 -0.63974471503E-03  0.15293177580E-03  0.30205689295E-03  0.17130000000E+03  0.17130000000E+03 0. -1.
      622    1    1    2    0    0  0.23252557395E-02  0.12377448591E-02  0.39864219634E+01  0.39865357153E+01  0.30000000000E-01 0. -1.
</event>
<event>
 5   0  0.4961200E+08  0.9118800E+02  0.7818608E-02  0.1180000E+00
       11   -1    0    0    0    0  0.00000000000E+00  0.00000000000E+00  0.39999999673E+01  0.40000000000E+01  0.51109989000E-03 0.  1.
     -623   -1    0    0    0    0  0.00000000000E+00  0.00000000000E+00  0.12525980253E-10  0.17130000000E+03  0.17130000000E+03 0. -1.
       11    1    1    2    0    0 -0.16796831940E-02 -0.74226151634E-03  0.23923767787E+00  0.23924527169E+00  0.51109989000E-03 0.  1.
     -623    1    1    2    0    0 -0.16573499342E-02 -0.16439337146E-03  0.12881791974E-03  0.17130000001E+03  0.17130000000E+03 0. -1.
      622    1    1    2    0    0  0.33370331282E-02  0.90665488780E-03  0.37606334716E+01  0.37607547202E+01  0.30000000000E-01 0.  1.
</event>
<event>
 5   0  0.4961200E+08  0.9118800E+02  0.7818608E-02  0.1180000E+00
       11   -1    0    0    0    0  0.00000000000E+00  0.00000000000E+00  0.39999999673E+01  0.40000000000E+01  0.51109989000E-03 0.  1.
     -623   -1    0    0    0    0  0.00000000000E+00  0.00000000000E+00  0.12525980253E-10  0.17130000000E+03  0.17130000000E+03 0. -1.
       11    1    1    2    0    0 -0.41562703559E-03  0.47838180342E-02  0.44502695607E+00  0.44505315470E+00  0.51109989000E-03 0.  1.
     -623    1    1    2    0    0 -0.14861298367E-02  0.27242125779E-03  0.15686375467E-03  0.17130000001E+03  0.17130000000E+03 0. -1.
      622    1    1    2    0    0  0.19017568723E-02 -0.50562392919E-02  0.35548161475E+01  0.35549468386E+01  0.30000000000E-01 0.  1.
</event>
<event>
 5   0  0.4961200E+08  0.9118800E+02  0.7818608E-02  0.1180000E+00
       11   -1    0    0    0    0  0.00000000000E+00  0.00000000000E+00  0.39999999673E+01  0.40000000000E+01  0.51109989000E-03 0.  1.
     -623   -1    0    0    0    0  0.00000000000E+00  0.00000000000E+00  0.12525980253E-10  0.17130000000E+03  0.17130000000E+03 0.  1.
       11    1    1    2    0    0  0.22334780648E-02 -0.18327636852E-02  0.11683127608E+00  0.11686811259E+00  0.51109989000E-03 0.  1.
     -623    1    1    2    0    0 -0.44074228331E-03 -0.78399607809E-03  0.15398942704E-03  0.17130000000E+03  0.17130000000E+03 0.  1.
      622    1    1    2    0    0 -0.17927357816E-02  0.26167597633E-02  0.38830147016E+01  0.38831318847E+01  0.30000000000E-01 0.  1.
</event>
<event>
 5   0  0.4961200E+08  0.9118800E+02  0.7818608E-02  0.1180000E+00
       11   -1    0    0    0    0  0.00000000000E+00  0.00000000000E+00  0.39999999673E+01  0.40000000000E+01  0.51109989000E-03 0. -1.
     -623   -1    0    0    0    0  0.00000000000E+00  0.00000000000E+00  0.12525980253E-10  0.17130000000E+03  0.17130000000E+03 0.  1.
       11    1    1    2    0    0 -0.78772315022E-02  0.45910600632E-03  0.45189871289E-01  0.45876434512E-01  0.51109989000E-03 0. -1.
     -623    1    1    2    0    0 -0.46692835014E-03  0.61756135929E-03  0.80929207789E-03  0.17130000000E+03  0.17130000000E+03 0.  1.
      622    1    1    2    0    0  0.83441598523E-02 -0.10766673656E-02  0.39540008040E+01  0.39541235618E+01  0.30000000000E-01 0. -1.
</event>
<event>
 5   0  0.4961200E+08  0.9118800E+02  0.7818608E-02  0.1180000E+00
       11   -1    0    0    0    0  0.00000000000E+00  0.00000000000E+00  0.39999999673E+01  0.40000000000E+01  0.51109989000E-03 0. -1.
     -623   -1    0    0    0    0  0.00000000000E+00  0.00000000000E+00  0.12525980253E-10  0.17130000000E+03  0.17130000000E+03 0. -1.
       11    1    1    2    0    0 -0.13740578622E-02  0.27670319955E-03  0.62158360524E-01  0.62176262387E-01  0.51109989000E-03 0. -1.
     -623    1    1    2    0    0  0.23717092667E-02  0.23176031063E-02  0.13316034267E-03  0.17130000003E+03  0.17130000000E+03 0. -1.
      622    1    1    2    0    0 -0.99765140456E-03 -0.25943063059E-02  0.39377084465E+01  0.39378237055E+01  0.30000000000E-01 0. -1.
</event>
<event>
 5   0  0.4961200E+08  0.9118800E+02  0.7818608E-02  0.1180000E+00
       11   -1    0    0    0    0  0.00000000000E+00  0.00000000000E+00  0.39999999673E+01  0.40000000000E+01  0.51109989000E-03 0. -1.
     -623   -1    0    0    0    0  0.00000000000E+00  0.00000000000E+00  0.12525980253E-10  0.17130000000E+03  0.17130000000E+03 0. -1.
       11    1    1    2    0    0  0.24862849063E-05  0.45887309452E-02  0.24562415981E+00  0.24566755090E+00  0.51109989000E-03 0. -1.
     -623    1    1    2    0    0  0.83504228452E-03 -0.20043213117E-03  0.16588227391E-03  0.17130000000E+03  0.17130000000E+03 0. -1.
      622    1    1    2    0    0 -0.83752856943E-03 -0.43882988140E-02  0.37542099253E+01  0.37543324469E+01  0.30000000000E-01 0. -1.
</event>
<event>
 5   0  0.4961200E+08  0.9118800E+02  0.7818608E-02  0.1180000E+00
       11   -1    0    0    0    0  0.00000000000E+00  0.00000000000E+00  0.39999999673E+01  0.40000000000E+01  0.51109989000E-03 0. -1.
     -623   -1    0    0    0    0  0.00000000000E+00  0.00000000000E+00  0.12525980253E-10  0.17130000000E+03  0.17130000000E+03 0.  1.
       11    1    1    2    0    0  0.35511932995E-02 -0.30695707121E-02  0.21334827412E+00  0.21340051671E+00  0.51109989000E-03 0. -1.
     -623    1    1    2    0    0 -0.25178992157E-02 -0.15966868410E-03  0.17258860733E-03  0.17130000002E+03  0.17130000000E+03 0.  1.
      622    1    1    2    0    0 -0.10332940834E-02  0.32292393962E-02  0.37864791053E+01  0.37865994653E+01  0.30000000000E-01 0. -1.
</event>
<event>
 5   0  0.4961200E+08  0.9118800E+02  0.7818608E-02  0.1180000E+00
       11   -1    0    0    0    0  0.00000000000E+00  0.00000000000E+00  0.39999999673E+01  0.40000000000E+01  0.51109989000E-03 0.  1.
     -623   -1    0    0    0    0  0.00000000000E+00  0.00000000000E+00  0.12525980253E-10  0.17130000000E+03  0.17130000000E+03 0. -1.
       11    1    1    2    0    0 -0.13751982562E-02  0.75924332361E-02  0.44138064633E+00  0.44144838021E+00  0.51109989000E-03 0.  1.
     -623    1    1    2    0    0  0.92458848225E-03  0.67707875317E-03  0.20380078726E-03  0.17130000000E+03  0.17130000000E+03 0. -1.
      622    1    1    2    0    0  0.45060977391E-03 -0.82695119893E-02  0.35584155202E+01  0.35585516158E+01  0.30000000000E-01 0.  1.
</event>
<event>
 5   0  0.4961200E+08  0.9118800E+02  0.7818608E-02  0.1180000E+00
       11   -1    0    0    0    0  0.00000000000E+00  0.00000000000E+00  0.39999999673E+01  0.40000000000E+01  0.51109989000E-03 0. -1.
     -623   -1    0    0    0    0  0.00000000000E+00  0.00000000000E+00  0.12525980253E-10  0.17130000000E+03  0.17130000000E+03 0.  1.
       11    1    1    2    0    0 -0.32092854067E-02 -0.95625704252E-03  0.44766609790E+00  0.44767891437E+00  0.51109989000E-03 0. -1.
     -623    1    1    2    0    0 -0.45429063011E-03 -0.20786839788E-02  0.14266283083E-03  0.17130000001E+03  0.17130000000E+03 0.  1.
      622    1    1    2    0    0  0.36635760368E-02  0.30349410213E-02  0.35521912066E+01  0.35523210724E+01  0.30000000000E-01 0. -1.
</event>
<event>
 5   0  0.4961200E+08  0.9118800E+02  0.7818608E-02  0.1180000E+00
       11   -1    0    0    0    0  0.00000000000E+00  0.00000000000E+00  0.39999999673E+01  0.40000000000E+01  0.51109989000E-03 0. -1.
     -623   -1    0    0    0    0  0.00000000000E+00  0.00000000000E+00  0.12525980253E-10  0.17130000000E+03  0.17130000000E+03 0.  1.
       11    1    1    2    0    0  0.34518279174E-01 -0.63825986522E-02  0.67602634224E+00  0.67693731304E+00  0.51109989000E-03 0. -1.
     -623    1    1    2    0    0 -0.15212104164E-01 -0.22502874701E-01  0.12301531168E-02  0.17130000216E+03  0.17130000000E+03 0.  1.
      622    1    1    2    0    0 -0.19306175010E-01  0.28885473354E-01  0.33227434723E+01  0.33230605293E+01  0.30000000000E-01 0. -1.
</event>
<event>
 5   0  0.4961200E+08  0.9118800E+02  0.7818608E-02  0.1180000E+00
       11   -1    0    0    0    0  0.00000000000E+00  0.00000000000E+00  0.39999999673E+01  0.40000000000E+01  0.51109989000E-03 0.  1.
     -623   -1    0    0    0    0  0.00000000000E+00  0.00000000000E+00  0.12525980253E-10  0.17130000000E+03  0.17130000000E+03 0. -1.
       11    1    1    2    0    0  0.12371942119E-02 -0.22013807017E-02  0.43482902902E-01  0.43559164298E-01  0.51109989000E-03 0.  1.
     -623    1    1    2    0    0 -0.10443665229E-02  0.48924227798E-02  0.19096204330E-03  0.17130000007E+03  0.17130000000E+03 0. -1.
      622    1    1    2    0    0 -0.19282768910E-03 -0.26910420778E-02  0.39563261022E+01  0.39564407623E+01  0.30000000000E-01 0.  1.
</event>
<event>
 5   0  0.4961200E+08  0.9118800E+02  0.7818608E-02  0.1180000E+00
       11   -1    0    0    0    0  0.00000000000E+00  0.00000000000E+00  0.39999999673E+01  0.40000000000E+01  0.51109989000E-03 0.  1.
     -623   -1    0    0    0    0  0.00000000000E+00  0.00000000000E+00  0.12525980253E-10  0.17130000000E+03  0.17130000000E+03 0. -1.
       11    1    1    2    0    0  0.22664556131E-03  0.10960238589E-02  0.29893992541E-01  0.29919302292E-01  0.51109989000E-03 0.  1.
     -623    1    1    2    0    0 -0.48603836136E-03 -0.42999040702E-03  0.13869218008E-03  0.17130000000E+03  0.17130000000E+03 0. -1.
      622    1    1    2    0    0  0.25939280034E-03 -0.66603345160E-03  0.39699672850E+01  0.39700806988E+01  0.30000000000E-01 0.  1.
</event>
<event>
 5   0  0.4961200E+08  0.9118800E+02  0.7818608E-02  0.1180000E+00
       11   -1    0    0    0    0  0.00000000000E+00  0.00000000000E+00  0.39999999673E+01  0.40000000000E+01  0.51109989000E-03 0.  1.
     -623   -1    0    0    0    0  0.00000000000E+00  0.00000000000E+00  0.12525980253E-10  0.17130000000E+03  0.17130000000E+03 0. -1.
       11    1    1    2    0    0  0.24969556492E-02 -0.10201971570E-01  0.35382480656E+00  0.35398103053E+00  0.51109989000E-03 0.  1.
     -623    1    1    2    0    0 -0.21700753916E-03 -0.18716313386E-03  0.29513124809E-03  0.17130000000E+03  0.17130000000E+03 0. -1.
      622    1    1    2    0    0 -0.22799481101E-02  0.10389134704E-01  0.36458800301E+01  0.36460189695E+01  0.30000000000E-01 0.  1.
</event>
<event>
 5   0  0.4961200E+08  0.9118800E+02  0.7818608E-02  0.1180000E+00
       11   -1    0    0    0    0  0.00000000000E+00  0.00000000000E+00  0.39999999673E+01  0.40000000000E+01  0.51109989000E-03 0. -1.
     -623   -1    0    0    0    0  0.00000000000E+00  0.00000000000E+00  0.12525980253E-10  0.17130000000E+03  0.17130000000E+03 0.  1.
       11    1    1    2    0    0  0.36263025655E-02 -0.13669641877E-02  0.42433894926E-02  0.57694226136E-02  0.51109989000E-03 0. -1.
     -623    1    1    2    0    0 -0.25552311526E-02 -0.59396118374E-03  0.16393174734E-02  0.17130000003E+03  0.17130000000E+03 0.  1.
      622    1    1    2    0    0 -0.10710714128E-02  0.19609253714E-02  0.39941172604E+01  0.39942305495E+01  0.30000000000E-01 0. -1.
</event>
<event>
 5   0  0.4961200E+08  0.9118800E+02  0.7818608E-02  0.1180000E+00
       11   -1    0    0    0    0  0.00000000000E+00  0.00000000000E+00  0.39999999673E+01  0.40000000000E+01  0.51109989000E-03 0. -1.
     -623   -1    0    0    0    0  0.00000000000E+00  0.00000000000E+00  0.12525980253E-10  0.17130000000E+03  0.17130000000E+03 0. -1.
       11    1    1    2    0    0 -0.25126882271E-01  0.94162886890E-02  0.54623075712E+00  0.54688968535E+00  0.51109989000E-03 0. -1.
     -623    1    1    2    0    0 -0.18675784724E-02 -0.86359689430E-02  0.89505304728E-03  0.17130000023E+03  0.17130000000E+03 0. -1.
      622    1    1    2    0    0  0.26994460744E-01 -0.78031974551E-03  0.34528741574E+01  0.34531100846E+01  0.30000000000E-01 0. -1.
</event>
<event>
 5   0  0.4961200E+08  0.9118800E+02  0.7818608E-02  0.1180000E+00
       11   -1    0    0    0    0  0.00000000000E+00  0.00000000000E+00  0.39999999673E+01  0.40000000000E+01  0.51109989000E-03 0.  1.
     -623   -1    0    0    0    0  0.00000000000E+00  0.00000000000E+00  0.12525980253E-10  0.17130000000E+03  0.17130000000E+03 0. -1.
       11    1    1    2    0    0  0.36425784492E-02  0.29381875211E-02  0.35654618245E-01  0.35964070227E-01  0.51109989000E-03 0.  1.
     -623    1    1    2    0    0 -0.57970859835E-02 -0.34605436843E-02  0.42369514388E-03  0.17130000013E+03  0.17130000000E+03 0. -1.
      622    1    1    2    0    0  0.21545075343E-02  0.52235616315E-03  0.39639216540E+01  0.39640357962E+01  0.30000000000E-01 0.  1.
</event>
<event>
 5   0  0.4961200E+08  0.9118800E+02  0.7818608E-02  0.1180000E+00
       11   -1    0    0    0    0  0.00000000000E+00  0.00000000000E+00  0.39999999673E+01  0.40000000000E+01  0.51109989000E-03 0.  1.
     -623   -1    0    0    0    0  0.00000000000E+00  0.00000000000E+00  0.12525980253E-10  0.17130000000E+03  0.17130000000E+03 0.  1.
       11    1    1    2    0    0  0.11116017456E-02 -0.99149869813E-03  0.38670589253E-02  0.41754156605E-02  0.51109989000E-03 0.  1.
     -623    1    1    2    0    0  0.48817150994E-03  0.18065667574E-03  0.42134707146E-03  0.17130000000E+03  0.17130000000E+03 0.  1.
      622    1    1    2    0    0 -0.15997732556E-02  0.81084202238E-03  0.39957115616E+01  0.39958245833E+01  0.30000000000E-01 0.  1.
</event>
<event>
 5   0  0.4961200E+08  0.9118800E+02  0.7818608E-02  0.1180000E+00
       11   -1    0    0    0    0  0.00000000000E+00  0.00000000000E+00  0.39999999673E+01  0.40000000000E+01  0.51109989000E-03 0.  1.
     -623   -1    0    0    0    0  0.00000000000E+00  0.00000000000E+00  0.12525980253E-10  0.17130000000E+03  0.17130000000E+03 0. -1.
       11    1    1    2    0    0 -0.26982306424E-03  0.20494537921E-02  0.22236394351E-02  0.30787758552E-02  0.51109989000E-03 0.  1.
     -623    1    1    2    0    0 -0.96175381853E-03 -0.34738290414E-02  0.96817624044E-03  0.17130000004E+03  0.17130000000E+03 0. -1.
      622    1    1    2    0    0  0.12315768828E-02  0.14243752496E-02  0.39968081520E+01  0.39969211838E+01  0.30000000000E-01 0.  1.
</event>
<event>
 5   0  0.4961200E+08  0.9118800E+02  0.7818608E-02  0.1180000E+00
       11   -1    0    0    0    0  0.00000000000E+00  0.00000000000E+00  0.39999999673E+01  0.40000000000E+01  0.51109989000E-03 0. -1.
     -623   -1    0    0    0    0  0.00000000000E+00  0.00000000000E+00  0.12525980253E-10  0.17130000000E+03  0.17130000000E+03 0. -1.
       11    1    1    2    0    0 -0.13781412697E-01 -0.17579794778E-01  0.11477079104E+01  0.11479253832E+01  0.51109989000E-03 0. -1.
     -623    1    1    2    0    0 -0.35375811087E-02 -0.90398896248E-03  0.48775157701E-03  0.17130000004E+03  0.17130000000E+03 0. -1.
      622    1    1    2    0    0  0.17318993806E-01  0.18483783741E-01  0.28518043056E+01  0.28520745774E+01  0.30000000000E-01 0.  0.
</event>
<event>
 5   0  0.4961200E+08  0.9118800E+02  0.7818608E-02  0.1180000E+00
       11   -1    0    0    0    0  0.00000000000E+00  0.00000000000E+00  0.39999999673E+01  0.40000000000E+01  0.51109989000E-03 0. -1.
     -623   -1    0    0    0    0  0.00000000000E+00  0.00000000000E+00  0.12525980253E-10  0.17130000000E+03  0.17130000000E+03 0. -1.
       11    1    1    2    0    0  0.14951913318E-01 -0.21480980071E-02  0.89281468450E+00  0.89294260517E+00  0.51109989000E-03 0. -1.
     -623    1    1    2    0    0 -0.11682940384E-01  0.71732785051E-02  0.27905547525E-03  0.17130000055E+03  0.17130000000E+03 0. -1.
      622    1    1    2    0    0 -0.32689729315E-02 -0.50251804994E-02  0.31069062282E+01  0.31070568468E+01  0.30000000000E-01 0. -1.
</event>
<event>
 5   0  0.4961200E+08  0.9118800E+02  0.7818608E-02  0.1180000E+00
       11   -1    0    0    0    0  0.00000000000E+00  0.00000000000E+00  0.39999999673E+01  0.40000000000E+01  0.51109989000E-03 0. -1.
     -623   -1    0    0    0    0  0.00000000000E+00  0.00000000000E+00  0.12525980253E-10  0.17130000000E+03  0.17130000000E+03 0.  1.
       11    1    1    2    0    0 -0.60338232205E-03  0.58611177576E-03  0.14102464083E-01  0.14136771681E-01  0.51109989000E-03 0. -1.
     -623    1    1    2    0    0 -0.39596694742E-03 -0.19046374584E-04  0.14734170828E-03  0.17130000000E+03  0.17130000000E+03 0.  1.
      622    1    1    2    0    0  0.99934926937E-03 -0.56706540118E-03  0.39857501606E+01  0.39858632268E+01  0.30000000000E-01 0. -1.
</event>
<event>
 5   0  0.4961200E+08  0.9118800E+02  0.7818608E-02  0.1180000E+00
       11   -1    0    0    0    0  0.00000000000E+00  0.00000000000E+00  0.39999999673E+01  0.40000000000E+01  0.51109989000E-03 0. -1.
     -623   -1    0    0    0    0  0.00000000000E+00  0.00000000000E+00  0.12525980253E-10  0.17130000000E+03  0.17130000000E+03 0.  1.
       11    1    1    2    0    0 -0.17601907028E-01 -0.61063332828E-02  0.39322646217E+00  0.39366791362E+00  0.51109989000E-03 0. -1.
     -623    1    1    2    0    0 -0.36792680857E-02 -0.37144087865E-03  0.63485409169E-03  0.17130000004E+03  0.17130000000E+03 0.  1.
      622    1    1    2    0    0  0.21281175114E-01  0.64777741614E-02  0.36061386511E+01  0.36063320453E+01  0.30000000000E-01 0. -1.
</event>
<event>
 5   0  0.4961200E+08  0.9118800E+02  0.7818608E-02  0.1180000E+00
       11   -1    0    0    0    0  0.00000000000E+00  0.00000000000E+00  0.39999999673E+01  0.40000000000E+01  0.51109989000E-03 0.  1.
     -623   -1    0    0    0    0  0.00000000000E+00  0.00000000000E+00  0.12525980253E-10  0.17130000000E+03  0.17130000000E+03 0. -1.
       11    1    1    2    0    0  0.28296334293E-01  0.37879840535E-02  0.71048156414E+00  0.71105509320E+00  0.51109989000E-03 0.  1.
     -623    1    1    2    0    0 -0.14252706077E-02 -0.76021814477E-02  0.82248596010E-03  0.17130000018E+03  0.17130000000E+03 0. -1.
      622    1    1    2    0    0 -0.26871063686E-01  0.38141973941E-02  0.32886959173E+01  0.32889447302E+01  0.30000000000E-01 0.  1.
</event>
<event>
 5   0  0.4961200E+08  0.9118800E+02  0.7818608E-02  0.1180000E+00
       11   -1    0    0    0    0  0.00000000000E+00  0.00000000000E+00  0.39999999673E+01  0.40000000000E+01  0.51109989000E-03 0. -1.
     -623   -1    0    0    0    0  0.00000000000E+00  0.00000000000E+00  0.12525980253E-10  0.17130000000E+03  0.17130000000E+03 0. -1.
       11    1    1    2    0    0 -0.11926506422E-02  0.15848097484E-02  0.11117572883E-01  0.11304675370E-01  0.51109989000E-03 0. -1.
     -623    1    1    2    0    0  0.10134409354E-02  0.62002509987E-03  0.30050809901E-03  0.17130000000E+03  0.17130000000E+03 0. -1.
      622    1    1    2    0    0  0.17920970682E-03 -0.22048348482E-02  0.39885818864E+01  0.39886953202E+01  0.30000000000E-01 0. -1.
</event>
<event>
 5   0  0.4961200E+08  0.9118800E+02  0.7818608E-02  0.1180000E+00
       11   -1    0    0    0    0  0.00000000000E+00  0.00000000000E+00  0.39999999673E+01  0.40000000000E+01  0.51109989000E-03 0.  1.
     -623   -1    0    0    0    0  0.00000000000E+00  0.00000000000E+00  0.12525980253E-10  0.17130000000E+03  0.17130000000E+03 0.  1.
       11    1    1    2    0    0  0.11386921598E-02  0.10877317665E-02  0.26729181370E-01  0.26780405897E-01  0.51109989000E-03 0.  1.
     -623    1    1    2    0    0  0.67229235692E-03 -0.31413271469E-03  0.16494151043E-03  0.17130000000E+03  0.17130000000E+03 0.  1.
      622    1    1    2    0    0 -0.18109845170E-02 -0.77359905163E-03  0.39731058462E+01  0.39732195942E+01  0.30000000000E-01 0.  1.
</event>
<event>
 5   0  0.4961200E+08  0.9118800E+02  0.7818608E-02  0.1180000E+00
       11   -1    0    0    0    0  0.00000000000E+00  0.00000000000E+00  0.39999999673E+01  0.40000000000E+01  0.51109989000E-03 0. -1.
     -623   -1    0    0    0    0  0.00000000000E+00  0.00000000000E+00  0.12525980253E-10  0.17130000000E+03  0.17130000000E+03 0. -1.
       11    1    1    2    0    0  0.37503269428E-02 -0.24646480112E-02  0.32041515946E+00  0.32044699261E+00  0.51109989000E-03 0. -1.
     -623    1    1    2    0    0 -0.86974172970E-02 -0.22305012073E-02  0.16065679093E-03  0.17130000024E+03  0.17130000000E+03 0. -1.
      622    1    1    2    0    0  0.49470903542E-02  0.46951492185E-02  0.36794241511E+01  0.36795527720E+01  0.30000000000E-01 0. -1.
</event>
<event>
 5   0  0.4961200E+08  0.9118800E+02  0.7818608E-02  0.1180000E+00
       11   -1    0    0    0    0  0.00000000000E+00  0.00000000000E+00  0.39999999673E+01  0.40000000000E+01  0.51109989000E-03 0. -1.
     -623   -1    0    0    0    0  0.00000000000E+00  0.00000000000E+00  0.12525980253E-10  0.17130000000E+03  0.17130000000E+03 0.  1.
       11    1    1    2    0    0 -0.99613752339E-03 -0.75211500415E-03  0.46974780097E-01  0.46994139584E-01  0.51109989000E-03 0. -1.
     -623    1    1    2    0    0  0.82782888483E-04 -0.35720394818E-03  0.13342752933E-03  0.17130000000E+03  0.17130000000E+03 0.  1.
      622    1    1    2    0    0  0.91335463483E-03  0.11093189527E-02  0.39528917634E+01  0.39530058637E+01  0.30000000000E-01 0. -1.
</event>
<event>
 5   0  0.4961200E+08  0.9118800E+02  0.7818608E-02  0.1180000E+00
       11   -1    0    0    0    0  0.00000000000E+00  0.00000000000E+00  0.39999999673E+01  0.40000000000E+01  0.51109989000E-03 0. -1.
     -623   -1    0    0    0    0  0.00000000000E+00  0.00000000000E+00  0.12525980253E-10  0.17130000000E+03  0.17130000000E+03 0.  1.
       11    1    1    2    0    0 -0.17833621087E-01  0.11844259848E-01  0.64975565763E+00  0.65010845278E+00  0.51109989000E-03 0. -1.
     -623    1    1    2    0    0 -0.99405991749E-02 -0.46229554478E-02  0.61037958934E-03  0.17130000035E+03  0.17130000000E+03 0.  1.
      622    1    1    2    0    0  0.27774220264E-01 -0.72213043991E-02  0.33496339309E+01  0.33498911960E+01  0.30000000000E-01 0. -1.
</event>
<event>
 5   0  0.4961200E+08  0.9118800E+02  0.7818608E-02  0.1180000E+00
       11   -1    0    0    0    0  0.00000000000E+00  0.00000000000E+00  0.39999999673E+01  0.40000000000E+01  0.51109989000E-03 0. -1.
     -623   -1    0    0    0    0  0.00000000000E+00  0.00000000000E+00  0.12525980253E-10  0.17130000000E+03  0.17130000000E+03 0.  1.
       11    1    1    2    0    0 -0.17247675124E-01 -0.36804605662E-01  0.84155382289E+00  0.84253496031E+00  0.51109989000E-03 0. -1.
     -623    1    1    2    0    0  0.58214447125E-02  0.31037401694E-03  0.13553271339E-02  0.17130000010E+03  0.17130000000E+03 0.  1.
      622    1    1    2    0    0  0.11426230412E-01  0.36494231645E-01  0.31570908172E+01  0.31574649350E+01  0.30000000000E-01 0. -1.
</event>
<event>
 5   0  0.4961200E+08  0.9118800E+02  0.7818608E-02  0.1180000E+00
       11   -1    0    0    0    0  0.00000000000E+00  0.00000000000E+00  0.39999999673E+01  0.40000000000E+01  0.51109989000E-03 0.  1.
     -623   -1    0    0    0    0  0.00000000000E+00  0.00000000000E+00  0.12525980253E-10  0.17130000000E+03  0.17130000000E+03 0.  1.
       11    1    1    2    0    0 -0.53122440081E-03  0.50077693603E-03  0.56423051501E-03  0.10547770487E-02  0.51109989000E-03 0.  1.
     -623    1    1    2    0    0 -0.18230098455E-02 -0.10977525893E-03  0.60376807079E-03  0.17130000001E+03  0.17130000000E+03 0.  1.
      622    1    1    2    0    0  0.23542342463E-02 -0.39100167710E-03  0.39988319688E+01  0.39989452122E+01  0.30000000000E-01 0.  1.
</event>
<event>
 5   0  0.4961200E+08  0.9118800E+02  0.7818608E-02  0.1180000E+00
       11   -1    0    0    0    0  0.00000000000E+00  0.00000000000E+00  0.39999999673E+01  0.40000000000E+01  0.51109989000E-03 0. -1.
     -623   -1    0    0    0    0  0.00000000000E+00  0.00000000000E+00  0.12525980253E-10  0.17130000000E+03  0.17130000000E+03 0. -1.
       11    1    1    2    0    0 -0.77543473780E-03 -0.81475201262E-02  0.62096279831E+00  0.62101694139E+00  0.51109989000E-03 0. -1.
     -623    1    1    2    0    0  0.33005351439E-03 -0.14335246092E-03  0.19749097575E-03  0.17130000000E+03  0.17130000000E+03 0. -1.
      622    1    1    2    0    0  0.44538122341E-03  0.82908725871E-02  0.33788396781E+01  0.33789830581E+01  0.30000000000E-01 0. -1.
</event>
<event>
 5   0  0.4961200E+08  0.9118800E+02  0.7818608E-02  0.1180000E+00
       11   -1    0    0    0    0  0.00000000000E+00  0.00000000000E+00  0.39999999673E+01  0.40000000000E+01  0.51109989000E-03 0. -1.
     -623   -1    0    0    0    0  0.00000000000E+00  0.00000000000E+00  0.12525980253E-10  0.17130000000E+03  0.17130000000E+03 0.  1.
       11    1    1    2    0    0 -0.83294032661E-03 -0.99083345689E-03 -0.10041024395E-03  0.13952941775E-02  0.51109989000E-03 0. -1.
     -623    1    1    2    0    0 -0.21955483701E-03  0.44327458109E-03  0.16083968990E-02  0.17130000001E+03  0.17130000000E+03 0.  1.
      622    1    1    2    0    0  0.10524951636E-02  0.54755887581E-03  0.39984919806E+01  0.39986046974E+01  0.30000000000E-01 0. -1.
</event>
<event>
 5   0  0.4961200E+08  0.9118800E+02  0.7818608E-02  0.1180000E+00
       11   -1    0    0    0    0  0.00000000000E+00  0.00000000000E+00  0.39999999673E+01  0.40000000000E+01  0.51109989000E-03 0.  1.
     -623   -1    0    0    0    0  0.00000000000E+00  0.00000000000E+00  0.12525980253E-10  0.17130000000E+03  0.17130000000E+03 0. -1.
       11    1    1    2    0    0  0.62250642200E-03  0.48909909493E-02  0.58351296984E-01  0.58561458226E-01  0.51109989000E-03 0.  1.
     -623    1    1    2    0    0 -0.28809783731E-02 -0.23924291539E-02  0.32578205986E-03  0.17130000004E+03  0.17130000000E+03 0. -1.
      622    1    1    2    0    0  0.22584719520E-02 -0.24985617946E-02  0.39413228895E+01  0.39414385017E+01  0.30000000000E-01 0.  1.
</event>
<event>
 5   0  0.4961200E+08  0.9118800E+02  0.7818608E-02  0.1180000E+00
       11   -1    0    0    0    0  0.00000000000E+00  0.00000000000E+00  0.39999999673E+01  0.40000000000E+01  0.51109989000E-03 0. -1.
     -623   -1    0    0    0    0  0.00000000000E+00  0.00000000000E+00  0.12525980253E-10  0.17130000000E+03  0.17130000000E+03 0.  1.
       11    1    1    2    0    0 -0.42533920280E-02  0.51416909443E-02  0.19944263213E+00  0.19955488735E+00  0.51109989000E-03 0. -1.
     -623    1    1    2    0    0 -0.30568721897E-04  0.36669066487E-03  0.23703879958E-03  0.17130000000E+03  0.17130000000E+03 0.  1.
      622    1    1    2    0    0  0.42839607499E-02 -0.55083816092E-02  0.38003202967E+01  0.38004451124E+01  0.30000000000E-01 0. -1.
</event>
<event>
 5   0  0.4961200E+08  0.9118800E+02  0.7818608E-02  0.1180000E+00
       11   -1    0    0    0    0  0.00000000000E+00  0.00000000000E+00  0.39999999673E+01  0.40000000000E+01  0.51109989000E-03 0.  1.
     -623   -1    0    0    0    0  0.00000000000E+00  0.00000000000E+00  0.12525980253E-10  0.17130000000E+03  0.17130000000E+03 0.  1.
       11    1    1    2    0    0 -0.63594418919E-02  0.89408987796E-03  0.92727893469E-01  0.92951413900E-01  0.51109989000E-03 0.  1.
     -623    1    1    2    0    0  0.10992881364E-02  0.13813985735E-02  0.34287907411E-03  0.17130000001E+03  0.17130000000E+03 0.  1.
      622    1    1    2    0    0  0.52601537555E-02 -0.22754884514E-02  0.39069291948E+01  0.39070485767E+01  0.30000000000E-01 0.  1.
</event>
<event>
 5   0  0.4961200E+08  0.9118800E+02  0.7818608E-02  0.1180000E+00
       11   -1    0    0    0    0  0.00000000000E+00  0.00000000000E+00  0.39999999673E+01  0.40000000000E+01  0.51109989000E-03 0.  1.
     -623   -1    0    0    0    0  0.00000000000E+00  0.00000000000E+00  0.12525980253E-10  0.17130000000E+03  0.17130000000E+03 0.  1.
       11    1    1    2    0    0  0.10115313569E-02 -0.80868484375E-03  0.80072553480E-02  0.81273936885E-02  0.51109989000E-03 0.  1.
     -623    1    1    2    0    0 -0.11284890318E-03  0.21186250156E-03  0.23298244563E-03  0.17130000000E+03  0.17130000000E+03 0.  1.
      622    1    1    2    0    0 -0.89868245365E-03  0.59682234207E-03  0.39917597318E+01  0.39918726082E+01  0.30000000000E-01 0.  1.
</event>
<event>
 5   0  0.4961200E+08  0.9118800E+02  0.7818608E-02  0.1180000E+00
       11   -1    0    0    0    0  0.00000000000E+00  0.00000000000E+00  0.39999999673E+01  0.40000000000E+01  0.51109989000E-03 0. -1.
     -623   -1    0    0    0    0  0.00000000000E+00  0.00000000000E+00  0.12525980253E-10  0.17130000000E+03  0.17130000000E+03 0. -1.
       11    1    1    2    0    0 -0.11919728328E-02  0.22097957421E-04  0.40125216389E-02  0.42169705422E-02  0.51109989000E-03 0. -1.
     -623    1    1    2    0    0 -0.12946466655E-02  0.95854314144E-03  0.31793853167E-03  0.17130000001E+03  0.17130000000E+03 0. -1.
      622    1    1    2    0    0  0.24866194986E-02 -0.98064109908E-03  0.39956695081E+01  0.39957830225E+01  0.30000000000E-01 0. -1.
</event>
<event>
 5   0  0.4961200E+08  0.9118800E+02  0.7818608E-02  0.1180000E+00
       11   -1    0    0    0    0  0.00000000000E+00  0.00000000000E+00  0.39999999673E+01  0.40000000000E+01  0.51109989000E-03 0.  1.
     -623   -1    0    0    0    0  0.00000000000E+00  0.00000000000E+00  0.12525980253E-10  0.17130000000E+03  0.17130000000E+03 0. -1.
       11    1    1    2    0    0 -0.48137042817E-02  0.63224308931E-02  0.18608666432E+00  0.18625695354E+00  0.51109989000E-03 0.  1.
     -623    1    1    2    0    0  0.14231325697E-01 -0.12284049465E-01  0.30557265049E-03  0.17130000103E+03  0.17130000000E+03 0. -1.
      622    1    1    2    0    0 -0.94176214181E-02  0.59616185740E-02  0.38136077311E+01  0.38137420153E+01  0.30000000000E-01 0.  1.
</event>
<event>
 5   0  0.4961200E+08  0.9118800E+02  0.7818608E-02  0.1180000E+00
       11   -1    0    0    0    0  0.00000000000E+00  0.00000000000E+00  0.39999999673E+01  0.40000000000E+01  0.51109989000E-03 0. -1.
     -623   -1    0    0    0    0  0.00000000000E+00  0.00000000000E+00  0.12525980253E-10  0.17130000000E+03  0.17130000000E+03 0.  1.
       11    1    1    2    0    0  0.27696419049E-02 -0.26819383940E-02  0.21253520823E+00  0.21257078743E+00  0.51109989000E-03 0. -1.
     -623    1    1    2    0    0  0.16502111419E-02  0.33935941030E-03  0.15767439041E-03  0.17130000001E+03  0.17130000000E+03 0.  1.
      622    1    1    2    0    0 -0.44198530485E-02  0.23425789834E-02  0.37873070888E+01  0.37874292082E+01  0.30000000000E-01 0. -1.
</event>
<event>
 5   0  0.4961200E+08  0.9118800E+02  0.7818608E-02  0.1180000E+00
       11   -1    0    0    0    0  0.00000000000E+00  0.00000000000E+00  0.39999999673E+01  0.40000000000E+01  0.51109989000E-03 0. -1.
     -623   -1    0    0    0    0  0.00000000000E+00  0.00000000000E+00  0.12525980253E-10  0.17130000000E+03  0.17130000000E+03 0.  1.
       11    1    1    2    0    0 -0.43182939587E-02 -0.52997300777E-02  0.12145342193E-01  0.13946517906E-01  0.51109989000E-03 0. -1.
     -623    1    1    2    0    0 -0.90558858015E-03  0.55053876488E-02  0.19175683449E-02  0.17130000010E+03  0.17130000000E+03 0.  1.
      622    1    1    2    0    0  0.52238825389E-02 -0.20565757115E-03  0.39859370569E+01  0.39860533805E+01  0.30000000000E-01 0. -1.
</event>
<event>
 5   0  0.4961200E+08  0.9118800E+02  0.7818608E-02  0.1180000E+00
       11   -1    0    0    0    0  0.00000000000E+00  0.00000000000E+00  0.39999999673E+01  0.40000000000E+01  0.51109989000E-03 0.  1.
     -623   -1    0    0    0    0  0.00000000000E+00  0.00000000000E+00  0.12525980253E-10  0.17130000000E+03  0.17130000000E+03 0. -1.
       11    1    1    2    0    0 -0.21668300512E-03 -0.78381002580E-03  0.26347620801E+00  0.26347795869E+00  0.51109989000E-03 0.  1.
     -623    1    1    2    0    0 -0.17225710869E-03 -0.11003900192E-04  0.12225774657E-03  0.17130000000E+03  0.17130000000E+03 0. -1.
      622    1    1    2    0    0  0.38894011380E-03  0.79481392599E-03  0.37364015016E+01  0.37365220412E+01  0.30000000000E-01 0.  1.
</event>
<event>
 5   0  0.4961200E+08  0.9118800E+02  0.7818608E-02  0.1180000E+00
       11   -1    0    0    0    0  0.00000000000E+00  0.00000000000E+00  0.39999999673E+01  0.40000000000E+01  0.51109989000E-03 0. -1.
     -623   -1    0    0    0    0  0.00000000000E+00  0.00000000000E+00  0.12525980253E-10  0.17130000000E+03  0.17130000000E+03 0. -1.
       11    1    1    2    0    0  0.23406030038E-02 -0.49594725379E-04  0.21324519325E-01  0.21458733113E-01  0.51109989000E-03 0. -1.
     -623    1    1    2    0    0  0.15824730823E-04 -0.24786335986E-03  0.24799887489E-03  0.17130000000E+03  0.17130000000E+03 0. -1.
      622    1    1    2    0    0 -0.23564277347E-02  0.29745808524E-03  0.39784274492E+01  0.39785412665E+01  0.30000000000E-01 0. -1.
</event>
<event>
 5   0  0.4961200E+08  0.9118800E+02  0.7818608E-02  0.1180000E+00
       11   -1    0    0    0    0  0.00000000000E+00  0.00000000000E+00  0.39999999673E+01  0.40000000000E+01  0.51109989000E-03 0. -1.
     -623   -1    0    0    0    0  0.00000000000E+00  0.00000000000E+00  0.12525980253E-10  0.17130000000E+03  0.17130000000E+03 0. -1.
       11    1    1    2    0    0  0.26965609519E-02  0.39349057666E-02  0.67185337685E-01  0.67356408357E-01  0.51109989000E-03 0. -1.
     -623    1    1    2    0    0  0.97241594799E-03 -0.73073609334E-03  0.28848800491E-03  0.17130000000E+03  0.17130000000E+03 0. -1.
      622    1    1    2    0    0 -0.36689768999E-02 -0.32041696733E-02  0.39325261417E+01  0.39326435871E+01  0.30000000000E-01 0. -1.
</event>
<event>
 5   0  0.4961200E+08  0.9118800E+02  0.7818608E-02  0.1180000E+00
       11   -1    0    0    0    0  0.00000000000E+00  0.00000000000E+00  0.39999999673E+01  0.40000000000E+01  0.51109989000E-03 0.  1.
     -623   -1    0    0    0    0  0.00000000000E+00  0.00000000000E+00  0.12525980253E-10  0.17130000000E+03  0.17130000000E+03 0.  1.
       11    1    1    2    0    0 -0.12527520528E-02 -0.96382605153E-03  0.47960505714E-01  0.47989266274E-01  0.51109989000E-03 0.  1.
     -623    1    1    2    0    0  0.21928376966E-02  0.25417247056E-02  0.14305542401E-03  0.17130000003E+03  0.17130000000E+03 0.  1.
      622    1    1    2    0    0 -0.94008564382E-03 -0.15778986540E-02  0.39518964062E+01  0.39520107008E+01  0.30000000000E-01 0.  1.
</event>
<event>
 5   0  0.4961200E+08  0.9118800E+02  0.7818608E-02  0.1180000E+00
       11   -1    0    0    0    0  0.00000000000E+00  0.00000000000E+00  0.39999999673E+01  0.40000000000E+01  0.51109989000E-03 0. -1.
     -623   -1    0    0    0    0  0.00000000000E+00  0.00000000000E+00  0.12525980253E-10  0.17130000000E+03  0.17130000000E+03 0.  1.
       11    1    1    2    0    0  0.35686136116E-03 -0.40116824347E-03  0.13217474981E-01  0.13238245880E-01  0.51109989000E-03 0. -1.
     -623    1    1    2    0    0  0.10115498546E-03  0.18826501261E-03  0.13364559853E-03  0.17130000000E+03  0.17130000000E+03 0.  1.
      622    1    1    2    0    0 -0.45801634670E-03  0.21290323073E-03  0.39866488495E+01  0.39867617566E+01  0.30000000000E-01 0. -1.
</event>
<event>
 5   0  0.4961200E+08  0.9118800E+02  0.7818608E-02  0.1180000E+00
       11   -1    0    0    0    0  0.00000000000E+00  0.00000000000E+00  0.39999999673E+01  0.40000000000E+01  0.51109989000E-03 0.  1.
     -623   -1    0    0    0    0  0.00000000000E+00  0.00000000000E+00  0.12525980253E-10  0.17130000000E+03  0.17130000000E+03 0.  1.
       11    1    1    2    0    0 -0.18788099497E-02  0.12411667966E-02  0.21407712651E-01  0.21531878828E-01  0.51109989000E-03 0.  1.
     -623    1    1    2    0    0  0.23686804033E-02 -0.17668519582E-02  0.23733455151E-03  0.17130000003E+03  0.17130000000E+03 0.  1.
      622    1    1    2    0    0 -0.48987045447E-03  0.52568516229E-03  0.39783549216E+01  0.39784680970E+01  0.30000000000E-01 0.  1.
</event>
<event>
 5   0  0.4961200E+08  0.9118800E+02  0.7818608E-02  0.1180000E+00
       11   -1    0    0    0    0  0.00000000000E+00  0.00000000000E+00  0.39999999673E+01  0.40000000000E+01  0.51109989000E-03 0.  1.
     -623   -1    0    0    0    0  0.00000000000E+00  0.00000000000E+00  0.12525980253E-10  0.17130000000E+03  0.17130000000E+03 0.  1.
       11    1    1    2    0    0 -0.74289039505E-02 -0.19416805178E-02  0.12382665522E+00  0.12406554922E+00  0.51109989000E-03 0.  1.
     -623    1    1    2    0    0  0.15761994491E-02 -0.25147700151E-02  0.36197122388E-03  0.17130000003E+03  0.17130000000E+03 0.  1.
      622    1    1    2    0    0  0.58527045014E-02  0.44564505328E-02  0.38758113407E+01  0.38759344245E+01  0.30000000000E-01 0.  1.
</event>
<event>
 5   0  0.4961200E+08  0.9118800E+02  0.7818608E-02  0.1180000E+00
       11   -1    0    0    0    0  0.00000000000E+00  0.00000000000E+00  0.39999999673E+01  0.40000000000E+01  0.51109989000E-03 0.  1.
     -623   -1    0    0    0    0  0.00000000000E+00  0.00000000000E+00  0.12525980253E-10  0.17130000000E+03  0.17130000000E+03 0.  1.
       11    1    1    2    0    0  0.62834934603E-02 -0.20360850036E-01  0.15344191157E+00  0.15491522827E+00  0.51109989000E-03 0.  1.
     -623    1    1    2    0    0 -0.65204593883E-02  0.64946295626E-03  0.16409848305E-02  0.17130000013E+03  0.17130000000E+03 0.  1.
      622    1    1    2    0    0  0.23696592798E-03  0.19711387079E-01  0.38449170710E+01  0.38450846385E+01  0.30000000000E-01 0.  1.
</event>
<event>
 5   0  0.4961200E+08  0.9118800E+02  0.7818608E-02  0.1180000E+00
       11   -1    0    0    0    0  0.00000000000E+00  0.00000000000E+00  0.39999999673E+01  0.40000000000E+01  0.51109989000E-03 0.  1.
     -623   -1    0    0    0    0  0.00000000000E+00  0.00000000000E+00  0.12525980253E-10  0.17130000000E+03  0.17130000000E+03 0. -1.
       11    1    1    2    0    0 -0.67901231043E-03 -0.40991170800E-03  0.70874573961E-01  0.70880854542E-01  0.51109989000E-03 0.  1.
     -623    1    1    2    0    0 -0.32723626280E-03 -0.74453183664E-03  0.12107952731E-03  0.17130000000E+03  0.17130000000E+03 0. -1.
      622    1    1    2    0    0  0.10062485732E-02  0.11544435446E-02  0.39290043139E+01  0.39291191435E+01  0.30000000000E-01 0.  1.
</event>
<event>
 5   0  0.4961200E+08  0.9118800E+02  0.7818608E-02  0.1180000E+00
       11   -1    0    0    0    0  0.00000000000E+00  0.00000000000E+00  0.39999999673E+01  0.40000000000E+01  0.51109989000E-03 0. -1.
     -623   -1    0    0    0    0  0.00000000000E+00  0.00000000000E+00  0.12525980253E-10  0.17130000000E+03  0.17130000000E+03 0. -1.
       11    1    1    2    0    0 -0.90876494921E-02 -0.40817809937E-02  0.76366604859E-01  0.77015361245E-01  0.51109989000E-03 0. -1.
     -623    1    1    2    0    0 -0.54486407227E-03  0.90674636518E-03  0.77655013787E-03  0.17130000001E+03  0.17130000000E+03 0. -1.
      622    1    1    2    0    0  0.96325135643E-02  0.31750346285E-02  0.39228568124E+01  0.39229846337E+01  0.30000000000E-01 0. -1.
</event>
<event>
 5   0  0.4961200E+08  0.9118800E+02  0.7818608E-02  0.1180000E+00
       11   -1    0    0    0    0  0.00000000000E+00  0.00000000000E+00  0.39999999673E+01  0.40000000000E+01  0.51109989000E-03 0. -1.
     -623   -1    0    0    0    0  0.00000000000E+00  0.00000000000E+00  0.12525980253E-10  0.17130000000E+03  0.17130000000E+03 0.  1.
       11    1    1    2    0    0 -0.13988103193E-02  0.22052601984E-02  0.64659297247E-01  0.64714030831E-01  0.51109989000E-03 0. -1.
     -623    1    1    2    0    0  0.63644274145E-04  0.18994731991E-03  0.17000826558E-03  0.17130000000E+03  0.17130000000E+03 0.  1.
      622    1    1    2    0    0  0.13351660451E-02 -0.23952075183E-02  0.39351706628E+01  0.39352859699E+01  0.30000000000E-01 0. -1.
</event>
<event>
 5   0  0.4961200E+08  0.9118800E+02  0.7818608E-02  0.1180000E+00
       11   -1    0    0    0    0  0.00000000000E+00  0.00000000000E+00  0.39999999673E+01  0.40000000000E+01  0.51109989000E-03 0.  1.
     -623   -1    0    0    0    0  0.00000000000E+00  0.00000000000E+00  0.12525980253E-10  0.17130000000E+03  0.17130000000E+03 0. -1.
       11    1    1    2    0    0  0.17313663817E-01 -0.80150241750E-02  0.48196595827E+00  0.48234370497E+00  0.51109989000E-03 0.  1.
     -623    1    1    2    0    0 -0.30072381183E-01  0.18915574701E-01  0.54935685942E-03  0.17130000368E+03  0.17130000000E+03 0. -1.
      622    1    1    2    0    0  0.12758717366E-01 -0.10900550526E-01  0.35174846522E+01  0.35176526101E+01  0.30000000000E-01 0.  1.
</event>
<event>
 5   0  0.4961200E+08  0.9118800E+02  0.7818608E-02  0.1180000E+00
       11   -1    0    0    0    0  0.00000000000E+00  0.00000000000E+00  0.39999999673E+01  0.40000000000E+01  0.51109989000E-03 0.  1.
     -623   -1    0    0    0    0  0.00000000000E+00  0.00000000000E+00  0.12525980253E-10  0.17130000000E+03  0.17130000000E+03 0. -1.
       11    1    1    2    0    0  0.78649492090E-02  0.67977620366E-02  0.56219581036E-01  0.57174902782E-01  0.51109989000E-03 0.  1.
     -623    1    1    2    0    0 -0.19523508256E-03  0.48974467487E-02  0.10943013916E-02  0.17130000007E+03  0.17130000000E+03 0. -1.
      622    1    1    2    0    0 -0.76697141264E-02 -0.11695208785E-01  0.39426860849E+01  0.39428250236E+01  0.30000000000E-01 0.  1.
</event>
<event>
 5   0  0.4961200E+08  0.9118800E+02  0.7818608E-02  0.1180000E+00
       11   -1    0    0    0    0  0.00000000000E+00  0.00000000000E+00  0.39999999673E+01  0.40000000000E+01  0.51109989000E-03 0. -1.
     -623   -1    0    0    0    0  0.00000000000E+00  0.00000000000E+00  0.12525980253E-10  0.17130000000E+03  0.17130000000E+03 0.  1.
       11    1    1    2    0    0 -0.15293640035E-01 -0.22817638592E-01  0.20952582825E+00  0.21131936490E+00  0.51109989000E-03 0. -1.
     -623    1    1    2    0    0 -0.18319175291E-01  0.83669568486E-02  0.20901506702E-02  0.17130000120E+03  0.17130000000E+03 0.  1.
      622    1    1    2    0    0  0.33612815325E-01  0.14450681744E-01  0.37883839883E+01  0.37886794383E+01  0.30000000000E-01 0. -1.
</event>
<event>
 5   0  0.4961200E+08  0.9118800E+02  0.7818608E-02  0.1180000E+00
       11   -1    0    0    0    0  0.00000000000E+00  0.00000000000E+00  0.39999999673E+01  0.40000000000E+01  0.51109989000E-03 0.  1.
     -623   -1    0    0    0    0  0.00000000000E+00  0.00000000000E+00  0.12525980253E-10  0.17130000000E+03  0.17130000000E+03 0.  1.
       11    1    1    2    0    0 -0.32560604023E-03  0.54404448771E-02  0.63225651948E-01  0.63462183580E-01  0.51109989000E-03 0.  1.
     -623    1    1    2    0    0 -0.80668306766E-03  0.39708889462E-03  0.35530827501E-03  0.17130000000E+03  0.17130000000E+03 0.  1.
      622    1    1    2    0    0  0.11322891079E-02 -0.58375337717E-02  0.39364190071E+01  0.39365378137E+01  0.30000000000E-01 0.  1.
</event>
<event>
 5   0  0.4961200E+08  0.9118800E+02  0.7818608E-02  0.1180000E+00
       11   -1    0    0    0    0  0.00000000000E+00  0.00000000000E+00  0.39999999673E+01  0.40000000000E+01  0.51109989000E-03 0. -1.
     -623   -1    0    0    0    0  0.00000000000E+00  0.00000000000E+00  0.12525980253E-10  0.17130000000E+03  0.17130000000E+03 0. -1.
       11    1    1    2    0    0  0.17890723107E-03  0.31818420436E-02  0.42124286504E-01  0.42247755689E-01  0.51109989000E-03 0. -1.
     -623    1    1    2    0    0 -0.98017962135E-03  0.31058701796E-03  0.23876439903E-03  0.17130000000E+03  0.17130000000E+03 0. -1.
      622    1    1    2    0    0  0.80127239028E-03 -0.34924290616E-02  0.39576369165E+01  0.39577522411E+01  0.30000000000E-01 0. -1.
</event>
<event>
 5   0  0.4961200E+08  0.9118800E+02  0.7818608E-02  0.1180000E+00
       11   -1    0    0    0    0  0.00000000000E+00  0.00000000000E+00  0.39999999673E+01  0.40000000000E+01  0.51109989000E-03 0.  1.
     -623   -1    0    0    0    0  0.00000000000E+00  0.00000000000E+00  0.12525980253E-10  0.17130000000E+03  0.17130000000E+03 0. -1.
       11    1    1    2    0    0  0.50712271339E-02  0.32040197476E-02  0.74543027339E-01  0.74785742174E-01  0.51109989000E-03 0.  1.
     -623    1    1    2    0    0 -0.94299402606E-03 -0.30011070070E-03  0.36057567140E-03  0.17130000000E+03  0.17130000000E+03 0. -1.
      622    1    1    2    0    0 -0.41282331078E-02 -0.29039090469E-02  0.39250963643E+01  0.39252142546E+01  0.30000000000E-01 0.  1.
</event>
<event>
 5   0  0.4961200E+08  0.9118800E+02  0.7818608E-02  0.1180000E+00
       11   -1    0    0    0    0  0.00000000000E+00  0.00000000000E+00  0.39999999673E+01  0.40000000000E+01  0.51109989000E-03 0.  1.
     -623   -1    0    0    0    0  0.00000000000E+00  0.00000000000E+00  0.12525980253E-10  0.17130000000E+03  0.17130000000E+03 0. -1.
       11    1    1    2    0    0  0.16123483265E-02  0.24819281033E-01  0.35633023368E+00  0.35719755463E+00  0.51109989000E-03 0.  1.
     -623    1    1    2    0    0  0.59499624719E-03 -0.49691553487E-03  0.10726973751E-02  0.17130000001E+03  0.17130000000E+03 0. -1.
      622    1    1    2    0    0 -0.22073445737E-02 -0.24322365498E-01  0.36425970363E+01  0.36428024403E+01  0.30000000000E-01 0.  1.
</event>
<event>
 5   0  0.4961200E+08  0.9118800E+02  0.7818608E-02  0.1180000E+00
       11   -1    0    0    0    0  0.00000000000E+00  0.00000000000E+00  0.39999999673E+01  0.40000000000E+01  0.51109989000E-03 0.  1.
     -623   -1    0    0    0    0  0.00000000000E+00  0.00000000000E+00  0.12525980253E-10  0.17130000000E+03  0.17130000000E+03 0. -1.
       11    1    1    2    0    0  0.20530586413E-02 -0.85136708508E-03  0.30901638345E+00  0.30902479891E+00  0.51109989000E-03 0.  1.
     -623    1    1    2    0    0 -0.53096675919E-04  0.21661776481E-03  0.13090046327E-03  0.17130000000E+03  0.17130000000E+03 0. -1.
      622    1    1    2    0    0 -0.19999619654E-02  0.63474932027E-03  0.36908526834E+01  0.36909752009E+01  0.30000000000E-01 0.  1.
</event>
<event>
 5   0  0.4961200E+08  0.9118800E+02  0.7818608E-02  0.1180000E+00
       11   -1    0    0    0    0  0.00000000000E+00  0.00000000000E+00  0.39999999673E+01  0.40000000000E+01  0.51109989000E-03 0. -1.
     -623   -1    0    0    0    0  0.00000000000E+00  0.00000000000E+00  0.12525980253E-10  0.17130000000E+03  0.17130000000E+03 0.  1.
       11    1    1    2    0    0  0.35043196246E-02 -0.36891491629E-03  0.20947672486E+00  0.20950698279E+00  0.51109989000E-03 0. -1.
     -623    1    1    2    0    0  0.99543443397E-02  0.68095854322E-02  0.17873622046E-03  0.17130000042E+03  0.17130000000E+03 0.  1.
      622    1    1    2    0    0 -0.13458663960E-01 -0.64406705132E-02  0.37903445047E+01  0.37904925910E+01  0.30000000000E-01 0. -1.
</event>
<event>
 5   0  0.4961200E+08  0.9118800E+02  0.7818608E-02  0.1180000E+00
       11   -1    0    0    0    0  0.00000000000E+00  0.00000000000E+00  0.39999999673E+01  0.40000000000E+01  0.51109989000E-03 0.  1.
     -623   -1    0    0    0    0  0.00000000000E+00  0.00000000000E+00  0.12525980253E-10  0.17130000000E+03  0.17130000000E+03 0.  1.
       11    1    1    2    0    0  0.16823690761E-02  0.18944570679E-02  0.11369386369E+00  0.11372323948E+00  0.51109989000E-03 0.  1.
     -623    1    1    2    0    0  0.36770953773E-04  0.24446635223E-02  0.14795713780E-03  0.17130000002E+03  0.17130000000E+03 0.  1.
      622    1    1    2    0    0 -0.17191400299E-02 -0.43391205900E-02  0.38861581463E+01  0.38862767428E+01  0.30000000000E-01 0.  1.
</event>
<event>
 5   0  0.4961200E+08  0.9118800E+02  0.7818608E-02  0.1180000E+00
       11   -1    0    0    0    0  0.00000000000E+00  0.00000000000E+00  0.39999999673E+01  0.40000000000E+01  0.51109989000E-03 0.  1.
     -623   -1    0    0    0    0  0.00000000000E+00  0.00000000000E+00  0.12525980253E-10  0.17130000000E+03  0.17130000000E+03 0.  1.
       11    1    1    2    0    0 -0.94504360243E-02 -0.20574892617E-02  0.75316072836E+00  0.75322300015E+00  0.51109989000E-03 0.  1.
     -623    1    1    2    0    0  0.50080468278E-03  0.12776361165E-02  0.21327562310E-03  0.17130000001E+03  0.17130000000E+03 0.  1.
      622    1    1    2    0    0  0.89496313415E-02  0.77985314529E-03  0.32466259634E+01  0.32467769942E+01  0.30000000000E-01 0.  1.
</event>
<event>
 5   0  0.4961200E+08  0.9118800E+02  0.7818608E-02  0.1180000E+00
       11   -1    0    0    0    0  0.00000000000E+00  0.00000000000E+00  0.39999999673E+01  0.40000000000E+01  0.51109989000E-03 0.  1.
     -623   -1    0    0    0    0  0.00000000000E+00  0.00000000000E+00  0.12525980253E-10  0.17130000000E+03  0.17130000000E+03 0.  1.
       11    1    1    2    0    0 -0.35590152034E-02  0.14966382890E-01  0.36975759539E-01  0.40051557056E-01  0.51109989000E-03 0.  1.
     -623    1    1    2    0    0 -0.48098651408E-03 -0.69477321525E-02  0.31997555898E-02  0.17130000017E+03  0.17130000000E+03 0.  1.
      622    1    1    2    0    0  0.40400017175E-02 -0.80186507378E-02  0.39598244522E+01  0.39599482715E+01  0.30000000000E-01 0.  1.
</event>
<event>
 5   0  0.4961200E+08  0.9118800E+02  0.7818608E-02  0.1180000E+00
       11   -1    0    0    0    0  0.00000000000E+00  0.00000000000E+00  0.39999999673E+01  0.40000000000E+01  0.51109989000E-03 0.  1.
     -623   -1    0    0    0    0  0.00000000000E+00  0.00000000000E+00  0.12525980253E-10  0.17130000000E+03  0.17130000000E+03 0. -1.
       11    1    1    2    0    0  0.82988607333E-02 -0.16353226836E-03  0.20342013283E+00  0.20359005255E+00  0.51109989000E-03 0.  1.
     -623    1    1    2    0    0 -0.41000714237E-02 -0.65306938596E-02  0.29681993356E-03  0.17130000017E+03  0.17130000000E+03 0. -1.
      622    1    1    2    0    0 -0.41987893095E-02  0.66942261279E-02  0.37962830146E+01  0.37964097736E+01  0.30000000000E-01 0.  1.
</event>
<event>
 5   0  0.4961200E+08  0.9118800E+02  0.7818608E-02  0.1180000E+00
       11   -1    0    0    0    0  0.00000000000E+00  0.00000000000E+00  0.39999999673E+01  0.40000000000E+01  0.51109989000E-03 0. -1.
     -623   -1    0    0    0    0  0.00000000000E+00  0.00000000000E+00  0.12525980253E-10  0.17130000000E+03  0.17130000000E+03 0.  1.
       11    1    1    2    0    0  0.43380260251E-02  0.95924027451E-02  0.35672901085E+00  0.35688468875E+00  0.51109989000E-03 0. -1.
     -623    1    1    2    0    0  0.23289822273E-02 -0.77959685489E-02  0.28590504150E-03  0.17130000019E+03  0.17130000000E+03 0.  1.
      622    1    1    2    0    0 -0.66670082524E-02 -0.17964341962E-02  0.36429850515E+01  0.36431151178E+01  0.30000000000E-01 0. -1.
</event>
<event>
 5   0  0.4961200E+08  0.9118800E+02  0.7818608E-02  0.1180000E+00
       11   -1    0    0    0    0  0.00000000000E+00  0.00000000000E+00  0.39999999673E+01  0.40000000000E+01  0.51109989000E-03 0. -1.
     -623   -1    0    0    0    0  0.00000000000E+00  0.00000000000E+00  0.12525980253E-10  0.17130000000E+03  0.17130000000E+03 0.  1.
       11    1    1    2    0    0 -0.41445034709E-02 -0.39982361475E-02  0.79842885532E-01  0.80051923116E-01  0.51109989000E-03 0. -1.
     -623    1    1    2    0    0 -0.18934475099E-01  0.10555081368E-01  0.39860242579E-03  0.17130000137E+03  0.17130000000E+03 0.  1.
      622    1    1    2    0    0  0.23078978566E-01 -0.65568452184E-02  0.39197584785E+01  0.39199467039E+01  0.30000000000E-01 0. -1.
</event>
<event>
 5   0  0.4961200E+08  0.9118800E+02  0.7818608E-02  0.1180000E+00
       11   -1    0    0    0    0  0.00000000000E+00  0.00000000000E+00  0.39999999673E+01  0.40000000000E+01  0.51109989000E-03 0.  1.
     -623   -1    0    0    0    0  0.00000000000E+00  0.00000000000E+00  0.12525980253E-10  0.17130000000E+03  0.17130000000E+03 0.  1.
       11    1    1    2    0    0 -0.13706702777E-02  0.86636500703E-04  0.56664593063E-01  0.56683538801E-01  0.51109989000E-03 0.  1.
     -623    1    1    2    0    0  0.11109304416E-02 -0.60567663912E-03  0.13307933051E-03  0.17130000000E+03  0.17130000000E+03 0.  1.
      622    1    1    2    0    0  0.25973983604E-03  0.51904013842E-03  0.39432022950E+01  0.39433164565E+01  0.30000000000E-01 0.  1.
</event>
<event>
 5   0  0.4961200E+08  0.9118800E+02  0.7818608E-02  0.1180000E+00
       11   -1    0    0    0    0  0.00000000000E+00  0.00000000000E+00  0.39999999673E+01  0.40000000000E+01  0.51109989000E-03 0.  1.
     -623   -1    0    0    0    0  0.00000000000E+00  0.00000000000E+00  0.12525980253E-10  0.17130000000E+03  0.17130000000E+03 0.  1.
       11    1    1    2    0    0 -0.24392036964E-02 -0.64563764988E-03  0.14010550364E+00  0.14012915448E+00  0.51109989000E-03 0.  1.
     -623    1    1    2    0    0  0.38696187226E-03  0.40784741095E-03  0.14075807134E-03  0.17130000000E+03  0.17130000000E+03 0.  1.
      622    1    1    2    0    0  0.20522418240E-02  0.23779023883E-03  0.38597537067E+01  0.38598708455E+01  0.30000000000E-01 0.  1.
</event>
<event>
 5   0  0.4961200E+08  0.9118800E+02  0.7818608E-02  0.1180000E+00
       11   -1    0    0    0    0  0.00000000000E+00  0.00000000000E+00  0.39999999673E+01  0.40000000000E+01  0.51109989000E-03 0.  1.
     -623   -1    0    0    0    0  0.00000000000E+00  0.00000000000E+00  0.12525980253E-10  0.17130000000E+03  0.17130000000E+03 0. -1.
       11    1    1    2    0    0  0.10744416104E-02  0.45995716430E-03  0.15593628358E-02  0.20146515625E-02  0.51109989000E-03 0.  1.
     -623    1    1    2    0    0 -0.75998330375E-03  0.37279680990E-03  0.56791649282E-03  0.17130000000E+03  0.17130000000E+03 0. -1.
      622    1    1    2    0    0 -0.31445830667E-03 -0.83275397420E-03  0.39978726880E+01  0.39979853454E+01  0.30000000000E-01 0.  1.
</event>
<event>
 5   0  0.4961200E+08  0.9118800E+02  0.7818608E-02  0.1180000E+00
       11   -1    0    0    0    0  0.00000000000E+00  0.00000000000E+00  0.39999999673E+01  0.40000000000E+01  0.51109989000E-03 0.  1.
     -623   -1    0    0    0    0  0.00000000000E+00  0.00000000000E+00  0.12525980253E-10  0.17130000000E+03  0.17130000000E+03 0. -1.
       11    1    1    2    0    0  0.11494437443E-02 -0.26904083495E-03  0.34604370888E-01  0.34628273297E-01  0.51109989000E-03 0.  1.
     -623    1    1    2    0    0 -0.22784970850E-02 -0.24981079295E-03  0.13756389627E-03  0.17130000002E+03  0.17130000000E+03 0. -1.
      622    1    1    2    0    0  0.11290533407E-02  0.51885162791E-03  0.39652580326E+01  0.39653717114E+01  0.30000000000E-01 0.  1.
</event>
<event>
 5   0  0.4961200E+08  0.9118800E+02  0.7818608E-02  0.1180000E+00
       11   -1    0    0    0    0  0.00000000000E+00  0.00000000000E+00  0.39999999673E+01  0.40000000000E+01  0.51109989000E-03 0.  1.
     -623   -1    0    0    0    0  0.00000000000E+00  0.00000000000E+00  0.12525980253E-10  0.17130000000E+03  0.17130000000E+03 0.  1.
       11    1    1    2    0    0 -0.32987813041E-02 -0.35636403474E-03  0.30447488279E-01  0.30632004815E-01  0.51109989000E-03 0.  1.
     -623    1    1    2    0    0  0.88580091600E-03  0.25483150097E-02  0.29921387626E-03  0.17130000002E+03  0.17130000000E+03 0.  1.
      622    1    1    2    0    0  0.24129803884E-02 -0.21919509743E-02  0.39692532642E+01  0.39693679726E+01  0.30000000000E-01 0.  1.
</event>
<event>
 5   0  0.4961200E+08  0.9118800E+02  0.7818608E-02  0.1180000E+00
       11   -1    0    0    0    0  0.00000000000E+00  0.00000000000E+00  0.39999999673E+01  0.40000000000E+01  0.51109989000E-03 0. -1.
     -623   -1    0    0    0    0  0.00000000000E+00  0.00000000000E+00  0.12525980253E-10  0.17130000000E+03  0.17130000000E+03 0. -1.
       11    1    1    2    0    0 -0.17655017857E-02 -0.49231109446E-02  0.30795926481E-01  0.31241067985E-01  0.51109989000E-03 0. -1.
     -623    1    1    2    0    0 -0.46803193322E-02  0.78329186534E-02  0.56504136619E-03  0.17130000024E+03  0.17130000000E+03 0. -1.
      622    1    1    2    0    0  0.64458211176E-02 -0.29098077083E-02  0.39686389992E+01  0.39687586878E+01  0.30000000000E-01 0. -1.
</event>
<event>
 5   0  0.4961200E+08  0.9118800E+02  0.7818608E-02  0.1180000E+00
       11   -1    0    0    0    0  0.00000000000E+00  0.00000000000E+00  0.39999999673E+01  0.40000000000E+01  0.51109989000E-03 0.  1.
     -623   -1    0    0    0    0  0.00000000000E+00  0.00000000000E+00  0.12525980253E-10  0.17130000000E+03  0.17130000000E+03 0.  1.
       11    1    1    2    0    0 -0.79774132804E-03 -0.21282809108E-02  0.27576984823E-02  0.36099992907E-02  0.51109989000E-03 0.  1.
     -623    1    1    2    0    0  0.20381648079E-02  0.23456098565E-02  0.96510070153E-03  0.17130000003E+03  0.17130000000E+03 0.  1.
      622    1    1    2    0    0 -0.12404234799E-02 -0.21732894577E-03  0.39962771683E+01  0.39963899699E+01  0.30000000000E-01 0.  1.
</event>
<event>
 5   0  0.4961200E+08  0.9118800E+02  0.7818608E-02  0.1180000E+00
       11   -1    0    0    0    0  0.00000000000E+00  0.00000000000E+00  0.39999999673E+01  0.40000000000E+01  0.51109989000E-03 0.  1.
     -623   -1    0    0    0    0  0.00000000000E+00  0.00000000000E+00  0.12525980253E-10  0.17130000000E+03  0.17130000000E+03 0.  1.
       11    1    1    2    0    0  0.26397083783E-03 -0.43677668681E-02  0.97703895473E-02  0.10717686458E-01  0.51109989000E-03 0.  1.
     -623    1    1    2    0    0 -0.15922498254E-02  0.13274973339E-01  0.10707586169E-02  0.17130000053E+03  0.17130000000E+03 0.  1.
      622    1    1    2    0    0  0.13282789876E-02 -0.89072064709E-02  0.39891588192E+01  0.39892817884E+01  0.30000000000E-01 0.  1.
</event>
<event>
 5   0  0.4961200E+08  0.9118800E+02  0.7818608E-02  0.1180000E+00
       11   -1    0    0    0    0  0.00000000000E+00  0.00000000000E+00  0.39999999673E+01  0.40000000000E+01  0.51109989000E-03 0. -1.
     -623   -1    0    0    0    0  0.00000000000E+00  0.00000000000E+00  0.12525980253E-10  0.17130000000E+03  0.17130000000E+03 0. -1.
       11    1    1    2    0    0 -0.45966273431E-02 -0.13211286861E-01  0.32528927925E+00  0.32559030007E+00  0.51109989000E-03 0. -1.
     -623    1    1    2    0    0 -0.74754612258E-03  0.35531814679E-03  0.44983893281E-03  0.17130000000E+03  0.17130000000E+03 0. -1.
      622    1    1    2    0    0  0.53441734656E-02  0.12855968714E-01  0.36742608492E+01  0.36744096973E+01  0.30000000000E-01 0. -1.
</event>
<event>
 5   0  0.4961200E+08  0.9118800E+02  0.7818608E-02  0.1180000E+00
       11   -1    0    0    0    0  0.00000000000E+00  0.00000000000E+00  0.39999999673E+01  0.40000000000E+01  0.51109989000E-03 0.  1.
     -623   -1    0    0    0    0  0.00000000000E+00  0.00000000000E+00  0.12525980253E-10  0.17130000000E+03  0.17130000000E+03 0. -1.
       11    1    1    2    0    0 -0.60231417681E-02  0.42610720919E-02  0.25368234178E+00  0.25379012338E+00  0.51109989000E-03 0.  1.
     -623    1    1    2    0    0  0.19888914759E-03  0.86913871503E-03  0.23591529968E-03  0.17130000000E+03  0.17130000000E+03 0. -1.
      622    1    1    2    0    0  0.58242526205E-02 -0.51302108070E-02  0.37460817103E+01  0.37462098741E+01  0.30000000000E-01 0.  1.
</event>
<event>
 5   0  0.4961200E+08  0.9118800E+02  0.7818608E-02  0.1180000E+00
       11   -1    0    0    0    0  0.00000000000E+00  0.00000000000E+00  0.39999999673E+01  0.40000000000E+01  0.51109989000E-03 0.  1.
     -623   -1    0    0    0    0  0.00000000000E+00  0.00000000000E+00  0.12525980253E-10  0.17130000000E+03  0.17130000000E+03 0.  1.
       11    1    1    2    0    0  0.12689089277E-02  0.10895730684E-02  0.12254696396E-01  0.12378857179E-01  0.51109989000E-03 0.  1.
     -623    1    1    2    0    0  0.26575099217E-02  0.97603077184E-03  0.23947068279E-03  0.17130000002E+03  0.17130000000E+03 0.  1.
      622    1    1    2    0    0 -0.39264188494E-02 -0.20656038402E-02  0.39875058003E+01  0.39876211193E+01  0.30000000000E-01 0.  1.
</event>
<event>
 5   0  0.4961200E+08  0.9118800E+02  0.7818608E-02  0.1180000E+00
       11   -1    0    0    0    0  0.00000000000E+00  0.00000000000E+00  0.39999999673E+01  0.40000000000E+01  0.51109989000E-03 0.  1.
     -623   -1    0    0    0    0  0.00000000000E+00  0.00000000000E+00  0.12525980253E-10  0.17130000000E+03  0.17130000000E+03 0.  1.
       11    1    1    2    0    0  0.23571882147E-02 -0.48188787217E-02  0.42102066043E+00  0.42105514563E+00  0.51109989000E-03 0.  1.
     -623    1    1    2    0    0 -0.29364250613E-02  0.55283357493E-02  0.16042180026E-03  0.17130000011E+03  0.17130000000E+03 0.  1.
      622    1    1    2    0    0  0.57923684676E-03 -0.70945702802E-03  0.35788188854E+01  0.35789447402E+01  0.30000000000E-01 0.  1.
</event>
<event>
 5   0  0.4961200E+08  0.9118800E+02  0.7818608E-02  0.1180000E+00
       11   -1    0    0    0    0  0.00000000000E+00  0.00000000000E+00  0.39999999673E+01  0.40000000000E+01  0.51109989000E-03 0.  1.
     -623   -1    0    0    0    0  0.00000000000E+00  0.00000000000E+00  0.12525980253E-10  0.17130000000E+03  0.17130000000E+03 0. -1.
       11    1    1    2    0    0 -0.11297443955E-02 -0.27643006441E-02  0.36437695902E-01  0.36563432350E-01  0.51109989000E-03 0.  1.
     -623    1    1    2    0    0  0.15001038808E-02  0.15670900513E-02  0.23945529826E-03  0.17130000001E+03  0.17130000000E+03 0. -1.
      622    1    1    2    0    0 -0.37035948530E-03  0.11972105928E-02  0.39633228162E+01  0.39634365537E+01  0.30000000000E-01 0.  1.
</event>
<event>
 5   0  0.4961200E+08  0.9118800E+02  0.7818608E-02  0.1180000E+00
       11   -1    0    0    0    0  0.00000000000E+00  0.00000000000E+00  0.39999999673E+01  0.40000000000E+01  0.51109989000E-03 0. -1.
     -623   -1    0    0    0    0  0.00000000000E+00  0.00000000000E+00  0.12525980253E-10  0.17130000000E+03  0.17130000000E+03 0.  1.
       11    1    1    2    0    0 -0.11126266988E-01 -0.48810020973E-02  0.43969624823E-01  0.45620249109E-01  0.51109989000E-03 0. -1.
     -623    1    1    2    0    0  0.27073943040E-02  0.23435125318E-02  0.17742140936E-02  0.17130000005E+03  0.17130000000E+03 0.  1.
      622    1    1    2    0    0  0.84188726841E-02  0.25374895656E-02  0.39542561283E+01  0.39543797041E+01  0.30000000000E-01 0. -1.
</event>
<event>
 5   0  0.4961200E+08  0.9118800E+02  0.7818608E-02  0.1180000E+00
       11   -1    0    0    0    0  0.00000000000E+00  0.00000000000E+00  0.39999999673E+01  0.40000000000E+01  0.51109989000E-03 0.  1.
     -623   -1    0    0    0    0  0.00000000000E+00  0.00000000000E+00  0.12525980253E-10  0.17130000000E+03  0.17130000000E+03 0. -1.
       11    1    1    2    0    0 -0.17628351416E-01 -0.23034885381E-02  0.10854134484E+01  0.10855591554E+01  0.51109989000E-03 0.  1.
     -623    1    1    2    0    0  0.69602175261E-03  0.17521019119E-02  0.34933473744E-03  0.17130000001E+03  0.17130000000E+03 0. -1.
      622    1    1    2    0    0  0.16932329664E-01  0.55138662627E-03  0.29142371842E+01  0.29144408338E+01  0.30000000000E-01 0.  1.
</event>
<event>
 5   0  0.4961200E+08  0.9118800E+02  0.7818608E-02  0.1180000E+00
       11   -1    0    0    0    0  0.00000000000E+00  0.00000000000E+00  0.39999999673E+01  0.40000000000E+01  0.51109989000E-03 0. -1.
     -623   -1    0    0    0    0  0.00000000000E+00  0.00000000000E+00  0.12525980253E-10  0.17130000000E+03  0.17130000000E+03 0. -1.
       11    1    1    2    0    0  0.42155151093E-03  0.43563253778E-03  0.52498042764E-01  0.52504030307E-01  0.51109989000E-03 0. -1.
     -623    1    1    2    0    0 -0.22352910164E-03 -0.37345404611E-04  0.11997811806E-03  0.17130000000E+03  0.17130000000E+03 0. -1.
      622    1    1    2    0    0 -0.19802240912E-03 -0.39828713314E-03  0.39473819497E+01  0.39474959727E+01  0.30000000000E-01 0. -1.
</event>
<event>
 5   0  0.4961200E+08  0.9118800E+02  0.7818608E-02  0.1180000E+00
       11   -1    0    0    0    0  0.00000000000E+00  0.00000000000E+00  0.39999999673E+01  0.40000000000E+01  0.51109989000E-03 0.  1.
     -623   -1    0    0    0    0  0.00000000000E+00  0.00000000000E+00  0.12525980253E-10  0.17130000000E+03  0.17130000000E+03 0. -1.
       11    1    1    2    0    0  0.27274488674E-02  0.25239931620E-02  0.31393674735E+00  0.31395915670E+00  0.51109989000E-03 0.  1.
     -623    1    1    2    0    0  0.83086205248E-03 -0.90140013324E-04  0.14698415596E-03  0.17130000000E+03  0.17130000000E+03 0. -1.
      622    1    1    2    0    0 -0.35583109203E-02 -0.24338531486E-02  0.36859162378E+01  0.36860408432E+01  0.30000000000E-01 0.  1.
</event>
<event>
 5   0  0.4961200E+08  0.9118800E+02  0.7818608E-02  0.1180000E+00
       11   -1    0    0    0    0  0.00000000000E+00  0.00000000000E+00  0.39999999673E+01  0.40000000000E+01  0.51109989000E-03 0.  1.
     -623   -1    0    0    0    0  0.00000000000E+00  0.00000000000E+00  0.12525980253E-10  0.17130000000E+03  0.17130000000E+03 0. -1.
       11    1    1    2    0    0  0.55559795974E-02 -0.32351804606E-02  0.15551658523E+00  0.15565026439E+00  0.51109989000E-03 0.  1.
     -623    1    1    2    0    0  0.37051624624E-03 -0.25358164767E-02  0.25962264141E-03  0.17130000002E+03  0.17130000000E+03 0. -1.
      622    1    1    2    0    0 -0.59264958437E-02  0.57709969374E-02  0.38442237595E+01  0.38443497162E+01  0.30000000000E-01 0.  1.
</event>
<event>
 5   0  0.4961200E+08  0.9118800E+02  0.7818608E-02  0.1180000E+00
       11   -1    0    0    0    0  0.00000000000E+00  0.00000000000E+00  0.39999999673E+01  0.40000000000E+01  0.51109989000E-03 0.  1.
     -623   -1    0    0    0    0  0.00000000000E+00  0.00000000000E+00  0.12525980253E-10  0.17130000000E+03  0.17130000000E+03 0. -1.
       11    1    1    2    0    0  0.20405995753E-03  0.67302147126E-03  0.23346491759E-02  0.24912663927E-02  0.51109989000E-03 0.  1.
     -623    1    1    2    0    0  0.58802683235E-03 -0.70886489703E-03  0.26923759661E-03  0.17130000000E+03  0.17130000000E+03 0. -1.
      622    1    1    2    0    0 -0.79208679017E-03  0.35843426114E-04  0.39973960826E+01  0.39975087329E+01  0.30000000000E-01 0.  1.
</event>
<event>
 5   0  0.4961200E+08  0.9118800E+02  0.7818608E-02  0.1180000E+00
       11   -1    0    0    0    0  0.00000000000E+00  0.00000000000E+00  0.39999999673E+01  0.40000000000E+01  0.51109989000E-03 0. -1.
     -623   -1    0    0    0    0  0.00000000000E+00  0.00000000000E+00  0.12525980253E-10  0.17130000000E+03  0.17130000000E+03 0.  1.
       11    1    1    2    0    0 -0.17893246466E-01 -0.28520530096E-01  0.80127243042E+00  0.80197964929E+00  0.51109989000E-03 0. -1.
     -623    1    1    2    0    0  0.48156260153E-02  0.10436919530E-02  0.99276196765E-03  0.17130000007E+03  0.17130000000E+03 0.  1.
      622    1    1    2    0    0  0.13077620451E-01  0.27476838143E-01  0.31977347750E+01  0.31980202770E+01  0.30000000000E-01 0. -1.
</event>
<event>
 5   0  0.4961200E+08  0.9118800E+02  0.7818608E-02  0.1180000E+00
       11   -1    0    0    0    0  0.00000000000E+00  0.00000000000E+00  0.39999999673E+01  0.40000000000E+01  0.51109989000E-03 0. -1.
     -623   -1    0    0    0    0  0.00000000000E+00  0.00000000000E+00  0.12525980253E-10  0.17130000000E+03  0.17130000000E+03 0. -1.
       11    1    1    2    0    0  0.23610591781E-03  0.11536092214E-01  0.50465321992E+00  0.50478537099E+00  0.51109989000E-03 0. -1.
     -623    1    1    2    0    0 -0.15950585678E-03 -0.83906984507E-03  0.27724108970E-03  0.17130000000E+03  0.17130000000E+03 0. -1.
      622    1    1    2    0    0 -0.76600061000E-04 -0.10697022369E-01  0.34950695071E+01  0.34952146274E+01  0.30000000000E-01 0.  0.
</event>
<event>
 5   0  0.4961200E+08  0.9118800E+02  0.7818608E-02  0.1180000E+00
       11   -1    0    0    0    0  0.00000000000E+00  0.00000000000E+00  0.39999999673E+01  0.40000000000E+01  0.51109989000E-03 0. -1.
     -623   -1    0    0    0    0  0.00000000000E+00  0.00000000000E+00  0.12525980253E-10  0.17130000000E+03  0.17130000000E+03 0.  1.
       11    1    1    2    0    0 -0.53895106077E-02  0.29485285342E-02  0.34657045855E+00  0.34662527981E+00  0.51109989000E-03 0. -1.
     -623    1    1    2    0    0 -0.28565085313E-02 -0.11527428802E-01  0.19775557014E-03  0.17130000041E+03  0.17130000000E+03 0.  1.
      622    1    1    2    0    0  0.82460191390E-02  0.85789002682E-02  0.36532317532E+01  0.36533743084E+01  0.30000000000E-01 0. -1.
</event>
<event>
 5   0  0.4961200E+08  0.9118800E+02  0.7818608E-02  0.1180000E+00
       11   -1    0    0    0    0  0.00000000000E+00  0.00000000000E+00  0.39999999673E+01  0.40000000000E+01  0.51109989000E-03 0.  1.
     -623   -1    0    0    0    0  0.00000000000E+00  0.00000000000E+00  0.12525980253E-10  0.17130000000E+03  0.17130000000E+03 0.  1.
       11    1    1    2    0    0  0.12059649699E-01 -0.55744565168E-02  0.93801300961E-01  0.94738877978E-01  0.51109989000E-03 0.  1.
     -623    1    1    2    0    0 -0.11707662449E-01  0.36076694565E-02  0.10537277155E-02  0.17130000044E+03  0.17130000000E+03 0.  1.
      622    1    1    2    0    0 -0.35198724987E-03  0.19667870603E-02  0.39051449387E+01  0.39052606807E+01  0.30000000000E-01 0.  1.
</event>
<event>
 5   0  0.4961200E+08  0.9118800E+02  0.7818608E-02  0.1180000E+00
       11   -1    0    0    0    0  0.00000000000E+00  0.00000000000E+00  0.39999999673E+01  0.40000000000E+01  0.51109989000E-03 0.  1.
     -623   -1    0    0    0    0  0.00000000000E+00  0.00000000000E+00  0.12525980253E-10  0.17130000000E+03  0.17130000000E+03 0. -1.
       11    1    1    2    0    0 -0.14854836132E-02 -0.23760379810E-02  0.24754194082E+00  0.24755832828E+00  0.51109989000E-03 0.  1.
     -623    1    1    2    0    0 -0.20335620771E-02 -0.10909713901E-02  0.13954609527E-03  0.17130000002E+03  0.17130000000E+03 0. -1.
      622    1    1    2    0    0  0.35190456903E-02  0.34670093711E-02  0.37523184804E+01  0.37524416561E+01  0.30000000000E-01 0.  1.
</event>
<event>
 5   0  0.4961200E+08  0.9118800E+02  0.7818608E-02  0.1180000E+00
       11   -1    0    0    0    0  0.00000000000E+00  0.00000000000E+00  0.39999999673E+01  0.40000000000E+01  0.51109989000E-03 0.  1.
     -623   -1    0    0    0    0  0.00000000000E+00  0.00000000000E+00  0.12525980253E-10  0.17130000000E+03  0.17130000000E+03 0. -1.
       11    1    1    2    0    0 -0.86713588801E-04  0.65437881792E-02  0.34999295885E+00  0.35005451169E+00  0.51109989000E-03 0.  1.
     -623    1    1    2    0    0  0.24338049200E-02 -0.39218353040E-02  0.18657052635E-03  0.17130000006E+03  0.17130000000E+03 0. -1.
      622    1    1    2    0    0 -0.23470913304E-02 -0.26219528764E-02  0.36498204367E+01  0.36499454248E+01  0.30000000000E-01 0.  0.
</event>
<event>
 5   0  0.4961200E+08  0.9118800E+02  0.7818608E-02  0.1180000E+00
       11   -1    0    0    0    0  0.00000000000E+00  0.00000000000E+00  0.39999999673E+01  0.40000000000E+01  0.51109989000E-03 0. -1.
     -623   -1    0    0    0    0  0.00000000000E+00  0.00000000000E+00  0.12525980253E-10  0.17130000000E+03  0.17130000000E+03 0.  1.
       11    1    1    2    0    0 -0.18981127070E-01  0.59365001916E-02  0.61850018128E+00  0.61882005517E+00  0.51109989000E-03 0. -1.
     -623    1    1    2    0    0  0.14308448827E-01  0.11393117860E-01  0.50155159694E-03  0.17130000098E+03  0.17130000000E+03 0.  1.
      622    1    1    2    0    0  0.46726782434E-02 -0.17329618051E-01  0.33809982344E+01  0.33811789675E+01  0.30000000000E-01 0.  1.
</event>
<event>
 5   0  0.4961200E+08  0.9118800E+02  0.7818608E-02  0.1180000E+00
       11   -1    0    0    0    0  0.00000000000E+00  0.00000000000E+00  0.39999999673E+01  0.40000000000E+01  0.51109989000E-03 0. -1.
     -623   -1    0    0    0    0  0.00000000000E+00  0.00000000000E+00  0.12525980253E-10  0.17130000000E+03  0.17130000000E+03 0.  1.
       11    1    1    2    0    0  0.56678605702E-02  0.38352956366E-02  0.94195775272E-01  0.94445431007E-01  0.51109989000E-03 0. -1.
     -623    1    1    2    0    0 -0.54732084941E-01  0.41410688738E-01  0.94893510366E-03  0.17130001375E+03  0.17130000000E+03 0.  1.
      622    1    1    2    0    0  0.49064224361E-01 -0.45245984367E-01  0.39048552563E+01  0.39055408166E+01  0.30000000000E-01 0. -1.
</event>
<event>
 5   0  0.4961200E+08  0.9118800E+02  0.7818608E-02  0.1180000E+00
       11   -1    0    0    0    0  0.00000000000E+00  0.00000000000E+00  0.39999999673E+01  0.40000000000E+01  0.51109989000E-03 0. -1.
     -623   -1    0    0    0    0  0.00000000000E+00  0.00000000000E+00  0.12525980253E-10  0.17130000000E+03  0.17130000000E+03 0.  1.
       11    1    1    2    0    0 -0.15000052116E-02  0.24679883677E-02  0.14508058910E+00  0.14511023237E+00  0.51109989000E-03 0. -1.
     -623    1    1    2    0    0  0.64057536125E-03 -0.17900446724E-03  0.14712401781E-03  0.17130000000E+03  0.17130000000E+03 0.  1.
      622    1    1    2    0    0  0.85942985031E-03 -0.22889839004E-02  0.38547722542E+01  0.38548897663E+01  0.30000000000E-01 0. -1.
</event>
<event>
 5   0  0.4961200E+08  0.9118800E+02  0.7818608E-02  0.1180000E+00
       11   -1    0    0    0    0  0.00000000000E+00  0.00000000000E+00  0.39999999673E+01  0.40000000000E+01  0.51109989000E-03 0.  1.
     -623   -1    0    0    0    0  0.00000000000E+00  0.00000000000E+00  0.12525980253E-10  0.17130000000E+03  0.17130000000E+03 0. -1.
       11    1    1    2    0    0  0.15910817090E-02  0.17171795762E-02  0.46384882526E-01  0.46446730719E-01  0.51109989000E-03 0.  1.
     -623    1    1    2    0    0  0.11179567063E-02 -0.12612133410E-02  0.17660169420E-03  0.17130000001E+03  0.17130000000E+03 0. -1.
      622    1    1    2    0    0 -0.27090384153E-02 -0.45596623517E-03  0.39534384831E+01  0.39535532609E+01  0.30000000000E-01 0.  1.
</event>
<event>
 5   0  0.4961200E+08  0.9118800E+02  0.7818608E-02  0.1180000E+00
       11   -1    0    0    0    0  0.00000000000E+00  0.00000000000E+00  0.39999999673E+01  0.40000000000E+01  0.51109989000E-03 0.  1.
     -623   -1    0    0    0    0  0.00000000000E+00  0.00000000000E+00  0.12525980253E-10  0.17130000000E+03  0.17130000000E+03 0. -1.
       11    1    1    2    0    0  0.37533896593E-03  0.27912539200E-03  0.39730462375E-02  0.40330025820E-02  0.51109989000E-03 0.  1.
     -623    1    1    2    0    0 -0.32069408377E-03 -0.22481119726E-03  0.17254011144E-03  0.17130000000E+03  0.17130000000E+03 0. -1.
      622    1    1    2    0    0 -0.54644882252E-04 -0.54314194803E-04  0.39958543800E+01  0.39959669958E+01  0.30000000000E-01 0.  1.
</event>
<event>
 5   0  0.4961200E+08  0.9118800E+02  0.7818608E-02  0.1180000E+00
       11   -1    0    0    0    0  0.00000000000E+00  0.00000000000E+00  0.39999999673E+01  0.40000000000E+01  0.51109989000E-03 0.  1.
     -623   -1    0    0    0    0  0.00000000000E+00  0.00000000000E+00  0.12525980253E-10  0.17130000000E+03  0.17130000000E+03 0. -1.
       11    1    1    2    0    0  0.41227794678E-03  0.51257216744E-03  0.20213259885E-01  0.20230417658E-01  0.51109989000E-03 0.  1.
     -623    1    1    2    0    0 -0.26311428562E-03  0.72197133067E-03  0.13039466730E-03  0.17130000000E+03  0.17130000000E+03 0. -1.
      622    1    1    2    0    0 -0.14916366117E-03 -0.12345434981E-02  0.39796563128E+01  0.39797695806E+01  0.30000000000E-01 0.  1.
</event>
<event>
 5   0  0.4961200E+08  0.9118800E+02  0.7818608E-02  0.1180000E+00
       11   -1    0    0    0    0  0.00000000000E+00  0.00000000000E+00  0.39999999673E+01  0.40000000000E+01  0.51109989000E-03 0. -1.
     -623   -1    0    0    0    0  0.00000000000E+00  0.00000000000E+00  0.12525980253E-10  0.17130000000E+03  0.17130000000E+03 0. -1.
       11    1    1    2    0    0  0.44896877091E-02  0.13636553911E-02  0.11385901352E+00  0.11395680337E+00  0.51109989000E-03 0. -1.
     -623    1    1    2    0    0 -0.28943020530E-04 -0.39673050767E-02  0.21703657707E-03  0.17130000005E+03  0.17130000000E+03 0. -1.
      622    1    1    2    0    0 -0.44607446886E-02  0.26036496856E-02  0.38859239173E+01  0.38860431506E+01  0.30000000000E-01 0. -1.
</event>
<event>
 5   0  0.4961200E+08  0.9118800E+02  0.7818608E-02  0.1180000E+00
       11   -1    0    0    0    0  0.00000000000E+00  0.00000000000E+00  0.39999999673E+01  0.40000000000E+01  0.51109989000E-03 0. -1.
     -623   -1    0    0    0    0  0.00000000000E+00  0.00000000000E+00  0.12525980253E-10  0.17130000000E+03  0.17130000000E+03 0.  1.
       11    1    1    2    0    0 -0.99975128050E-02  0.14859258328E-02  0.75536112101E+00  0.75542891300E+00  0.51109989000E-03 0. -1.
     -623    1    1    2    0    0  0.66666763071E-02  0.10228835762E-02  0.20926820474E-03  0.17130000013E+03  0.17130000000E+03 0.  1.
      622    1    1    2    0    0  0.33308364955E-02 -0.25088094094E-02  0.32444295796E+01  0.32445709555E+01  0.30000000000E-01 0. -1.
</event>
<event>
 5   0  0.4961200E+08  0.9118800E+02  0.7818608E-02  0.1180000E+00
       11   -1    0    0    0    0  0.00000000000E+00  0.00000000000E+00  0.39999999673E+01  0.40000000000E+01  0.51109989000E-03 0. -1.
     -623   -1    0    0    0    0  0.00000000000E+00  0.00000000000E+00  0.12525980253E-10  0.17130000000E+03  0.17130000000E+03 0.  1.
       11    1    1    2    0    0 -0.95219763697E-04  0.12772675997E-02  0.10115131910E+00  0.10116071895E+00  0.51109989000E-03 0. -1.
     -623    1    1    2    0    0  0.34670242239E-03  0.62511013215E-03  0.12526166221E-03  0.17130000000E+03  0.17130000000E+03 0.  1.
      622    1    1    2    0    0 -0.25148265898E-03 -0.19023777324E-02  0.38987233899E+01  0.38988392828E+01  0.30000000000E-01 0. -1.
</event>
<event>
 5   0  0.4961200E+08  0.9118800E+02  0.7818608E-02  0.1180000E+00
       11   -1    0    0    0    0  0.00000000000E+00  0.00000000000E+00  0.39999999673E+01  0.40000000000E+01  0.51109989000E-03 0. -1.
     -623   -1    0    0    0    0  0.00000000000E+00  0.00000000000E+00  0.12525980253E-10  0.17130000000E+03  0.17130000000E+03 0. -1.
       11    1    1    2    0    0 -0.10145650440E-01 -0.40852722611E-01  0.84651266269E-01  0.94540876181E-01  0.51109989000E-03 0. -1.
     -623    1    1    2    0    0 -0.23011887829E-01 -0.16460411488E-01  0.10568815729E-01  0.17130000266E+03  0.17130000000E+03 0. -1.
      622    1    1    2    0    0  0.33157538269E-01  0.57313134100E-01  0.39047798854E+01  0.39054564613E+01  0.30000000000E-01 0. -1.
</event>
<event>
 5   0  0.4961200E+08  0.9118800E+02  0.7818608E-02  0.1180000E+00
       11   -1    0    0    0    0  0.00000000000E+00  0.00000000000E+00  0.39999999673E+01  0.40000000000E+01  0.51109989000E-03 0.  1.
     -623   -1    0    0    0    0  0.00000000000E+00  0.00000000000E+00  0.12525980253E-10  0.17130000000E+03  0.17130000000E+03 0.  1.
       11    1    1    2    0    0  0.17316992420E-03  0.27362164434E-02  0.24347662398E+00  0.24349259643E+00  0.51109989000E-03 0.  1.
     -623    1    1    2    0    0  0.19519705757E-02 -0.43681321135E-02  0.13675633529E-03  0.17130000007E+03  0.17130000000E+03 0.  1.
      622    1    1    2    0    0 -0.21251404999E-02  0.16319156701E-02  0.37563865870E+01  0.37565073367E+01  0.30000000000E-01 0.  1.
</event>
<event>
 5   0  0.4961200E+08  0.9118800E+02  0.7818608E-02  0.1180000E+00
       11   -1    0    0    0    0  0.00000000000E+00  0.00000000000E+00  0.39999999673E+01  0.40000000000E+01  0.51109989000E-03 0. -1.
     -623   -1    0    0    0    0  0.00000000000E+00  0.00000000000E+00  0.12525980253E-10  0.17130000000E+03  0.17130000000E+03 0. -1.
       11    1    1    2    0    0  0.11360490987E-02 -0.25970124606E-02  0.13138856590E-01  0.13450868257E-01  0.51109989000E-03 0. -1.
     -623    1    1    2    0    0 -0.83963496854E-03 -0.12207019988E-03  0.42580117848E-03  0.17130000000E+03  0.17130000000E+03 0. -1.
      622    1    1    2    0    0 -0.29641413006E-03  0.27190826605E-02  0.39864353100E+01  0.39865491295E+01  0.30000000000E-01 0. -1.
</event>
<event>
 5   0  0.4961200E+08  0.9118800E+02  0.7818608E-02  0.1180000E+00
       11   -1    0    0    0    0  0.00000000000E+00  0.00000000000E+00  0.39999999673E+01  0.40000000000E+01  0.51109989000E-03 0.  1.
     -623   -1    0    0    0    0  0.00000000000E+00  0.00000000000E+00  0.12525980253E-10  0.17130000000E+03  0.17130000000E+03 0.  1.
       11    1    1    2    0    0 -0.52481815646E-02  0.74607261849E-02  0.61767824745E-01  0.62439820956E-01  0.51109989000E-03 0.  1.
     -623    1    1    2    0    0  0.54589082627E-02 -0.33388756610E-03  0.79279382931E-03  0.17130000009E+03  0.17130000000E+03 0.  1.
      622    1    1    2    0    0 -0.21072669812E-03 -0.71268386188E-02  0.39374393488E+01  0.39375600899E+01  0.30000000000E-01 0.  1.
</event>
<event>
 5   0  0.4961200E+08  0.9118800E+02  0.7818608E-02  0.1180000E+00
       11   -1    0    0    0    0  0.00000000000E+00  0.00000000000E+00  0.39999999673E+01  0.40000000000E+01  0.51109989000E-03 0.  1.
     -623   -1    0    0    0    0  0.00000000000E+00  0.00000000000E+00  0.12525980253E-10  0.17130000000E+03  0.17130000000E+03 0. -1.
       11    1    1    2    0    0  0.14942699435E-01  0.84235239046E-03  0.50150913024E+00  0.50173266065E+00  0.51109989000E-03 0.  1.
     -623    1    1    2    0    0 -0.16728954685E-01 -0.14916608041E-02  0.35347531554E-03  0.17130000082E+03  0.17130000000E+03 0. -1.
      622    1    1    2    0    0  0.17862552491E-02  0.64930841351E-03  0.34981373616E+01  0.34982665154E+01  0.30000000000E-01 0.  1.
</event>
<event>
 5   0  0.4961200E+08  0.9118800E+02  0.7818608E-02  0.1180000E+00
       11   -1    0    0    0    0  0.00000000000E+00  0.00000000000E+00  0.39999999673E+01  0.40000000000E+01  0.51109989000E-03 0. -1.
     -623   -1    0    0    0    0  0.00000000000E+00  0.00000000000E+00  0.12525980253E-10  0.17130000000E+03  0.17130000000E+03 0.  1.
       11    1    1    2    0    0 -0.32321510294E-02 -0.86530951510E-04  0.92099999867E-01  0.92158154739E-01  0.51109989000E-03 0. -1.
     -623    1    1    2    0    0  0.21213073390E-03 -0.24612409967E-03  0.17445854461E-03  0.17130000000E+03  0.17130000000E+03 0.  1.
      622    1    1    2    0    0  0.30200202955E-02  0.33265505118E-03  0.39077255089E+01  0.39078418449E+01  0.30000000000E-01 0. -1.
</event>
<event>
 5   0  0.4961200E+08  0.9118800E+02  0.7818608E-02  0.1180000E+00
       11   -1    0    0    0    0  0.00000000000E+00  0.00000000000E+00  0.39999999673E+01  0.40000000000E+01  0.51109989000E-03 0. -1.
     -623   -1    0    0    0    0  0.00000000000E+00  0.00000000000E+00  0.12525980253E-10  0.17130000000E+03  0.17130000000E+03 0. -1.
       11    1    1    2    0    0  0.28159432992E-02 -0.48726530004E-02  0.37041390619E-01  0.37469962971E-01  0.51109989000E-03 0. -1.
     -623    1    1    2    0    0 -0.14332534204E-02  0.16996678560E-02  0.54363210045E-03  0.17130000002E+03  0.17130000000E+03 0. -1.
      622    1    1    2    0    0 -0.13826898788E-02  0.31729851444E-02  0.39624149446E+01  0.39625300217E+01  0.30000000000E-01 0. -1.
</event>
<event>
 5   0  0.4961200E+08  0.9118800E+02  0.7818608E-02  0.1180000E+00
       11   -1    0    0    0    0  0.00000000000E+00  0.00000000000E+00  0.39999999673E+01  0.40000000000E+01  0.51109989000E-03 0.  1.
     -623   -1    0    0    0    0  0.00000000000E+00  0.00000000000E+00  0.12525980253E-10  0.17130000000E+03  0.17130000000E+03 0.  1.
       11    1    1    2    0    0 -0.27341249114E-02 -0.17634744044E-02  0.20236824252E-01  0.20503062177E-01  0.51109989000E-03 0.  1.
     -623    1    1    2    0    0  0.16068339565E-02 -0.41096341638E-02  0.38383746270E-03  0.17130000006E+03  0.17130000000E+03 0.  1.
      622    1    1    2    0    0  0.11272909549E-02  0.58731085681E-02  0.39793793056E+01  0.39794968806E+01  0.30000000000E-01 0.  1.
</event>
<event>
 5   0  0.4961200E+08  0.9118800E+02  0.7818608E-02  0.1180000E+00
       11   -1    0    0    0    0  0.00000000000E+00  0.00000000000E+00  0.39999999673E+01  0.40000000000E+01  0.51109989000E-03 0. -1.
     -623   -1    0    0    0    0  0.00000000000E+00  0.00000000000E+00  0.12525980253E-10  0.17130000000E+03  0.17130000000E+03 0.  1.
       11    1    1    2    0    0  0.56241976345E-02 -0.43163564403E-02  0.10358719470E+01  0.10358963338E+01  0.51109989000E-03 0. -1.
     -623    1    1    2    0    0 -0.12794689470E-01 -0.65143704610E-02  0.20523867277E-03  0.17130000060E+03  0.17130000000E+03 0.  1.
      622    1    1    2    0    0  0.71704918356E-02  0.10830726901E-01  0.29639227817E+01  0.29641030644E+01  0.30000000000E-01 0. -1.
</event>
<event>
 5   0  0.4961200E+08  0.9118800E+02  0.7818608E-02  0.1180000E+00
       11   -1    0    0    0    0  0.00000000000E+00  0.00000000000E+00  0.39999999673E+01  0.40000000000E+01  0.51109989000E-03 0.  1.
     -623   -1    0    0    0    0  0.00000000000E+00  0.00000000000E+00  0.12525980253E-10  0.17130000000E+03  0.17130000000E+03 0.  1.
       11    1    1    2    0    0 -0.30823738805E-03 -0.14648431154E-01  0.10117622800E+01  0.10118684914E+01  0.51109989000E-03 0.  1.
     -623    1    1    2    0    0  0.15833850856E-01  0.10247339256E-02  0.32890880014E-03  0.17130000074E+03  0.17130000000E+03 0.  1.
      622    1    1    2    0    0 -0.15525613468E-01  0.13623697228E-01  0.29879087786E+01  0.29881307734E+01  0.30000000000E-01 0.  1.
</event>
<event>
 5   0  0.4961200E+08  0.9118800E+02  0.7818608E-02  0.1180000E+00
       11   -1    0    0    0    0  0.00000000000E+00  0.00000000000E+00  0.39999999673E+01  0.40000000000E+01  0.51109989000E-03 0.  1.
     -623   -1    0    0    0    0  0.00000000000E+00  0.00000000000E+00  0.12525980253E-10  0.17130000000E+03  0.17130000000E+03 0.  1.
       11    1    1    2    0    0  0.34948744740E-02 -0.51565694037E-02  0.15467231100E-01  0.16682350452E-01  0.51109989000E-03 0.  1.
     -623    1    1    2    0    0 -0.19426901267E-02  0.83411793627E-02  0.13298542271E-02  0.17130000022E+03  0.17130000000E+03 0.  1.
      622    1    1    2    0    0 -0.15521843474E-02 -0.31846099588E-02  0.39832028819E+01  0.39833174302E+01  0.30000000000E-01 0.  1.
</event>
<event>
 5   0  0.4961200E+08  0.9118800E+02  0.7818608E-02  0.1180000E+00
       11   -1    0    0    0    0  0.00000000000E+00  0.00000000000E+00  0.39999999673E+01  0.40000000000E+01  0.51109989000E-03 0. -1.
     -623   -1    0    0    0    0  0.00000000000E+00  0.00000000000E+00  0.12525980253E-10  0.17130000000E+03  0.17130000000E+03 0.  1.
       11    1    1    2    0    0  0.13125719509E-02 -0.13902640716E-02  0.38003520244E+00  0.38004035575E+00  0.51109989000E-03 0. -1.
     -623    1    1    2    0    0  0.59315177819E-03  0.33281731539E-03  0.13009108031E-03  0.17130000000E+03  0.17130000000E+03 0.  1.
      622    1    1    2    0    0 -0.19057237291E-02  0.10574467562E-02  0.36198346738E+01  0.36199596429E+01  0.30000000000E-01 0. -1.
</event>
<event>
 5   0  0.4961200E+08  0.9118800E+02  0.7818608E-02  0.1180000E+00
       11   -1    0    0    0    0  0.00000000000E+00  0.00000000000E+00  0.39999999673E+01  0.40000000000E+01  0.51109989000E-03 0. -1.
     -623   -1    0    0    0    0  0.00000000000E+00  0.00000000000E+00  0.12525980253E-10  0.17130000000E+03  0.17130000000E+03 0.  1.
       11    1    1    2    0    0  0.31945411429E-02 -0.20931886153E-02  0.28662829314E+00  0.28665419268E+00  0.51109989000E-03 0. -1.
     -623    1    1    2    0    0 -0.51410735265E-03  0.10712040639E-03  0.14855284676E-03  0.17130000000E+03  0.17130000000E+03 0.  1.
      622    1    1    2    0    0 -0.26804337903E-02  0.19860682089E-02  0.37132231214E+01  0.37133458065E+01  0.30000000000E-01 0.  0.
</event>
<event>
 5   0  0.4961200E+08  0.9118800E+02  0.7818608E-02  0.1180000E+00
       11   -1    0    0    0    0  0.00000000000E+00  0.00000000000E+00  0.39999999673E+01  0.40000000000E+01  0.51109989000E-03 0.  1.
     -623   -1    0    0    0    0  0.00000000000E+00  0.00000000000E+00  0.12525980253E-10  0.17130000000E+03  0.17130000000E+03 0.  1.
       11    1    1    2    0    0 -0.10671001216E-01 -0.50509261646E-02  0.43814932090E+00  0.43830864781E+00  0.51109989000E-03 0.  1.
     -623    1    1    2    0    0  0.76932289405E-02  0.68653826004E-02  0.28765859347E-03  0.17130000031E+03  0.17130000000E+03 0.  1.
      622    1    1    2    0    0  0.29777722751E-02 -0.18144564358E-02  0.35615629879E+01  0.35616910416E+01  0.30000000000E-01 0.  1.
</event>
<event>
 5   0  0.4961200E+08  0.9118800E+02  0.7818608E-02  0.1180000E+00
       11   -1    0    0    0    0  0.00000000000E+00  0.00000000000E+00  0.39999999673E+01  0.40000000000E+01  0.51109989000E-03 0.  1.
     -623   -1    0    0    0    0  0.00000000000E+00  0.00000000000E+00  0.12525980253E-10  0.17130000000E+03  0.17130000000E+03 0.  1.
       11    1    1    2    0    0 -0.17881059879E-02  0.23477491295E-03  0.54949830138E-01  0.54981792405E-01  0.51109989000E-03 0.  1.
     -623    1    1    2    0    0 -0.23727376344E-03  0.52014949028E-03  0.14659237289E-03  0.17130000000E+03  0.17130000000E+03 0.  1.
      622    1    1    2    0    0  0.20253797513E-02 -0.75492440324E-03  0.39449035448E+01  0.39450182066E+01  0.30000000000E-01 0.  1.
</event>
<event>
 5   0  0.4961200E+08  0.9118800E+02  0.7818608E-02  0.1180000E+00
       11   -1    0    0    0    0  0.00000000000E+00  0.00000000000E+00  0.39999999673E+01  0.40000000000E+01  0.51109989000E-03 0.  1.
     -623   -1    0    0    0    0  0.00000000000E+00  0.00000000000E+00  0.12525980253E-10  0.17130000000E+03  0.17130000000E+03 0.  1.
       11    1    1    2    0    0  0.33805071082E-02  0.43287982255E-02  0.12212836420E+00  0.12225287271E+00  0.51109989000E-03 0.  1.
     -623    1    1    2    0    0 -0.68280802020E-02 -0.13625222582E-04  0.24459429131E-03  0.17130000014E+03  0.17130000000E+03 0.  1.
      622    1    1    2    0    0  0.34475730956E-02 -0.43151730030E-02  0.38776270099E+01  0.38777469921E+01  0.30000000000E-01 0.  1.
</event>
<event>
 5   0  0.4961200E+08  0.9118800E+02  0.7818608E-02  0.1180000E+00
       11   -1    0    0    0    0  0.00000000000E+00  0.00000000000E+00  0.39999999673E+01  0.40000000000E+01  0.51109989000E-03 0. -1.
     -623   -1    0    0    0    0  0.00000000000E+00  0.00000000000E+00  0.12525980253E-10  0.17130000000E+03  0.17130000000E+03 0.  1.
       11    1    1    2    0    0  0.88735352240E-02 -0.60354995902E-02  0.97361511695E+00  0.97367439324E+00  0.51109989000E-03 0. -1.
     -623    1    1    2    0    0 -0.31122265202E-02 -0.19744641060E-02  0.22406733229E-03  0.17130000004E+03  0.17130000000E+03 0.  1.
      622    1    1    2    0    0 -0.57613087037E-02  0.80099636962E-02  0.30261607831E+01  0.30263255670E+01  0.30000000000E-01 0.  1.
</event>
<event>
 5   0  0.4961200E+08  0.9118800E+02  0.7818608E-02  0.1180000E+00
       11   -1    0    0    0    0  0.00000000000E+00  0.00000000000E+00  0.39999999673E+01  0.40000000000E+01  0.51109989000E-03 0.  1.
     -623   -1    0    0    0    0  0.00000000000E+00  0.00000000000E+00  0.12525980253E-10  0.17130000000E+03  0.17130000000E+03 0.  1.
       11    1    1    2    0    0 -0.13077781954E-01 -0.22483233677E-01  0.90928494858E+00  0.90965702499E+00  0.51109989000E-03 0.  1.
     -623    1    1    2    0    0 -0.58606175838E-03  0.20784006247E-03  0.62815991796E-03  0.17130000000E+03  0.17130000000E+03 0.  1.
      622    1    1    2    0    0  0.13663843713E-01  0.22275393615E-01  0.30900868594E+01  0.30903429733E+01  0.30000000000E-01 0.  1.
</event>
<event>
 5   0  0.4961200E+08  0.9118800E+02  0.7818608E-02  0.1180000E+00
       11   -1    0    0    0    0  0.00000000000E+00  0.00000000000E+00  0.39999999673E+01  0.40000000000E+01  0.51109989000E-03 0. -1.
     -623   -1    0    0    0    0  0.00000000000E+00  0.00000000000E+00  0.12525980253E-10  0.17130000000E+03  0.17130000000E+03 0.  1.
       11    1    1    2    0    0  0.11174585402E-03 -0.29032086684E-02  0.26242137826E+00  0.26243795857E+00  0.51109989000E-03 0. -1.
     -623    1    1    2    0    0 -0.71061906338E-02  0.99484627498E-02  0.15057053900E-03  0.17130000044E+03  0.17130000000E+03 0.  1.
      622    1    1    2    0    0  0.69944447848E-02 -0.70452540884E-02  0.37374280214E+01  0.37375616079E+01  0.30000000000E-01 0.  0.
</event>
<event>
 5   0  0.4961200E+08  0.9118800E+02  0.7818608E-02  0.1180000E+00
       11   -1    0    0    0    0  0.00000000000E+00  0.00000000000E+00  0.39999999673E+01  0.40000000000E+01  0.51109989000E-03 0.  1.
     -623   -1    0    0    0    0  0.00000000000E+00  0.00000000000E+00  0.12525980253E-10  0.17130000000E+03  0.17130000000E+03 0. -1.
       11    1    1    2    0    0  0.10297264731E-02 -0.78302471090E-02  0.11139670449E+01  0.11139951577E+01  0.51109989000E-03 0.  1.
     -623    1    1    2    0    0 -0.20229818361E-03  0.83559554541E-02  0.18437983294E-03  0.17130000020E+03  0.17130000000E+03 0. -1.
      622    1    1    2    0    0 -0.82742828944E-03 -0.52570834651E-03  0.28858485433E+01  0.28860046389E+01  0.30000000000E-01 0.  1.
</event>
<event>
 5   0  0.4961200E+08  0.9118800E+02  0.7818608E-02  0.1180000E+00
       11   -1    0    0    0    0  0.00000000000E+00  0.00000000000E+00  0.39999999673E+01  0.40000000000E+01  0.51109989000E-03 0.  1.
     -623   -1    0    0    0    0  0.00000000000E+00  0.00000000000E+00  0.12525980253E-10  0.17130000000E+03  0.17130000000E+03 0. -1.
       11    1    1    2    0    0  0.50826964750E-02  0.11071233454E-02  0.58755243542E-01  0.58987281595E-01  0.51109989000E-03 0.  1.
     -623    1    1    2    0    0  0.55412613580E-02  0.21402781075E-02  0.36195244472E-03  0.17130000010E+03  0.17130000000E+03 0. -1.
      622    1    1    2    0    0 -0.10623957833E-01 -0.32474014529E-02  0.39408827714E+01  0.39410126150E+01  0.30000000000E-01 0.  1.
</event>
<event>
 5   0  0.4961200E+08  0.9118800E+02  0.7818608E-02  0.1180000E+00
       11   -1    0    0    0    0  0.00000000000E+00  0.00000000000E+00  0.39999999673E+01  0.40000000000E+01  0.51109989000E-03 0. -1.
     -623   -1    0    0    0    0  0.00000000000E+00  0.00000000000E+00  0.12525980253E-10  0.17130000000E+03  0.17130000000E+03 0.  1.
       11    1    1    2    0    0 -0.70960386941E-04  0.62329194497E-02  0.10295749118E+01  0.10295939076E+01  0.51109989000E-03 0. -1.
     -623    1    1    2    0    0 -0.12537342590E-02  0.18770940909E-02  0.18184367473E-03  0.17130000001E+03  0.17130000000E+03 0.  1.
      622    1    1    2    0    0  0.13246946459E-02 -0.81100135407E-02  0.29702432119E+01  0.29704060774E+01  0.30000000000E-01 0.  0.
</event>
<event>
 5   0  0.4961200E+08  0.9118800E+02  0.7818608E-02  0.1180000E+00
       11   -1    0    0    0    0  0.00000000000E+00  0.00000000000E+00  0.39999999673E+01  0.40000000000E+01  0.51109989000E-03 0. -1.
     -623   -1    0    0    0    0  0.00000000000E+00  0.00000000000E+00  0.12525980253E-10  0.17130000000E+03  0.17130000000E+03 0. -1.
       11    1    1    2    0    0  0.54157028339E-02  0.14097633252E-01  0.91302105151E+00  0.91314608625E+00  0.51109989000E-03 0. -1.
     -623    1    1    2    0    0 -0.21344490025E-03  0.20555480200E-03  0.30830872405E-03  0.17130000000E+03  0.17130000000E+03 0. -1.
      622    1    1    2    0    0 -0.52022579337E-02 -0.14303188054E-01  0.30866706066E+01  0.30868539127E+01  0.30000000000E-01 0. -1.
</event>
<event>
 5   0  0.4961200E+08  0.9118800E+02  0.7818608E-02  0.1180000E+00
       11   -1    0    0    0    0  0.00000000000E+00  0.00000000000E+00  0.39999999673E+01  0.40000000000E+01  0.51109989000E-03 0. -1.
     -623   -1    0    0    0    0  0.00000000000E+00  0.00000000000E+00  0.12525980253E-10  0.17130000000E+03  0.17130000000E+03 0.  1.
       11    1    1    2    0    0  0.14042761870E-01 -0.55279235132E-04  0.11341059606E+01  0.11341930141E+01  0.51109989000E-03 0. -1.
     -623    1    1    2    0    0 -0.61878932607E-02  0.68125396485E-02  0.26302867826E-03  0.17130000025E+03  0.17130000000E+03 0.  1.
      622    1    1    2    0    0 -0.78548686089E-02 -0.67572604133E-02  0.28656309781E+01  0.28658067385E+01  0.30000000000E-01 0. -1.
</event>
<event>
 5   0  0.4961200E+08  0.9118800E+02  0.7818608E-02  0.1180000E+00
       11   -1    0    0    0    0  0.00000000000E+00  0.00000000000E+00  0.39999999673E+01  0.40000000000E+01  0.51109989000E-03 0.  1.
     -623   -1    0    0    0    0  0.00000000000E+00  0.00000000000E+00  0.12525980253E-10  0.17130000000E+03  0.17130000000E+03 0. -1.
       11    1    1    2    0    0  0.44305557984E-02  0.70072008196E-02  0.71856510623E-01  0.72334984820E-01  0.51109989000E-03 0.  1.
     -623    1    1    2    0    0 -0.58397171578E-02  0.94337570787E-03  0.60141832986E-03  0.17130000010E+03  0.17130000000E+03 0. -1.
      622    1    1    2    0    0  0.14091613594E-02 -0.79505765275E-02  0.39275420384E+01  0.39276649120E+01  0.30000000000E-01 0.  1.
</event>
<event>
 5   0  0.4961200E+08  0.9118800E+02  0.7818608E-02  0.1180000E+00
       11   -1    0    0    0    0  0.00000000000E+00  0.00000000000E+00  0.39999999673E+01  0.40000000000E+01  0.51109989000E-03 0. -1.
     -623   -1    0    0    0    0  0.00000000000E+00  0.00000000000E+00  0.12525980253E-10  0.17130000000E+03  0.17130000000E+03 0.  1.
       11    1    1    2    0    0 -0.23200698458E-02  0.15526080539E-02  0.24679278579E+00  0.24680910368E+00  0.51109989000E-03 0. -1.
     -623    1    1    2    0    0 -0.25702162525E-03  0.16632964673E-03  0.13746390672E-03  0.17130000000E+03  0.17130000000E+03 0.  1.
      622    1    1    2    0    0  0.25770914710E-02 -0.17189377006E-02  0.37530697168E+01  0.37531908951E+01  0.30000000000E-01 0. -1.
</event>
<event>
 5   0  0.4961200E+08  0.9118800E+02  0.7818608E-02  0.1180000E+00
       11   -1    0    0    0    0  0.00000000000E+00  0.00000000000E+00  0.39999999673E+01  0.40000000000E+01  0.51109989000E-03 0.  1.
     -623   -1    0    0    0    0  0.00000000000E+00  0.00000000000E+00  0.12525980253E-10  0.17130000000E+03  0.17130000000E+03 0.  1.
       11    1    1    2    0    0  0.63166799077E-02 -0.14414388372E-01  0.96762525398E+00  0.96775336135E+00  0.51109989000E-03 0.  1.
     -623    1    1    2    0    0  0.37755482899E-03 -0.12629167275E-02  0.32440800502E-03  0.17130000001E+03  0.17130000000E+03 0.  1.
      622    1    1    2    0    0 -0.66942347367E-02  0.15677305099E-01  0.30320503053E+01  0.30322466332E+01  0.30000000000E-01 0.  0.
</event>
<event>
 5   0  0.4961200E+08  0.9118800E+02  0.7818608E-02  0.1180000E+00
       11   -1    0    0    0    0  0.00000000000E+00  0.00000000000E+00  0.39999999673E+01  0.40000000000E+01  0.51109989000E-03 0.  1.
     -623   -1    0    0    0    0  0.00000000000E+00  0.00000000000E+00  0.12525980253E-10  0.17130000000E+03  0.17130000000E+03 0.  1.
       11    1    1    2    0    0  0.44523745544E-02 -0.34564407959E-02  0.79916379964E+00  0.79918384024E+00  0.51109989000E-03 0.  1.
     -623    1    1    2    0    0 -0.53294338049E-03 -0.27915969091E-02  0.16912205255E-03  0.17130000002E+03  0.17130000000E+03 0.  1.
      622    1    1    2    0    0 -0.39194311739E-02  0.62480377050E-02  0.32006670457E+01  0.32008161361E+01  0.30000000000E-01 0.  0.
</event>
<event>
 5   0  0.4961200E+08  0.9118800E+02  0.7818608E-02  0.1180000E+00
       11   -1    0    0    0    0  0.00000000000E+00  0.00000000000E+00  0.39999999673E+01  0.40000000000E+01  0.51109989000E-03 0. -1.
     -623   -1    0    0    0    0  0.00000000000E+00  0.00000000000E+00  0.12525980253E-10  0.17130000000E+03  0.17130000000E+03 0.  1.
       11    1    1    2    0    0  0.51545282314E-02 -0.27835978761E-02  0.46174592200E-01  0.46547521570E-01  0.51109989000E-03 0. -1.
     -623    1    1    2    0    0 -0.22204617063E-02 -0.10546133758E-02  0.48969328339E-03  0.17130000002E+03  0.17130000000E+03 0.  1.
      622    1    1    2    0    0 -0.29340665251E-02  0.38382112518E-02  0.39533356819E+01  0.39534524601E+01  0.30000000000E-01 0. -1.
</event>
<event>
 5   0  0.4961200E+08  0.9118800E+02  0.7818608E-02  0.1180000E+00
       11   -1    0    0    0    0  0.00000000000E+00  0.00000000000E+00  0.39999999673E+01  0.40000000000E+01  0.51109989000E-03 0. -1.
     -623   -1    0    0    0    0  0.00000000000E+00  0.00000000000E+00  0.12525980253E-10  0.17130000000E+03  0.17130000000E+03 0. -1.
       11    1    1    2    0    0  0.70952509877E-02 -0.10722098075E-01  0.21058501180E+00  0.21097775805E+00  0.51109989000E-03 0. -1.
     -623    1    1    2    0    0 -0.10511503187E-02 -0.34560205763E-02  0.54286684495E-03  0.17130000004E+03  0.17130000000E+03 0. -1.
      622    1    1    2    0    0 -0.60441006687E-02  0.14178118652E-01  0.37888720897E+01  0.37890222040E+01  0.30000000000E-01 0. -1.
</event>
<event>
 5   0  0.4961200E+08  0.9118800E+02  0.7818608E-02  0.1180000E+00
       11   -1    0    0    0    0  0.00000000000E+00  0.00000000000E+00  0.39999999673E+01  0.40000000000E+01  0.51109989000E-03 0.  1.
     -623   -1    0    0    0    0  0.00000000000E+00  0.00000000000E+00  0.12525980253E-10  0.17130000000E+03  0.17130000000E+03 0.  1.
       11    1    1    2    0    0  0.11300475430E-02  0.90775640462E-03  0.47063776046E-02  0.49509839824E-02  0.51109989000E-03 0.  1.
     -623    1    1    2    0    0  0.29989884516E-03  0.17834429610E-03  0.35761902948E-03  0.17130000000E+03  0.17130000000E+03 0.  1.
      622    1    1    2    0    0 -0.14299463882E-02 -0.10861007007E-02  0.39949359701E+01  0.39950490147E+01  0.30000000000E-01 0.  1.
</event>
<event>
 5   0  0.4961200E+08  0.9118800E+02  0.7818608E-02  0.1180000E+00
       11   -1    0    0    0    0  0.00000000000E+00  0.00000000000E+00  0.39999999673E+01  0.40000000000E+01  0.51109989000E-03 0. -1.
     -623   -1    0    0    0    0  0.00000000000E+00  0.00000000000E+00  0.12525980253E-10  0.17130000000E+03  0.17130000000E+03 0.  1.
       11    1    1    2    0    0 -0.17278133680E-03  0.23927734397E-02  0.88715545763E-01  0.88749447893E-01  0.51109989000E-03 0. -1.
     -623    1    1    2    0    0 -0.63530271638E-03 -0.19745829763E-03  0.14962484839E-03  0.17130000000E+03  0.17130000000E+03 0.  1.
      622    1    1    2    0    0  0.80808405383E-03 -0.21953151418E-02  0.39111348008E+01  0.39112505548E+01  0.30000000000E-01 0. -1.
</event>
<event>
 5   0  0.4961200E+08  0.9118800E+02  0.7818608E-02  0.1180000E+00
       11   -1    0    0    0    0  0.00000000000E+00  0.00000000000E+00  0.39999999673E+01  0.40000000000E+01  0.51109989000E-03 0.  1.
     -623   -1    0    0    0    0  0.00000000000E+00  0.00000000000E+00  0.12525980253E-10  0.17130000000E+03  0.17130000000E+03 0. -1.
       11    1    1    2    0    0 -0.96107513608E-02  0.37459585639E-02  0.80564988308E+00  0.80571607535E+00  0.51109989000E-03 0.  1.
     -623    1    1    2    0    0  0.38792285023E-03 -0.45297012775E-03  0.22205312821E-03  0.17130000000E+03  0.17130000000E+03 0. -1.
      622    1    1    2    0    0  0.92228285104E-02 -0.32929884360E-02  0.31941280325E+01  0.31942839248E+01  0.30000000000E-01 0.  1.
</event>
<event>
 5   0  0.4961200E+08  0.9118800E+02  0.7818608E-02  0.1180000E+00
       11   -1    0    0    0    0  0.00000000000E+00  0.00000000000E+00  0.39999999673E+01  0.40000000000E+01  0.51109989000E-03 0.  1.
     -623   -1    0    0    0    0  0.00000000000E+00  0.00000000000E+00  0.12525980253E-10  0.17130000000E+03  0.17130000000E+03 0.  1.
       11    1    1    2    0    0  0.48587037501E-02 -0.80575828314E-04  0.28189640702E+00  0.28193875046E+00  0.51109989000E-03 0.  1.
     -623    1    1    2    0    0 -0.37132210879E-02 -0.10481977267E-01  0.17888506771E-03  0.17130000036E+03  0.17130000000E+03 0.  1.
      622    1    1    2    0    0 -0.11454826622E-02  0.10562553096E-01  0.37179246753E+01  0.37180608885E+01  0.30000000000E-01 0.  1.
</event>
<event>
 5   0  0.4961200E+08  0.9118800E+02  0.7818608E-02  0.1180000E+00
       11   -1    0    0    0    0  0.00000000000E+00  0.00000000000E+00  0.39999999673E+01  0.40000000000E+01  0.51109989000E-03 0.  1.
     -623   -1    0    0    0    0  0.00000000000E+00  0.00000000000E+00  0.12525980253E-10  0.17130000000E+03  0.17130000000E+03 0.  1.
       11    1    1    2    0    0 -0.19132455971E-02 -0.12149634186E-02  0.49993344133E-02  0.55128225526E-02  0.51109989000E-03 0.  1.
     -623    1    1    2    0    0 -0.42026541093E-03  0.12849559613E-02  0.62680106280E-03  0.17130000001E+03  0.17130000000E+03 0.  1.
      622    1    1    2    0    0  0.23335110081E-02 -0.69992542925E-04  0.39943738325E+01  0.39944871715E+01  0.30000000000E-01 0.  1.
</event>
<event>
 5   0  0.4961200E+08  0.9118800E+02  0.7818608E-02  0.1180000E+00
       11   -1    0    0    0    0  0.00000000000E+00  0.00000000000E+00  0.39999999673E+01  0.40000000000E+01  0.51109989000E-03 0. -1.
     -623   -1    0    0    0    0  0.00000000000E+00  0.00000000000E+00  0.12525980253E-10  0.17130000000E+03  0.17130000000E+03 0.  1.
       11    1    1    2    0    0  0.13595275180E-01 -0.67836312293E-02  0.67543997680E+00  0.67561103650E+00  0.51109989000E-03 0. -1.
     -623    1    1    2    0    0 -0.40362470254E-03  0.17154312093E-02  0.33644033309E-03  0.17130000001E+03  0.17130000000E+03 0.  1.
      622    1    1    2    0    0 -0.13191650477E-01  0.50682000200E-02  0.33242235502E+01  0.33243889541E+01  0.30000000000E-01 0. -1.
</event>
<event>
 5   0  0.4961200E+08  0.9118800E+02  0.7818608E-02  0.1180000E+00
       11   -1    0    0    0    0  0.00000000000E+00  0.00000000000E+00  0.39999999673E+01  0.40000000000E+01  0.51109989000E-03 0. -1.
     -623   -1    0    0    0    0  0.00000000000E+00  0.00000000000E+00  0.12525980253E-10  0.17130000000E+03  0.17130000000E+03 0.  1.
       11    1    1    2    0    0  0.12659622557E-01 -0.12188262004E-01  0.93632531929E+00  0.93649035475E+00  0.51109989000E-03 0. -1.
     -623    1    1    2    0    0 -0.92270365218E-02 -0.19172765895E-02  0.34655477203E-03  0.17130000026E+03  0.17130000000E+03 0.  1.
      622    1    1    2    0    0 -0.34325860356E-02  0.14105538593E-01  0.30633280933E+01  0.30635093857E+01  0.30000000000E-01 0. -1.
</event>
<event>
 5   0  0.4961200E+08  0.9118800E+02  0.7818608E-02  0.1180000E+00
       11   -1    0    0    0    0  0.00000000000E+00  0.00000000000E+00  0.39999999673E+01  0.40000000000E+01  0.51109989000E-03 0.  1.
     -623   -1    0    0    0    0  0.00000000000E+00  0.00000000000E+00  0.12525980253E-10  0.17130000000E+03  0.17130000000E+03 0. -1.
       11    1    1    2    0    0  0.34479142107E-02 -0.99797713475E-02  0.54156492507E+00  0.54166808402E+00  0.51109989000E-03 0.  1.
     -623    1    1    2    0    0 -0.49540595132E-03 -0.28450340580E-03  0.24974351700E-03  0.17130000000E+03  0.17130000000E+03 0. -1.
      622    1    1    2    0    0 -0.29525082594E-02  0.10264274753E-01  0.34581852990E+01  0.34583319151E+01  0.30000000000E-01 0.  1.
</event>
<event>
 5   0  0.4961200E+08  0.9118800E+02  0.7818608E-02  0.1180000E+00
       11   -1    0    0    0    0  0.00000000000E+00  0.00000000000E+00  0.39999999673E+01  0.40000000000E+01  0.51109989000E-03 0. -1.
     -623   -1    0    0    0    0  0.00000000000E+00  0.00000000000E+00  0.12525980253E-10  0.17130000000E+03  0.17130000000E+03 0. -1.
       11    1    1    2    0    0  0.11732886018E-03  0.93327977148E-03  0.22287619771E-01  0.22313314307E-01  0.51109989000E-03 0. -1.
     -623    1    1    2    0    0  0.27954796496E-04 -0.29596282625E-03  0.13884861227E-03  0.17130000000E+03  0.17130000000E+03 0. -1.
      622    1    1    2    0    0 -0.14528365666E-03 -0.63731694540E-03  0.39775734968E+01  0.39776866832E+01  0.30000000000E-01 0. -1.
</event>
<event>
 5   0  0.4961200E+08  0.9118800E+02  0.7818608E-02  0.1180000E+00
       11   -1    0    0    0    0  0.00000000000E+00  0.00000000000E+00  0.39999999673E+01  0.40000000000E+01  0.51109989000E-03 0. -1.
     -623   -1    0    0    0    0  0.00000000000E+00  0.00000000000E+00  0.12525980253E-10  0.17130000000E+03  0.17130000000E+03 0. -1.
       11    1    1    2    0    0 -0.29444237032E-02 -0.29220912142E-02  0.16608245826E+00  0.16613504270E+00  0.51109989000E-03 0. -1.
     -623    1    1    2    0    0  0.23553415089E-02  0.70335320215E-03  0.17063363772E-03  0.17130000002E+03  0.17130000000E+03 0. -1.
      622    1    1    2    0    0  0.58908219305E-03  0.22187380117E-02  0.38337468776E+01  0.38338649417E+01  0.30000000000E-01 0. -1.
</event>
<event>
 5   0  0.4961200E+08  0.9118800E+02  0.7818608E-02  0.1180000E+00
       11   -1    0    0    0    0  0.00000000000E+00  0.00000000000E+00  0.39999999673E+01  0.40000000000E+01  0.51109989000E-03 0. -1.
     -623   -1    0    0    0    0  0.00000000000E+00  0.00000000000E+00  0.12525980253E-10  0.17130000000E+03  0.17130000000E+03 0. -1.
       11    1    1    2    0    0  0.62399496905E-02  0.88370538839E-03  0.51641185995E+00  0.51645056707E+00  0.51109989000E-03 0. -1.
     -623    1    1    2    0    0 -0.67881833967E-03  0.10288554042E-02  0.17282408690E-03  0.17130000000E+03  0.17130000000E+03 0. -1.
      622    1    1    2    0    0 -0.55611313508E-02 -0.19125607926E-02  0.34834152835E+01  0.34835494286E+01  0.30000000000E-01 0. -1.
</event>
<event>
 5   0  0.4961200E+08  0.9118800E+02  0.7818608E-02  0.1180000E+00
       11   -1    0    0    0    0  0.00000000000E+00  0.00000000000E+00  0.39999999673E+01  0.40000000000E+01  0.51109989000E-03 0.  1.
     -623   -1    0    0    0    0  0.00000000000E+00  0.00000000000E+00  0.12525980253E-10  0.17130000000E+03  0.17130000000E+03 0.  1.
       11    1    1    2    0    0 -0.18768503536E-02  0.20989894492E-02  0.69245020293E+00  0.69245611636E+00  0.51109989000E-03 0.  1.
     -623    1    1    2    0    0  0.29536088435E-03  0.49294569444E-03  0.14333095339E-03  0.17130000000E+03  0.17130000000E+03 0.  1.
      622    1    1    2    0    0  0.15814894693E-02 -0.25919351437E-02  0.33074064335E+01  0.33075438826E+01  0.30000000000E-01 0.  1.
</event>
<event>
 5   0  0.4961200E+08  0.9118800E+02  0.7818608E-02  0.1180000E+00
       11   -1    0    0    0    0  0.00000000000E+00  0.00000000000E+00  0.39999999673E+01  0.40000000000E+01  0.51109989000E-03 0.  1.
     -623   -1    0    0    0    0  0.00000000000E+00  0.00000000000E+00  0.12525980253E-10  0.17130000000E+03  0.17130000000E+03 0.  1.
       11    1    1    2    0    0  0.48263842734E-02 -0.41645648634E-02  0.14349104947E+00  0.14363349222E+00  0.51109989000E-03 0.  1.
     -623    1    1    2    0    0  0.30364450875E-03  0.11972978443E-02  0.26366057523E-03  0.17130000000E+03  0.17130000000E+03 0.  1.
      622    1    1    2    0    0 -0.51300287822E-02  0.29672670187E-02  0.38562452585E+01  0.38563665043E+01  0.30000000000E-01 0.  1.
</event>
<event>
 5   0  0.4961200E+08  0.9118800E+02  0.7818608E-02  0.1180000E+00
       11   -1    0    0    0    0  0.00000000000E+00  0.00000000000E+00  0.39999999673E+01  0.40000000000E+01  0.51109989000E-03 0. -1.
     -623   -1    0    0    0    0  0.00000000000E+00  0.00000000000E+00  0.12525980253E-10  0.17130000000E+03  0.17130000000E+03 0. -1.
       11    1    1    2    0    0  0.81291366164E-02  0.61678595419E-02  0.15475164052E-01  0.18543658727E-01  0.51109989000E-03 0. -1.
     -623    1    1    2    0    0 -0.19214662422E-01 -0.30414420046E-02  0.31992828369E-02  0.17130000113E+03  0.17130000000E+03 0. -1.
      622    1    1    2    0    0  0.11085525806E-01 -0.31264175372E-02  0.39813255206E+01  0.39814552068E+01  0.30000000000E-01 0. -1.
</event>
<event>
 5   0  0.4961200E+08  0.9118800E+02  0.7818608E-02  0.1180000E+00
       11   -1    0    0    0    0  0.00000000000E+00  0.00000000000E+00  0.39999999673E+01  0.40000000000E+01  0.51109989000E-03 0. -1.
     -623   -1    0    0    0    0  0.00000000000E+00  0.00000000000E+00  0.12525980253E-10  0.17130000000E+03  0.17130000000E+03 0. -1.
       11    1    1    2    0    0 -0.19674533580E-02 -0.50581483317E-03  0.46544069614E+00  0.46544540987E+00  0.51109989000E-03 0. -1.
     -623    1    1    2    0    0  0.46786269682E-02 -0.41692352212E-02  0.13624427939E-03  0.17130000011E+03  0.17130000000E+03 0. -1.
      622    1    1    2    0    0 -0.27111736103E-02  0.46750500543E-02  0.35344230269E+01  0.35345544754E+01  0.30000000000E-01 0. -1.
</event>
<event>
 5   0  0.4961200E+08  0.9118800E+02  0.7818608E-02  0.1180000E+00
       11   -1    0    0    0    0  0.00000000000E+00  0.00000000000E+00  0.39999999673E+01  0.40000000000E+01  0.51109989000E-03 0. -1.
     -623   -1    0    0    0    0  0.00000000000E+00  0.00000000000E+00  0.12525980253E-10  0.17130000000E+03  0.17130000000E+03 0. -1.
       11    1    1    2    0    0  0.88085445722E-02  0.52465018552E-03  0.15654996486E+00  0.15679929347E+00  0.51109989000E-03 0. -1.
     -623    1    1    2    0    0 -0.71662176334E-03  0.36260096603E-02  0.37718849207E-03  0.17130000004E+03  0.17130000000E+03 0. -1.
      622    1    1    2    0    0 -0.80919228089E-02 -0.41506598458E-02  0.38430728140E+01  0.38432006662E+01  0.30000000000E-01 0. -1.
</event>
<event>
 5   0  0.4961200E+08  0.9118800E+02  0.7818608E-02  0.1180000E+00
       11   -1    0    0    0    0  0.00000000000E+00  0.00000000000E+00  0.39999999673E+01  0.40000000000E+01  0.51109989000E-03 0. -1.
     -623   -1    0    0    0    0  0.00000000000E+00  0.00000000000E+00  0.12525980253E-10  0.17130000000E+03  0.17130000000E+03 0. -1.
       11    1    1    2    0    0  0.35116363955E-02 -0.13545763129E-02  0.14833261636E-01  0.15311869286E-01  0.51109989000E-03 0. -1.
     -623    1    1    2    0    0 -0.14008916054E-02  0.25990769655E-02  0.59228879016E-03  0.17130000003E+03  0.17130000000E+03 0. -1.
      622    1    1    2    0    0 -0.21107447904E-02 -0.12445006521E-02  0.39845744162E+01  0.39846881035E+01  0.30000000000E-01 0. -1.
</event>
<event>
 5   0  0.4961200E+08  0.9118800E+02  0.7818608E-02  0.1180000E+00
       11   -1    0    0    0    0  0.00000000000E+00  0.00000000000E+00  0.39999999673E+01  0.40000000000E+01  0.51109989000E-03 0. -1.
     -623   -1    0    0    0    0  0.00000000000E+00  0.00000000000E+00  0.12525980253E-10  0.17130000000E+03  0.17130000000E+03 0. -1.
       11    1    1    2    0    0  0.30512339406E-02  0.23000161716E-02  0.47263089899E+00  0.47264662065E+00  0.51109989000E-03 0. -1.
     -623    1    1    2    0    0 -0.29912021452E-02 -0.57676892468E-02  0.14509407722E-03  0.17130000012E+03  0.17130000000E+03 0. -1.
      622    1    1    2    0    0 -0.60031795412E-04  0.34676730753E-02  0.35272239743E+01  0.35273532561E+01  0.30000000000E-01 0. -1.
</event>
<event>
 5   0  0.4961200E+08  0.9118800E+02  0.7818608E-02  0.1180000E+00
       11   -1    0    0    0    0  0.00000000000E+00  0.00000000000E+00  0.39999999673E+01  0.40000000000E+01  0.51109989000E-03 0. -1.
     -623   -1    0    0    0    0  0.00000000000E+00  0.00000000000E+00  0.12525980253E-10  0.17130000000E+03  0.17130000000E+03 0.  1.
       11    1    1    2    0    0 -0.13788624998E-01 -0.66340076703E-02  0.16930641610E+00  0.16999723524E+00  0.51109989000E-03 0. -1.
     -623    1    1    2    0    0 -0.73418861586E-02  0.40027797026E-02  0.86768369133E-03  0.17130000021E+03  0.17130000000E+03 0.  1.
      622    1    1    2    0    0  0.21130511157E-01  0.26312279677E-02  0.38298258676E+01  0.38300025585E+01  0.30000000000E-01 0. -1.
</event>
<event>
 5   0  0.4961200E+08  0.9118800E+02  0.7818608E-02  0.1180000E+00
       11   -1    0    0    0    0  0.00000000000E+00  0.00000000000E+00  0.39999999673E+01  0.40000000000E+01  0.51109989000E-03 0.  1.
     -623   -1    0    0    0    0  0.00000000000E+00  0.00000000000E+00  0.12525980253E-10  0.17130000000E+03  0.17130000000E+03 0. -1.
       11    1    1    2    0    0 -0.69531970626E-02 -0.34883333825E-02  0.35620790337E+00  0.35629320378E+00  0.51109989000E-03 0.  1.
     -623    1    1    2    0    0 -0.16274591396E-02  0.20404949981E-02  0.21918191838E-03  0.17130000002E+03  0.17130000000E+03 0. -1.
      622    1    1    2    0    0  0.85806562022E-02  0.14478383844E-02  0.36435728821E+01  0.36437067762E+01  0.30000000000E-01 0.  1.
</event>
<event>
 5   0  0.4961200E+08  0.9118800E+02  0.7818608E-02  0.1180000E+00
       11   -1    0    0    0    0  0.00000000000E+00  0.00000000000E+00  0.39999999673E+01  0.40000000000E+01  0.51109989000E-03 0. -1.
     -623   -1    0    0    0    0  0.00000000000E+00  0.00000000000E+00  0.12525980253E-10  0.17130000000E+03  0.17130000000E+03 0.  1.
       11    1    1    2    0    0  0.18269292942E-02  0.30488998353E-02  0.13829663803E+00  0.13834324983E+00  0.51109989000E-03 0. -1.
     -623    1    1    2    0    0 -0.12502802656E-02  0.10045093451E-02  0.16528925880E-03  0.17130000001E+03  0.17130000000E+03 0.  1.
      622    1    1    2    0    0 -0.57664902860E-03 -0.40534091804E-02  0.38615380401E+01  0.38616567426E+01  0.30000000000E-01 0. -1.
</event>
<event>
 5   0  0.4961200E+08  0.9118800E+02  0.7818608E-02  0.1180000E+00
       11   -1    0    0    0    0  0.00000000000E+00  0.00000000000E+00  0.39999999673E+01  0.40000000000E+01  0.51109989000E-03 0.  1.
     -623   -1    0    0    0    0  0.00000000000E+00  0.00000000000E+00  0.12525980253E-10  0.17130000000E+03  0.17130000000E+03 0. -1.
       11    1    1    2    0    0 -0.80105551613E-02  0.26678824128E-01  0.32416235787E+00  0.32535737910E+00  0.51109989000E-03 0.  1.
     -623    1    1    2    0    0  0.32567436691E-01 -0.40303178635E-01  0.14326118108E-02  0.17130000784E+03  0.17130000000E+03 0. -1.
      622    1    1    2    0    0 -0.24556881531E-01  0.13624354508E-01  0.36744049979E+01  0.36746347780E+01  0.30000000000E-01 0.  1.
</event>
<event>
 5   0  0.4961200E+08  0.9118800E+02  0.7818608E-02  0.1180000E+00
       11   -1    0    0    0    0  0.00000000000E+00  0.00000000000E+00  0.39999999673E+01  0.40000000000E+01  0.51109989000E-03 0.  1.
     -623   -1    0    0    0    0  0.00000000000E+00  0.00000000000E+00  0.12525980253E-10  0.17130000000E+03  0.17130000000E+03 0.  1.
       11    1    1    2    0    0  0.11684105407E-01 -0.95169846842E-02  0.65640916206E+00  0.65658231820E+00  0.51109989000E-03 0.  1.
     -623    1    1    2    0    0  0.12647495553E-03 -0.31514243876E-03  0.34303854785E-03  0.17130000000E+03  0.17130000000E+03 0.  1.
      622    1    1    2    0    0 -0.11810580363E-01  0.98321271230E-02  0.33432477668E+01  0.33434176811E+01  0.30000000000E-01 0.  1.
</event>
<event>
 5   0  0.4961200E+08  0.9118800E+02  0.7818608E-02  0.1180000E+00
       11   -1    0    0    0    0  0.00000000000E+00  0.00000000000E+00  0.39999999673E+01  0.40000000000E+01  0.51109989000E-03 0.  1.
     -623   -1    0    0    0    0  0.00000000000E+00  0.00000000000E+00  0.12525980253E-10  0.17130000000E+03  0.17130000000E+03 0.  1.
       11    1    1    2    0    0  0.17323988794E-03 -0.30479499555E-03  0.20249492563E-02  0.21176767072E-02  0.51109989000E-03 0.  1.
     -623    1    1    2    0    0  0.28242479581E-04  0.47846993663E-04  0.20526945320E-03  0.17130000000E+03  0.17130000000E+03 0.  1.
      622    1    1    2    0    0 -0.20148236752E-03  0.25694800189E-03  0.39977697486E+01  0.39978823231E+01  0.30000000000E-01 0.  1.
</event>
<event>
 5   0  0.4961200E+08  0.9118800E+02  0.7818608E-02  0.1180000E+00
       11   -1    0    0    0    0  0.00000000000E+00  0.00000000000E+00  0.39999999673E+01  0.40000000000E+01  0.51109989000E-03 0.  1.
     -623   -1    0    0    0    0  0.00000000000E+00  0.00000000000E+00  0.12525980253E-10  0.17130000000E+03  0.17130000000E+03 0. -1.
       11    1    1    2    0    0  0.49007763752E-03  0.45267345857E-03  0.15900809809E-02  0.17985188279E-02  0.51109989000E-03 0.  1.
     -623    1    1    2    0    0 -0.80013545718E-03  0.93600896499E-04  0.32100893468E-03  0.17130000000E+03  0.17130000000E+03 0. -1.
      622    1    1    2    0    0  0.31005781991E-03 -0.54627435510E-03  0.39980888787E+01  0.39982014802E+01  0.30000000000E-01 0.  1.
</event>
<event>
 5   0  0.4961200E+08  0.9118800E+02  0.7818608E-02  0.1180000E+00
       11   -1    0    0    0    0  0.00000000000E+00  0.00000000000E+00  0.39999999673E+01  0.40000000000E+01  0.51109989000E-03 0.  1.
     -623   -1    0    0    0    0  0.00000000000E+00  0.00000000000E+00  0.12525980253E-10  0.17130000000E+03  0.17130000000E+03 0.  1.
       11    1    1    2    0    0  0.65311555638E-02 -0.40987443727E-02  0.16235256922E-01  0.17980558636E-01  0.51109989000E-03 0.  1.
     -623    1    1    2    0    0 -0.49732778139E-02  0.70921053704E-02  0.18599376411E-02  0.17130000023E+03  0.17130000000E+03 0.  1.
      622    1    1    2    0    0 -0.15578777498E-02 -0.29933609977E-02  0.39819047728E+01  0.39820192123E+01  0.30000000000E-01 0.  1.
</event>
<event>
 5   0  0.4961200E+08  0.9118800E+02  0.7818608E-02  0.1180000E+00
       11   -1    0    0    0    0  0.00000000000E+00  0.00000000000E+00  0.39999999673E+01  0.40000000000E+01  0.51109989000E-03 0. -1.
     -623   -1    0    0    0    0  0.00000000000E+00  0.00000000000E+00  0.12525980253E-10  0.17130000000E+03  0.17130000000E+03 0.  1.
       11    1    1    2    0    0 -0.33558181341E-03  0.14150048348E-02  0.20822143058E+00  0.20822713614E+00  0.51109989000E-03 0. -1.
     -623    1    1    2    0    0 -0.21092922017E-02 -0.36133307610E-02  0.12582943032E-03  0.17130000005E+03  0.17130000000E+03 0.  1.
      622    1    1    2    0    0  0.24448740151E-02  0.21983259262E-02  0.37916527074E+01  0.37917728127E+01  0.30000000000E-01 0. -1.
</event>
<event>
 5   0  0.4961200E+08  0.9118800E+02  0.7818608E-02  0.1180000E+00
       11   -1    0    0    0    0  0.00000000000E+00  0.00000000000E+00  0.39999999673E+01  0.40000000000E+01  0.51109989000E-03 0. -1.
     -623   -1    0    0    0    0  0.00000000000E+00  0.00000000000E+00  0.12525980253E-10  0.17130000000E+03  0.17130000000E+03 0.  1.
       11    1    1    2    0    0  0.10889705909E-02 -0.19059986065E-02  0.85205159179E-02  0.88135748843E-02  0.51109989000E-03 0. -1.
     -623    1    1    2    0    0 -0.58642760230E-02  0.13990912345E-02  0.40877194120E-03  0.17130000011E+03  0.17130000000E+03 0.  1.
      622    1    1    2    0    0  0.47753054328E-02  0.50690737180E-03  0.39910706800E+01  0.39911863190E+01  0.30000000000E-01 0. -1.
</event>
<event>
 5   0  0.4961200E+08  0.9118800E+02  0.7818608E-02  0.1180000E+00
       11   -1    0    0    0    0  0.00000000000E+00  0.00000000000E+00  0.39999999673E+01  0.40000000000E+01  0.51109989000E-03 0.  1.
     -623   -1    0    0    0    0  0.00000000000E+00  0.00000000000E+00  0.12525980253E-10  0.17130000000E+03  0.17130000000E+03 0.  1.
       11    1    1    2    0    0 -0.79556593439E-03  0.86251011321E-02  0.13209512318E+00  0.13237978730E+00  0.51109989000E-03 0.  1.
     -623    1    1    2    0    0  0.28144731218E-02  0.31136614426E-03  0.41185926285E-03  0.17130000002E+03  0.17130000000E+03 0.  1.
      622    1    1    2    0    0 -0.20189071873E-02 -0.89364672764E-02  0.38674929848E+01  0.38676201887E+01  0.30000000000E-01 0.  1.
</event>
<event>
 5   0  0.4961200E+08  0.9118800E+02  0.7818608E-02  0.1180000E+00
       11   -1    0    0    0    0  0.00000000000E+00  0.00000000000E+00  0.39999999673E+01  0.40000000000E+01  0.51109989000E-03 0. -1.
     -623   -1    0    0    0    0  0.00000000000E+00  0.00000000000E+00  0.12525980253E-10  0.17130000000E+03  0.17130000000E+03 0.  1.
       11    1    1    2    0    0 -0.53230474572E-02 -0.49989473732E-04  0.79584806456E-01  0.79764277548E-01  0.51109989000E-03 0. -1.
     -623    1    1    2    0    0  0.87398460079E-03  0.18664890764E-02  0.29718735638E-03  0.17130000001E+03  0.17130000000E+03 0.  1.
      622    1    1    2    0    0  0.44490628564E-02 -0.18164996027E-02  0.39201179735E+01  0.39202357098E+01  0.30000000000E-01 0. -1.
</event>
<event>
 5   0  0.4961200E+08  0.9118800E+02  0.7818608E-02  0.1180000E+00
       11   -1    0    0    0    0  0.00000000000E+00  0.00000000000E+00  0.39999999673E+01  0.40000000000E+01  0.51109989000E-03 0. -1.
     -623   -1    0    0    0    0  0.00000000000E+00  0.00000000000E+00  0.12525980253E-10  0.17130000000E+03  0.17130000000E+03 0.  1.
       11    1    1    2    0    0 -0.11286402689E-02  0.39941159910E-02  0.85080554166E-01  0.85183265444E-01  0.51109989000E-03 0. -1.
     -623    1    1    2    0    0 -0.48621629687E-03 -0.38312425432E-04  0.21996081267E-03  0.17130000000E+03  0.17130000000E+03 0.  1.
      622    1    1    2    0    0  0.16148565656E-02 -0.39558035656E-02  0.39146994514E+01  0.39148167328E+01  0.30000000000E-01 0. -1.
</event>
<event>
 5   0  0.4961200E+08  0.9118800E+02  0.7818608E-02  0.1180000E+00
       11   -1    0    0    0    0  0.00000000000E+00  0.00000000000E+00  0.39999999673E+01  0.40000000000E+01  0.51109989000E-03 0.  1.
     -623   -1    0    0    0    0  0.00000000000E+00  0.00000000000E+00  0.12525980253E-10  0.17130000000E+03  0.17130000000E+03 0. -1.
       11    1    1    2    0    0 -0.12974435659E-03  0.35497134539E-03  0.36218249246E-02  0.36771833155E-02  0.51109989000E-03 0.  1.
     -623    1    1    2    0    0  0.27915564294E-03 -0.58866985456E-03  0.16794180071E-03  0.17130000000E+03  0.17130000000E+03 0. -1.
      622    1    1    2    0    0 -0.14941128662E-03  0.23369850974E-03  0.39962102045E+01  0.39963228192E+01  0.30000000000E-01 0.  1.
</event>
<event>
 5   0  0.4961200E+08  0.9118800E+02  0.7818608E-02  0.1180000E+00
       11   -1    0    0    0    0  0.00000000000E+00  0.00000000000E+00  0.39999999673E+01  0.40000000000E+01  0.51109989000E-03 0.  1.
     -623   -1    0    0    0    0  0.00000000000E+00  0.00000000000E+00  0.12525980253E-10  0.17130000000E+03  0.17130000000E+03 0.  1.
       11    1    1    2    0    0  0.35754330837E-02 -0.47626226805E-03  0.17278658002E-01  0.17658533106E-01  0.51109989000E-03 0.  1.
     -623    1    1    2    0    0 -0.44725054645E-03  0.30374814835E-02  0.49492343561E-03  0.17130000003E+03  0.17130000000E+03 0.  1.
      622    1    1    2    0    0 -0.31281825372E-02 -0.25612192154E-02  0.39822263859E+01  0.39823414387E+01  0.30000000000E-01 0.  1.
</event>
<event>
 5   0  0.4961200E+08  0.9118800E+02  0.7818608E-02  0.1180000E+00
       11   -1    0    0    0    0  0.00000000000E+00  0.00000000000E+00  0.39999999673E+01  0.40000000000E+01  0.51109989000E-03 0. -1.
     -623   -1    0    0    0    0  0.00000000000E+00  0.00000000000E+00  0.12525980253E-10  0.17130000000E+03  0.17130000000E+03 0.  1.
       11    1    1    2    0    0  0.60050189062E-03  0.39706369236E-02  0.35308333516E+00  0.35310654108E+00  0.51109989000E-03 0. -1.
     -623    1    1    2    0    0 -0.13048191696E-02  0.99797445403E-03  0.15002880317E-03  0.17130000001E+03  0.17130000000E+03 0.  1.
      622    1    1    2    0    0  0.70431727932E-03 -0.49686113779E-02  0.36467666043E+01  0.36468934519E+01  0.30000000000E-01 0. -1.
</event>
<event>
 5   0  0.4961200E+08  0.9118800E+02  0.7818608E-02  0.1180000E+00
       11   -1    0    0    0    0  0.00000000000E+00  0.00000000000E+00  0.39999999673E+01  0.40000000000E+01  0.51109989000E-03 0. -1.
     -623   -1    0    0    0    0  0.00000000000E+00  0.00000000000E+00  0.12525980253E-10  0.17130000000E+03  0.17130000000E+03 0. -1.
       11    1    1    2    0    0  0.25189200134E-02  0.20554205920E-02  0.54791156967E-02  0.63915290627E-02  0.51109989000E-03 0. -1.
     -623    1    1    2    0    0  0.95176108395E-03  0.25933362783E-03  0.10272472937E-02  0.17130000001E+03  0.17130000000E+03 0. -1.
      622    1    1    2    0    0 -0.34706810974E-02 -0.23147542199E-02  0.39934936044E+01  0.39936084651E+01  0.30000000000E-01 0. -1.
</event>
<event>
 5   0  0.4961200E+08  0.9118800E+02  0.7818608E-02  0.1180000E+00
       11   -1    0    0    0    0  0.00000000000E+00  0.00000000000E+00  0.39999999673E+01  0.40000000000E+01  0.51109989000E-03 0.  1.
     -623   -1    0    0    0    0  0.00000000000E+00  0.00000000000E+00  0.12525980253E-10  0.17130000000E+03  0.17130000000E+03 0. -1.
       11    1    1    2    0    0  0.70841598880E-02 -0.35456464632E-01  0.44623904880E+00  0.44770179372E+00  0.51109989000E-03 0.  1.
     -623    1    1    2    0    0  0.22025684187E-02 -0.21852358013E-02  0.18010175341E-02  0.17130000004E+03  0.17130000000E+03 0. -1.
      622    1    1    2    0    0 -0.92867283067E-02  0.37641700434E-01  0.35519599010E+01  0.35522981687E+01  0.30000000000E-01 0.  1.
</event>
<event>
 5   0  0.4961200E+08  0.9118800E+02  0.7818608E-02  0.1180000E+00
       11   -1    0    0    0    0  0.00000000000E+00  0.00000000000E+00  0.39999999673E+01  0.40000000000E+01  0.51109989000E-03 0.  1.
     -623   -1    0    0    0    0  0.00000000000E+00  0.00000000000E+00  0.12525980253E-10  0.17130000000E+03  0.17130000000E+03 0. -1.
       11    1    1    2    0    0 -0.15347914406E-02  0.31000300740E-03  0.29739794641E-02  0.33996269768E-02  0.51109989000E-03 0.  1.
     -623    1    1    2    0    0  0.15806112760E-02  0.14803314873E-02  0.53862796733E-03  0.17130000001E+03  0.17130000000E+03 0. -1.
      622    1    1    2    0    0 -0.45819835355E-04 -0.17903344947E-02  0.39964873598E+01  0.39966003583E+01  0.30000000000E-01 0.  1.
</event>
<event>
 5   0  0.4961200E+08  0.9118800E+02  0.7818608E-02  0.1180000E+00
       11   -1    0    0    0    0  0.00000000000E+00  0.00000000000E+00  0.39999999673E+01  0.40000000000E+01  0.51109989000E-03 0.  1.
     -623   -1    0    0    0    0  0.00000000000E+00  0.00000000000E+00  0.12525980253E-10  0.17130000000E+03  0.17130000000E+03 0. -1.
       11    1    1    2    0    0 -0.27085051403E-02  0.13908836760E-02  0.34585929109E+00  0.34587307067E+00  0.51109989000E-03 0.  1.
     -623    1    1    2    0    0  0.35878116555E-02 -0.59818580224E-02  0.14002942525E-03  0.17130000014E+03  0.17130000000E+03 0. -1.
      622    1    1    2    0    0 -0.87930651519E-03  0.45909743463E-02  0.36540006468E+01  0.36541267873E+01  0.30000000000E-01 0.  1.
</event>
<event>
 5   0  0.4961200E+08  0.9118800E+02  0.7818608E-02  0.1180000E+00
       11   -1    0    0    0    0  0.00000000000E+00  0.00000000000E+00  0.39999999673E+01  0.40000000000E+01  0.51109989000E-03 0.  1.
     -623   -1    0    0    0    0  0.00000000000E+00  0.00000000000E+00  0.12525980253E-10  0.17130000000E+03  0.17130000000E+03 0. -1.
       11    1    1    2    0    0 -0.35668637623E-02 -0.18361918027E-02  0.15422977353E-01  0.15944389952E-01  0.51109989000E-03 0.  1.
     -623    1    1    2    0    0 -0.60696221834E-03 -0.23335957424E-03  0.63705812922E-03  0.17130000000E+03  0.17130000000E+03 0. -1.
      622    1    1    2    0    0  0.41738259806E-02  0.20695513769E-02  0.39839399319E+01  0.39840556077E+01  0.30000000000E-01 0.  1.
</event>
<event>
 5   0  0.4961200E+08  0.9118800E+02  0.7818608E-02  0.1180000E+00
       11   -1    0    0    0    0  0.00000000000E+00  0.00000000000E+00  0.39999999673E+01  0.40000000000E+01  0.51109989000E-03 0. -1.
     -623   -1    0    0    0    0  0.00000000000E+00  0.00000000000E+00  0.12525980253E-10  0.17130000000E+03  0.17130000000E+03 0. -1.
       11    1    1    2    0    0 -0.27871488241E-01  0.17845910690E-01  0.36569880439E+00  0.36719364528E+00  0.51109989000E-03 0. -1.
     -623    1    1    2    0    0  0.58117843959E-02  0.12200812556E-01  0.18104703488E-02  0.17130000054E+03  0.17130000000E+03 0. -1.
      622    1    1    2    0    0  0.22059703845E-01 -0.30046723247E-01  0.36324906926E+01  0.36328058121E+01  0.30000000000E-01 0. -1.
</event>
<event>
 5   0  0.4961200E+08  0.9118800E+02  0.7818608E-02  0.1180000E+00
       11   -1    0    0    0    0  0.00000000000E+00  0.00000000000E+00  0.39999999673E+01  0.40000000000E+01  0.51109989000E-03 0.  1.
     -623   -1    0    0    0    0  0.00000000000E+00  0.00000000000E+00  0.12525980253E-10  0.17130000000E+03  0.17130000000E+03 0. -1.
       11    1    1    2    0    0 -0.27047556744E-01 -0.14621485482E-01  0.99586345785E+00  0.99633811834E+00  0.51109989000E-03 0.  1.
     -623    1    1    2    0    0  0.45134774716E-02  0.21171507207E-02  0.73508597089E-03  0.17130000007E+03  0.17130000000E+03 0. -1.
      622    1    1    2    0    0  0.22534079272E-01  0.12504334761E-01  0.30034014238E+01  0.30036618078E+01  0.30000000000E-01 0.  1.
</event>
<event>
 5   0  0.4961200E+08  0.9118800E+02  0.7818608E-02  0.1180000E+00
       11   -1    0    0    0    0  0.00000000000E+00  0.00000000000E+00  0.39999999673E+01  0.40000000000E+01  0.51109989000E-03 0.  1.
     -623   -1    0    0    0    0  0.00000000000E+00  0.00000000000E+00  0.12525980253E-10  0.17130000000E+03  0.17130000000E+03 0.  1.
       11    1    1    2    0    0 -0.70523576937E-03  0.49982385944E-03  0.13488738810E+00  0.13489112599E+00  0.51109989000E-03 0.  1.
     -623    1    1    2    0    0  0.13125210868E-03 -0.10167396018E-02  0.12021351638E-03  0.17130000000E+03  0.17130000000E+03 0.  1.
      622    1    1    2    0    0  0.57398366069E-03  0.51691574236E-03  0.38649923657E+01  0.38651088709E+01  0.30000000000E-01 0.  1.
</event>
<event>
 5   0  0.4961200E+08  0.9118800E+02  0.7818608E-02  0.1180000E+00
       11   -1    0    0    0    0  0.00000000000E+00  0.00000000000E+00  0.39999999673E+01  0.40000000000E+01  0.51109989000E-03 0. -1.
     -623   -1    0    0    0    0  0.00000000000E+00  0.00000000000E+00  0.12525980253E-10  0.17130000000E+03  0.17130000000E+03 0.  1.
       11    1    1    2    0    0  0.18447015047E-02  0.95656924360E-02  0.51529017720E+00  0.51538251167E+00  0.51109989000E-03 0. -1.
     -623    1    1    2    0    0 -0.18432916842E-01 -0.61732246355E-03  0.27341152399E-03  0.17130000099E+03  0.17130000000E+03 0.  1.
      622    1    1    2    0    0  0.16588215342E-01 -0.89483699723E-02  0.34844363796E+01  0.34846164962E+01  0.30000000000E-01 0. -1.
</event>
<event>
 5   0  0.4961200E+08  0.9118800E+02  0.7818608E-02  0.1180000E+00
       11   -1    0    0    0    0  0.00000000000E+00  0.00000000000E+00  0.39999999673E+01  0.40000000000E+01  0.51109989000E-03 0. -1.
     -623   -1    0    0    0    0  0.00000000000E+00  0.00000000000E+00  0.12525980253E-10  0.17130000000E+03  0.17130000000E+03 0.  1.
       11    1    1    2    0    0  0.48942879479E-02  0.24974662877E-02  0.23593457431E+00  0.23599910163E+00  0.51109989000E-03 0. -1.
     -623    1    1    2    0    0 -0.15789419563E-02 -0.45366867103E-02  0.18613021386E-03  0.17130000007E+03  0.17130000000E+03 0.  1.
      622    1    1    2    0    0 -0.33153459911E-02  0.20392204241E-02  0.37638792641E+01  0.37640008322E+01  0.30000000000E-01 0. -1.
</event>
<event>
 5   0  0.4961200E+08  0.9118800E+02  0.7818608E-02  0.1180000E+00
       11   -1    0    0    0    0  0.00000000000E+00  0.00000000000E+00  0.39999999673E+01  0.40000000000E+01  0.51109989000E-03 0. -1.
     -623   -1    0    0    0    0  0.00000000000E+00  0.00000000000E+00  0.12525980253E-10  0.17130000000E+03  0.17130000000E+03 0. -1.
       11    1    1    2    0    0 -0.13695514903E-01 -0.49529320047E-02  0.65687127354E-01  0.67284162974E-01  0.51109989000E-03 0. -1.
     -623    1    1    2    0    0 -0.10039083208E-02  0.19076198864E-03  0.17417967990E-02  0.17130000001E+03  0.17130000000E+03 0. -1.
      622    1    1    2    0    0  0.14699423224E-01  0.47621700161E-02  0.39325710434E+01  0.39327158253E+01  0.30000000000E-01 0. -1.
</event>
<event>
 5   0  0.4961200E+08  0.9118800E+02  0.7818608E-02  0.1180000E+00
       11   -1    0    0    0    0  0.00000000000E+00  0.00000000000E+00  0.39999999673E+01  0.40000000000E+01  0.51109989000E-03 0.  1.
     -623   -1    0    0    0    0  0.00000000000E+00  0.00000000000E+00  0.12525980253E-10  0.17130000000E+03  0.17130000000E+03 0. -1.
       11    1    1    2    0    0  0.44194954192E-01 -0.19881465300E-01  0.15495649118E+00  0.16235837527E+00  0.51109989000E-03 0.  1.
     -623    1    1    2    0    0 -0.74929062311E-01  0.16611241388E-01  0.76609457331E-02  0.17130001736E+03  0.17130000000E+03 0. -1.
      622    1    1    2    0    0  0.30734108119E-01  0.32702239115E-02  0.38373825304E+01  0.38376242605E+01  0.30000000000E-01 0.  1.
</event>
<event>
 5   0  0.4961200E+08  0.9118800E+02  0.7818608E-02  0.1180000E+00
       11   -1    0    0    0    0  0.00000000000E+00  0.00000000000E+00  0.39999999673E+01  0.40000000000E+01  0.51109989000E-03 0. -1.
     -623   -1    0    0    0    0  0.00000000000E+00  0.00000000000E+00  0.12525980253E-10  0.17130000000E+03  0.17130000000E+03 0. -1.
       11    1    1    2    0    0 -0.48917875935E-02 -0.46858355401E-02  0.20798862870E+00  0.20809953756E+00  0.51109989000E-03 0. -1.
     -623    1    1    2    0    0  0.79786497178E-02  0.30588955093E-02  0.23137089428E-03  0.17130000021E+03  0.17130000000E+03 0. -1.
      622    1    1    2    0    0 -0.30868621243E-02  0.16269400308E-02  0.37917799677E+01  0.37919002491E+01  0.30000000000E-01 0. -1.
</event>
<event>
 5   0  0.4961200E+08  0.9118800E+02  0.7818608E-02  0.1180000E+00
       11   -1    0    0    0    0  0.00000000000E+00  0.00000000000E+00  0.39999999673E+01  0.40000000000E+01  0.51109989000E-03 0.  1.
     -623   -1    0    0    0    0  0.00000000000E+00  0.00000000000E+00  0.12525980253E-10  0.17130000000E+03  0.17130000000E+03 0.  1.
       11    1    1    2    0    0  0.14338627212E-02  0.15276405515E-01  0.25684945701E-01  0.29923271614E-01  0.51109989000E-03 0.  1.
     -623    1    1    2    0    0 -0.28974067185E-03 -0.20269490984E-01  0.43562025233E-02  0.17130000125E+03  0.17130000000E+03 0.  1.
      622    1    1    2    0    0 -0.11441220494E-02  0.49930854691E-02  0.39699588191E+01  0.39700754735E+01  0.30000000000E-01 0.  1.
</event>
<event>
 5   0  0.4961200E+08  0.9118800E+02  0.7818608E-02  0.1180000E+00
       11   -1    0    0    0    0  0.00000000000E+00  0.00000000000E+00  0.39999999673E+01  0.40000000000E+01  0.51109989000E-03 0. -1.
     -623   -1    0    0    0    0  0.00000000000E+00  0.00000000000E+00  0.12525980253E-10  0.17130000000E+03  0.17130000000E+03 0. -1.
       11    1    1    2    0    0 -0.12577857414E-01 -0.18331771555E-01  0.65717124168E+00  0.65754738115E+00  0.51109989000E-03 0. -1.
     -623    1    1    2    0    0  0.20280466771E-01  0.11668084559E-01  0.52785845313E-03  0.17130000160E+03  0.17130000000E+03 0. -1.
      622    1    1    2    0    0 -0.77026093542E-02  0.66636869972E-02  0.33423008668E+01  0.33424510197E+01  0.30000000000E-01 0. -1.
</event>
<event>
 5   0  0.4961200E+08  0.9118800E+02  0.7818608E-02  0.1180000E+00
       11   -1    0    0    0    0  0.00000000000E+00  0.00000000000E+00  0.39999999673E+01  0.40000000000E+01  0.51109989000E-03 0.  1.
     -623   -1    0    0    0    0  0.00000000000E+00  0.00000000000E+00  0.12525980253E-10  0.17130000000E+03  0.17130000000E+03 0.  1.
       11    1    1    2    0    0  0.96317599106E-02  0.53150271108E-03  0.17606726914E+00  0.17633206679E+00  0.51109989000E-03 0.  1.
     -623    1    1    2    0    0 -0.18870311803E-03 -0.82122343158E-03  0.39412918788E-03  0.17130000000E+03  0.17130000000E+03 0.  1.
      622    1    1    2    0    0 -0.94430567925E-02  0.28972072050E-03  0.38235385690E+01  0.38236679307E+01  0.30000000000E-01 0.  1.
</event>
<event>
 5   0  0.4961200E+08  0.9118800E+02  0.7818608E-02  0.1180000E+00
       11   -1    0    0    0    0  0.00000000000E+00  0.00000000000E+00  0.39999999673E+01  0.40000000000E+01  0.51109989000E-03 0. -1.
     -623   -1    0    0    0    0  0.00000000000E+00  0.00000000000E+00  0.12525980253E-10  0.17130000000E+03  0.17130000000E+03 0. -1.
       11    1    1    2    0    0  0.17092554811E-02 -0.94733832317E-03  0.10420511117E-01  0.10614484407E-01  0.51109989000E-03 0. -1.
     -623    1    1    2    0    0 -0.41309603450E-03 -0.72778426435E-03  0.30730615748E-03  0.17130000000E+03  0.17130000000E+03 0. -1.
      622    1    1    2    0    0 -0.12961594464E-02  0.16751225878E-02  0.39892721514E+01  0.39893855146E+01  0.30000000000E-01 0. -1.
</event>
<event>
 5   0  0.4961200E+08  0.9118800E+02  0.7818608E-02  0.1180000E+00
       11   -1    0    0    0    0  0.00000000000E+00  0.00000000000E+00  0.39999999673E+01  0.40000000000E+01  0.51109989000E-03 0.  1.
     -623   -1    0    0    0    0  0.00000000000E+00  0.00000000000E+00  0.12525980253E-10  0.17130000000E+03  0.17130000000E+03 0. -1.
       11    1    1    2    0    0 -0.22667339000E-03 -0.20827651896E-03  0.34340151838E-01  0.34345334592E-01  0.51109989000E-03 0.  1.
     -623    1    1    2    0    0  0.20124738887E-03 -0.44601939748E-03  0.11868086554E-03  0.17130000000E+03  0.17130000000E+03 0. -1.
      622    1    1    2    0    0  0.25426001130E-04  0.65429591644E-03  0.39655411347E+01  0.39656546647E+01  0.30000000000E-01 0.  1.
</event>
<event>
 5   0  0.4961200E+08  0.9118800E+02  0.7818608E-02  0.1180000E+00
       11   -1    0    0    0    0  0.00000000000E+00  0.00000000000E+00  0.39999999673E+01  0.40000000000E+01  0.51109989000E-03 0. -1.
     -623   -1    0    0    0    0  0.00000000000E+00  0.00000000000E+00  0.12525980253E-10  0.17130000000E+03  0.17130000000E+03 0.  1.
       11    1    1    2    0    0  0.66672897367E-02 -0.11632321101E-02  0.33703076530E+00  0.33709910093E+00  0.51109989000E-03 0. -1.
     -623    1    1    2    0    0 -0.24523642606E-02  0.53202096853E-02  0.19604286184E-03  0.17130000010E+03  0.17130000000E+03 0.  1.
      622    1    1    2    0    0 -0.42149254756E-02 -0.41569775762E-02  0.36627731599E+01  0.36629007995E+01  0.30000000000E-01 0. -1.
</event>
<event>
 5   0  0.4961200E+08  0.9118800E+02  0.7818608E-02  0.1180000E+00
       11   -1    0    0    0    0  0.00000000000E+00  0.00000000000E+00  0.39999999673E+01  0.40000000000E+01  0.51109989000E-03 0. -1.
     -623   -1    0    0    0    0  0.00000000000E+00  0.00000000000E+00  0.12525980253E-10  0.17130000000E+03  0.17130000000E+03 0. -1.
       11    1    1    2    0    0  0.47380484889E-01  0.63959402448E-01  0.10269847683E+01  0.10300648966E+01  0.51109989000E-03 0. -1.
     -623    1    1    2    0    0 -0.11679729768E-01  0.11613833607E-01  0.44088559634E-02  0.17130000085E+03  0.17130000000E+03 0. -1.
      622    1    1    2    0    0 -0.35700755121E-01 -0.75573236055E-01  0.29686063431E+01  0.29699342549E+01  0.30000000000E-01 0. -1.
</event>
<event>
 5   0  0.4961200E+08  0.9118800E+02  0.7818608E-02  0.1180000E+00
       11   -1    0    0    0    0  0.00000000000E+00  0.00000000000E+00  0.39999999673E+01  0.40000000000E+01  0.51109989000E-03 0.  1.
     -623   -1    0    0    0    0  0.00000000000E+00  0.00000000000E+00  0.12525980253E-10  0.17130000000E+03  0.17130000000E+03 0.  1.
       11    1    1    2    0    0  0.17397092045E-02  0.50272647285E-03  0.71293939588E-02  0.73735204170E-02  0.51109989000E-03 0.  1.
     -623    1    1    2    0    0 -0.28314824608E-03  0.75582934254E-04  0.35711137212E-03  0.17130000000E+03  0.17130000000E+03 0.  1.
      622    1    1    2    0    0 -0.14565609583E-02 -0.57830940712E-03  0.39925134631E+01  0.39926264801E+01  0.30000000000E-01 0.  1.
</event>
<event>
 5   0  0.4961200E+08  0.9118800E+02  0.7818608E-02  0.1180000E+00
       11   -1    0    0    0    0  0.00000000000E+00  0.00000000000E+00  0.39999999673E+01  0.40000000000E+01  0.51109989000E-03 0. -1.
     -623   -1    0    0    0    0  0.00000000000E+00  0.00000000000E+00  0.12525980253E-10  0.17130000000E+03  0.17130000000E+03 0. -1.
       11    1    1    2    0    0 -0.70757828057E-02 -0.72534458822E-03  0.42581391908E+00  0.42587362883E+00  0.51109989000E-03 0. -1.
     -623    1    1    2    0    0  0.11872139231E-02 -0.63138456963E-02  0.19748790632E-03  0.17130000012E+03  0.17130000000E+03 0. -1.
      622    1    1    2    0    0  0.58885688826E-02  0.70391902845E-02  0.35739885604E+01  0.35741262506E+01  0.30000000000E-01 0. -1.
</event>
<event>
 5   0  0.4961200E+08  0.9118800E+02  0.7818608E-02  0.1180000E+00
       11   -1    0    0    0    0  0.00000000000E+00  0.00000000000E+00  0.39999999673E+01  0.40000000000E+01  0.51109989000E-03 0. -1.
     -623   -1    0    0    0    0  0.00000000000E+00  0.00000000000E+00  0.12525980253E-10  0.17130000000E+03  0.17130000000E+03 0. -1.
       11    1    1    2    0    0 -0.66509021204E-04 -0.10436657265E-02  0.85244657067E-01  0.85252603728E-01  0.51109989000E-03 0. -1.
     -623    1    1    2    0    0  0.11633947059E-02  0.84648480780E-03  0.12303038125E-03  0.17130000001E+03  0.17130000000E+03 0. -1.
      622    1    1    2    0    0 -0.10968856847E-02  0.19718091867E-03  0.39146322799E+01  0.39147473902E+01  0.30000000000E-01 0. -1.
</event>
<event>
 5   0  0.4961200E+08  0.9118800E+02  0.7818608E-02  0.1180000E+00
       11   -1    0    0    0    0  0.00000000000E+00  0.00000000000E+00  0.39999999673E+01  0.40000000000E+01  0.51109989000E-03 0. -1.
     -623   -1    0    0    0    0  0.00000000000E+00  0.00000000000E+00  0.12525980253E-10  0.17130000000E+03  0.17130000000E+03 0.  1.
       11    1    1    2    0    0  0.12851497540E-02  0.45234254065E-02  0.21013660168E+00  0.21018983224E+00  0.51109989000E-03 0. -1.
     -623    1    1    2    0    0  0.32387411670E-02 -0.21725749938E-02  0.17541303569E-03  0.17130000004E+03  0.17130000000E+03 0.  1.
      622    1    1    2    0    0 -0.45238909218E-02 -0.23508504121E-02  0.37896879536E+01  0.37898101243E+01  0.30000000000E-01 0. -1.
</event>
<event>
 5   0  0.4961200E+08  0.9118800E+02  0.7818608E-02  0.1180000E+00
       11   -1    0    0    0    0  0.00000000000E+00  0.00000000000E+00  0.39999999673E+01  0.40000000000E+01  0.51109989000E-03 0. -1.
     -623   -1    0    0    0    0  0.00000000000E+00  0.00000000000E+00  0.12525980253E-10  0.17130000000E+03  0.17130000000E+03 0. -1.
       11    1    1    2    0    0 -0.12696361253E-01 -0.15361951286E-01  0.34499613543E+00  0.34557167392E+00  0.51109989000E-03 0. -1.
     -623    1    1    2    0    0  0.97667789213E-03 -0.46492878675E-03  0.75171798153E-03  0.17130000001E+03  0.17130000000E+03 0. -1.
      622    1    1    2    0    0  0.11719683361E-01  0.15826880072E-01  0.36542521139E+01  0.36544283210E+01  0.30000000000E-01 0. -1.
</event>
<event>
 5   0  0.4961200E+08  0.9118800E+02  0.7818608E-02  0.1180000E+00
       11   -1    0    0    0    0  0.00000000000E+00  0.00000000000E+00  0.39999999673E+01  0.40000000000E+01  0.51109989000E-03 0.  1.
     -623   -1    0    0    0    0  0.00000000000E+00  0.00000000000E+00  0.12525980253E-10  0.17130000000E+03  0.17130000000E+03 0. -1.
       11    1    1    2    0    0 -0.50748682832E-03 -0.13226573746E-02  0.13262891114E-01  0.13348126057E-01  0.51109989000E-03 0.  1.
     -623    1    1    2    0    0  0.12665547224E-02 -0.66715576330E-03  0.19865552672E-03  0.17130000001E+03  0.17130000000E+03 0. -1.
      622    1    1    2    0    0 -0.75906789462E-03  0.19898131382E-02  0.39865384225E+01  0.39866518696E+01  0.30000000000E-01 0.  1.
</event>
<event>
 5   0  0.4961200E+08  0.9118800E+02  0.7818608E-02  0.1180000E+00
       11   -1    0    0    0    0  0.00000000000E+00  0.00000000000E+00  0.39999999673E+01  0.40000000000E+01  0.51109989000E-03 0.  1.
     -623   -1    0    0    0    0  0.00000000000E+00  0.00000000000E+00  0.12525980253E-10  0.17130000000E+03  0.17130000000E+03 0.  1.
       11    1    1    2    0    0 -0.30731046004E-02 -0.57151254528E-02  0.11431636761E+01  0.11431822069E+01  0.51109989000E-03 0.  1.
     -623    1    1    2    0    0 -0.21251299382E-03  0.26762050165E-03  0.18310443739E-03  0.17130000000E+03  0.17130000000E+03 0.  1.
      622    1    1    2    0    0  0.32856175942E-02  0.54475049512E-02  0.28566531856E+01  0.28568177915E+01  0.30000000000E-01 0.  1.
</event>
<event>
 5   0  0.4961200E+08  0.9118800E+02  0.7818608E-02  0.1180000E+00
       11   -1    0    0    0    0  0.00000000000E+00  0.00000000000E+00  0.39999999673E+01  0.40000000000E+01  0.51109989000E-03 0. -1.
     -623   -1    0    0    0    0  0.00000000000E+00  0.00000000000E+00  0.12525980253E-10  0.17130000000E+03  0.17130000000E+03 0.  1.
       11    1    1    2    0    0  0.55182221914E-03  0.61568328067E-02  0.25937526474E-01  0.26668850756E-01  0.51109989000E-03 0. -1.
     -623    1    1    2    0    0  0.31881487672E-02  0.55709237382E-03  0.85201384109E-03  0.17130000003E+03  0.17130000000E+03 0.  1.
      622    1    1    2    0    0 -0.37399709863E-02 -0.67139251805E-02  0.39732104271E+01  0.39733311166E+01  0.30000000000E-01 0. -1.
</event>
<event>
 5   0  0.4961200E+08  0.9118800E+02  0.7818608E-02  0.1180000E+00
       11   -1    0    0    0    0  0.00000000000E+00  0.00000000000E+00  0.39999999673E+01  0.40000000000E+01  0.51109989000E-03 0. -1.
     -623   -1    0    0    0    0  0.00000000000E+00  0.00000000000E+00  0.12525980253E-10  0.17130000000E+03  0.17130000000E+03 0. -1.
       11    1    1    2    0    0  0.17750064903E-02  0.39940436003E-02  0.75681909996E-01  0.75809733914E-01  0.51109989000E-03 0. -1.
     -623    1    1    2    0    0 -0.11771924860E-02  0.22539902750E-03  0.24478471888E-03  0.17130000000E+03  0.17130000000E+03 0. -1.
      622    1    1    2    0    0 -0.59781400412E-03 -0.42194426278E-02  0.39240732730E+01  0.39241902620E+01  0.30000000000E-01 0. -1.
</event>
<event>
 5   0  0.4961200E+08  0.9118800E+02  0.7818608E-02  0.1180000E+00
       11   -1    0    0    0    0  0.00000000000E+00  0.00000000000E+00  0.39999999673E+01  0.40000000000E+01  0.51109989000E-03 0.  1.
     -623   -1    0    0    0    0  0.00000000000E+00  0.00000000000E+00  0.12525980253E-10  0.17130000000E+03  0.17130000000E+03 0.  1.
       11    1    1    2    0    0  0.21341493372E-02 -0.43897687971E-02  0.14997808374E+00  0.15005836027E+00  0.51109989000E-03 0.  1.
     -623    1    1    2    0    0  0.50092208163E-03  0.16870243230E-02  0.19899023823E-03  0.17130000001E+03  0.17130000000E+03 0.  1.
      622    1    1    2    0    0 -0.26350714189E-02  0.27027444741E-02  0.38498228934E+01  0.38499416306E+01  0.30000000000E-01 0.  1.
</event>
<event>
 5   0  0.4961200E+08  0.9118800E+02  0.7818608E-02  0.1180000E+00
       11   -1    0    0    0    0  0.00000000000E+00  0.00000000000E+00  0.39999999673E+01  0.40000000000E+01  0.51109989000E-03 0.  1.
     -623   -1    0    0    0    0  0.00000000000E+00  0.00000000000E+00  0.12525980253E-10  0.17130000000E+03  0.17130000000E+03 0. -1.
       11    1    1    2    0    0  0.17000873823E-02 -0.28273376335E-03  0.10929657711E-01  0.11076500970E-01  0.51109989000E-03 0.  1.
     -623    1    1    2    0    0 -0.37203531106E-03  0.31314925418E-03  0.25984669302E-03  0.17130000000E+03  0.17130000000E+03 0. -1.
      622    1    1    2    0    0 -0.13280520712E-02 -0.30415490832E-04  0.39888104630E+01  0.39889234981E+01  0.30000000000E-01 0.  1.
</event>
<event>
 5   0  0.4961200E+08  0.9118800E+02  0.7818608E-02  0.1180000E+00
       11   -1    0    0    0    0  0.00000000000E+00  0.00000000000E+00  0.39999999673E+01  0.40000000000E+01  0.51109989000E-03 0.  1.
     -623   -1    0    0    0    0  0.00000000000E+00  0.00000000000E+00  0.12525980253E-10  0.17130000000E+03  0.17130000000E+03 0. -1.
       11    1    1    2    0    0 -0.62720097277E-02  0.72271450265E-02  0.48691855512E+00  0.48701284405E+00  0.51109989000E-03 0.  1.
     -623    1    1    2    0    0  0.12618464265E-01  0.28834750406E-02  0.24312694676E-03  0.17130000049E+03  0.17130000000E+03 0. -1.
      622    1    1    2    0    0 -0.63464545414E-02 -0.10110620068E-01  0.35128382866E+01  0.35129866681E+01  0.30000000000E-01 0.  1.
</event>
<event>
 5   0  0.4961200E+08  0.9118800E+02  0.7818608E-02  0.1180000E+00
       11   -1    0    0    0    0  0.00000000000E+00  0.00000000000E+00  0.39999999673E+01  0.40000000000E+01  0.51109989000E-03 0.  1.
     -623   -1    0    0    0    0  0.00000000000E+00  0.00000000000E+00  0.12525980253E-10  0.17130000000E+03  0.17130000000E+03 0. -1.
       11    1    1    2    0    0  0.40897437834E-03  0.21294423781E-02  0.89702433336E-02  0.92427416628E-02  0.51109989000E-03 0.  1.
     -623    1    1    2    0    0  0.18148178157E-02 -0.44085471034E-02  0.38656503445E-03  0.17130000007E+03  0.17130000000E+03 0. -1.
      622    1    1    2    0    0 -0.22237921942E-02  0.22791047256E-02  0.39906431593E+01  0.39907571918E+01  0.30000000000E-01 0.  1.
</event>
<event>
 5   0  0.4961200E+08  0.9118800E+02  0.7818608E-02  0.1180000E+00
       11   -1    0    0    0    0  0.00000000000E+00  0.00000000000E+00  0.39999999673E+01  0.40000000000E+01  0.51109989000E-03 0. -1.
     -623   -1    0    0    0    0  0.00000000000E+00  0.00000000000E+00  0.12525980253E-10  0.17130000000E+03  0.17130000000E+03 0. -1.
       11    1    1    2    0    0  0.50162260667E-01 -0.28896057763E-01  0.60826083098E+00  0.61100960245E+00  0.51109989000E-03 0. -1.
     -623    1    1    2    0    0 -0.52313782604E-01  0.41857520583E-01  0.29201220657E-02  0.17130001313E+03  0.17130000000E+03 0. -1.
      622    1    1    2    0    0  0.21515219363E-02 -0.12961462819E-01  0.33888190143E+01  0.33889772705E+01  0.30000000000E-01 0.  0.
</event>
<event>
 5   0  0.4961200E+08  0.9118800E+02  0.7818608E-02  0.1180000E+00
       11   -1    0    0    0    0  0.00000000000E+00  0.00000000000E+00  0.39999999673E+01  0.40000000000E+01  0.51109989000E-03 0. -1.
     -623   -1    0    0    0    0  0.00000000000E+00  0.00000000000E+00  0.12525980253E-10  0.17130000000E+03  0.17130000000E+03 0. -1.
       11    1    1    2    0    0  0.94785901783E-03  0.32894891541E-02  0.51024075162E+00  0.51025249143E+00  0.51109989000E-03 0. -1.
     -623    1    1    2    0    0 -0.54234841421E-02 -0.36210602110E-02  0.14366877394E-03  0.17130000012E+03  0.17130000000E+03 0. -1.
      622    1    1    2    0    0  0.44756251245E-02  0.33157105705E-03  0.34896155472E+01  0.34897473846E+01  0.30000000000E-01 0. -1.
</event>
<event>
 5   0  0.4961200E+08  0.9118800E+02  0.7818608E-02  0.1180000E+00
       11   -1    0    0    0    0  0.00000000000E+00  0.00000000000E+00  0.39999999673E+01  0.40000000000E+01  0.51109989000E-03 0. -1.
     -623   -1    0    0    0    0  0.00000000000E+00  0.00000000000E+00  0.12525980253E-10  0.17130000000E+03  0.17130000000E+03 0. -1.
       11    1    1    2    0    0  0.15086724619E-01 -0.32533643957E-02  0.62840423461E+00  0.62859393645E+00  0.51109989000E-03 0. -1.
     -623    1    1    2    0    0 -0.18822672805E-02  0.28455155117E-02  0.34906573790E-03  0.17130000003E+03  0.17130000000E+03 0. -1.
      622    1    1    2    0    0 -0.13204457338E-01  0.40784888326E-03  0.33712466681E+01  0.33714060303E+01  0.30000000000E-01 0.  0.
</event>
<event>
 5   0  0.4961200E+08  0.9118800E+02  0.7818608E-02  0.1180000E+00
       11   -1    0    0    0    0  0.00000000000E+00  0.00000000000E+00  0.39999999673E+01  0.40000000000E+01  0.51109989000E-03 0.  1.
     -623   -1    0    0    0    0  0.00000000000E+00  0.00000000000E+00  0.12525980253E-10  0.17130000000E+03  0.17130000000E+03 0. -1.
       11    1    1    2    0    0  0.29670433875E-02  0.16085307150E-02  0.22326640900E-02  0.40788147250E-02  0.51109989000E-03 0.  1.
     -623    1    1    2    0    0 -0.71928601789E-02 -0.57295189304E-02  0.19633520860E-02  0.17130000026E+03  0.17130000000E+03 0. -1.
      622    1    1    2    0    0  0.42258167916E-02  0.41209882155E-02  0.39958039513E+01  0.39959209273E+01  0.30000000000E-01 0.  1.
</event>
<event>
 5   0  0.4961200E+08  0.9118800E+02  0.7818608E-02  0.1180000E+00
       11   -1    0    0    0    0  0.00000000000E+00  0.00000000000E+00  0.39999999673E+01  0.40000000000E+01  0.51109989000E-03 0.  1.
     -623   -1    0    0    0    0  0.00000000000E+00  0.00000000000E+00  0.12525980253E-10  0.17130000000E+03  0.17130000000E+03 0.  1.
       11    1    1    2    0    0 -0.57970213812E-01 -0.93182287516E-02  0.49556176794E+00  0.49902815767E+00  0.51109989000E-03 0.  1.
     -623    1    1    2    0    0 -0.17100900696E-01  0.95173275056E-02  0.44010703232E-02  0.17130000117E+03  0.17130000000E+03 0.  1.
      622    1    1    2    0    0  0.75071114508E-01 -0.19909875403E-03  0.35000371291E+01  0.35009706678E+01  0.30000000000E-01 0.  1.
</event>
<event>
 5   0  0.4961200E+08  0.9118800E+02  0.7818608E-02  0.1180000E+00
       11   -1    0    0    0    0  0.00000000000E+00  0.00000000000E+00  0.39999999673E+01  0.40000000000E+01  0.51109989000E-03 0. -1.
     -623   -1    0    0    0    0  0.00000000000E+00  0.00000000000E+00  0.12525980253E-10  0.17130000000E+03  0.17130000000E+03 0.  1.
       11    1    1    2    0    0  0.16529373057E-01 -0.11906928079E-01  0.89709001271E+00  0.89732142917E+00  0.51109989000E-03 0. -1.
     -623    1    1    2    0    0 -0.61757217291E-02  0.26592921159E-02  0.40761377170E-03  0.17130000013E+03  0.17130000000E+03 0.  1.
      622    1    1    2    0    0 -0.10353651329E-01  0.92476359641E-02  0.31025023401E+01  0.31026784376E+01  0.30000000000E-01 0.  0.
</event>
<event>
 5   0  0.4961200E+08  0.9118800E+02  0.7818608E-02  0.1180000E+00
       11   -1    0    0    0    0  0.00000000000E+00  0.00000000000E+00  0.39999999673E+01  0.40000000000E+01  0.51109989000E-03 0. -1.
     -623   -1    0    0    0    0  0.00000000000E+00  0.00000000000E+00  0.12525980253E-10  0.17130000000E+03  0.17130000000E+03 0.  1.
       11    1    1    2    0    0 -0.25376954741E-02 -0.54221522503E-02  0.26467125434E+00  0.26473944499E+00  0.51109989000E-03 0. -1.
     -623    1    1    2    0    0  0.76093204351E-03  0.40276432629E-03  0.19243093504E-03  0.17130000000E+03  0.17130000000E+03 0.  1.
      622    1    1    2    0    0  0.17767634303E-02  0.50193879238E-02  0.37351362834E+01  0.37352605540E+01  0.30000000000E-01 0. -1.
</event>
<event>
 5   0  0.4961200E+08  0.9118800E+02  0.7818608E-02  0.1180000E+00
       11   -1    0    0    0    0  0.00000000000E+00  0.00000000000E+00  0.39999999673E+01  0.40000000000E+01  0.51109989000E-03 0.  1.
     -623   -1    0    0    0    0  0.00000000000E+00  0.00000000000E+00  0.12525980253E-10  0.17130000000E+03  0.17130000000E+03 0. -1.
       11    1    1    2    0    0 -0.39178724894E-03 -0.99633259747E-03  0.11924234092E-01  0.11983103007E-01  0.51109989000E-03 0.  1.
     -623    1    1    2    0    0  0.93035405555E-03  0.63394698209E-03  0.17173252606E-03  0.17130000000E+03  0.17130000000E+03 0. -1.
      622    1    1    2    0    0 -0.53856680695E-03  0.36238561515E-03  0.39879040022E+01  0.39880168947E+01  0.30000000000E-01 0.  1.
</event>
<event>
 5   0  0.4961200E+08  0.9118800E+02  0.7818608E-02  0.1180000E+00
       11   -1    0    0    0    0  0.00000000000E+00  0.00000000000E+00  0.39999999673E+01  0.40000000000E+01  0.51109989000E-03 0.  1.
     -623   -1    0    0    0    0  0.00000000000E+00  0.00000000000E+00  0.12525980253E-10  0.17130000000E+03  0.17130000000E+03 0.  1.
       11    1    1    2    0    0  0.12066403558E-01 -0.11915420071E-01  0.68805197042E+00  0.68826110637E+00  0.51109989000E-03 0.  1.
     -623    1    1    2    0    0  0.18317088469E-03  0.19943791561E-02  0.38251517259E-03  0.17130000001E+03  0.17130000000E+03 0.  1.
      622    1    1    2    0    0 -0.12249574443E-01  0.99210409154E-02  0.33115654818E+01  0.33117388815E+01  0.30000000000E-01 0.  1.
</event>
<event>
 5   0  0.4961200E+08  0.9118800E+02  0.7818608E-02  0.1180000E+00
       11   -1    0    0    0    0  0.00000000000E+00  0.00000000000E+00  0.39999999673E+01  0.40000000000E+01  0.51109989000E-03 0. -1.
     -623   -1    0    0    0    0  0.00000000000E+00  0.00000000000E+00  0.12525980253E-10  0.17130000000E+03  0.17130000000E+03 0.  1.
       11    1    1    2    0    0 -0.99455437527E-02  0.19559819662E-02  0.46291017945E-01  0.47390497666E-01  0.51109989000E-03 0. -1.
     -623    1    1    2    0    0 -0.25180930329E-02 -0.73704631784E-02  0.12368389493E-02  0.17130000018E+03  0.17130000000E+03 0.  1.
      622    1    1    2    0    0  0.12463636786E-01  0.54144812122E-02  0.39524721105E+01  0.39526093208E+01  0.30000000000E-01 0. -1.
</event>
<event>
 5   0  0.4961200E+08  0.9118800E+02  0.7818608E-02  0.1180000E+00
       11   -1    0    0    0    0  0.00000000000E+00  0.00000000000E+00  0.39999999673E+01  0.40000000000E+01  0.51109989000E-03 0.  1.
     -623   -1    0    0    0    0  0.00000000000E+00  0.00000000000E+00  0.12525980253E-10  0.17130000000E+03  0.17130000000E+03 0.  1.
       11    1    1    2    0    0 -0.10698937374E-01  0.75599526391E-02  0.11095994042E+01  0.11096768535E+01  0.51109989000E-03 0.  1.
     -623    1    1    2    0    0  0.84855750813E-02 -0.52837324102E-02  0.23514848258E-03  0.17130000029E+03  0.17130000000E+03 0.  1.
      622    1    1    2    0    0  0.22133622922E-02 -0.22762202289E-02  0.28901654147E+01  0.28903228547E+01  0.30000000000E-01 0.  0.
</event>
<event>
 5   0  0.4961200E+08  0.9118800E+02  0.7818608E-02  0.1180000E+00
       11   -1    0    0    0    0  0.00000000000E+00  0.00000000000E+00  0.39999999673E+01  0.40000000000E+01  0.51109989000E-03 0.  1.
     -623   -1    0    0    0    0  0.00000000000E+00  0.00000000000E+00  0.12525980253E-10  0.17130000000E+03  0.17130000000E+03 0. -1.
       11    1    1    2    0    0  0.13378628694E-02  0.59224041630E-02  0.64726004151E-01  0.65012164897E-01  0.51109989000E-03 0.  1.
     -623    1    1    2    0    0  0.72447957012E-03 -0.96415567618E-03  0.40415751496E-03  0.17130000000E+03  0.17130000000E+03 0. -1.
      622    1    1    2    0    0 -0.20623424395E-02 -0.49582484868E-02  0.39348698055E+01  0.39349878302E+01  0.30000000000E-01 0.  1.
</event>
<event>
 5   0  0.4961200E+08  0.9118800E+02  0.7818608E-02  0.1180000E+00
       11   -1    0    0    0    0  0.00000000000E+00  0.00000000000E+00  0.39999999673E+01  0.40000000000E+01  0.51109989000E-03 0. -1.
     -623   -1    0    0    0    0  0.00000000000E+00  0.00000000000E+00  0.12525980253E-10  0.17130000000E+03  0.17130000000E+03 0. -1.
       11    1    1    2    0    0  0.14502406130E-01 -0.13597634526E-01  0.27977372846E-01  0.34325064643E-01  0.51109989000E-03 0. -1.
     -623    1    1    2    0    0 -0.73631735569E-02  0.11973668174E-01  0.64685923412E-02  0.17130000070E+03  0.17130000000E+03 0. -1.
      622    1    1    2    0    0 -0.71392325734E-02  0.16239663523E-02  0.39655540021E+01  0.39656742365E+01  0.30000000000E-01 0. -1.
</event>
<event>
 5   0  0.4961200E+08  0.9118800E+02  0.7818608E-02  0.1180000E+00
       11   -1    0    0    0    0  0.00000000000E+00  0.00000000000E+00  0.39999999673E+01  0.40000000000E+01  0.51109989000E-03 0.  1.
     -623   -1    0    0    0    0  0.00000000000E+00  0.00000000000E+00  0.12525980253E-10  0.17130000000E+03  0.17130000000E+03 0.  1.
       11    1    1    2    0    0 -0.72743876492E-03 -0.90562621576E-03  0.32567196377E-01  0.32591913552E-01  0.51109989000E-03 0.  1.
     -623    1    1    2    0    0  0.39913126078E-03  0.35883047872E-03  0.13816249575E-03  0.17130000000E+03  0.17130000000E+03 0.  1.
      622    1    1    2    0    0  0.32830750410E-03  0.54679573701E-03  0.39672946088E+01  0.39674080859E+01  0.30000000000E-01 0.  1.
</event>
<event>
 5   0  0.4961200E+08  0.9118800E+02  0.7818608E-02  0.1180000E+00
       11   -1    0    0    0    0  0.00000000000E+00  0.00000000000E+00  0.39999999673E+01  0.40000000000E+01  0.51109989000E-03 0. -1.
     -623   -1    0    0    0    0  0.00000000000E+00  0.00000000000E+00  0.12525980253E-10  0.17130000000E+03  0.17130000000E+03 0.  1.
       11    1    1    2    0    0  0.66203826211E-03 -0.15606016616E-03  0.21499930755E-01  0.21516758398E-01  0.51109989000E-03 0. -1.
     -623    1    1    2    0    0  0.50455392034E-05 -0.14384317468E-03  0.12997238337E-03  0.17130000000E+03  0.17130000000E+03 0.  1.
      622    1    1    2    0    0 -0.66708380132E-03  0.29990334084E-03  0.39783700642E+01  0.39784832415E+01  0.30000000000E-01 0. -1.
</event>
<event>
 5   0  0.4961200E+08  0.9118800E+02  0.7818608E-02  0.1180000E+00
       11   -1    0    0    0    0  0.00000000000E+00  0.00000000000E+00  0.39999999673E+01  0.40000000000E+01  0.51109989000E-03 0. -1.
     -623   -1    0    0    0    0  0.00000000000E+00  0.00000000000E+00  0.12525980253E-10  0.17130000000E+03  0.17130000000E+03 0. -1.
       11    1    1    2    0    0 -0.19910884715E-03  0.93196371736E-03  0.23063434206E-02  0.25472816441E-02  0.51109989000E-03 0. -1.
     -623    1    1    2    0    0 -0.17083808505E-03 -0.13806256035E-02  0.35352716821E-03  0.17130000001E+03  0.17130000000E+03 0. -1.
      622    1    1    2    0    0  0.36994693223E-03  0.44866188638E-03  0.39973400975E+01  0.39974527131E+01  0.30000000000E-01 0. -1.
</event>
<event>
 5   0  0.4961200E+08  0.9118800E+02  0.7818608E-02  0.1180000E+00
       11   -1    0    0    0    0  0.00000000000E+00  0.00000000000E+00  0.39999999673E+01  0.40000000000E+01  0.51109989000E-03 0.  1.
     -623   -1    0    0    0    0  0.00000000000E+00  0.00000000000E+00  0.12525980253E-10  0.17130000000E+03  0.17130000000E+03 0.  1.
       11    1    1    2    0    0  0.97150155287E-03 -0.54392513133E-02  0.24068175191E+00  0.24074570857E+00  0.51109989000E-03 0.  1.
     -623    1    1    2    0    0  0.29369678534E-03  0.21992273023E-03  0.18746728768E-03  0.17130000000E+03  0.17130000000E+03 0.  1.
      622    1    1    2    0    0 -0.12651983382E-02  0.52193285831E-02  0.37591307475E+01  0.37592542903E+01  0.30000000000E-01 0.  1.
</event>
<event>
 5   0  0.4961200E+08  0.9118800E+02  0.7818608E-02  0.1180000E+00
       11   -1    0    0    0    0  0.00000000000E+00  0.00000000000E+00  0.39999999673E+01  0.40000000000E+01  0.51109989000E-03 0.  1.
     -623   -1    0    0    0    0  0.00000000000E+00  0.00000000000E+00  0.12525980253E-10  0.17130000000E+03  0.17130000000E+03 0.  1.
       11    1    1    2    0    0 -0.51190442281E-02 -0.20080079170E-02  0.10033670102E+00  0.10048856405E+00  0.51109989000E-03 0.  1.
     -623    1    1    2    0    0  0.12205097100E-02 -0.53976048916E-03  0.27001773969E-03  0.17130000001E+03  0.17130000000E+03 0.  1.
      622    1    1    2    0    0  0.38985345180E-02  0.25477684062E-02  0.38993932489E+01  0.38995114309E+01  0.30000000000E-01 0.  1.
</event>
<event>
 5   0  0.4961200E+08  0.9118800E+02  0.7818608E-02  0.1180000E+00
       11   -1    0    0    0    0  0.00000000000E+00  0.00000000000E+00  0.39999999673E+01  0.40000000000E+01  0.51109989000E-03 0. -1.
     -623   -1    0    0    0    0  0.00000000000E+00  0.00000000000E+00  0.12525980253E-10  0.17130000000E+03  0.17130000000E+03 0. -1.
       11    1    1    2    0    0  0.64212287016E-03  0.58952128185E-03  0.12633895055E-01  0.12674240936E-01  0.51109989000E-03 0. -1.
     -623    1    1    2    0    0 -0.27562131890E-03  0.14499166473E-02  0.15371728672E-03  0.17130000001E+03  0.17130000000E+03 0. -1.
      622    1    1    2    0    0 -0.36650155127E-03 -0.20394379291E-02  0.39872123550E+01  0.39873257526E+01  0.30000000000E-01 0. -1.
</event>
<event>
 5   0  0.4961200E+08  0.9118800E+02  0.7818608E-02  0.1180000E+00
       11   -1    0    0    0    0  0.00000000000E+00  0.00000000000E+00  0.39999999673E+01  0.40000000000E+01  0.51109989000E-03 0. -1.
     -623   -1    0    0    0    0  0.00000000000E+00  0.00000000000E+00  0.12525980253E-10  0.17130000000E+03  0.17130000000E+03 0.  1.
       11    1    1    2    0    0 -0.30059165269E-02  0.45957304690E-02  0.59005393281E-01  0.59262584588E-01  0.51109989000E-03 0. -1.
     -623    1    1    2    0    0 -0.17124571667E-03 -0.62542821438E-03  0.37463469543E-03  0.17130000000E+03  0.17130000000E+03 0.  1.
      622    1    1    2    0    0  0.31771622436E-02 -0.39703022546E-02  0.39406199400E+01  0.39407374144E+01  0.30000000000E-01 0. -1.
</event>
<event>
 5   0  0.4961200E+08  0.9118800E+02  0.7818608E-02  0.1180000E+00
       11   -1    0    0    0    0  0.00000000000E+00  0.00000000000E+00  0.39999999673E+01  0.40000000000E+01  0.51109989000E-03 0. -1.
     -623   -1    0    0    0    0  0.00000000000E+00  0.00000000000E+00  0.12525980253E-10  0.17130000000E+03  0.17130000000E+03 0.  1.
       11    1    1    2    0    0 -0.14872661832E-01  0.50757196987E-03  0.27629378143E+00  0.27669472091E+00  0.51109989000E-03 0. -1.
     -623    1    1    2    0    0 -0.46856351969E-02 -0.81512256636E-02  0.58124575399E-03  0.17130000026E+03  0.17130000000E+03 0.  1.
      622    1    1    2    0    0  0.19558297029E-01  0.76436536934E-02  0.37231249400E+01  0.37233050199E+01  0.30000000000E-01 0. -1.
</event>
<event>
 5   0  0.4961200E+08  0.9118800E+02  0.7818608E-02  0.1180000E+00
       11   -1    0    0    0    0  0.00000000000E+00  0.00000000000E+00  0.39999999673E+01  0.40000000000E+01  0.51109989000E-03 0.  1.
     -623   -1    0    0    0    0  0.00000000000E+00  0.00000000000E+00  0.12525980253E-10  0.17130000000E+03  0.17130000000E+03 0. -1.
       11    1    1    2    0    0 -0.38734521530E-02  0.28362879408E-02  0.22900961722E-01  0.23404346361E-01  0.51109989000E-03 0.  1.
     -623    1    1    2    0    0  0.39555618237E-02  0.26717067475E-02  0.62039888921E-03  0.17130000007E+03  0.17130000000E+03 0. -1.
      622    1    1    2    0    0 -0.82109670761E-04 -0.55079946883E-02  0.39764786067E+01  0.39765955860E+01  0.30000000000E-01 0.  1.
</event>
<event>
 5   0  0.4961200E+08  0.9118800E+02  0.7818608E-02  0.1180000E+00
       11   -1    0    0    0    0  0.00000000000E+00  0.00000000000E+00  0.39999999673E+01  0.40000000000E+01  0.51109989000E-03 0.  1.
     -623   -1    0    0    0    0  0.00000000000E+00  0.00000000000E+00  0.12525980253E-10  0.17130000000E+03  0.17130000000E+03 0.  1.
       11    1    1    2    0    0 -0.82069919858E-02  0.31433654687E-02  0.51408360398E-01  0.52156650634E-01  0.51109989000E-03 0.  1.
     -623    1    1    2    0    0  0.76512594048E-03  0.16116926512E-03  0.87064693280E-03  0.17130000000E+03  0.17130000000E+03 0.  1.
      622    1    1    2    0    0  0.74418660453E-02 -0.33045347339E-02  0.39477209600E+01  0.39478433454E+01  0.30000000000E-01 0.  1.
</event>
<event>
 5   0  0.4961200E+08  0.9118800E+02  0.7818608E-02  0.1180000E+00
       11   -1    0    0    0    0  0.00000000000E+00  0.00000000000E+00  0.39999999673E+01  0.40000000000E+01  0.51109989000E-03 0.  1.
     -623   -1    0    0    0    0  0.00000000000E+00  0.00000000000E+00  0.12525980253E-10  0.17130000000E+03  0.17130000000E+03 0.  1.
       11    1    1    2    0    0 -0.30432589495E-02  0.99561831235E-03  0.45427745694E-02  0.55812815633E-02  0.51109989000E-03 0.  1.
     -623    1    1    2    0    0  0.31563604687E-02  0.62566382918E-03  0.11514978676E-02  0.17130000003E+03  0.17130000000E+03 0.  1.
      622    1    1    2    0    0 -0.11310151915E-03 -0.16212821415E-02  0.39943056949E+01  0.39944186843E+01  0.30000000000E-01 0.  1.
</event>
<event>
 5   0  0.4961200E+08  0.9118800E+02  0.7818608E-02  0.1180000E+00
       11   -1    0    0    0    0  0.00000000000E+00  0.00000000000E+00  0.39999999673E+01  0.40000000000E+01  0.51109989000E-03 0. -1.
     -623   -1    0    0    0    0  0.00000000000E+00  0.00000000000E+00  0.12525980253E-10  0.17130000000E+03  0.17130000000E+03 0.  1.
       11    1    1    2    0    0  0.74706024317E-03  0.12963402726E-02  0.39523740802E-01  0.39555352447E-01  0.51109989000E-03 0. -1.
     -623    1    1    2    0    0 -0.34708210281E-03  0.10537530370E-03  0.14547294480E-03  0.17130000000E+03  0.17130000000E+03 0.  1.
      622    1    1    2    0    0 -0.39997814019E-03 -0.14017155764E-02  0.39603307556E+01  0.39604446491E+01  0.30000000000E-01 0. -1.
</event>
<event>
 5   0  0.4961200E+08  0.9118800E+02  0.7818608E-02  0.1180000E+00
       11   -1    0    0    0    0  0.00000000000E+00  0.00000000000E+00  0.39999999673E+01  0.40000000000E+01  0.51109989000E-03 0.  1.
     -623   -1    0    0    0    0  0.00000000000E+00  0.00000000000E+00  0.12525980253E-10  0.17130000000E+03  0.17130000000E+03 0.  1.
       11    1    1    2    0    0  0.60173515066E-02  0.55138164157E-02  0.27732323854E+00  0.27744377907E+00  0.51109989000E-03 0.  1.
     -623    1    1    2    0    0 -0.50924773143E-03 -0.28089628788E-02  0.24647640248E-03  0.17130000002E+03  0.17130000000E+03 0.  1.
      622    1    1    2    0    0 -0.55081037751E-02 -0.27048535370E-02  0.37224302524E+01  0.37225561970E+01  0.30000000000E-01 0.  1.
</event>
<event>
 5   0  0.4961200E+08  0.9118800E+02  0.7818608E-02  0.1180000E+00
       11   -1    0    0    0    0  0.00000000000E+00  0.00000000000E+00  0.39999999673E+01  0.40000000000E+01  0.51109989000E-03 0.  1.
     -623   -1    0    0    0    0  0.00000000000E+00  0.00000000000E+00  0.12525980253E-10  0.17130000000E+03  0.17130000000E+03 0.  1.
       11    1    1    2    0    0 -0.10738239750E-02  0.33249505129E-02  0.42073671217E+00  0.42075153069E+00  0.51109989000E-03 0.  1.
     -623    1    1    2    0    0  0.35348472722E-02 -0.11006580877E-03  0.14283934428E-03  0.17130000004E+03  0.17130000000E+03 0.  1.
      622    1    1    2    0    0 -0.24610232990E-02 -0.32148847041E-02  0.35791204178E+01  0.35792484347E+01  0.30000000000E-01 0.  1.
</event>
<event>
 5   0  0.4961200E+08  0.9118800E+02  0.7818608E-02  0.1180000E+00
       11   -1    0    0    0    0  0.00000000000E+00  0.00000000000E+00  0.39999999673E+01  0.40000000000E+01  0.51109989000E-03 0. -1.
     -623   -1    0    0    0    0  0.00000000000E+00  0.00000000000E+00  0.12525980253E-10  0.17130000000E+03  0.17130000000E+03 0.  1.
       11    1    1    2    0    0  0.11367470013E-02  0.10156668443E-03  0.49875342101E-01  0.49891016035E-01  0.51109989000E-03 0. -1.
     -623    1    1    2    0    0 -0.12672432323E-04 -0.33834208133E-03  0.12973126638E-03  0.17130000000E+03  0.17130000000E+03 0.  1.
      622    1    1    2    0    0 -0.11240745690E-02  0.23677539689E-03  0.39499948940E+01  0.39501089836E+01  0.30000000000E-01 0. -1.
</event>
<event>
 5   0  0.4961200E+08  0.9118800E+02  0.7818608E-02  0.1180000E+00
       11   -1    0    0    0    0  0.00000000000E+00  0.00000000000E+00  0.39999999673E+01  0.40000000000E+01  0.51109989000E-03 0. -1.
     -623   -1    0    0    0    0  0.00000000000E+00  0.00000000000E+00  0.12525980253E-10  0.17130000000E+03  0.17130000000E+03 0.  1.
       11    1    1    2    0    0  0.42554294075E-02 -0.17189065743E-02  0.42798039894E+00  0.42800531121E+00  0.51109989000E-03 0. -1.
     -623    1    1    2    0    0  0.40763206578E-03 -0.64016852223E-03  0.15468646994E-03  0.17130000000E+03  0.17130000000E+03 0.  1.
      622    1    1    2    0    0 -0.46630614733E-02  0.23590750965E-02  0.35718648819E+01  0.35719946870E+01  0.30000000000E-01 0. -1.
</event>
<event>
 5   0  0.4961200E+08  0.9118800E+02  0.7818608E-02  0.1180000E+00
       11   -1    0    0    0    0  0.00000000000E+00  0.00000000000E+00  0.39999999673E+01  0.40000000000E+01  0.51109989000E-03 0. -1.
     -623   -1    0    0    0    0  0.00000000000E+00  0.00000000000E+00  0.12525980253E-10  0.17130000000E+03  0.17130000000E+03 0. -1.
       11    1    1    2    0    0  0.11815934704E-02 -0.23039914342E-02  0.52828453532E-02  0.59054396772E-02  0.51109989000E-03 0. -1.
     -623    1    1    2    0    0 -0.21578619371E-03 -0.20533159399E-03  0.73613649729E-03  0.17130000000E+03  0.17130000000E+03 0. -1.
      622    1    1    2    0    0 -0.96580727666E-03  0.25093230282E-02  0.39939809857E+01  0.39940945587E+01  0.30000000000E-01 0. -1.
</event>
<event>
 5   0  0.4961200E+08  0.9118800E+02  0.7818608E-02  0.1180000E+00
       11   -1    0    0    0    0  0.00000000000E+00  0.00000000000E+00  0.39999999673E+01  0.40000000000E+01  0.51109989000E-03 0.  1.
     -623   -1    0    0    0    0  0.00000000000E+00  0.00000000000E+00  0.12525980253E-10  0.17130000000E+03  0.17130000000E+03 0. -1.
       11    1    1    2    0    0  0.83249408291E-02 -0.35103725656E-02  0.32174350473E+00  0.32187073712E+00  0.51109989000E-03 0.  1.
     -623    1    1    2    0    0 -0.11484288354E-01  0.59227838241E-02  0.25218221319E-03  0.17130000049E+03  0.17130000000E+03 0. -1.
      622    1    1    2    0    0  0.31593475273E-02 -0.24124112596E-02  0.36780042812E+01  0.36781287761E+01  0.30000000000E-01 0.  1.
</event>
<event>
 5   0  0.4961200E+08  0.9118800E+02  0.7818608E-02  0.1180000E+00
       11   -1    0    0    0    0  0.00000000000E+00  0.00000000000E+00  0.39999999673E+01  0.40000000000E+01  0.51109989000E-03 0. -1.
     -623   -1    0    0    0    0  0.00000000000E+00  0.00000000000E+00  0.12525980253E-10  0.17130000000E+03  0.17130000000E+03 0. -1.
       11    1    1    2    0    0  0.17435519897E-01  0.12410621721E-02  0.94360708960E-01  0.95967401792E-01  0.51109989000E-03 0. -1.
     -623    1    1    2    0    0 -0.10937295992E-01  0.36021969792E-02  0.17307357158E-02  0.17130000040E+03  0.17130000000E+03 0. -1.
      622    1    1    2    0    0 -0.64982239048E-02 -0.48432591513E-02  0.39039085227E+01  0.39040322024E+01  0.30000000000E-01 0. -1.
</event>
<event>
 5   0  0.4961200E+08  0.9118800E+02  0.7818608E-02  0.1180000E+00
       11   -1    0    0    0    0  0.00000000000E+00  0.00000000000E+00  0.39999999673E+01  0.40000000000E+01  0.51109989000E-03 0.  1.
     -623   -1    0    0    0    0  0.00000000000E+00  0.00000000000E+00  0.12525980253E-10  0.17130000000E+03  0.17130000000E+03 0. -1.
       11    1    1    2    0    0  0.47537842287E-02 -0.37377021903E-02  0.52684702136E-01  0.53033083489E-01  0.51109989000E-03 0.  1.
     -623    1    1    2    0    0  0.53917340959E-03  0.67626426865E-03  0.46710118681E-03  0.17130000000E+03  0.17130000000E+03 0. -1.
      622    1    1    2    0    0 -0.52929576383E-02  0.30614379215E-02  0.39468481647E+01  0.39469669144E+01  0.30000000000E-01 0.  1.
</event>
<event>
 5   0  0.4961200E+08  0.9118800E+02  0.7818608E-02  0.1180000E+00
       11   -1    0    0    0    0  0.00000000000E+00  0.00000000000E+00  0.39999999673E+01  0.40000000000E+01  0.51109989000E-03 0.  1.
     -623   -1    0    0    0    0  0.00000000000E+00  0.00000000000E+00  0.12525980253E-10  0.17130000000E+03  0.17130000000E+03 0.  1.
       11    1    1    2    0    0 -0.28815445516E-03 -0.58722518546E-02  0.82712908608E-01  0.82923174369E-01  0.51109989000E-03 0.  1.
     -623    1    1    2    0    0 -0.43782783428E-02 -0.26477778246E-03  0.33276023189E-03  0.17130000006E+03  0.17130000000E+03 0.  1.
      622    1    1    2    0    0  0.46664327980E-02  0.61370296371E-02  0.39169542985E+01  0.39170767692E+01  0.30000000000E-01 0.  1.
</event>
<event>
 5   0  0.4961200E+08  0.9118800E+02  0.7818608E-02  0.1180000E+00
       11   -1    0    0    0    0  0.00000000000E+00  0.00000000000E+00  0.39999999673E+01  0.40000000000E+01  0.51109989000E-03 0. -1.
     -623   -1    0    0    0    0  0.00000000000E+00  0.00000000000E+00  0.12525980253E-10  0.17130000000E+03  0.17130000000E+03 0.  1.
       11    1    1    2    0    0 -0.21789148865E-02  0.11763515677E-01  0.38079561787E+00  0.38098384714E+00  0.51109989000E-03 0. -1.
     -623    1    1    2    0    0  0.87288493689E-02 -0.18082888293E-03  0.33722819763E-03  0.17130000022E+03  0.17130000000E+03 0.  1.
      622    1    1    2    0    0 -0.65499344846E-02 -0.11582686794E-01  0.36188671223E+01  0.36190159311E+01  0.30000000000E-01 0. -1.
</event>
<event>
 5   0  0.4961200E+08  0.9118800E+02  0.7818608E-02  0.1180000E+00
       11   -1    0    0    0    0  0.00000000000E+00  0.00000000000E+00  0.39999999673E+01  0.40000000000E+01  0.51109989000E-03 0. -1.
     -623   -1    0    0    0    0  0.00000000000E+00  0.00000000000E+00  0.12525980253E-10  0.17130000000E+03  0.17130000000E+03 0. -1.
       11    1    1    2    0    0  0.21406299782E-02 -0.58699557191E-03  0.25414014863E-01  0.25515881979E-01  0.51109989000E-03 0. -1.
     -623    1    1    2    0    0  0.76165525115E-03  0.13796335414E-02  0.21620445405E-03  0.17130000001E+03  0.17130000000E+03 0. -1.
      622    1    1    2    0    0 -0.29022852294E-02 -0.79263796953E-03  0.39743697480E+01  0.39744841106E+01  0.30000000000E-01 0.  0.
</event>
<event>
 5   0  0.4961200E+08  0.9118800E+02  0.7818608E-02  0.1180000E+00
       11   -1    0    0    0    0  0.00000000000E+00  0.00000000000E+00  0.39999999673E+01  0.40000000000E+01  0.51109989000E-03 0.  1.
     -623   -1    0    0    0    0  0.00000000000E+00  0.00000000000E+00  0.12525980253E-10  0.17130000000E+03  0.17130000000E+03 0. -1.
       11    1    1    2    0    0  0.34843699322E-03  0.11727857849E-02  0.30838887236E+00  0.30839172274E+00  0.51109989000E-03 0.  1.
     -623    1    1    2    0    0 -0.29370359861E-02  0.38720865459E-02  0.12914166097E-03  0.17130000007E+03  0.17130000000E+03 0. -1.
      622    1    1    2    0    0  0.25885989929E-02 -0.50448723308E-02  0.36914819533E+01  0.36916082083E+01  0.30000000000E-01 0.  1.
</event>
<event>
 5   0  0.4961200E+08  0.9118800E+02  0.7818608E-02  0.1180000E+00
       11   -1    0    0    0    0  0.00000000000E+00  0.00000000000E+00  0.39999999673E+01  0.40000000000E+01  0.51109989000E-03 0.  1.
     -623   -1    0    0    0    0  0.00000000000E+00  0.00000000000E+00  0.12525980253E-10  0.17130000000E+03  0.17130000000E+03 0.  1.
       11    1    1    2    0    0  0.41074418938E-02 -0.18559322913E-01  0.79318973677E+00  0.79341763233E+00  0.51109989000E-03 0.  1.
     -623    1    1    2    0    0  0.25559243161E-02 -0.69398438423E-02  0.47667890776E-03  0.17130000016E+03  0.17130000000E+03 0.  1.
      622    1    1    2    0    0 -0.66633662101E-02  0.25499166757E-01  0.32063335522E+01  0.32065822079E+01  0.30000000000E-01 0.  0.
</event>
<event>
 5   0  0.4961200E+08  0.9118800E+02  0.7818608E-02  0.1180000E+00
       11   -1    0    0    0    0  0.00000000000E+00  0.00000000000E+00  0.39999999673E+01  0.40000000000E+01  0.51109989000E-03 0. -1.
     -623   -1    0    0    0    0  0.00000000000E+00  0.00000000000E+00  0.12525980253E-10  0.17130000000E+03  0.17130000000E+03 0.  1.
       11    1    1    2    0    0 -0.13247215935E-02 -0.71813443564E-03  0.30353338065E+00  0.30353755121E+00  0.51109989000E-03 0. -1.
     -623    1    1    2    0    0  0.10006092859E-03 -0.61716843802E-03  0.12632319176E-03  0.17130000000E+03  0.17130000000E+03 0.  1.
      622    1    1    2    0    0  0.12246606649E-02  0.13353028737E-02  0.36963402635E+01  0.36964624476E+01  0.30000000000E-01 0. -1.
</event>
<event>
 5   0  0.4961200E+08  0.9118800E+02  0.7818608E-02  0.1180000E+00
       11   -1    0    0    0    0  0.00000000000E+00  0.00000000000E+00  0.39999999673E+01  0.40000000000E+01  0.51109989000E-03 0.  1.
     -623   -1    0    0    0    0  0.00000000000E+00  0.00000000000E+00  0.12525980253E-10  0.17130000000E+03  0.17130000000E+03 0. -1.
       11    1    1    2    0    0 -0.14959890179E-01 -0.19812196648E-01  0.62909933719E+00  0.62958919839E+00  0.51109989000E-03 0.  1.
     -623    1    1    2    0    0 -0.94656891860E-02 -0.28615597007E-02  0.78841731706E-03  0.17130000029E+03  0.17130000000E+03 0. -1.
      622    1    1    2    0    0  0.24425579365E-01  0.22673756349E-01  0.33701122129E+01  0.33704105144E+01  0.30000000000E-01 0.  1.
</event>
<event>
 5   0  0.4961200E+08  0.9118800E+02  0.7818608E-02  0.1180000E+00
       11   -1    0    0    0    0  0.00000000000E+00  0.00000000000E+00  0.39999999673E+01  0.40000000000E+01  0.51109989000E-03 0. -1.
     -623   -1    0    0    0    0  0.00000000000E+00  0.00000000000E+00  0.12525980253E-10  0.17130000000E+03  0.17130000000E+03 0. -1.
       11    1    1    2    0    0 -0.21853413580E-02 -0.60935829274E-03  0.29511783878E-01  0.29603270852E-01  0.51109989000E-03 0. -1.
     -623    1    1    2    0    0  0.14098988682E-02  0.16782106057E-02  0.20502849836E-03  0.17130000001E+03  0.17130000000E+03 0. -1.
      622    1    1    2    0    0  0.77544248996E-03 -0.10688523128E-02  0.39702831546E+01  0.39703967146E+01  0.30000000000E-01 0. -1.
</event>
<event>
 5   0  0.4961200E+08  0.9118800E+02  0.7818608E-02  0.1180000E+00
       11   -1    0    0    0    0  0.00000000000E+00  0.00000000000E+00  0.39999999673E+01  0.40000000000E+01  0.51109989000E-03 0.  1.
     -623   -1    0    0    0    0  0.00000000000E+00  0.00000000000E+00  0.12525980253E-10  0.17130000000E+03  0.17130000000E+03 0. -1.
       11    1    1    2    0    0  0.10937933982E-01  0.87848146889E-04  0.30699407293E+00  0.30718930345E+00  0.51109989000E-03 0.  1.
     -623    1    1    2    0    0  0.11721155418E-03 -0.37680077590E-03  0.33361881539E-03  0.17130000000E+03  0.17130000000E+03 0. -1.
      622    1    1    2    0    0 -0.11055145537E-01  0.28895262901E-03  0.36926722756E+01  0.36928106958E+01  0.30000000000E-01 0.  1.
</event>
<event>
 5   0  0.4961200E+08  0.9118800E+02  0.7818608E-02  0.1180000E+00
       11   -1    0    0    0    0  0.00000000000E+00  0.00000000000E+00  0.39999999673E+01  0.40000000000E+01  0.51109989000E-03 0.  1.
     -623   -1    0    0    0    0  0.00000000000E+00  0.00000000000E+00  0.12525980253E-10  0.17130000000E+03  0.17130000000E+03 0. -1.
       11    1    1    2    0    0 -0.10269754173E-01  0.53264160664E-02  0.31688642926E+00  0.31709794832E+00  0.51109989000E-03 0.  1.
     -623    1    1    2    0    0 -0.21347330696E-01 -0.26369826863E-03  0.47420643286E-03  0.17130000133E+03  0.17130000000E+03 0. -1.
      622    1    1    2    0    0  0.31617084873E-01 -0.50627177978E-02  0.36826393324E+01  0.36829007214E+01  0.30000000000E-01 0.  1.
</event>
<event>
 5   0  0.4961200E+08  0.9118800E+02  0.7818608E-02  0.1180000E+00
       11   -1    0    0    0    0  0.00000000000E+00  0.00000000000E+00  0.39999999673E+01  0.40000000000E+01  0.51109989000E-03 0. -1.
     -623   -1    0    0    0    0  0.00000000000E+00  0.00000000000E+00  0.12525980253E-10  0.17130000000E+03  0.17130000000E+03 0. -1.
       11    1    1    2    0    0 -0.18998766870E-01  0.38244450836E-02  0.59682728851E-01  0.62752441139E-01  0.51109989000E-03 0. -1.
     -623    1    1    2    0    0  0.15326748579E-02  0.36604062747E-02  0.32299076703E-02  0.17130000008E+03  0.17130000000E+03 0. -1.
      622    1    1    2    0    0  0.17466092012E-01 -0.74848513583E-02  0.39370873309E+01  0.39372474825E+01  0.30000000000E-01 0. -1.
</event>
<event>
 5   0  0.4961200E+08  0.9118800E+02  0.7818608E-02  0.1180000E+00
       11   -1    0    0    0    0  0.00000000000E+00  0.00000000000E+00  0.39999999673E+01  0.40000000000E+01  0.51109989000E-03 0. -1.
     -623   -1    0    0    0    0  0.00000000000E+00  0.00000000000E+00  0.12525980253E-10  0.17130000000E+03  0.17130000000E+03 0. -1.
       11    1    1    2    0    0  0.24846460186E-02  0.32952460800E-02  0.72391640897E-01  0.72510985426E-01  0.51109989000E-03 0. -1.
     -623    1    1    2    0    0  0.37687002510E-02 -0.79710468023E-02  0.24187954140E-03  0.17130000023E+03  0.17130000000E+03 0. -1.
      622    1    1    2    0    0 -0.62533462703E-02  0.46758007238E-02  0.39273664477E+01  0.39274887882E+01  0.30000000000E-01 0. -1.
</event>
<event>
 5   0  0.4961200E+08  0.9118800E+02  0.7818608E-02  0.1180000E+00
       11   -1    0    0    0    0  0.00000000000E+00  0.00000000000E+00  0.39999999673E+01  0.40000000000E+01  0.51109989000E-03 0.  1.
     -623   -1    0    0    0    0  0.00000000000E+00  0.00000000000E+00  0.12525980253E-10  0.17130000000E+03  0.17130000000E+03 0.  1.
       11    1    1    2    0    0  0.84330902741E-02 -0.13981426575E-02  0.67597691455E+00  0.67603115463E+00  0.51109989000E-03 0.  1.
     -623    1    1    2    0    0 -0.92417214125E-03  0.39611561189E-03  0.19822640181E-03  0.17130000000E+03  0.17130000000E+03 0.  1.
      622    1    1    2    0    0 -0.75089181328E-02  0.10020270456E-02  0.33238248264E+01  0.33239688423E+01  0.30000000000E-01 0.  1.
</event>
<event>
 5   0  0.4961200E+08  0.9118800E+02  0.7818608E-02  0.1180000E+00
       11   -1    0    0    0    0  0.00000000000E+00  0.00000000000E+00  0.39999999673E+01  0.40000000000E+01  0.51109989000E-03 0. -1.
     -623   -1    0    0    0    0  0.00000000000E+00  0.00000000000E+00  0.12525980253E-10  0.17130000000E+03  0.17130000000E+03 0.  1.
       11    1    1    2    0    0  0.11869839608E-01 -0.19523659970E-02  0.85610221580E-01  0.86452739039E-01  0.51109989000E-03 0. -1.
     -623    1    1    2    0    0 -0.99810416620E-04  0.62523380499E-02  0.97765078306E-03  0.17130000012E+03  0.17130000000E+03 0.  1.
      622    1    1    2    0    0 -0.11770029192E-01 -0.42999720535E-02  0.39134120954E+01  0.39135471444E+01  0.30000000000E-01 0. -1.
</event>
<event>
 5   0  0.4961200E+08  0.9118800E+02  0.7818608E-02  0.1180000E+00
       11   -1    0    0    0    0  0.00000000000E+00  0.00000000000E+00  0.39999999673E+01  0.40000000000E+01  0.51109989000E-03 0.  1.
     -623   -1    0    0    0    0  0.00000000000E+00  0.00000000000E+00  0.12525980253E-10  0.17130000000E+03  0.17130000000E+03 0. -1.
       11    1    1    2    0    0 -0.14933640366E-02  0.21151256276E-02  0.27780336924E-01  0.27905415877E-01  0.51109989000E-03 0.  1.
     -623    1    1    2    0    0  0.15272741920E-02  0.13217437222E-02  0.23983742731E-03  0.17130000001E+03  0.17130000000E+03 0. -1.
      622    1    1    2    0    0 -0.33910156335E-04 -0.34368693505E-02  0.39719797953E+01  0.39720945743E+01  0.30000000000E-01 0.  1.
</event>
<event>
 5   0  0.4961200E+08  0.9118800E+02  0.7818608E-02  0.1180000E+00
       11   -1    0    0    0    0  0.00000000000E+00  0.00000000000E+00  0.39999999673E+01  0.40000000000E+01  0.51109989000E-03 0. -1.
     -623   -1    0    0    0    0  0.00000000000E+00  0.00000000000E+00  0.12525980253E-10  0.17130000000E+03  0.17130000000E+03 0.  1.
       11    1    1    2    0    0 -0.88027622763E-02 -0.74047244049E-02  0.10576681261E+01  0.10577307998E+01  0.51109989000E-03 0. -1.
     -623    1    1    2    0    0  0.21614478961E-02 -0.23037462863E-02  0.23913149611E-03  0.17130000003E+03  0.17130000000E+03 0.  1.
      622    1    1    2    0    0  0.66413143795E-02  0.97084706919E-02  0.29420927110E+01  0.29422691722E+01  0.30000000000E-01 0. -1.
</event>
<event>
 5   0  0.4961200E+08  0.9118800E+02  0.7818608E-02  0.1180000E+00
       11   -1    0    0    0    0  0.00000000000E+00  0.00000000000E+00  0.39999999673E+01  0.40000000000E+01  0.51109989000E-03 0.  1.
     -623   -1    0    0    0    0  0.00000000000E+00  0.00000000000E+00  0.12525980253E-10  0.17130000000E+03  0.17130000000E+03 0.  1.
       11    1    1    2    0    0  0.18206881721E-02  0.56472181705E-03  0.23298927869E-01  0.23382366841E-01  0.51109989000E-03 0.  1.
     -623    1    1    2    0    0 -0.73747123367E-02 -0.51127669252E-02  0.20328416449E-03  0.17130000024E+03  0.17130000000E+03 0.  1.
      622    1    1    2    0    0  0.55540241650E-02  0.45480451085E-02  0.39764977556E+01  0.39766173982E+01  0.30000000000E-01 0.  1.
</event>
<event>
 5   0  0.4961200E+08  0.9118800E+02  0.7818608E-02  0.1180000E+00
       11   -1    0    0    0    0  0.00000000000E+00  0.00000000000E+00  0.39999999673E+01  0.40000000000E+01  0.51109989000E-03 0.  1.
     -623   -1    0    0    0    0  0.00000000000E+00  0.00000000000E+00  0.12525980253E-10  0.17130000000E+03  0.17130000000E+03 0. -1.
       11    1    1    2    0    0 -0.38606529561E-03 -0.39856436940E-02  0.39494154940E-01  0.39699923151E-01  0.51109989000E-03 0.  1.
     -623    1    1    2    0    0  0.23030726086E-03  0.18067755894E-03  0.32119648429E-03  0.17130000000E+03  0.17130000000E+03 0. -1.
      622    1    1    2    0    0  0.15575803475E-03  0.38049661350E-02  0.39601846159E+01  0.39603000763E+01  0.30000000000E-01 0.  1.
</event>
<event>
 5   0  0.4961200E+08  0.9118800E+02  0.7818608E-02  0.1180000E+00
       11   -1    0    0    0    0  0.00000000000E+00  0.00000000000E+00  0.39999999673E+01  0.40000000000E+01  0.51109989000E-03 0. -1.
     -623   -1    0    0    0    0  0.00000000000E+00  0.00000000000E+00  0.12525980253E-10  0.17130000000E+03  0.17130000000E+03 0. -1.
       11    1    1    2    0    0  0.10591532078E-01 -0.49421088302E-02  0.39960170552E+00  0.39977292213E+00  0.51109989000E-03 0. -1.
     -623    1    1    2    0    0 -0.11583075315E-02 -0.68662158359E-03  0.31294288495E-03  0.17130000001E+03  0.17130000000E+03 0. -1.
      622    1    1    2    0    0 -0.94332245469E-02  0.56287304138E-02  0.36000853190E+01  0.36002270723E+01  0.30000000000E-01 0. -1.
</event>
<event>
 5   0  0.4961200E+08  0.9118800E+02  0.7818608E-02  0.1180000E+00
       11   -1    0    0    0    0  0.00000000000E+00  0.00000000000E+00  0.39999999673E+01  0.40000000000E+01  0.51109989000E-03 0.  1.
     -623   -1    0    0    0    0  0.00000000000E+00  0.00000000000E+00  0.12525980253E-10  0.17130000000E+03  0.17130000000E+03 0. -1.
       11    1    1    2    0    0 -0.21359216156E-02 -0.48411104502E-03  0.13625795603E+00  0.13627651423E+00  0.51109989000E-03 0.  1.
     -623    1    1    2    0    0 -0.10555861483E-02  0.47659189024E-04  0.13634139850E-03  0.17130000000E+03  0.17130000000E+03 0. -1.
      622    1    1    2    0    0  0.31915077640E-02  0.43645185600E-03  0.38636056699E+01  0.38637234825E+01  0.30000000000E-01 0.  1.
</event>
<event>
 5   0  0.4961200E+08  0.9118800E+02  0.7818608E-02  0.1180000E+00
       11   -1    0    0    0    0  0.00000000000E+00  0.00000000000E+00  0.39999999673E+01  0.40000000000E+01  0.51109989000E-03 0. -1.
     -623   -1    0    0    0    0  0.00000000000E+00  0.00000000000E+00  0.12525980253E-10  0.17130000000E+03  0.17130000000E+03 0. -1.
       11    1    1    2    0    0  0.22710277084E-01 -0.79512077028E-01  0.37777673567E+00  0.38672141176E+00  0.51109989000E-03 0. -1.
     -623    1    1    2    0    0 -0.84237903314E-02  0.58918641259E-01  0.91667042467E-02  0.17130001058E+03  0.17130000000E+03 0. -1.
      622    1    1    2    0    0 -0.14286486753E-01  0.20593435770E-01  0.36130565274E+01  0.36132680033E+01  0.30000000000E-01 0. -1.
</event>
<event>
 5   0  0.4961200E+08  0.9118800E+02  0.7818608E-02  0.1180000E+00
       11   -1    0    0    0    0  0.00000000000E+00  0.00000000000E+00  0.39999999673E+01  0.40000000000E+01  0.51109989000E-03 0. -1.
     -623   -1    0    0    0    0  0.00000000000E+00  0.00000000000E+00  0.12525980253E-10  0.17130000000E+03  0.17130000000E+03 0.  1.
       11    1    1    2    0    0  0.30093735254E-01  0.25072559799E-01  0.63295130257E+00  0.63416234421E+00  0.51109989000E-03 0. -1.
     -623    1    1    2    0    0 -0.27581242724E-02 -0.26864817665E-01  0.14583294649E-02  0.17130000214E+03  0.17130000000E+03 0.  1.
      622    1    1    2    0    0 -0.27335610981E-01  0.17922578655E-02  0.33655903353E+01  0.33658355208E+01  0.30000000000E-01 0. -1.
</event>
<event>
 5   0  0.4961200E+08  0.9118800E+02  0.7818608E-02  0.1180000E+00
       11   -1    0    0    0    0  0.00000000000E+00  0.00000000000E+00  0.39999999673E+01  0.40000000000E+01  0.51109989000E-03 0. -1.
     -623   -1    0    0    0    0  0.00000000000E+00  0.00000000000E+00  0.12525980253E-10  0.17130000000E+03  0.17130000000E+03 0. -1.
       11    1    1    2    0    0 -0.22961390611E-02 -0.87782477678E-03  0.12774672325E-01  0.13019074738E-01  0.51109989000E-03 0. -1.
     -623    1    1    2    0    0  0.39808987497E-03 -0.84353985423E-03  0.35806505568E-03  0.17130000000E+03  0.17130000000E+03 0. -1.
      622    1    1    2    0    0  0.18980491861E-02  0.17213646311E-02  0.39868672305E+01  0.39869809228E+01  0.30000000000E-01 0. -1.
</event>
<event>
 5   0  0.4961200E+08  0.9118800E+02  0.7818608E-02  0.1180000E+00
       11   -1    0    0    0    0  0.00000000000E+00  0.00000000000E+00  0.39999999673E+01  0.40000000000E+01  0.51109989000E-03 0. -1.
     -623   -1    0    0    0    0  0.00000000000E+00  0.00000000000E+00  0.12525980253E-10  0.17130000000E+03  0.17130000000E+03 0.  1.
       11    1    1    2    0    0 -0.12149452886E-01 -0.52882527570E-02  0.33578884886E+00  0.33605057218E+00  0.51109989000E-03 0. -1.
     -623    1    1    2    0    0  0.41926671345E-02  0.69728098121E-02  0.39373192241E-03  0.17130000019E+03  0.17130000000E+03 0.  1.
      622    1    1    2    0    0  0.79567857514E-02 -0.16845570549E-02  0.36638173865E+01  0.36639492340E+01  0.30000000000E-01 0. -1.
</event>
<event>
 5   0  0.4961200E+08  0.9118800E+02  0.7818608E-02  0.1180000E+00
       11   -1    0    0    0    0  0.00000000000E+00  0.00000000000E+00  0.39999999673E+01  0.40000000000E+01  0.51109989000E-03 0. -1.
     -623   -1    0    0    0    0  0.00000000000E+00  0.00000000000E+00  0.12525980253E-10  0.17130000000E+03  0.17130000000E+03 0.  1.
       11    1    1    2    0    0  0.18678828976E-02  0.53250417561E-02  0.75752589179E-01  0.75964208985E-01  0.51109989000E-03 0. -1.
     -623    1    1    2    0    0  0.37196441682E-03 -0.92565259233E-04  0.33039542272E-03  0.17130000000E+03  0.17130000000E+03 0.  1.
      622    1    1    2    0    0 -0.22398473144E-02 -0.52324764969E-02  0.39239169827E+01  0.39240357903E+01  0.30000000000E-01 0. -1.
</event>
<event>
 5   0  0.4961200E+08  0.9118800E+02  0.7818608E-02  0.1180000E+00
       11   -1    0    0    0    0  0.00000000000E+00  0.00000000000E+00  0.39999999673E+01  0.40000000000E+01  0.51109989000E-03 0. -1.
     -623   -1    0    0    0    0  0.00000000000E+00  0.00000000000E+00  0.12525980253E-10  0.17130000000E+03  0.17130000000E+03 0. -1.
       11    1    1    2    0    0  0.27375376321E-02 -0.99694216231E-03  0.17171221405E+00  0.17173768859E+00  0.51109989000E-03 0. -1.
     -623    1    1    2    0    0 -0.30401965096E-03 -0.88800767432E-03  0.14423069385E-03  0.17130000000E+03  0.17130000000E+03 0. -1.
      622    1    1    2    0    0 -0.24335179809E-02  0.18849498372E-02  0.38281435251E+01  0.38282623113E+01  0.30000000000E-01 0. -1.
</event>
<event>
 5   0  0.4961200E+08  0.9118800E+02  0.7818608E-02  0.1180000E+00
       11   -1    0    0    0    0  0.00000000000E+00  0.00000000000E+00  0.39999999673E+01  0.40000000000E+01  0.51109989000E-03 0. -1.
     -623   -1    0    0    0    0  0.00000000000E+00  0.00000000000E+00  0.12525980253E-10  0.17130000000E+03  0.17130000000E+03 0. -1.
       11    1    1    2    0    0  0.99378564818E-03 -0.90283618916E-03  0.78796871097E-02  0.80095827072E-02  0.51109989000E-03 0. -1.
     -623    1    1    2    0    0  0.89800572488E-03 -0.17290600416E-03  0.24318610097E-03  0.17130000000E+03  0.17130000000E+03 0. -1.
      622    1    1    2    0    0 -0.18917913728E-02  0.10757421933E-02  0.39918770928E+01  0.39919904133E+01  0.30000000000E-01 0. -1.
</event>
<event>
 5   0  0.4961200E+08  0.9118800E+02  0.7818608E-02  0.1180000E+00
       11   -1    0    0    0    0  0.00000000000E+00  0.00000000000E+00  0.39999999673E+01  0.40000000000E+01  0.51109989000E-03 0. -1.
     -623   -1    0    0    0    0  0.00000000000E+00  0.00000000000E+00  0.12525980253E-10  0.17130000000E+03  0.17130000000E+03 0.  1.
       11    1    1    2    0    0  0.18439630686E-03 -0.14559284305E-02  0.33651921951E-01  0.33687784178E-01  0.51109989000E-03 0. -1.
     -623    1    1    2    0    0 -0.15157092743E-03  0.27565512591E-03  0.14946283125E-03  0.17130000000E+03  0.17130000000E+03 0.  1.
      622    1    1    2    0    0 -0.32825379428E-04  0.11802733046E-02  0.39661985826E+01  0.39663122155E+01  0.30000000000E-01 0. -1.
</event>
<event>
 5   0  0.4961200E+08  0.9118800E+02  0.7818608E-02  0.1180000E+00
       11   -1    0    0    0    0  0.00000000000E+00  0.00000000000E+00  0.39999999673E+01  0.40000000000E+01  0.51109989000E-03 0. -1.
     -623   -1    0    0    0    0  0.00000000000E+00  0.00000000000E+00  0.12525980253E-10  0.17130000000E+03  0.17130000000E+03 0.  1.
       11    1    1    2    0    0 -0.36146018497E-02 -0.59905741254E-03  0.19973323525E+00  0.19976749161E+00  0.51109989000E-03 0. -1.
     -623    1    1    2    0    0 -0.12845152135E-03  0.80765680503E-04  0.15451827541E-03  0.17130000000E+03  0.17130000000E+03 0.  1.
      622    1    1    2    0    0  0.37430533711E-02  0.51829173202E-03  0.38001122143E+01  0.38002325087E+01  0.30000000000E-01 0. -1.
</event>
<event>
 5   0  0.4961200E+08  0.9118800E+02  0.7818608E-02  0.1180000E+00
       11   -1    0    0    0    0  0.00000000000E+00  0.00000000000E+00  0.39999999673E+01  0.40000000000E+01  0.51109989000E-03 0. -1.
     -623   -1    0    0    0    0  0.00000000000E+00  0.00000000000E+00  0.12525980253E-10  0.17130000000E+03  0.17130000000E+03 0. -1.
       11    1    1    2    0    0  0.58551819808E-02  0.16633779802E-01  0.56173002763E+00  0.56200698479E+00  0.51109989000E-03 0. -1.
     -623    1    1    2    0    0 -0.17564467734E-03 -0.27620804600E-02  0.44051786660E-03  0.17130000002E+03  0.17130000000E+03 0. -1.
      622    1    1    2    0    0 -0.56795373035E-02 -0.13871699342E-01  0.34378294226E+01  0.34379929931E+01  0.30000000000E-01 0.  0.
</event>
<event>
 5   0  0.4961200E+08  0.9118800E+02  0.7818608E-02  0.1180000E+00
       11   -1    0    0    0    0  0.00000000000E+00  0.00000000000E+00  0.39999999673E+01  0.40000000000E+01  0.51109989000E-03 0.  1.
     -623   -1    0    0    0    0  0.00000000000E+00  0.00000000000E+00  0.12525980253E-10  0.17130000000E+03  0.17130000000E+03 0.  1.
       11    1    1    2    0    0 -0.14437665913E-02 -0.34284272736E-03  0.25142803920E-01  0.25191741011E-01  0.51109989000E-03 0.  1.
     -623    1    1    2    0    0  0.42843756995E-03  0.54787027603E-03  0.16225553026E-03  0.17130000000E+03  0.17130000000E+03 0.  1.
      622    1    1    2    0    0  0.10153290214E-02 -0.20502754853E-03  0.39746949069E+01  0.39748082565E+01  0.30000000000E-01 0.  1.
</event>
<event>
 5   0  0.4961200E+08  0.9118800E+02  0.7818608E-02  0.1180000E+00
       11   -1    0    0    0    0  0.00000000000E+00  0.00000000000E+00  0.39999999673E+01  0.40000000000E+01  0.51109989000E-03 0. -1.
     -623   -1    0    0    0    0  0.00000000000E+00  0.00000000000E+00  0.12525980253E-10  0.17130000000E+03  0.17130000000E+03 0.  1.
       11    1    1    2    0    0 -0.75796650315E-02 -0.14313329724E-01  0.52241853958E+00  0.52266979485E+00  0.51109989000E-03 0. -1.
     -623    1    1    2    0    0  0.12275903053E-01  0.31686747719E-02  0.40213538642E-03  0.17130000047E+03  0.17130000000E+03 0.  1.
      622    1    1    2    0    0 -0.46962380218E-02  0.11144654952E-01  0.34771792924E+01  0.34773297355E+01  0.30000000000E-01 0. -1.
</event>
<event>
 5   0  0.4961200E+08  0.9118800E+02  0.7818608E-02  0.1180000E+00
       11   -1    0    0    0    0  0.00000000000E+00  0.00000000000E+00  0.39999999673E+01  0.40000000000E+01  0.51109989000E-03 0.  1.
     -623   -1    0    0    0    0  0.00000000000E+00  0.00000000000E+00  0.12525980253E-10  0.17130000000E+03  0.17130000000E+03 0.  1.
       11    1    1    2    0    0 -0.73129433782E-02  0.12980165485E-01  0.67838701187E+00  0.67855078139E+00  0.51109989000E-03 0.  1.
     -623    1    1    2    0    0 -0.93373333696E-03 -0.28767366611E-03  0.33371638922E-03  0.17130000000E+03  0.17130000000E+03 0.  1.
      622    1    1    2    0    0  0.82466767152E-02 -0.12692491819E-01  0.33212792391E+01  0.33214492155E+01  0.30000000000E-01 0.  1.
</event>
<event>
 5   0  0.4961200E+08  0.9118800E+02  0.7818608E-02  0.1180000E+00
       11   -1    0    0    0    0  0.00000000000E+00  0.00000000000E+00  0.39999999673E+01  0.40000000000E+01  0.51109989000E-03 0. -1.
     -623   -1    0    0    0    0  0.00000000000E+00  0.00000000000E+00  0.12525980253E-10  0.17130000000E+03  0.17130000000E+03 0. -1.
       11    1    1    2    0    0  0.65456403287E-02  0.90502634214E-03  0.67480013540E+00  0.67483268181E+00  0.51109989000E-03 0. -1.
     -623    1    1    2    0    0  0.25492890447E-03 -0.75185551218E-04  0.17490639669E-03  0.17130000000E+03  0.17130000000E+03 0. -1.
      622    1    1    2    0    0 -0.68005692332E-02 -0.82984079090E-03  0.33250249269E+01  0.33251673192E+01  0.30000000000E-01 0.  0.
</event>
<event>
 5   0  0.4961200E+08  0.9118800E+02  0.7818608E-02  0.1180000E+00
       11   -1    0    0    0    0  0.00000000000E+00  0.00000000000E+00  0.39999999673E+01  0.40000000000E+01  0.51109989000E-03 0. -1.
     -623   -1    0    0    0    0  0.00000000000E+00  0.00000000000E+00  0.12525980253E-10  0.17130000000E+03  0.17130000000E+03 0. -1.
       11    1    1    2    0    0 -0.32039472532E-03  0.10163360514E-02  0.34162172780E-01  0.34182610549E-01  0.51109989000E-03 0. -1.
     -623    1    1    2    0    0 -0.10250821352E-03 -0.30657773307E-04  0.13402155424E-03  0.17130000000E+03  0.17130000000E+03 0. -1.
      622    1    1    2    0    0  0.42290293894E-03 -0.98567827803E-03  0.39657037769E+01  0.39658173932E+01  0.30000000000E-01 0. -1.
</event>
<event>
 5   0  0.4961200E+08  0.9118800E+02  0.7818608E-02  0.1180000E+00
       11   -1    0    0    0    0  0.00000000000E+00  0.00000000000E+00  0.39999999673E+01  0.40000000000E+01  0.51109989000E-03 0.  1.
     -623   -1    0    0    0    0  0.00000000000E+00  0.00000000000E+00  0.12525980253E-10  0.17130000000E+03  0.17130000000E+03 0.  1.
       11    1    1    2    0    0  0.31644064611E-02 -0.74608549995E-02  0.42705096107E+00  0.42712815688E+00  0.51109989000E-03 0.  1.
     -623    1    1    2    0    0  0.19866239145E-02 -0.96587624651E-04  0.21483260230E-03  0.17130000001E+03  0.17130000000E+03 0.  1.
      622    1    1    2    0    0 -0.51510303764E-02  0.75574426242E-02  0.35727341754E+01  0.35728718331E+01  0.30000000000E-01 0.  1.
</event>
<event>
 5   0  0.4961200E+08  0.9118800E+02  0.7818608E-02  0.1180000E+00
       11   -1    0    0    0    0  0.00000000000E+00  0.00000000000E+00  0.39999999673E+01  0.40000000000E+01  0.51109989000E-03 0.  1.
     -623   -1    0    0    0    0  0.00000000000E+00  0.00000000000E+00  0.12525980253E-10  0.17130000000E+03  0.17130000000E+03 0. -1.
       11    1    1    2    0    0 -0.63631295833E-03 -0.95437065927E-04  0.21626712477E-02  0.23135194915E-02  0.51109989000E-03 0.  1.
     -623    1    1    2    0    0  0.11936715767E-02  0.34724066972E-04  0.26342597476E-03  0.17130000000E+03  0.17130000000E+03 0. -1.
      622    1    1    2    0    0 -0.55735861828E-03  0.60712998957E-04  0.39975738699E+01  0.39976864759E+01  0.30000000000E-01 0.  1.
</event>
<event>
 5   0  0.4961200E+08  0.9118800E+02  0.7818608E-02  0.1180000E+00
       11   -1    0    0    0    0  0.00000000000E+00  0.00000000000E+00  0.39999999673E+01  0.40000000000E+01  0.51109989000E-03 0.  1.
     -623   -1    0    0    0    0  0.00000000000E+00  0.00000000000E+00  0.12525980253E-10  0.17130000000E+03  0.17130000000E+03 0.  1.
       11    1    1    2    0    0 -0.32313360852E-02  0.21116373517E-02  0.89121596449E-01  0.89206618143E-01  0.51109989000E-03 0.  1.
     -623    1    1    2    0    0  0.44407078556E-03  0.12051442963E-02  0.20246167315E-03  0.17130000000E+03  0.17130000000E+03 0.  1.
      622    1    1    2    0    0  0.27872652996E-02 -0.33167816480E-02  0.39106759092E+01  0.39107933769E+01  0.30000000000E-01 0.  1.
</event>
<event>
 5   0  0.4961200E+08  0.9118800E+02  0.7818608E-02  0.1180000E+00
       11   -1    0    0    0    0  0.00000000000E+00  0.00000000000E+00  0.39999999673E+01  0.40000000000E+01  0.51109989000E-03 0.  1.
     -623   -1    0    0    0    0  0.00000000000E+00  0.00000000000E+00  0.12525980253E-10  0.17130000000E+03  0.17130000000E+03 0.  1.
       11    1    1    2    0    0 -0.27682043611E-03  0.21243504585E-02  0.29344813515E-01  0.29427347752E-01  0.51109989000E-03 0.  1.
     -623    1    1    2    0    0 -0.68941805613E-03 -0.84370156312E-02  0.20118212953E-03  0.17130000021E+03  0.17130000000E+03 0.  1.
      622    1    1    2    0    0  0.96623849224E-03  0.63126651727E-02  0.39704539717E+01  0.39705724430E+01  0.30000000000E-01 0.  1.
</event>
<event>
 5   0  0.4961200E+08  0.9118800E+02  0.7818608E-02  0.1180000E+00
       11   -1    0    0    0    0  0.00000000000E+00  0.00000000000E+00  0.39999999673E+01  0.40000000000E+01  0.51109989000E-03 0.  1.
     -623   -1    0    0    0    0  0.00000000000E+00  0.00000000000E+00  0.12525980253E-10  0.17130000000E+03  0.17130000000E+03 0. -1.
       11    1    1    2    0    0  0.16264339443E-02 -0.50630950747E-02  0.25049780514E+00  0.25055476811E+00  0.51109989000E-03 0.  1.
     -623    1    1    2    0    0 -0.30443197868E-03  0.12570517202E-04  0.18058509196E-03  0.17130000000E+03  0.17130000000E+03 0. -1.
      622    1    1    2    0    0 -0.13220019655E-02  0.50505245575E-02  0.37493215777E+01  0.37494452321E+01  0.30000000000E-01 0.  1.
</event>
<event>
 5   0  0.4961200E+08  0.9118800E+02  0.7818608E-02  0.1180000E+00
       11   -1    0    0    0    0  0.00000000000E+00  0.00000000000E+00  0.39999999673E+01  0.40000000000E+01  0.51109989000E-03 0. -1.
     -623   -1    0    0    0    0  0.00000000000E+00  0.00000000000E+00  0.12525980253E-10  0.17130000000E+03  0.17130000000E+03 0.  1.
       11    1    1    2    0    0  0.40877540343E-02 -0.15541039654E-02  0.14896422960E-01  0.15533499643E-01  0.51109989000E-03 0. -1.
     -623    1    1    2    0    0 -0.10194854814E-02  0.29316603894E-02  0.75143353989E-03  0.17130000003E+03  0.17130000000E+03 0.  1.
      622    1    1    2    0    0 -0.30682685528E-02 -0.13775564240E-02  0.39843521109E+01  0.39844664706E+01  0.30000000000E-01 0. -1.
</event>
<event>
 5   0  0.4961200E+08  0.9118800E+02  0.7818608E-02  0.1180000E+00
       11   -1    0    0    0    0  0.00000000000E+00  0.00000000000E+00  0.39999999673E+01  0.40000000000E+01  0.51109989000E-03 0.  1.
     -623   -1    0    0    0    0  0.00000000000E+00  0.00000000000E+00  0.12525980253E-10  0.17130000000E+03  0.17130000000E+03 0. -1.
       11    1    1    2    0    0 -0.13463881821E-01 -0.84861232656E-02  0.11404974567E+01  0.11406086096E+01  0.51109989000E-03 0.  1.
     -623    1    1    2    0    0  0.27881373645E-01  0.18041028443E-01  0.32403560879E-03  0.17130000322E+03  0.17130000000E+03 0. -1.
      622    1    1    2    0    0 -0.14417491824E-01 -0.95549051774E-02  0.28591784751E+01  0.28593881711E+01  0.30000000000E-01 0.  1.
</event>
<event>
 5   0  0.4961200E+08  0.9118800E+02  0.7818608E-02  0.1180000E+00
       11   -1    0    0    0    0  0.00000000000E+00  0.00000000000E+00  0.39999999673E+01  0.40000000000E+01  0.51109989000E-03 0.  1.
     -623   -1    0    0    0    0  0.00000000000E+00  0.00000000000E+00  0.12525980253E-10  0.17130000000E+03  0.17130000000E+03 0.  1.
       11    1    1    2    0    0 -0.82436725916E-02 -0.14854376983E-01  0.31100852904E+00  0.31147259432E+00  0.51109989000E-03 0.  1.
     -623    1    1    2    0    0  0.30177998750E-03 -0.50249355304E-03  0.62655676683E-03  0.17130000000E+03  0.17130000000E+03 0.  1.
      622    1    1    2    0    0  0.79418926042E-02  0.15356870536E-01  0.36883648808E+01  0.36885274028E+01  0.30000000000E-01 0.  1.
</event>
<event>
 5   0  0.4961200E+08  0.9118800E+02  0.7818608E-02  0.1180000E+00
       11   -1    0    0    0    0  0.00000000000E+00  0.00000000000E+00  0.39999999673E+01  0.40000000000E+01  0.51109989000E-03 0.  1.
     -623   -1    0    0    0    0  0.00000000000E+00  0.00000000000E+00  0.12525980253E-10  0.17130000000E+03  0.17130000000E+03 0.  1.
       11    1    1    2    0    0  0.47059657532E-01  0.19765666468E-01  0.67549420716E+00  0.67742008980E+00  0.51109989000E-03 0.  1.
     -623    1    1    2    0    0 -0.35976839392E-01 -0.35715764245E-01  0.21255757228E-02  0.17130000751E+03  0.17130000000E+03 0.  1.
      622    1    1    2    0    0 -0.11082818140E-01  0.15950097777E-01  0.33223801845E+01  0.33225723957E+01  0.30000000000E-01 0.  1.
</event>
<event>
 5   0  0.4961200E+08  0.9118800E+02  0.7818608E-02  0.1180000E+00
       11   -1    0    0    0    0  0.00000000000E+00  0.00000000000E+00  0.39999999673E+01  0.40000000000E+01  0.51109989000E-03 0.  1.
     -623   -1    0    0    0    0  0.00000000000E+00  0.00000000000E+00  0.12525980253E-10  0.17130000000E+03  0.17130000000E+03 0. -1.
       11    1    1    2    0    0  0.42618779931E-02 -0.13698104953E-02  0.85420721096E-01  0.85539469255E-01  0.51109989000E-03 0.  1.
     -623    1    1    2    0    0 -0.30950436249E-02  0.26541278457E-03  0.23403361340E-03  0.17130000003E+03  0.17130000000E+03 0. -1.
      622    1    1    2    0    0 -0.11668343670E-02  0.11043977107E-02  0.39143452142E+01  0.39144605040E+01  0.30000000000E-01 0.  1.
</event>
<event>
 5   0  0.4961200E+08  0.9118800E+02  0.7818608E-02  0.1180000E+00
       11   -1    0    0    0    0  0.00000000000E+00  0.00000000000E+00  0.39999999673E+01  0.40000000000E+01  0.51109989000E-03 0.  1.
     -623   -1    0    0    0    0  0.00000000000E+00  0.00000000000E+00  0.12525980253E-10  0.17130000000E+03  0.17130000000E+03 0.  1.
       11    1    1    2    0    0  0.96815241306E-02 -0.31537617220E-02  0.27216477547E+00  0.27235565783E+00  0.51109989000E-03 0.  1.
     -623    1    1    2    0    0 -0.11045971486E-02  0.29288214022E-02  0.32147467653E-03  0.17130000003E+03  0.17130000000E+03 0.  1.
      622    1    1    2    0    0 -0.85769269821E-02  0.22494031974E-03  0.37275137172E+01  0.37276443133E+01  0.30000000000E-01 0.  1.
</event>
<event>
 5   0  0.4961200E+08  0.9118800E+02  0.7818608E-02  0.1180000E+00
       11   -1    0    0    0    0  0.00000000000E+00  0.00000000000E+00  0.39999999673E+01  0.40000000000E+01  0.51109989000E-03 0.  1.
     -623   -1    0    0    0    0  0.00000000000E+00  0.00000000000E+00  0.12525980253E-10  0.17130000000E+03  0.17130000000E+03 0. -1.
       11    1    1    2    0    0  0.43932650257E-02 -0.10219535879E-01  0.89604621562E+00  0.89611540632E+00  0.51109989000E-03 0.  1.
     -623    1    1    2    0    0 -0.36035706309E-02  0.82078734515E-03  0.22851223270E-03  0.17130000004E+03  0.17130000000E+03 0. -1.
      622    1    1    2    0    0 -0.78969439453E-03  0.93987485336E-02  0.31037252399E+01  0.31038845540E+01  0.30000000000E-01 0.  1.
</event>
<event>
 5   0  0.4961200E+08  0.9118800E+02  0.7818608E-02  0.1180000E+00
       11   -1    0    0    0    0  0.00000000000E+00  0.00000000000E+00  0.39999999673E+01  0.40000000000E+01  0.51109989000E-03 0. -1.
     -623   -1    0    0    0    0  0.00000000000E+00  0.00000000000E+00  0.12525980253E-10  0.17130000000E+03  0.17130000000E+03 0.  1.
       11    1    1    2    0    0  0.27310901812E-02  0.17920847531E-02  0.64383545524E-01  0.64468384334E-01  0.51109989000E-03 0. -1.
     -623    1    1    2    0    0  0.57115750059E-03  0.12904521202E-02  0.20174935966E-03  0.17130000001E+03  0.17130000000E+03 0.  1.
      622    1    1    2    0    0 -0.33022476815E-02 -0.30825368729E-02  0.39354146709E+01  0.39355316081E+01  0.30000000000E-01 0. -1.
</event>
<event>
 5   0  0.4961200E+08  0.9118800E+02  0.7818608E-02  0.1180000E+00
       11   -1    0    0    0    0  0.00000000000E+00  0.00000000000E+00  0.39999999673E+01  0.40000000000E+01  0.51109989000E-03 0.  1.
     -623   -1    0    0    0    0  0.00000000000E+00  0.00000000000E+00  0.12525980253E-10  0.17130000000E+03  0.17130000000E+03 0. -1.
       11    1    1    2    0    0  0.58675480798E-02  0.47839125200E-02  0.80951513247E+00  0.80955069320E+00  0.51109989000E-03 0.  1.
     -623    1    1    2    0    0 -0.17765207337E-04 -0.97231880083E-04  0.18538287837E-03  0.17130000000E+03  0.17130000000E+03 0. -1.
      622    1    1    2    0    0 -0.58497828725E-02 -0.46866806399E-02  0.31902994538E+01  0.31904493085E+01  0.30000000000E-01 0.  1.
</event>
<event>
 5   0  0.4961200E+08  0.9118800E+02  0.7818608E-02  0.1180000E+00
       11   -1    0    0    0    0  0.00000000000E+00  0.00000000000E+00  0.39999999673E+01  0.40000000000E+01  0.51109989000E-03 0. -1.
     -623   -1    0    0    0    0  0.00000000000E+00  0.00000000000E+00  0.12525980253E-10  0.17130000000E+03  0.17130000000E+03 0. -1.
       11    1    1    2    0    0  0.72448232637E-03 -0.21146988394E-02  0.19601913423E-01  0.19735578501E-01  0.51109989000E-03 0. -1.
     -623    1    1    2    0    0 -0.55490839059E-03  0.24913171769E-02  0.24673248309E-03  0.17130000002E+03  0.17130000000E+03 0. -1.
      622    1    1    2    0    0 -0.16957393575E-03 -0.37661833762E-03  0.39801513216E+01  0.39802644025E+01  0.30000000000E-01 0. -1.
</event>
<event>
 5   0  0.4961200E+08  0.9118800E+02  0.7818608E-02  0.1180000E+00
       11   -1    0    0    0    0  0.00000000000E+00  0.00000000000E+00  0.39999999673E+01  0.40000000000E+01  0.51109989000E-03 0.  1.
     -623   -1    0    0    0    0  0.00000000000E+00  0.00000000000E+00  0.12525980253E-10  0.17130000000E+03  0.17130000000E+03 0. -1.
       11    1    1    2    0    0 -0.53006913786E-02  0.10970318993E-01  0.25550086150E+00  0.25579170564E+00  0.51109989000E-03 0.  1.
     -623    1    1    2    0    0  0.76105907714E-02 -0.52041054218E-02  0.41640045611E-03  0.17130000025E+03  0.17130000000E+03 0. -1.
      622    1    1    2    0    0 -0.23098993928E-02 -0.57662135711E-02  0.37440827054E+01  0.37442080457E+01  0.30000000000E-01 0.  1.
</event>
<event>
 5   0  0.4961200E+08  0.9118800E+02  0.7818608E-02  0.1180000E+00
       11   -1    0    0    0    0  0.00000000000E+00  0.00000000000E+00  0.39999999673E+01  0.40000000000E+01  0.51109989000E-03 0.  1.
     -623   -1    0    0    0    0  0.00000000000E+00  0.00000000000E+00  0.12525980253E-10  0.17130000000E+03  0.17130000000E+03 0.  1.
       11    1    1    2    0    0 -0.23394607742E-01 -0.92500196346E-02  0.27683940930E+00  0.27798055741E+00  0.51109989000E-03 0.  1.
     -623    1    1    2    0    0 -0.19009652902E-02 -0.50324910594E-03  0.13607764348E-02  0.17130000002E+03  0.17130000000E+03 0.  1.
      622    1    1    2    0    0  0.25295573032E-01  0.97532687406E-02  0.37217997816E+01  0.37220194259E+01  0.30000000000E-01 0.  1.
</event>
<event>
 5   0  0.4961200E+08  0.9118800E+02  0.7818608E-02  0.1180000E+00
       11   -1    0    0    0    0  0.00000000000E+00  0.00000000000E+00  0.39999999673E+01  0.40000000000E+01  0.51109989000E-03 0. -1.
     -623   -1    0    0    0    0  0.00000000000E+00  0.00000000000E+00  0.12525980253E-10  0.17130000000E+03  0.17130000000E+03 0.  1.
       11    1    1    2    0    0 -0.21961655231E-02  0.25071723537E-03  0.77206365669E-01  0.77239692679E-01  0.51109989000E-03 0. -1.
     -623    1    1    2    0    0  0.13980559497E-03  0.12502822744E-02  0.14884205101E-03  0.17130000000E+03  0.17130000000E+03 0.  1.
      622    1    1    2    0    0  0.20563599281E-02 -0.15009995097E-02  0.39226447597E+01  0.39227603027E+01  0.30000000000E-01 0. -1.
</event>
<event>
 5   0  0.4961200E+08  0.9118800E+02  0.7818608E-02  0.1180000E+00
       11   -1    0    0    0    0  0.00000000000E+00  0.00000000000E+00  0.39999999673E+01  0.40000000000E+01  0.51109989000E-03 0. -1.
     -623   -1    0    0    0    0  0.00000000000E+00  0.00000000000E+00  0.12525980253E-10  0.17130000000E+03  0.17130000000E+03 0. -1.
       11    1    1    2    0    0  0.11648865614E-03 -0.43954969319E-01  0.10875540202E+01  0.10884420338E+01  0.51109989000E-03 0. -1.
     -623    1    1    2    0    0  0.21397265964E-02  0.31745532242E-01  0.10719754403E-02  0.17130000296E+03  0.17130000000E+03 0. -1.
      622    1    1    2    0    0 -0.22562152526E-02  0.12209437077E-01  0.29113739719E+01  0.29115550081E+01  0.30000000000E-01 0.  0.
</event>
<event>
 5   0  0.4961200E+08  0.9118800E+02  0.7818608E-02  0.1180000E+00
       11   -1    0    0    0    0  0.00000000000E+00  0.00000000000E+00  0.39999999673E+01  0.40000000000E+01  0.51109989000E-03 0. -1.
     -623   -1    0    0    0    0  0.00000000000E+00  0.00000000000E+00  0.12525980253E-10  0.17130000000E+03  0.17130000000E+03 0.  1.
       11    1    1    2    0    0  0.15092059565E-01 -0.11691123467E-01  0.11923487170E+01  0.11925016464E+01  0.51109989000E-03 0. -1.
     -623    1    1    2    0    0 -0.20262150556E-02 -0.91599709908E-03  0.37191511345E-03  0.17130000001E+03  0.17130000000E+03 0.  1.
      622    1    1    2    0    0 -0.13065844509E-01  0.12607120566E-01  0.28072793349E+01  0.28074983384E+01  0.30000000000E-01 0. -1.
</event>
<event>
 5   0  0.4961200E+08  0.9118800E+02  0.7818608E-02  0.1180000E+00
       11   -1    0    0    0    0  0.00000000000E+00  0.00000000000E+00  0.39999999673E+01  0.40000000000E+01  0.51109989000E-03 0. -1.
     -623   -1    0    0    0    0  0.00000000000E+00  0.00000000000E+00  0.12525980253E-10  0.17130000000E+03  0.17130000000E+03 0. -1.
       11    1    1    2    0    0 -0.15124790770E-01  0.20751110172E-01  0.10533939486E+01  0.10537069992E+01  0.51109989000E-03 0. -1.
     -623    1    1    2    0    0  0.72890637835E-03 -0.39495390729E-02  0.54888590991E-03  0.17130000005E+03  0.17130000000E+03 0. -1.
      622    1    1    2    0    0  0.14395884392E-01 -0.16801571099E-01  0.29460571332E+01  0.29462929533E+01  0.30000000000E-01 0.  1.
</event>
<event>
 5   0  0.4961200E+08  0.9118800E+02  0.7818608E-02  0.1180000E+00
       11   -1    0    0    0    0  0.00000000000E+00  0.00000000000E+00  0.39999999673E+01  0.40000000000E+01  0.51109989000E-03 0.  1.
     -623   -1    0    0    0    0  0.00000000000E+00  0.00000000000E+00  0.12525980253E-10  0.17130000000E+03  0.17130000000E+03 0. -1.
       11    1    1    2    0    0 -0.28197265397E-02  0.36418250783E-02  0.91087626830E-01  0.91205431484E-01  0.51109989000E-03 0.  1.
     -623    1    1    2    0    0 -0.42351923530E-02  0.72589008873E-04  0.24108300945E-03  0.17130000005E+03  0.17130000000E+03 0. -1.
      622    1    1    2    0    0  0.70549188926E-02 -0.37144140872E-02  0.39086712574E+01  0.39087945159E+01  0.30000000000E-01 0.  1.
</event>
<event>
 5   0  0.4961200E+08  0.9118800E+02  0.7818608E-02  0.1180000E+00
       11   -1    0    0    0    0  0.00000000000E+00  0.00000000000E+00  0.39999999673E+01  0.40000000000E+01  0.51109989000E-03 0. -1.
     -623   -1    0    0    0    0  0.00000000000E+00  0.00000000000E+00  0.12525980253E-10  0.17130000000E+03  0.17130000000E+03 0. -1.
       11    1    1    2    0    0 -0.13306949052E-02  0.19952306121E-02  0.12450402097E-01  0.12689579523E-01  0.51109989000E-03 0. -1.
     -623    1    1    2    0    0  0.19801057449E-02  0.11282779011E-02  0.35329627831E-03  0.17130000002E+03  0.17130000000E+03 0. -1.
      622    1    1    2    0    0 -0.64941083972E-03 -0.31235085131E-02  0.39871962690E+01  0.39873104050E+01  0.30000000000E-01 0. -1.
</event>
<event>
 5   0  0.4961200E+08  0.9118800E+02  0.7818608E-02  0.1180000E+00
       11   -1    0    0    0    0  0.00000000000E+00  0.00000000000E+00  0.39999999673E+01  0.40000000000E+01  0.51109989000E-03 0.  1.
     -623   -1    0    0    0    0  0.00000000000E+00  0.00000000000E+00  0.12525980253E-10  0.17130000000E+03  0.17130000000E+03 0.  1.
       11    1    1    2    0    0  0.11436330205E-02 -0.46034210453E-02  0.20598670740E-01  0.21143931500E-01  0.51109989000E-03 0.  1.
     -623    1    1    2    0    0  0.35044168632E-02  0.25997884217E-02  0.66160388817E-03  0.17130000006E+03  0.17130000000E+03 0.  1.
      622    1    1    2    0    0 -0.46480498837E-02  0.20036326236E-02  0.39787396927E+01  0.39788560116E+01  0.30000000000E-01 0.  1.
</event>
<event>
 5   0  0.4961200E+08  0.9118800E+02  0.7818608E-02  0.1180000E+00
       11   -1    0    0    0    0  0.00000000000E+00  0.00000000000E+00  0.39999999673E+01  0.40000000000E+01  0.51109989000E-03 0.  1.
     -623   -1    0    0    0    0  0.00000000000E+00  0.00000000000E+00  0.12525980253E-10  0.17130000000E+03  0.17130000000E+03 0. -1.
       11    1    1    2    0    0  0.88664432121E-03 -0.37652701565E-02  0.10185824018E+00  0.10193294714E+00  0.51109989000E-03 0.  1.
     -623    1    1    2    0    0 -0.54446368216E-02 -0.22160548358E-02  0.19747285605E-03  0.17130000010E+03  0.17130000000E+03 0. -1.
      622    1    1    2    0    0  0.45579925022E-02  0.59813249931E-02  0.38979442557E+01  0.38980669532E+01  0.30000000000E-01 0.  1.
</event>
<event>
 5   0  0.4961200E+08  0.9118800E+02  0.7818608E-02  0.1180000E+00
       11   -1    0    0    0    0  0.00000000000E+00  0.00000000000E+00  0.39999999673E+01  0.40000000000E+01  0.51109989000E-03 0. -1.
     -623   -1    0    0    0    0  0.00000000000E+00  0.00000000000E+00  0.12525980253E-10  0.17130000000E+03  0.17130000000E+03 0. -1.
       11    1    1    2    0    0  0.12529968908E-01 -0.87631164622E-02  0.63892337513E-01  0.65698434881E-01  0.51109989000E-03 0. -1.
     -623    1    1    2    0    0 -0.21483663172E-01  0.10786112240E-02  0.19395003173E-02  0.17130000136E+03  0.17130000000E+03 0. -1.
      622    1    1    2    0    0  0.89536942646E-02  0.76845052383E-02  0.39341681295E+01  0.39343002036E+01  0.30000000000E-01 0. -1.
</event>
<event>
 5   0  0.4961200E+08  0.9118800E+02  0.7818608E-02  0.1180000E+00
       11   -1    0    0    0    0  0.00000000000E+00  0.00000000000E+00  0.39999999673E+01  0.40000000000E+01  0.51109989000E-03 0.  1.
     -623   -1    0    0    0    0  0.00000000000E+00  0.00000000000E+00  0.12525980253E-10  0.17130000000E+03  0.17130000000E+03 0. -1.
       11    1    1    2    0    0  0.62700056346E-02 -0.53226429654E-02  0.26247739460E+00  0.26260671621E+00  0.51109989000E-03 0.  1.
     -623    1    1    2    0    0  0.21136209352E-02  0.49319746668E-03  0.26223332151E-03  0.17130000001E+03  0.17130000000E+03 0. -1.
      622    1    1    2    0    0 -0.83836265698E-02  0.48294454987E-02  0.37372603394E+01  0.37373932698E+01  0.30000000000E-01 0.  1.
</event>
<event>
 5   0  0.4961200E+08  0.9118800E+02  0.7818608E-02  0.1180000E+00
       11   -1    0    0    0    0  0.00000000000E+00  0.00000000000E+00  0.39999999673E+01  0.40000000000E+01  0.51109989000E-03 0.  1.
     -623   -1    0    0    0    0  0.00000000000E+00  0.00000000000E+00  0.12525980253E-10  0.17130000000E+03  0.17130000000E+03 0. -1.
       11    1    1    2    0    0 -0.12629091430E-02  0.60642886780E-02  0.38349981954E+00  0.38355018361E+00  0.51109989000E-03 0.  1.
     -623    1    1    2    0    0 -0.10646883892E-03 -0.18787986177E-04  0.18007760152E-03  0.17130000000E+03  0.17130000000E+03 0. -1.
      622    1    1    2    0    0  0.13693779820E-02 -0.60455006919E-02  0.36163200708E+01  0.36164498168E+01  0.30000000000E-01 0.  1.
</event>
<event>
 5   0  0.4961200E+08  0.9118800E+02  0.7818608E-02  0.1180000E+00
       11   -1    0    0    0    0  0.00000000000E+00  0.00000000000E+00  0.39999999673E+01  0.40000000000E+01  0.51109989000E-03 0.  1.
     -623   -1    0    0    0    0  0.00000000000E+00  0.00000000000E+00  0.12525980253E-10  0.17130000000E+03  0.17130000000E+03 0. -1.
       11    1    1    2    0    0  0.86106527912E-02 -0.12383499376E-01  0.11632746426E+01  0.11633725327E+01  0.51109989000E-03 0.  1.
     -623    1    1    2    0    0 -0.28069371859E-02 -0.18721478775E-02  0.29829557049E-03  0.17130000003E+03  0.17130000000E+03 0. -1.
      622    1    1    2    0    0 -0.58037156052E-02  0.14255647254E-01  0.28364270293E+01  0.28366274340E+01  0.30000000000E-01 0.  1.
</event>
<event>
 5   0  0.4961200E+08  0.9118800E+02  0.7818608E-02  0.1180000E+00
       11   -1    0    0    0    0  0.00000000000E+00  0.00000000000E+00  0.39999999673E+01  0.40000000000E+01  0.51109989000E-03 0. -1.
     -623   -1    0    0    0    0  0.00000000000E+00  0.00000000000E+00  0.12525980253E-10  0.17130000000E+03  0.17130000000E+03 0.  1.
       11    1    1    2    0    0  0.15848337784E-02  0.50961392584E-02  0.27073393817E+00  0.27078701747E+00  0.51109989000E-03 0. -1.
     -623    1    1    2    0    0 -0.30766822805E-03  0.13448565018E-03  0.17760501453E-03  0.17130000000E+03  0.17130000000E+03 0.  1.
      622    1    1    2    0    0 -0.12771655504E-02 -0.52306249086E-02  0.37290884242E+01  0.37292129821E+01  0.30000000000E-01 0. -1.
</event>
<event>
 5   0  0.4961200E+08  0.9118800E+02  0.7818608E-02  0.1180000E+00
       11   -1    0    0    0    0  0.00000000000E+00  0.00000000000E+00  0.39999999673E+01  0.40000000000E+01  0.51109989000E-03 0.  1.
     -623   -1    0    0    0    0  0.00000000000E+00  0.00000000000E+00  0.12525980253E-10  0.17130000000E+03  0.17130000000E+03 0. -1.
       11    1    1    2    0    0 -0.39962335468E-02  0.17636520425E-02  0.99762425846E-01  0.99859316961E-01  0.51109989000E-03 0.  1.
     -623    1    1    2    0    0  0.14754991223E-02  0.27833839527E-03  0.21359654939E-03  0.17130000001E+03  0.17130000000E+03 0. -1.
      622    1    1    2    0    0  0.25207344245E-02 -0.20419904377E-02  0.39000239450E+01  0.39001406763E+01  0.30000000000E-01 0.  1.
</event>
<event>
 5   0  0.4961200E+08  0.9118800E+02  0.7818608E-02  0.1180000E+00
       11   -1    0    0    0    0  0.00000000000E+00  0.00000000000E+00  0.39999999673E+01  0.40000000000E+01  0.51109989000E-03 0.  1.
     -623   -1    0    0    0    0  0.00000000000E+00  0.00000000000E+00  0.12525980253E-10  0.17130000000E+03  0.17130000000E+03 0.  1.
       11    1    1    2    0    0  0.98532236765E-02 -0.54176929897E-02  0.97387854887E+00  0.97394359518E+00  0.51109989000E-03 0.  1.
     -623    1    1    2    0    0 -0.10094413530E-01 -0.35819133541E-02  0.22745364440E-03  0.17130000034E+03  0.17130000000E+03 0.  1.
      622    1    1    2    0    0  0.24118985362E-03  0.89996063438E-02  0.30258939648E+01  0.30260560698E+01  0.30000000000E-01 0.  1.
</event>
<event>
 5   0  0.4961200E+08  0.9118800E+02  0.7818608E-02  0.1180000E+00
       11   -1    0    0    0    0  0.00000000000E+00  0.00000000000E+00  0.39999999673E+01  0.40000000000E+01  0.51109989000E-03 0.  1.
     -623   -1    0    0    0    0  0.00000000000E+00  0.00000000000E+00  0.12525980253E-10  0.17130000000E+03  0.17130000000E+03 0.  1.
       11    1    1    2    0    0  0.12436504685E-02  0.12687826663E-01  0.28291118276E+00  0.28319873970E+00  0.51109989000E-03 0.  1.
     -623    1    1    2    0    0  0.74935170152E-03  0.50468624210E-03  0.43254916878E-03  0.17130000000E+03  0.17130000000E+03 0.  1.
      622    1    1    2    0    0 -0.19930021699E-02 -0.13192512905E-01  0.37166562349E+01  0.37168012568E+01  0.30000000000E-01 0.  1.
</event>
<event>
 5   0  0.4961200E+08  0.9118800E+02  0.7818608E-02  0.1180000E+00
       11   -1    0    0    0    0  0.00000000000E+00  0.00000000000E+00  0.39999999673E+01  0.40000000000E+01  0.51109989000E-03 0.  1.
     -623   -1    0    0    0    0  0.00000000000E+00  0.00000000000E+00  0.12525980253E-10  0.17130000000E+03  0.17130000000E+03 0. -1.
       11    1    1    2    0    0 -0.15434773288E-01 -0.30988339696E-01  0.61233789594E+00  0.61331596217E+00  0.51109989000E-03 0.  1.
     -623    1    1    2    0    0  0.29223461729E-02  0.18205184871E-01  0.11591474124E-02  0.17130000100E+03  0.17130000000E+03 0. -1.
      622    1    1    2    0    0  0.12512427115E-01  0.12783154824E-01  0.33865029240E+01  0.33866830416E+01  0.30000000000E-01 0.  1.
</event>
<event>
 5   0  0.4961200E+08  0.9118800E+02  0.7818608E-02  0.1180000E+00
       11   -1    0    0    0    0  0.00000000000E+00  0.00000000000E+00  0.39999999673E+01  0.40000000000E+01  0.51109989000E-03 0.  1.
     -623   -1    0    0    0    0  0.00000000000E+00  0.00000000000E+00  0.12525980253E-10  0.17130000000E+03  0.17130000000E+03 0.  1.
       11    1    1    2    0    0 -0.78810863389E-02 -0.35612841863E-02  0.11956573786E+00  0.11987919402E+00  0.51109989000E-03 0.  1.
     -623    1    1    2    0    0 -0.64838488262E-02 -0.98864919393E-02  0.47970610910E-03  0.17130000041E+03  0.17130000000E+03 0.  1.
      622    1    1    2    0    0  0.14364935165E-01  0.13447776126E-01  0.38799545234E+01  0.38801203973E+01  0.30000000000E-01 0.  1.
</event>
<event>
 5   0  0.4961200E+08  0.9118800E+02  0.7818608E-02  0.1180000E+00
       11   -1    0    0    0    0  0.00000000000E+00  0.00000000000E+00  0.39999999673E+01  0.40000000000E+01  0.51109989000E-03 0.  1.
     -623   -1    0    0    0    0  0.00000000000E+00  0.00000000000E+00  0.12525980253E-10  0.17130000000E+03  0.17130000000E+03 0. -1.
       11    1    1    2    0    0 -0.58176397227E-02 -0.11261798114E-01  0.11736060965E+01  0.11736746585E+01  0.51109989000E-03 0.  1.
     -623    1    1    2    0    0  0.43500965053E-03 -0.17964019262E-03  0.25603768807E-03  0.17130000000E+03  0.17130000000E+03 0. -1.
      622    1    1    2    0    0  0.53826300722E-02  0.11441438307E-01  0.28261378331E+01  0.28263253406E+01  0.30000000000E-01 0.  1.
</event>
<event>
 5   0  0.4961200E+08  0.9118800E+02  0.7818608E-02  0.1180000E+00
       11   -1    0    0    0    0  0.00000000000E+00  0.00000000000E+00  0.39999999673E+01  0.40000000000E+01  0.51109989000E-03 0. -1.
     -623   -1    0    0    0    0  0.00000000000E+00  0.00000000000E+00  0.12525980253E-10  0.17130000000E+03  0.17130000000E+03 0. -1.
       11    1    1    2    0    0 -0.36583131205E-03 -0.21556610508E-02  0.22151338247E-01  0.22264853836E-01  0.51109989000E-03 0. -1.
     -623    1    1    2    0    0  0.11614352772E-02  0.25118970829E-03  0.22715402960E-03  0.17130000000E+03  0.17130000000E+03 0. -1.
      622    1    1    2    0    0 -0.79560396514E-03  0.19044713425E-02  0.39776214752E+01  0.39777351420E+01  0.30000000000E-01 0. -1.
</event>
<event>
 5   0  0.4961200E+08  0.9118800E+02  0.7818608E-02  0.1180000E+00
       11   -1    0    0    0    0  0.00000000000E+00  0.00000000000E+00  0.39999999673E+01  0.40000000000E+01  0.51109989000E-03 0. -1.
     -623   -1    0    0    0    0  0.00000000000E+00  0.00000000000E+00  0.12525980253E-10  0.17130000000E+03  0.17130000000E+03 0. -1.
       11    1    1    2    0    0  0.13868302324E-01  0.70089922489E-02  0.18101409122E+00  0.18168053893E+00  0.51109989000E-03 0. -1.
     -623    1    1    2    0    0 -0.36307041611E-03  0.21858609449E-03  0.81499745745E-03  0.17130000000E+03  0.17130000000E+03 0. -1.
      622    1    1    2    0    0 -0.13505231908E-01 -0.72275783434E-02  0.38181708789E+01  0.38183194588E+01  0.30000000000E-01 0. -1.
</event>
<event>
 5   0  0.4961200E+08  0.9118800E+02  0.7818608E-02  0.1180000E+00
       11   -1    0    0    0    0  0.00000000000E+00  0.00000000000E+00  0.39999999673E+01  0.40000000000E+01  0.51109989000E-03 0. -1.
     -623   -1    0    0    0    0  0.00000000000E+00  0.00000000000E+00  0.12525980253E-10  0.17130000000E+03  0.17130000000E+03 0.  1.
       11    1    1    2    0    0 -0.34563678850E-02  0.79483925528E-02  0.14697317121E+00  0.14722940501E+00  0.51109989000E-03 0. -1.
     -623    1    1    2    0    0  0.23942376606E-02  0.24754759533E-02  0.38728507523E-03  0.17130000004E+03  0.17130000000E+03 0.  1.
      622    1    1    2    0    0  0.10621302244E-02 -0.10423868506E-01  0.38526395111E+01  0.38527705599E+01  0.30000000000E-01 0. -1.
</event>
<event>
 5   0  0.4961200E+08  0.9118800E+02  0.7818608E-02  0.1180000E+00
       11   -1    0    0    0    0  0.00000000000E+00  0.00000000000E+00  0.39999999673E+01  0.40000000000E+01  0.51109989000E-03 0. -1.
     -623   -1    0    0    0    0  0.00000000000E+00  0.00000000000E+00  0.12525980253E-10  0.17130000000E+03  0.17130000000E+03 0.  1.
       11    1    1    2    0    0 -0.71252569353E-02 -0.56819121883E-02  0.29680493223E+00  0.29694525157E+00  0.51109989000E-03 0. -1.
     -623    1    1    2    0    0  0.11210648795E-01  0.29891427316E-02  0.26543588980E-03  0.17130000039E+03  0.17130000000E+03 0.  1.
      622    1    1    2    0    0 -0.40853918599E-02  0.26927694568E-02  0.37029295992E+01  0.37030543553E+01  0.30000000000E-01 0. -1.
</event>
<event>
 5   0  0.4961200E+08  0.9118800E+02  0.7818608E-02  0.1180000E+00
       11   -1    0    0    0    0  0.00000000000E+00  0.00000000000E+00  0.39999999673E+01  0.40000000000E+01  0.51109989000E-03 0. -1.
     -623   -1    0    0    0    0  0.00000000000E+00  0.00000000000E+00  0.12525980253E-10  0.17130000000E+03  0.17130000000E+03 0.  1.
       11    1    1    2    0    0 -0.85154858658E-03 -0.17417538051E-03  0.10035810748E+00  0.10036317268E+00  0.51109989000E-03 0. -1.
     -623    1    1    2    0    0  0.53539276131E-03 -0.10493432542E-02  0.12063848274E-03  0.17130000000E+03  0.17130000000E+03 0.  1.
      622    1    1    2    0    0  0.31615582527E-03  0.12235186347E-02  0.38995212214E+01  0.38996368232E+01  0.30000000000E-01 0. -1.
</event>
<event>
 5   0  0.4961200E+08  0.9118800E+02  0.7818608E-02  0.1180000E+00
       11   -1    0    0    0    0  0.00000000000E+00  0.00000000000E+00  0.39999999673E+01  0.40000000000E+01  0.51109989000E-03 0.  1.
     -623   -1    0    0    0    0  0.00000000000E+00  0.00000000000E+00  0.12525980253E-10  0.17130000000E+03  0.17130000000E+03 0. -1.
       11    1    1    2    0    0 -0.48262487819E-02 -0.22563355007E-02  0.65752314706E+00  0.65754492917E+00  0.51109989000E-03 0.  1.
     -623    1    1    2    0    0  0.13334253091E-02  0.15140347222E-02  0.15830318969E-03  0.17130000001E+03  0.17130000000E+03 0. -1.
      622    1    1    2    0    0  0.34928234726E-02  0.74230077815E-03  0.33423185180E+01  0.33424550598E+01  0.30000000000E-01 0.  1.
</event>
<event>
 5   0  0.4961200E+08  0.9118800E+02  0.7818608E-02  0.1180000E+00
       11   -1    0    0    0    0  0.00000000000E+00  0.00000000000E+00  0.39999999673E+01  0.40000000000E+01  0.51109989000E-03 0. -1.
     -623   -1    0    0    0    0  0.00000000000E+00  0.00000000000E+00  0.12525980253E-10  0.17130000000E+03  0.17130000000E+03 0.  1.
       11    1    1    2    0    0  0.20594975685E-02  0.24716844715E-02  0.18928539310E+00  0.18931342271E+00  0.51109989000E-03 0. -1.
     -623    1    1    2    0    0  0.57372185143E-03 -0.13570582755E-02  0.14716699287E-03  0.17130000001E+03  0.17130000000E+03 0.  1.
      622    1    1    2    0    0 -0.26332194204E-02 -0.11146261949E-02  0.38105674104E+01  0.38106865740E+01  0.30000000000E-01 0. -1.
</event>
<event>
 5   0  0.4961200E+08  0.9118800E+02  0.7818608E-02  0.1180000E+00
       11   -1    0    0    0    0  0.00000000000E+00  0.00000000000E+00  0.39999999673E+01  0.40000000000E+01  0.51109989000E-03 0.  1.
     -623   -1    0    0    0    0  0.00000000000E+00  0.00000000000E+00  0.12525980253E-10  0.17130000000E+03  0.17130000000E+03 0.  1.
       11    1    1    2    0    0 -0.29253772782E-03  0.44377809973E-03  0.31289869794E-02  0.32147005987E-02  0.51109989000E-03 0. -1.
     -623    1    1    2    0    0 -0.82062099008E-03 -0.10662853342E-03  0.19844440476E-03  0.17130000000E+03  0.17130000000E+03 0.  1.
      622    1    1    2    0    0  0.11131587180E-02 -0.33714956630E-03  0.39966725364E+01  0.39967852977E+01  0.30000000000E-01 0.  1.
</event>
<event>
 5   0  0.4961200E+08  0.9118800E+02  0.7818608E-02  0.1180000E+00
       11   -1    0    0    0    0  0.00000000000E+00  0.00000000000E+00  0.39999999673E+01  0.40000000000E+01  0.51109989000E-03 0. -1.
     -623   -1    0    0    0    0  0.00000000000E+00  0.00000000000E+00  0.12525980253E-10  0.17130000000E+03  0.17130000000E+03 0. -1.
       11    1    1    2    0    0 -0.64077069384E-02  0.62631574845E-03  0.13113180066E+00  0.13129075119E+00  0.51109989000E-03 0. -1.
     -623    1    1    2    0    0  0.20770466499E-02 -0.44774177470E-02  0.27964964072E-03  0.17130000007E+03  0.17130000000E+03 0. -1.
      622    1    1    2    0    0  0.43306602885E-02  0.38511019986E-02  0.38685885171E+01  0.38687091775E+01  0.30000000000E-01 0. -1.
</event>
<event>
 5   0  0.4961200E+08  0.9118800E+02  0.7818608E-02  0.1180000E+00
       11   -1    0    0    0    0  0.00000000000E+00  0.00000000000E+00  0.39999999673E+01  0.40000000000E+01  0.51109989000E-03 0. -1.
     -623   -1    0    0    0    0  0.00000000000E+00  0.00000000000E+00  0.12525980253E-10  0.17130000000E+03  0.17130000000E+03 0. -1.
       11    1    1    2    0    0  0.15536211362E-01  0.99773382148E-02  0.10056569455E+01  0.10058265628E+01  0.51109989000E-03 0. -1.
     -623    1    1    2    0    0  0.16252953248E-02 -0.16179963032E-01  0.37626223284E-03  0.17130000077E+03  0.17130000000E+03 0. -1.
      622    1    1    2    0    0 -0.17161506686E-01  0.62026248166E-02  0.29939667593E+01  0.29941726647E+01  0.30000000000E-01 0. -1.
</event>
<event>
 5   0  0.4961200E+08  0.9118800E+02  0.7818608E-02  0.1180000E+00
       11   -1    0    0    0    0  0.00000000000E+00  0.00000000000E+00  0.39999999673E+01  0.40000000000E+01  0.51109989000E-03 0.  1.
     -623   -1    0    0    0    0  0.00000000000E+00  0.00000000000E+00  0.12525980253E-10  0.17130000000E+03  0.17130000000E+03 0.  1.
       11    1    1    2    0    0  0.11105952890E-01 -0.99078151279E-02  0.21534747345E+00  0.21586176719E+00  0.51109989000E-03 0.  1.
     -623    1    1    2    0    0  0.29738672950E-02 -0.49990325071E-02  0.68883768061E-03  0.17130000010E+03  0.17130000000E+03 0.  1.
      622    1    1    2    0    0 -0.14079820185E-01  0.14906847635E-01  0.37839636563E+01  0.37841381327E+01  0.30000000000E-01 0.  1.
</event>
<event>
 5   0  0.4961200E+08  0.9118800E+02  0.7818608E-02  0.1180000E+00
       11   -1    0    0    0    0  0.00000000000E+00  0.00000000000E+00  0.39999999673E+01  0.40000000000E+01  0.51109989000E-03 0.  1.
     -623   -1    0    0    0    0  0.00000000000E+00  0.00000000000E+00  0.12525980253E-10  0.17130000000E+03  0.17130000000E+03 0.  1.
       11    1    1    2    0    0 -0.76742721306E-02 -0.41140530393E-02  0.27490211218E+00  0.27504045592E+00  0.51109989000E-03 0.  1.
     -623    1    1    2    0    0  0.16828152704E-03  0.21144982723E-02  0.26723251101E-03  0.17130000001E+03  0.17130000000E+03 0.  1.
      622    1    1    2    0    0  0.75059906035E-02  0.19995547663E-02  0.37248306240E+01  0.37249595321E+01  0.30000000000E-01 0.  1.
</event>
<event>
 5   0  0.4961200E+08  0.9118800E+02  0.7818608E-02  0.1180000E+00
       11   -1    0    0    0    0  0.00000000000E+00  0.00000000000E+00  0.39999999673E+01  0.40000000000E+01  0.51109989000E-03 0. -1.
     -623   -1    0    0    0    0  0.00000000000E+00  0.00000000000E+00  0.12525980253E-10  0.17130000000E+03  0.17130000000E+03 0.  1.
       11    1    1    2    0    0 -0.52412195075E-02 -0.72705624188E-02  0.53971908691E+00  0.53979374344E+00  0.51109989000E-03 0. -1.
     -623    1    1    2    0    0  0.10360880835E-01 -0.59455979305E-03  0.21771767932E-03  0.17130000031E+03  0.17130000000E+03 0.  1.
      622    1    1    2    0    0 -0.51196613322E-02  0.78651222121E-02  0.34600631646E+01  0.34602059439E+01  0.30000000000E-01 0. -1.
</event>
<event>
 5   0  0.4961200E+08  0.9118800E+02  0.7818608E-02  0.1180000E+00
       11   -1    0    0    0    0  0.00000000000E+00  0.00000000000E+00  0.39999999673E+01  0.40000000000E+01  0.51109989000E-03 0. -1.
     -623   -1    0    0    0    0  0.00000000000E+00  0.00000000000E+00  0.12525980253E-10  0.17130000000E+03  0.17130000000E+03 0. -1.
       11    1    1    2    0    0  0.16967339452E-02  0.53947523047E-03  0.12910175043E+00  0.12911503835E+00  0.51109989000E-03 0. -1.
     -623    1    1    2    0    0  0.55243995308E-04 -0.17178444122E-03  0.12992360242E-03  0.17130000000E+03  0.17130000000E+03 0. -1.
      622    1    1    2    0    0 -0.17519779406E-02 -0.36769078910E-03  0.38707682969E+01  0.38708849651E+01  0.30000000000E-01 0. -1.
</event>
<event>
 5   0  0.4961200E+08  0.9118800E+02  0.7818608E-02  0.1180000E+00
       11   -1    0    0    0    0  0.00000000000E+00  0.00000000000E+00  0.39999999673E+01  0.40000000000E+01  0.51109989000E-03 0. -1.
     -623   -1    0    0    0    0  0.00000000000E+00  0.00000000000E+00  0.12525980253E-10  0.17130000000E+03  0.17130000000E+03 0.  1.
       11    1    1    2    0    0 -0.58434373060E-02 -0.18096474367E-02  0.16053774455E+00  0.16065506289E+00  0.51109989000E-03 0. -1.
     -623    1    1    2    0    0 -0.89082001886E-03  0.74370960455E-02  0.24468938906E-03  0.17130000016E+03  0.17130000000E+03 0.  1.
      622    1    1    2    0    0  0.67342573251E-02 -0.56274486106E-02  0.38392175344E+01  0.38393447742E+01  0.30000000000E-01 0. -1.
</event>
<event>
 5   0  0.4961200E+08  0.9118800E+02  0.7818608E-02  0.1180000E+00
       11   -1    0    0    0    0  0.00000000000E+00  0.00000000000E+00  0.39999999673E+01  0.40000000000E+01  0.51109989000E-03 0.  1.
     -623   -1    0    0    0    0  0.00000000000E+00  0.00000000000E+00  0.12525980253E-10  0.17130000000E+03  0.17130000000E+03 0. -1.
       11    1    1    2    0    0  0.40324661127E-02 -0.63117229588E-02  0.73564021360E-01  0.73946095850E-01  0.51109989000E-03 0.  1.
     -623    1    1    2    0    0 -0.21840864486E-04  0.79618170214E-02  0.49924353156E-03  0.17130000019E+03  0.17130000000E+03 0. -1.
      622    1    1    2    0    0 -0.40106252482E-02 -0.16500940641E-02  0.39259367032E+01  0.39260537192E+01  0.30000000000E-01 0.  1.
</event>
<event>
 5   0  0.4961200E+08  0.9118800E+02  0.7818608E-02  0.1180000E+00
       11   -1    0    0    0    0  0.00000000000E+00  0.00000000000E+00  0.39999999673E+01  0.40000000000E+01  0.51109989000E-03 0.  1.
     -623   -1    0    0    0    0  0.00000000000E+00  0.00000000000E+00  0.12525980253E-10  0.17130000000E+03  0.17130000000E+03 0.  1.
       11    1    1    2    0    0  0.96794477054E-02  0.15093654081E-01  0.11811969471E+00  0.11947398713E+00  0.51109989000E-03 0.  1.
     -623    1    1    2    0    0 -0.52961870083E-02  0.17434411473E-01  0.16100154806E-02  0.17130000098E+03  0.17130000000E+03 0.  1.
      622    1    1    2    0    0 -0.43832606970E-02 -0.32528065554E-01  0.38802702572E+01  0.38805250362E+01  0.30000000000E-01 0.  1.
</event>
<event>
 5   0  0.4961200E+08  0.9118800E+02  0.7818608E-02  0.1180000E+00
       11   -1    0    0    0    0  0.00000000000E+00  0.00000000000E+00  0.39999999673E+01  0.40000000000E+01  0.51109989000E-03 0. -1.
     -623   -1    0    0    0    0  0.00000000000E+00  0.00000000000E+00  0.12525980253E-10  0.17130000000E+03  0.17130000000E+03 0.  1.
       11    1    1    2    0    0  0.60108353397E-02 -0.13312299608E-02  0.43722437470E+00  0.43726801549E+00  0.51109989000E-03 0. -1.
     -623    1    1    2    0    0 -0.13972933979E-02  0.11162037740E-02  0.17292111247E-03  0.17130000001E+03  0.17130000000E+03 0.  1.
      622    1    1    2    0    0 -0.46135419418E-02  0.21502618681E-03  0.35626026715E+01  0.35627319751E+01  0.30000000000E-01 0.  0.
</event>
<event>
 5   0  0.4961200E+08  0.9118800E+02  0.7818608E-02  0.1180000E+00
       11   -1    0    0    0    0  0.00000000000E+00  0.00000000000E+00  0.39999999673E+01  0.40000000000E+01  0.51109989000E-03 0. -1.
     -623   -1    0    0    0    0  0.00000000000E+00  0.00000000000E+00  0.12525980253E-10  0.17130000000E+03  0.17130000000E+03 0. -1.
       11    1    1    2    0    0  0.79893963144E-03 -0.33224969494E-03  0.52683518254E-01  0.52693102111E-01  0.51109989000E-03 0. -1.
     -623    1    1    2    0    0  0.30333609125E-03  0.17741982745E-03  0.12371198981E-03  0.17130000000E+03  0.17130000000E+03 0. -1.
      622    1    1    2    0    0 -0.11022757227E-02  0.15482986748E-03  0.39471927371E+01  0.39473068975E+01  0.30000000000E-01 0. -1.
</event>
<event>
 5   0  0.4961200E+08  0.9118800E+02  0.7818608E-02  0.1180000E+00
       11   -1    0    0    0    0  0.00000000000E+00  0.00000000000E+00  0.39999999673E+01  0.40000000000E+01  0.51109989000E-03 0. -1.
     -623   -1    0    0    0    0  0.00000000000E+00  0.00000000000E+00  0.12525980253E-10  0.17130000000E+03  0.17130000000E+03 0.  1.
       11    1    1    2    0    0  0.13528254475E-02 -0.15779357552E-02  0.21958701025E-01  0.22062769358E-01  0.51109989000E-03 0. -1.
     -623    1    1    2    0    0 -0.13106558968E-02  0.10363699207E-02  0.21720663485E-03  0.17130000001E+03  0.17130000000E+03 0.  1.
      622    1    1    2    0    0 -0.42169550320E-04  0.54156583422E-03  0.39778240610E+01  0.39779372237E+01  0.30000000000E-01 0. -1.
</event>
<event>
 5   0  0.4961200E+08  0.9118800E+02  0.7818608E-02  0.1180000E+00
       11   -1    0    0    0    0  0.00000000000E+00  0.00000000000E+00  0.39999999673E+01  0.40000000000E+01  0.51109989000E-03 0. -1.
     -623   -1    0    0    0    0  0.00000000000E+00  0.00000000000E+00  0.12525980253E-10  0.17130000000E+03  0.17130000000E+03 0.  1.
       11    1    1    2    0    0 -0.20758102232E-03 -0.35592904790E-03  0.20368186929E-02  0.21400067414E-02  0.51109989000E-03 0. -1.
     -623    1    1    2    0    0  0.18884073410E-03 -0.82542269846E-04  0.21574156244E-03  0.17130000000E+03  0.17130000000E+03 0.  1.
      622    1    1    2    0    0  0.18740288267E-04  0.43847131773E-03  0.39977474062E+01  0.39978599921E+01  0.30000000000E-01 0. -1.
</event>
<event>
 5   0  0.4961200E+08  0.9118800E+02  0.7818608E-02  0.1180000E+00
       11   -1    0    0    0    0  0.00000000000E+00  0.00000000000E+00  0.39999999673E+01  0.40000000000E+01  0.51109989000E-03 0. -1.
     -623   -1    0    0    0    0  0.00000000000E+00  0.00000000000E+00  0.12525980253E-10  0.17130000000E+03  0.17130000000E+03 0. -1.
       11    1    1    2    0    0 -0.75516029811E-02  0.37157061215E-01  0.10140317602E+01  0.10147405313E+01  0.51109989000E-03 0. -1.
     -623    1    1    2    0    0  0.23880419378E-02  0.73958508986E-03  0.11045340174E-02  0.17130000002E+03  0.17130000000E+03 0. -1.
      622    1    1    2    0    0  0.51635610433E-02 -0.37896646305E-01  0.29848636731E+01  0.29852594469E+01  0.30000000000E-01 0. -1.
</event>
<event>
 5   0  0.4961200E+08  0.9118800E+02  0.7818608E-02  0.1180000E+00
       11   -1    0    0    0    0  0.00000000000E+00  0.00000000000E+00  0.39999999673E+01  0.40000000000E+01  0.51109989000E-03 0.  1.
     -623   -1    0    0    0    0  0.00000000000E+00  0.00000000000E+00  0.12525980253E-10  0.17130000000E+03  0.17130000000E+03 0.  1.
       11    1    1    2    0    0 -0.16546912661E-03  0.11107022861E-03  0.11035757838E-01  0.11049384075E-01  0.51109989000E-03 0.  1.
     -623    1    1    2    0    0 -0.40984938606E-03  0.15170118754E-02  0.12678781926E-03  0.17130000001E+03  0.17130000000E+03 0.  1.
      622    1    1    2    0    0  0.57531851266E-03 -0.16280821040E-02  0.39888374217E+01  0.39889506087E+01  0.30000000000E-01 0.  1.
</event>
<event>
 5   0  0.4961200E+08  0.9118800E+02  0.7818608E-02  0.1180000E+00
       11   -1    0    0    0    0  0.00000000000E+00  0.00000000000E+00  0.39999999673E+01  0.40000000000E+01  0.51109989000E-03 0.  1.
     -623   -1    0    0    0    0  0.00000000000E+00  0.00000000000E+00  0.12525980253E-10  0.17130000000E+03  0.17130000000E+03 0.  1.
       11    1    1    2    0    0 -0.13129248439E-01  0.11086335486E-01  0.23247564336E+00  0.23311042443E+00  0.51109989000E-03 0.  1.
     -623    1    1    2    0    0  0.68697309209E-03  0.76407637965E-03  0.79340780686E-03  0.17130000000E+03  0.17130000000E+03 0.  1.
      622    1    1    2    0    0  0.12442275347E-01 -0.11850411865E-01  0.37667309163E+01  0.37668895708E+01  0.30000000000E-01 0.  1.
</event>
<event>
 5   0  0.4961200E+08  0.9118800E+02  0.7818608E-02  0.1180000E+00
       11   -1    0    0    0    0  0.00000000000E+00  0.00000000000E+00  0.39999999673E+01  0.40000000000E+01  0.51109989000E-03 0.  1.
     -623   -1    0    0    0    0  0.00000000000E+00  0.00000000000E+00  0.12525980253E-10  0.17130000000E+03  0.17130000000E+03 0.  1.
       11    1    1    2    0    0  0.27273371085E-02  0.10529971278E-01  0.61429064104E+00  0.61438715119E+00  0.51109989000E-03 0.  1.
     -623    1    1    2    0    0 -0.12321316255E-02 -0.16130643687E-02  0.24148087611E-03  0.17130000001E+03  0.17130000000E+03 0.  1.
      622    1    1    2    0    0 -0.14952054821E-02 -0.89169069086E-02  0.33854678480E+01  0.33856128391E+01  0.30000000000E-01 0.  0.
</event>
<event>
 5   0  0.4961200E+08  0.9118800E+02  0.7818608E-02  0.1180000E+00
       11   -1    0    0    0    0  0.00000000000E+00  0.00000000000E+00  0.39999999673E+01  0.40000000000E+01  0.51109989000E-03 0.  1.
     -623   -1    0    0    0    0  0.00000000000E+00  0.00000000000E+00  0.12525980253E-10  0.17130000000E+03  0.17130000000E+03 0.  1.
       11    1    1    2    0    0 -0.12982234394E-01 -0.20093414386E-02  0.21874118329E+00  0.21913589928E+00  0.51109989000E-03 0.  1.
     -623    1    1    2    0    0  0.40613391753E-03 -0.19168127164E-02  0.53667261607E-03  0.17130000001E+03  0.17130000000E+03 0.  1.
      622    1    1    2    0    0  0.12576100476E-01  0.39261541556E-02  0.37807221126E+01  0.37808640899E+01  0.30000000000E-01 0.  1.
</event>
<event>
 5   0  0.4961200E+08  0.9118800E+02  0.7818608E-02  0.1180000E+00
       11   -1    0    0    0    0  0.00000000000E+00  0.00000000000E+00  0.39999999673E+01  0.40000000000E+01  0.51109989000E-03 0.  1.
     -623   -1    0    0    0    0  0.00000000000E+00  0.00000000000E+00  0.12525980253E-10  0.17130000000E+03  0.17130000000E+03 0. -1.
       11    1    1    2    0    0  0.65343141911E-02 -0.33539738703E-03  0.20006405535E+00  0.20017166937E+00  0.51109989000E-03 0.  1.
     -623    1    1    2    0    0 -0.38560099695E-03 -0.57797669261E-03  0.23109592008E-03  0.17130000000E+03  0.17130000000E+03 0. -1.
      622    1    1    2    0    0 -0.61487131943E-02  0.91337407945E-03  0.37997048148E+01  0.37998283277E+01  0.30000000000E-01 0.  1.
</event>
<event>
 5   0  0.4961200E+08  0.9118800E+02  0.7818608E-02  0.1180000E+00
       11   -1    0    0    0    0  0.00000000000E+00  0.00000000000E+00  0.39999999673E+01  0.40000000000E+01  0.51109989000E-03 0. -1.
     -623   -1    0    0    0    0  0.00000000000E+00  0.00000000000E+00  0.12525980253E-10  0.17130000000E+03  0.17130000000E+03 0. -1.
       11    1    1    2    0    0  0.82165614788E-02  0.14629145899E-01  0.11362678757E+00  0.11486005341E+00  0.51109989000E-03 0. -1.
     -623    1    1    2    0    0  0.27649105836E-02 -0.39144663450E-02  0.13794290296E-02  0.17130000007E+03  0.17130000000E+03 0. -1.
      622    1    1    2    0    0 -0.10981472063E-01 -0.10714679554E-01  0.38849937510E+01  0.38851398743E+01  0.30000000000E-01 0. -1.
</event>
<event>
 5   0  0.4961200E+08  0.9118800E+02  0.7818608E-02  0.1180000E+00
       11   -1    0    0    0    0  0.00000000000E+00  0.00000000000E+00  0.39999999673E+01  0.40000000000E+01  0.51109989000E-03 0. -1.
     -623   -1    0    0    0    0  0.00000000000E+00  0.00000000000E+00  0.12525980253E-10  0.17130000000E+03  0.17130000000E+03 0.  1.
       11    1    1    2    0    0  0.51627738056E-02  0.78746102014E-03  0.73659087659E+00  0.73660956757E+00  0.51109989000E-03 0. -1.
     -623    1    1    2    0    0 -0.50600052084E-02 -0.52320456606E-02  0.15973776800E-03  0.17130000015E+03  0.17130000000E+03 0.  1.
      622    1    1    2    0    0 -0.10276859269E-03  0.44445846451E-02  0.32632493566E+01  0.32633902813E+01  0.30000000000E-01 0. -1.
</event>
<event>
 5   0  0.4961200E+08  0.9118800E+02  0.7818608E-02  0.1180000E+00
       11   -1    0    0    0    0  0.00000000000E+00  0.00000000000E+00  0.39999999673E+01  0.40000000000E+01  0.51109989000E-03 0. -1.
     -623   -1    0    0    0    0  0.00000000000E+00  0.00000000000E+00  0.12525980253E-10  0.17130000000E+03  0.17130000000E+03 0.  1.
       11    1    1    2    0    0  0.12629533172E-02 -0.66322975801E-03  0.34120261435E-01  0.34153892725E-01  0.51109989000E-03 0. -1.
     -623    1    1    2    0    0 -0.14361900487E-02  0.34128394931E-02  0.14806620127E-03  0.17130000004E+03  0.17130000000E+03 0.  1.
      622    1    1    2    0    0  0.17323673124E-03 -0.27496097345E-02  0.39657316390E+01  0.39658460665E+01  0.30000000000E-01 0. -1.
</event>
<event>
 5   0  0.4961200E+08  0.9118800E+02  0.7818608E-02  0.1180000E+00
       11   -1    0    0    0    0  0.00000000000E+00  0.00000000000E+00  0.39999999673E+01  0.40000000000E+01  0.51109989000E-03 0.  1.
     -623   -1    0    0    0    0  0.00000000000E+00  0.00000000000E+00  0.12525980253E-10  0.17130000000E+03  0.17130000000E+03 0. -1.
       11    1    1    2    0    0  0.18967278421E-03  0.28235120035E-03  0.27061735396E-01  0.27068698547E-01  0.51109989000E-03 0.  1.
     -623    1    1    2    0    0 -0.10906419229E-02  0.65870054988E-03  0.12041701804E-03  0.17130000000E+03  0.17130000000E+03 0. -1.
      622    1    1    2    0    0  0.90096913871E-03 -0.94105175023E-03  0.39728178149E+01  0.39729312967E+01  0.30000000000E-01 0.  1.
</event>
<event>
 5   0  0.4961200E+08  0.9118800E+02  0.7818608E-02  0.1180000E+00
       11   -1    0    0    0    0  0.00000000000E+00  0.00000000000E+00  0.39999999673E+01  0.40000000000E+01  0.51109989000E-03 0.  1.
     -623   -1    0    0    0    0  0.00000000000E+00  0.00000000000E+00  0.12525980253E-10  0.17130000000E+03  0.17130000000E+03 0. -1.
       11    1    1    2    0    0 -0.13308038916E-01 -0.20892936600E-02  0.72704966130E+00  0.72717462846E+00  0.51109989000E-03 0.  1.
     -623    1    1    2    0    0  0.46538147506E-03  0.75085766384E-03  0.28790812142E-03  0.17130000000E+03  0.17130000000E+03 0. -1.
      622    1    1    2    0    0  0.12842657441E-01  0.13384359961E-02  0.32726623979E+01  0.32728253690E+01  0.30000000000E-01 0.  1.
</event>
<event>
 5   0  0.4961200E+08  0.9118800E+02  0.7818608E-02  0.1180000E+00
       11   -1    0    0    0    0  0.00000000000E+00  0.00000000000E+00  0.39999999673E+01  0.40000000000E+01  0.51109989000E-03 0. -1.
     -623   -1    0    0    0    0  0.00000000000E+00  0.00000000000E+00  0.12525980253E-10  0.17130000000E+03  0.17130000000E+03 0. -1.
       11    1    1    2    0    0 -0.50842730338E-03  0.11480387984E-02  0.19227962551E-01  0.19275690864E-01  0.51109989000E-03 0. -1.
     -623    1    1    2    0    0 -0.33567109849E-03 -0.47583447782E-03  0.16088935119E-03  0.17130000000E+03  0.17130000000E+03 0. -1.
      622    1    1    2    0    0  0.84409840187E-03 -0.67220432061E-03  0.39806111155E+01  0.39807243081E+01  0.30000000000E-01 0. -1.
</event>
<event>
 5   0  0.4961200E+08  0.9118800E+02  0.7818608E-02  0.1180000E+00
       11   -1    0    0    0    0  0.00000000000E+00  0.00000000000E+00  0.39999999673E+01  0.40000000000E+01  0.51109989000E-03 0. -1.
     -623   -1    0    0    0    0  0.00000000000E+00  0.00000000000E+00  0.12525980253E-10  0.17130000000E+03  0.17130000000E+03 0.  1.
       11    1    1    2    0    0  0.52797739770E-03 -0.72819036218E-02  0.20084543396E-01  0.21376505491E-01  0.51109989000E-03 0. -1.
     -623    1    1    2    0    0  0.37625526740E-02 -0.52929257046E-02  0.14273506788E-02  0.17130000013E+03  0.17130000000E+03 0.  1.
      622    1    1    2    0    0 -0.42905300718E-02  0.12574829327E-01  0.39784880734E+01  0.39786233656E+01  0.30000000000E-01 0. -1.
</event>
<event>
 5   0  0.4961200E+08  0.9118800E+02  0.7818608E-02  0.1180000E+00
       11   -1    0    0    0    0  0.00000000000E+00  0.00000000000E+00  0.39999999673E+01  0.40000000000E+01  0.51109989000E-03 0. -1.
     -623   -1    0    0    0    0  0.00000000000E+00  0.00000000000E+00  0.12525980253E-10  0.17130000000E+03  0.17130000000E+03 0. -1.
       11    1    1    2    0    0 -0.13440298662E-02  0.44087926516E-02  0.10120484251E+00  0.10131103216E+00  0.51109989000E-03 0. -1.
     -623    1    1    2    0    0 -0.26901936677E-03 -0.39720729946E-04  0.22436437625E-03  0.17130000000E+03  0.17130000000E+03 0. -1.
      622    1    1    2    0    0  0.16130492330E-02 -0.43690719216E-02  0.38985707605E+01  0.38986889675E+01  0.30000000000E-01 0. -1.
</event>
<event>
 5   0  0.4961200E+08  0.9118800E+02  0.7818608E-02  0.1180000E+00
       11   -1    0    0    0    0  0.00000000000E+00  0.00000000000E+00  0.39999999673E+01  0.40000000000E+01  0.51109989000E-03 0. -1.
     -623   -1    0    0    0    0  0.00000000000E+00  0.00000000000E+00  0.12525980253E-10  0.17130000000E+03  0.17130000000E+03 0.  1.
       11    1    1    2    0    0  0.16722967273E-01  0.29606025339E-02  0.99391303708E+00  0.99405825247E+00  0.51109989000E-03 0. -1.
     -623    1    1    2    0    0  0.87355530741E-03 -0.12071044210E-02  0.34691555430E-03  0.17130000001E+03  0.17130000000E+03 0.  1.
      622    1    1    2    0    0 -0.17596522580E-01 -0.17534981129E-02  0.30057400147E+01  0.30059417407E+01  0.30000000000E-01 0. -1.
</event>
<event>
 5   0  0.4961200E+08  0.9118800E+02  0.7818608E-02  0.1180000E+00
       11   -1    0    0    0    0  0.00000000000E+00  0.00000000000E+00  0.39999999673E+01  0.40000000000E+01  0.51109989000E-03 0.  1.
     -623   -1    0    0    0    0  0.00000000000E+00  0.00000000000E+00  0.12525980253E-10  0.17130000000E+03  0.17130000000E+03 0. -1.
       11    1    1    2    0    0  0.60926550530E-02 -0.50654573452E-03  0.24132274022E+00  0.24140071086E+00  0.51109989000E-03 0.  1.
     -623    1    1    2    0    0 -0.44606490416E-02  0.22494570045E-02  0.19849676826E-03  0.17130000007E+03  0.17130000000E+03 0. -1.
      622    1    1    2    0    0 -0.16320060114E-02 -0.17429112700E-02  0.37584787304E+01  0.37585992162E+01  0.30000000000E-01 0.  1.
</event>
<event>
 5   0  0.4961200E+08  0.9118800E+02  0.7818608E-02  0.1180000E+00
       11   -1    0    0    0    0  0.00000000000E+00  0.00000000000E+00  0.39999999673E+01  0.40000000000E+01  0.51109989000E-03 0. -1.
     -623   -1    0    0    0    0  0.00000000000E+00  0.00000000000E+00  0.12525980253E-10  0.17130000000E+03  0.17130000000E+03 0. -1.
       11    1    1    2    0    0 -0.53290090686E-02 -0.15048050096E-01  0.81429309169E+00  0.81444971763E+00  0.51109989000E-03 0. -1.
     -623    1    1    2    0    0  0.35601671175E-02  0.44626368634E-03  0.33185550533E-03  0.17130000004E+03  0.17130000000E+03 0. -1.
      622    1    1    2    0    0  0.17688419503E-02  0.14601786410E-01  0.31853750210E+01  0.31855502453E+01  0.30000000000E-01 0.  1.
</event>
<event>
 5   0  0.4961200E+08  0.9118800E+02  0.7818608E-02  0.1180000E+00
       11   -1    0    0    0    0  0.00000000000E+00  0.00000000000E+00  0.39999999673E+01  0.40000000000E+01  0.51109989000E-03 0. -1.
     -623   -1    0    0    0    0  0.00000000000E+00  0.00000000000E+00  0.12525980253E-10  0.17130000000E+03  0.17130000000E+03 0. -1.
       11    1    1    2    0    0  0.22949987563E-02 -0.81352861957E-02  0.81206531891E+00  0.81210947126E+00  0.51109989000E-03 0. -1.
     -623    1    1    2    0    0  0.94026907926E-03  0.45140717853E-02  0.18904272927E-03  0.17130000006E+03  0.17130000000E+03 0. -1.
      622    1    1    2    0    0 -0.32352678356E-02  0.36212144104E-02  0.31877456057E+01  0.31878904666E+01  0.30000000000E-01 0. -1.
</event>
<event>
 5   0  0.4961200E+08  0.9118800E+02  0.7818608E-02  0.1180000E+00
       11   -1    0    0    0    0  0.00000000000E+00  0.00000000000E+00  0.39999999673E+01  0.40000000000E+01  0.51109989000E-03 0. -1.
     -623   -1    0    0    0    0  0.00000000000E+00  0.00000000000E+00  0.12525980253E-10  0.17130000000E+03  0.17130000000E+03 0.  1.
       11    1    1    2    0    0  0.79455161043E-03 -0.92800328491E-04  0.27153229542E-02  0.28764780559E-02  0.51109989000E-03 0. -1.
     -623    1    1    2    0    0 -0.65902934928E-03  0.30747837059E-02  0.27484874775E-03  0.17130000003E+03  0.17130000000E+03 0.  1.
      622    1    1    2    0    0 -0.13552226081E-03 -0.29819833789E-02  0.39970097977E+01  0.39971234949E+01  0.30000000000E-01 0. -1.
</event>
<event>
 5   0  0.4961200E+08  0.9118800E+02  0.7818608E-02  0.1180000E+00
       11   -1    0    0    0    0  0.00000000000E+00  0.00000000000E+00  0.39999999673E+01  0.40000000000E+01  0.51109989000E-03 0. -1.
     -623   -1    0    0    0    0  0.00000000000E+00  0.00000000000E+00  0.12525980253E-10  0.17130000000E+03  0.17130000000E+03 0.  1.
       11    1    1    2    0    0 -0.27181426352E-02 -0.36558565132E-02  0.49148293621E-01  0.49361620467E-01  0.51109989000E-03 0. -1.
     -623    1    1    2    0    0  0.10149244769E-02 -0.16618655060E-02  0.33115908070E-03  0.17130000001E+03  0.17130000000E+03 0.  1.
      622    1    1    2    0    0  0.17032181583E-02  0.53177220192E-02  0.39505205147E+01  0.39506383682E+01  0.30000000000E-01 0. -1.
</event>
<event>
 5   0  0.4961200E+08  0.9118800E+02  0.7818608E-02  0.1180000E+00
       11   -1    0    0    0    0  0.00000000000E+00  0.00000000000E+00  0.39999999673E+01  0.40000000000E+01  0.51109989000E-03 0.  1.
     -623   -1    0    0    0    0  0.00000000000E+00  0.00000000000E+00  0.12525980253E-10  0.17130000000E+03  0.17130000000E+03 0.  1.
       11    1    1    2    0    0  0.30433498794E-02  0.43959115241E-02  0.12350248925E+00  0.12361922217E+00  0.51109989000E-03 0.  1.
     -623    1    1    2    0    0  0.72820434627E-03 -0.23810015507E-02  0.23516646437E-03  0.17130000002E+03  0.17130000000E+03 0.  1.
      622    1    1    2    0    0 -0.37715542257E-02 -0.20149099731E-02  0.38762623121E+01  0.38763807601E+01  0.30000000000E-01 0.  1.
</event>
<event>
 5   0  0.4961200E+08  0.9118800E+02  0.7818608E-02  0.1180000E+00
       11   -1    0    0    0    0  0.00000000000E+00  0.00000000000E+00  0.39999999673E+01  0.40000000000E+01  0.51109989000E-03 0.  1.
     -623   -1    0    0    0    0  0.00000000000E+00  0.00000000000E+00  0.12525980253E-10  0.17130000000E+03  0.17130000000E+03 0.  1.
       11    1    1    2    0    0  0.19459223128E-02  0.30451821761E-03  0.99427016596E-04  0.20372662618E-02  0.51109989000E-03 0.  1.
     -623    1    1    2    0    0 -0.15730807935E-02  0.59974364989E-02  0.20554744522E-02  0.17130000012E+03  0.17130000000E+03 0.  1.
      622    1    1    2    0    0 -0.37284151929E-03 -0.63019547164E-02  0.39978450658E+01  0.39979626091E+01  0.30000000000E-01 0.  1.
</event>
<event>
 5   0  0.4961200E+08  0.9118800E+02  0.7818608E-02  0.1180000E+00
       11   -1    0    0    0    0  0.00000000000E+00  0.00000000000E+00  0.39999999673E+01  0.40000000000E+01  0.51109989000E-03 0.  1.
     -623   -1    0    0    0    0  0.00000000000E+00  0.00000000000E+00  0.12525980253E-10  0.17130000000E+03  0.17130000000E+03 0.  1.
       11    1    1    2    0    0 -0.65680785457E-03  0.29604139023E-03  0.14662017791E+00  0.14662283870E+00  0.51109989000E-03 0.  1.
     -623    1    1    2    0    0 -0.29407440849E-03 -0.39946778087E-03  0.11953007355E-03  0.17130000000E+03  0.17130000000E+03 0.  1.
      622    1    1    2    0    0  0.95088226306E-03  0.10342639065E-03  0.38532602594E+01  0.38533771605E+01  0.30000000000E-01 0.  1.
</event>
<event>
 5   0  0.4961200E+08  0.9118800E+02  0.7818608E-02  0.1180000E+00
       11   -1    0    0    0    0  0.00000000000E+00  0.00000000000E+00  0.39999999673E+01  0.40000000000E+01  0.51109989000E-03 0.  1.
     -623   -1    0    0    0    0  0.00000000000E+00  0.00000000000E+00  0.12525980253E-10  0.17130000000E+03  0.17130000000E+03 0.  1.
       11    1    1    2    0    0 -0.17965982929E-02 -0.13971995908E-03  0.16506893579E-01  0.16612827701E-01  0.51109989000E-03 0.  1.
     -623    1    1    2    0    0 -0.43756116887E-04  0.32835764144E-02  0.22056969575E-03  0.17130000003E+03  0.17130000000E+03 0.  1.
      622    1    1    2    0    0  0.18403544098E-02 -0.31438564553E-02  0.39832725041E+01  0.39833871407E+01  0.30000000000E-01 0.  1.
</event>
<event>
 5   0  0.4961200E+08  0.9118800E+02  0.7818608E-02  0.1180000E+00
       11   -1    0    0    0    0  0.00000000000E+00  0.00000000000E+00  0.39999999673E+01  0.40000000000E+01  0.51109989000E-03 0. -1.
     -623   -1    0    0    0    0  0.00000000000E+00  0.00000000000E+00  0.12525980253E-10  0.17130000000E+03  0.17130000000E+03 0.  1.
       11    1    1    2    0    0  0.24089434481E-01 -0.70828269724E-03  0.51919890874E-01  0.57242805724E-01  0.51109989000E-03 0. -1.
     -623    1    1    2    0    0 -0.23265170066E-01  0.86262600416E-02  0.54469379043E-02  0.17130000188E+03  0.17130000000E+03 0.  1.
      622    1    1    2    0    0 -0.82426441426E-03 -0.79179773444E-02  0.39426331386E+01  0.39427553106E+01  0.30000000000E-01 0. -1.
</event>
<event>
 5   0  0.4961200E+08  0.9118800E+02  0.7818608E-02  0.1180000E+00
       11   -1    0    0    0    0  0.00000000000E+00  0.00000000000E+00  0.39999999673E+01  0.40000000000E+01  0.51109989000E-03 0. -1.
     -623   -1    0    0    0    0  0.00000000000E+00  0.00000000000E+00  0.12525980253E-10  0.17130000000E+03  0.17130000000E+03 0.  1.
       11    1    1    2    0    0  0.34406986490E-02  0.83921871528E-02  0.12583480509E+00  0.12616230264E+00  0.51109989000E-03 0. -1.
     -623    1    1    2    0    0  0.39058330164E-03 -0.57648683099E-03  0.45341176329E-03  0.17130000000E+03  0.17130000000E+03 0.  1.
      622    1    1    2    0    0 -0.38312819506E-02 -0.78157003218E-02  0.38737117505E+01  0.38738376953E+01  0.30000000000E-01 0. -1.
</event>
<event>
 5   0  0.4961200E+08  0.9118800E+02  0.7818608E-02  0.1180000E+00
       11   -1    0    0    0    0  0.00000000000E+00  0.00000000000E+00  0.39999999673E+01  0.40000000000E+01  0.51109989000E-03 0. -1.
     -623   -1    0    0    0    0  0.00000000000E+00  0.00000000000E+00  0.12525980253E-10  0.17130000000E+03  0.17130000000E+03 0. -1.
       11    1    1    2    0    0 -0.47315339161E-02 -0.23606872350E-02  0.48525165452E+00  0.48528073287E+00  0.51109989000E-03 0. -1.
     -623    1    1    2    0    0  0.38722985403E-02  0.48443348289E-02  0.15817595703E-03  0.17130000011E+03  0.17130000000E+03 0. -1.
      622    1    1    2    0    0  0.85923537579E-03 -0.24836475939E-02  0.35145901369E+01  0.35147191548E+01  0.30000000000E-01 0. -1.
</event>
<event>
 5   0  0.4961200E+08  0.9118800E+02  0.7818608E-02  0.1180000E+00
       11   -1    0    0    0    0  0.00000000000E+00  0.00000000000E+00  0.39999999673E+01  0.40000000000E+01  0.51109989000E-03 0. -1.
     -623   -1    0    0    0    0  0.00000000000E+00  0.00000000000E+00  0.12525980253E-10  0.17130000000E+03  0.17130000000E+03 0. -1.
       11    1    1    2    0    0  0.20052963859E-02  0.58384976553E-02  0.26771763741E-01  0.27479043361E-01  0.51109989000E-03 0. -1.
     -623    1    1    2    0    0  0.61088301961E-03 -0.19153335835E-02  0.82333932386E-03  0.17130000001E+03  0.17130000000E+03 0. -1.
      622    1    1    2    0    0 -0.26161794055E-02 -0.39231640718E-02  0.39724048643E+01  0.39725209429E+01  0.30000000000E-01 0. -1.
</event>
<event>
 5   0  0.4961200E+08  0.9118800E+02  0.7818608E-02  0.1180000E+00
       11   -1    0    0    0    0  0.00000000000E+00  0.00000000000E+00  0.39999999673E+01  0.40000000000E+01  0.51109989000E-03 0.  1.
     -623   -1    0    0    0    0  0.00000000000E+00  0.00000000000E+00  0.12525980253E-10  0.17130000000E+03  0.17130000000E+03 0. -1.
       11    1    1    2    0    0  0.39699291883E-02 -0.75651690404E-03  0.80740386327E-01  0.80843081725E-01  0.51109989000E-03 0.  1.
     -623    1    1    2    0    0  0.10263372509E-03  0.16107565245E-03  0.21964658462E-03  0.17130000000E+03  0.17130000000E+03 0. -1.
      622    1    1    2    0    0 -0.40725629134E-02  0.59544125154E-03  0.39190399356E+01  0.39191569192E+01  0.30000000000E-01 0.  1.
</event>
<event>
 5   0  0.4961200E+08  0.9118800E+02  0.7818608E-02  0.1180000E+00
       11   -1    0    0    0    0  0.00000000000E+00  0.00000000000E+00  0.39999999673E+01  0.40000000000E+01  0.51109989000E-03 0.  1.
     -623   -1    0    0    0    0  0.00000000000E+00  0.00000000000E+00  0.12525980253E-10  0.17130000000E+03  0.17130000000E+03 0. -1.
       11    1    1    2    0    0  0.70239321461E-02  0.11079878495E-01  0.31443455995E+00  0.31470852077E+00  0.51109989000E-03 0.  1.
     -623    1    1    2    0    0  0.97773423435E-03 -0.24352288060E-02  0.41488423843E-03  0.17130000002E+03  0.17130000000E+03 0. -1.
      622    1    1    2    0    0 -0.80016663804E-02 -0.86446496889E-02  0.36851505232E+01  0.36852914586E+01  0.30000000000E-01 0.  1.
</event>
<event>
 5   0  0.4961200E+08  0.9118800E+02  0.7818608E-02  0.1180000E+00
       11   -1    0    0    0    0  0.00000000000E+00  0.00000000000E+00  0.39999999673E+01  0.40000000000E+01  0.51109989000E-03 0. -1.
     -623   -1    0    0    0    0  0.00000000000E+00  0.00000000000E+00  0.12525980253E-10  0.17130000000E+03  0.17130000000E+03 0. -1.
       11    1    1    2    0    0 -0.84635510428E-03  0.24097641061E-02  0.21271372203E+00  0.21272966893E+00  0.51109989000E-03 0. -1.
     -623    1    1    2    0    0 -0.68738638289E-03  0.11188665754E-02  0.13669474441E-03  0.17130000001E+03  0.17130000000E+03 0. -1.
      622    1    1    2    0    0  0.15337414872E-02 -0.35286306815E-02  0.37871495506E+01  0.37872703260E+01  0.30000000000E-01 0. -1.
</event>
<event>
 5   0  0.4961200E+08  0.9118800E+02  0.7818608E-02  0.1180000E+00
       11   -1    0    0    0    0  0.00000000000E+00  0.00000000000E+00  0.39999999673E+01  0.40000000000E+01  0.51109989000E-03 0.  1.
     -623   -1    0    0    0    0  0.00000000000E+00  0.00000000000E+00  0.12525980253E-10  0.17130000000E+03  0.17130000000E+03 0.  1.
       11    1    1    2    0    0  0.23500780047E-02 -0.17365238968E-03  0.51352989280E-01  0.51409568690E-01  0.51109989000E-03 0.  1.
     -623    1    1    2    0    0 -0.19238461436E-02 -0.43905083449E-03  0.17059512821E-03  0.17130000001E+03  0.17130000000E+03 0.  1.
      622    1    1    2    0    0 -0.42623186049E-03  0.61270322430E-03  0.39484763842E+01  0.39485904211E+01  0.30000000000E-01 0.  1.
</event>
<event>
 5   0  0.4961200E+08  0.9118800E+02  0.7818608E-02  0.1180000E+00
       11   -1    0    0    0    0  0.00000000000E+00  0.00000000000E+00  0.39999999673E+01  0.40000000000E+01  0.51109989000E-03 0.  1.
     -623   -1    0    0    0    0  0.00000000000E+00  0.00000000000E+00  0.12525980253E-10  0.17130000000E+03  0.17130000000E+03 0. -1.
       11    1    1    2    0    0  0.13216789542E-02 -0.15643657702E-02  0.24928263371E+00  0.24929156979E+00  0.51109989000E-03 0.  1.
     -623    1    1    2    0    0  0.11389243743E-02  0.66847841816E-03  0.12980197999E-03  0.17130000001E+03  0.17130000000E+03 0. -1.
      622    1    1    2    0    0 -0.24606033296E-02  0.89588735142E-03  0.37505875357E+01  0.37507084291E+01  0.30000000000E-01 0.  1.
</event>
<event>
 5   0  0.4961200E+08  0.9118800E+02  0.7818608E-02  0.1180000E+00
       11   -1    0    0    0    0  0.00000000000E+00  0.00000000000E+00  0.39999999673E+01  0.40000000000E+01  0.51109989000E-03 0. -1.
     -623   -1    0    0    0    0  0.00000000000E+00  0.00000000000E+00  0.12525980253E-10  0.17130000000E+03  0.17130000000E+03 0. -1.
       11    1    1    2    0    0  0.43974637869E-02  0.11586915336E-02  0.62194316452E-01  0.62362444435E-01  0.51109989000E-03 0. -1.
     -623    1    1    2    0    0 -0.27220824641E-02 -0.10877519621E-01  0.29509671985E-03  0.17130000037E+03  0.17130000000E+03 0. -1.
      622    1    1    2    0    0 -0.16753813230E-02  0.97188280859E-02  0.39375105538E+01  0.39376371879E+01  0.30000000000E-01 0. -1.
</event>
<event>
 5   0  0.4961200E+08  0.9118800E+02  0.7818608E-02  0.1180000E+00
       11   -1    0    0    0    0  0.00000000000E+00  0.00000000000E+00  0.39999999673E+01  0.40000000000E+01  0.51109989000E-03 0.  1.
     -623   -1    0    0    0    0  0.00000000000E+00  0.00000000000E+00  0.12525980253E-10  0.17130000000E+03  0.17130000000E+03 0. -1.
       11    1    1    2    0    0 -0.44651383228E-03 -0.16221105464E-02  0.20189733686E-01  0.20266158655E-01  0.51109989000E-03 0.  1.
     -623    1    1    2    0    0  0.71140774144E-03  0.63828740032E-03  0.18960001906E-03  0.17130000000E+03  0.17130000000E+03 0. -1.
      622    1    1    2    0    0 -0.26489390949E-03  0.98382314575E-03  0.39796206354E+01  0.39797338404E+01  0.30000000000E-01 0.  1.
</event>
<event>
 5   0  0.4961200E+08  0.9118800E+02  0.7818608E-02  0.1180000E+00
       11   -1    0    0    0    0  0.00000000000E+00  0.00000000000E+00  0.39999999673E+01  0.40000000000E+01  0.51109989000E-03 0.  1.
     -623   -1    0    0    0    0  0.00000000000E+00  0.00000000000E+00  0.12525980253E-10  0.17130000000E+03  0.17130000000E+03 0. -1.
       11    1    1    2    0    0 -0.12791105405E-01 -0.34134821743E-02  0.60291414123E+00  0.60305968789E+00  0.51109989000E-03 0.  1.
     -623    1    1    2    0    0 -0.41261577967E-03 -0.33211774789E-05  0.30537016513E-03  0.17130000000E+03  0.17130000000E+03 0. -1.
      622    1    1    2    0    0  0.13203721185E-01  0.34168033517E-02  0.33967804561E+01  0.33969403115E+01  0.30000000000E-01 0.  1.
</event>
<event>
 5   0  0.4961200E+08  0.9118800E+02  0.7818608E-02  0.1180000E+00
       11   -1    0    0    0    0  0.00000000000E+00  0.00000000000E+00  0.39999999673E+01  0.40000000000E+01  0.51109989000E-03 0. -1.
     -623   -1    0    0    0    0  0.00000000000E+00  0.00000000000E+00  0.12525980253E-10  0.17130000000E+03  0.17130000000E+03 0. -1.
       11    1    1    2    0    0  0.13424122264E-01 -0.59572873239E-02  0.68309353735E-01  0.69872207351E-01  0.51109989000E-03 0. -1.
     -623    1    1    2    0    0  0.85529809922E-02  0.57739542501E-02  0.17390964624E-02  0.17130000032E+03  0.17130000000E+03 0. -1.
      622    1    1    2    0    0 -0.21977103257E-01  0.18333307378E-03  0.39299515172E+01  0.39301274730E+01  0.30000000000E-01 0. -1.
</event>
<event>
 5   0  0.4961200E+08  0.9118800E+02  0.7818608E-02  0.1180000E+00
       11   -1    0    0    0    0  0.00000000000E+00  0.00000000000E+00  0.39999999673E+01  0.40000000000E+01  0.51109989000E-03 0.  1.
     -623   -1    0    0    0    0  0.00000000000E+00  0.00000000000E+00  0.12525980253E-10  0.17130000000E+03  0.17130000000E+03 0. -1.
       11    1    1    2    0    0  0.15355385988E-01 -0.24151055626E-01  0.32183090109E+00  0.32310130220E+00  0.51109989000E-03 0.  1.
     -623    1    1    2    0    0 -0.57289072038E-02 -0.35371548605E-02  0.15097530075E-02  0.17130000014E+03  0.17130000000E+03 0. -1.
      622    1    1    2    0    0 -0.96264787842E-02  0.27688210486E-01  0.36766593134E+01  0.36768985590E+01  0.30000000000E-01 0.  1.
</event>
<event>
 5   0  0.4961200E+08  0.9118800E+02  0.7818608E-02  0.1180000E+00
       11   -1    0    0    0    0  0.00000000000E+00  0.00000000000E+00  0.39999999673E+01  0.40000000000E+01  0.51109989000E-03 0. -1.
     -623   -1    0    0    0    0  0.00000000000E+00  0.00000000000E+00  0.12525980253E-10  0.17130000000E+03  0.17130000000E+03 0. -1.
       11    1    1    2    0    0 -0.17266407067E-01 -0.14610533824E-02  0.16225444057E+00  0.16317790352E+00  0.51109989000E-03 0. -1.
     -623    1    1    2    0    0  0.16561854498E-01  0.83513372794E-02  0.10479758843E-02  0.17130000101E+03  0.17130000000E+03 0. -1.
      622    1    1    2    0    0  0.70455256778E-03 -0.68902838980E-02  0.38366975514E+01  0.38368210895E+01  0.30000000000E-01 0. -1.
</event>
<event>
 5   0  0.4961200E+08  0.9118800E+02  0.7818608E-02  0.1180000E+00
       11   -1    0    0    0    0  0.00000000000E+00  0.00000000000E+00  0.39999999673E+01  0.40000000000E+01  0.51109989000E-03 0. -1.
     -623   -1    0    0    0    0  0.00000000000E+00  0.00000000000E+00  0.12525980253E-10  0.17130000000E+03  0.17130000000E+03 0. -1.
       11    1    1    2    0    0 -0.37967913191E-03 -0.14650031191E-02  0.12633421289E+00  0.12634431115E+00  0.51109989000E-03 0. -1.
     -623    1    1    2    0    0  0.85983242254E-03  0.57311379375E-03  0.12637229773E-03  0.17130000000E+03  0.17130000000E+03 0. -1.
      622    1    1    2    0    0 -0.48015329102E-03  0.89188932514E-03  0.38735393840E+01  0.38736556875E+01  0.30000000000E-01 0. -1.
</event>
<event>
 5   0  0.4961200E+08  0.9118800E+02  0.7818608E-02  0.1180000E+00
       11   -1    0    0    0    0  0.00000000000E+00  0.00000000000E+00  0.39999999673E+01  0.40000000000E+01  0.51109989000E-03 0. -1.
     -623   -1    0    0    0    0  0.00000000000E+00  0.00000000000E+00  0.12525980253E-10  0.17130000000E+03  0.17130000000E+03 0.  1.
       11    1    1    2    0    0  0.30976591474E-02 -0.17076935056E-02  0.35401630487E-01  0.35581573475E-01  0.51109989000E-03 0. -1.
     -623    1    1    2    0    0 -0.14336405813E-03 -0.84852138927E-03  0.29534904333E-03  0.17130000000E+03  0.17130000000E+03 0.  1.
      622    1    1    2    0    0 -0.29542950893E-02  0.25562148949E-02  0.39643029878E+01  0.39644184241E+01  0.30000000000E-01 0. -1.
</event>
<event>
 5   0  0.4961200E+08  0.9118800E+02  0.7818608E-02  0.1180000E+00
       11   -1    0    0    0    0  0.00000000000E+00  0.00000000000E+00  0.39999999673E+01  0.40000000000E+01  0.51109989000E-03 0.  1.
     -623   -1    0    0    0    0  0.00000000000E+00  0.00000000000E+00  0.12525980253E-10  0.17130000000E+03  0.17130000000E+03 0. -1.
       11    1    1    2    0    0 -0.12850148597E-02 -0.20261842944E-03  0.11939978734E+00  0.11940796772E+00  0.51109989000E-03 0.  1.
     -623    1    1    2    0    0 -0.36478695260E-03 -0.17404246036E-02  0.12495761389E-03  0.17130000001E+03  0.17130000000E+03 0. -1.
      622    1    1    2    0    0  0.16498018123E-02  0.19430430331E-02  0.38804752224E+01  0.38805920230E+01  0.30000000000E-01 0.  1.
</event>
<event>
 5   0  0.4961200E+08  0.9118800E+02  0.7818608E-02  0.1180000E+00
       11   -1    0    0    0    0  0.00000000000E+00  0.00000000000E+00  0.39999999673E+01  0.40000000000E+01  0.51109989000E-03 0.  1.
     -623   -1    0    0    0    0  0.00000000000E+00  0.00000000000E+00  0.12525980253E-10  0.17130000000E+03  0.17130000000E+03 0.  1.
       11    1    1    2    0    0  0.27929937248E-02  0.31659540701E-02  0.20302106265E-01  0.20742729353E-01  0.51109989000E-03 0.  1.
     -623    1    1    2    0    0  0.11019959146E-02  0.25341725179E-02  0.55969071915E-03  0.17130000002E+03  0.17130000000E+03 0.  1.
      622    1    1    2    0    0 -0.38949896396E-02 -0.57001265885E-02  0.39791381711E+01  0.39792572482E+01  0.30000000000E-01 0.  1.
</event>
<event>
 5   0  0.4961200E+08  0.9118800E+02  0.7818608E-02  0.1180000E+00
       11   -1    0    0    0    0  0.00000000000E+00  0.00000000000E+00  0.39999999673E+01  0.40000000000E+01  0.51109989000E-03 0.  1.
     -623   -1    0    0    0    0  0.00000000000E+00  0.00000000000E+00  0.12525980253E-10  0.17130000000E+03  0.17130000000E+03 0. -1.
       11    1    1    2    0    0 -0.32707231290E-02  0.40367695064E-02  0.32864253399E-01  0.33276320572E-01  0.51109989000E-03 0.  1.
     -623    1    1    2    0    0  0.47044365690E-02  0.12322666225E-02  0.52930841505E-03  0.17130000007E+03  0.17130000000E+03 0. -1.
      622    1    1    2    0    0 -0.14337134400E-02 -0.52690361288E-02  0.39666064055E+01  0.39667236096E+01  0.30000000000E-01 0.  1.
</event>
<event>
 5   0  0.4961200E+08  0.9118800E+02  0.7818608E-02  0.1180000E+00
       11   -1    0    0    0    0  0.00000000000E+00  0.00000000000E+00  0.39999999673E+01  0.40000000000E+01  0.51109989000E-03 0. -1.
     -623   -1    0    0    0    0  0.00000000000E+00  0.00000000000E+00  0.12525980253E-10  0.17130000000E+03  0.17130000000E+03 0.  1.
       11    1    1    2    0    0  0.24085416470E-01 -0.34438057312E-01  0.40600615609E+00  0.40817563264E+00  0.51109989000E-03 0. -1.
     -623    1    1    2    0    0 -0.88081243620E-02  0.62856916643E-02  0.24379151756E-02  0.17130000036E+03  0.17130000000E+03 0.  1.
      622    1    1    2    0    0 -0.15277292108E-01  0.28152365648E-01  0.35915558961E+01  0.35918240082E+01  0.30000000000E-01 0. -1.
</event>
<event>
 5   0  0.4961200E+08  0.9118800E+02  0.7818608E-02  0.1180000E+00
       11   -1    0    0    0    0  0.00000000000E+00  0.00000000000E+00  0.39999999673E+01  0.40000000000E+01  0.51109989000E-03 0.  1.
     -623   -1    0    0    0    0  0.00000000000E+00  0.00000000000E+00  0.12525980253E-10  0.17130000000E+03  0.17130000000E+03 0.  1.
       11    1    1    2    0    0  0.11466044037E-02 -0.91652115873E-02  0.36454080895E+00  0.36465816653E+00  0.51109989000E-03 0.  1.
     -623    1    1    2    0    0 -0.36950684882E-02  0.47820501494E-02  0.24475440642E-03  0.17130000011E+03  0.17130000000E+03 0.  1.
      622    1    1    2    0    0  0.25484640844E-02  0.43831614379E-02  0.36352144040E+01  0.36353417267E+01  0.30000000000E-01 0.  0.
</event>
<event>
 5   0  0.4961200E+08  0.9118800E+02  0.7818608E-02  0.1180000E+00
       11   -1    0    0    0    0  0.00000000000E+00  0.00000000000E+00  0.39999999673E+01  0.40000000000E+01  0.51109989000E-03 0. -1.
     -623   -1    0    0    0    0  0.00000000000E+00  0.00000000000E+00  0.12525980253E-10  0.17130000000E+03  0.17130000000E+03 0.  1.
       11    1    1    2    0    0 -0.33484617193E-02 -0.11442180970E-01  0.27103763244E+00  0.27130019374E+00  0.51109989000E-03 0. -1.
     -623    1    1    2    0    0 -0.52300905546E-03  0.38769894235E-02  0.39294595798E-03  0.17130000005E+03  0.17130000000E+03 0.  1.
      622    1    1    2    0    0  0.38714707750E-02  0.75651915447E-02  0.37285693907E+01  0.37286997629E+01  0.30000000000E-01 0.  0.
</event>
<event>
 5   0  0.4961200E+08  0.9118800E+02  0.7818608E-02  0.1180000E+00
       11   -1    0    0    0    0  0.00000000000E+00  0.00000000000E+00  0.39999999673E+01  0.40000000000E+01  0.51109989000E-03 0.  1.
     -623   -1    0    0    0    0  0.00000000000E+00  0.00000000000E+00  0.12525980253E-10  0.17130000000E+03  0.17130000000E+03 0.  1.
       11    1    1    2    0    0 -0.28203199334E-02 -0.50580403015E-03  0.16162450302E+00  0.16165070752E+00  0.51109989000E-03 0.  1.
     -623    1    1    2    0    0  0.13957189425E-03 -0.21452718703E-03  0.14441555477E-03  0.17130000000E+03  0.17130000000E+03 0.  1.
      622    1    1    2    0    0  0.26807480391E-02  0.72033121725E-03  0.38382310499E+01  0.38383492934E+01  0.30000000000E-01 0.  1.
</event>
<event>
 5   0  0.4961200E+08  0.9118800E+02  0.7818608E-02  0.1180000E+00
       11   -1    0    0    0    0  0.00000000000E+00  0.00000000000E+00  0.39999999673E+01  0.40000000000E+01  0.51109989000E-03 0. -1.
     -623   -1    0    0    0    0  0.00000000000E+00  0.00000000000E+00  0.12525980253E-10  0.17130000000E+03  0.17130000000E+03 0. -1.
       11    1    1    2    0    0  0.34548206386E-03 -0.14450188714E-03  0.33539907467E-01  0.33545891770E-01  0.51109989000E-03 0. -1.
     -623    1    1    2    0    0 -0.18498949125E-03  0.10229824748E-03  0.11940838665E-03  0.17130000000E+03  0.17130000000E+03 0. -1.
      622    1    1    2    0    0 -0.16049257260E-03  0.42203639657E-04  0.39663406517E+01  0.39664541083E+01  0.30000000000E-01 0. -1.
</event>
<event>
 5   0  0.4961200E+08  0.9118800E+02  0.7818608E-02  0.1180000E+00
       11   -1    0    0    0    0  0.00000000000E+00  0.00000000000E+00  0.39999999673E+01  0.40000000000E+01  0.51109989000E-03 0.  1.
     -623   -1    0    0    0    0  0.00000000000E+00  0.00000000000E+00  0.12525980253E-10  0.17130000000E+03  0.17130000000E+03 0.  1.
       11    1    1    2    0    0  0.87985447693E-03 -0.17704460265E-02  0.15341470455E+00  0.15342829406E+00  0.51109989000E-03 0.  1.
     -623    1    1    2    0    0  0.32146115860E-03 -0.71740177527E-03  0.13153994492E-03  0.17130000000E+03  0.17130000000E+03 0.  1.
      622    1    1    2    0    0 -0.12013156355E-02  0.24878478018E-02  0.38464537229E+01  0.38465717041E+01  0.30000000000E-01 0.  1.
</event>
<event>
 5   0  0.4961200E+08  0.9118800E+02  0.7818608E-02  0.1180000E+00
       11   -1    0    0    0    0  0.00000000000E+00  0.00000000000E+00  0.39999999673E+01  0.40000000000E+01  0.51109989000E-03 0. -1.
     -623   -1    0    0    0    0  0.00000000000E+00  0.00000000000E+00  0.12525980253E-10  0.17130000000E+03  0.17130000000E+03 0. -1.
       11    1    1    2    0    0  0.15054142488E-01  0.22636716888E-01  0.11035184606E+00  0.11365227366E+00  0.51109989000E-03 0. -1.
     -623    1    1    2    0    0  0.20088862242E-01 -0.27493073331E-01  0.35815444679E-02  0.17130000342E+03  0.17130000000E+03 0. -1.
      622    1    1    2    0    0 -0.35143004730E-01  0.48563564430E-02  0.38860665768E+01  0.38863443047E+01  0.30000000000E-01 0. -1.
</event>
<event>
 5   0  0.4961200E+08  0.9118800E+02  0.7818608E-02  0.1180000E+00
       11   -1    0    0    0    0  0.00000000000E+00  0.00000000000E+00  0.39999999673E+01  0.40000000000E+01  0.51109989000E-03 0.  1.
     -623   -1    0    0    0    0  0.00000000000E+00  0.00000000000E+00  0.12525980253E-10  0.17130000000E+03  0.17130000000E+03 0.  1.
       11    1    1    2    0    0 -0.34035710646E-03 -0.31852804479E-03  0.74463244172E-03  0.10163678695E-02  0.51109989000E-03 0.  1.
     -623    1    1    2    0    0 -0.30347320868E-05  0.42219279791E-03  0.38425000241E-03  0.17130000000E+03  0.17130000000E+03 0.  1.
      622    1    1    2    0    0  0.34339183854E-03 -0.10366475310E-03  0.39988710847E+01  0.39989836310E+01  0.30000000000E-01 0.  1.
</event>
<event>
 5   0  0.4961200E+08  0.9118800E+02  0.7818608E-02  0.1180000E+00
       11   -1    0    0    0    0  0.00000000000E+00  0.00000000000E+00  0.39999999673E+01  0.40000000000E+01  0.51109989000E-03 0.  1.
     -623   -1    0    0    0    0  0.00000000000E+00  0.00000000000E+00  0.12525980253E-10  0.17130000000E+03  0.17130000000E+03 0. -1.
       11    1    1    2    0    0  0.68026567236E-04  0.25669489402E-02  0.44342591738E-01  0.44419821213E-01  0.51109989000E-03 0.  1.
     -623    1    1    2    0    0  0.28493333849E-02 -0.93857075390E-03  0.19239922007E-03  0.17130000003E+03  0.17130000000E+03 0. -1.
      622    1    1    2    0    0 -0.29173599521E-02 -0.16283781863E-02  0.39554649764E+01  0.39555801524E+01  0.30000000000E-01 0.  1.
</event>
<event>
 5   0  0.4961200E+08  0.9118800E+02  0.7818608E-02  0.1180000E+00
       11   -1    0    0    0    0  0.00000000000E+00  0.00000000000E+00  0.39999999673E+01  0.40000000000E+01  0.51109989000E-03 0.  1.
     -623   -1    0    0    0    0  0.00000000000E+00  0.00000000000E+00  0.12525980253E-10  0.17130000000E+03  0.17130000000E+03 0.  1.
       11    1    1    2    0    0 -0.76818382487E-03 -0.24519162560E-03  0.26170005397E-02  0.27857028277E-02  0.51109989000E-03 0.  1.
     -623    1    1    2    0    0  0.48187663823E-03  0.11858757258E-02  0.28137559443E-03  0.17130000001E+03  0.17130000000E+03 0.  1.
      622    1    1    2    0    0  0.28630718653E-03 -0.94068410048E-03  0.39971015922E+01  0.39972142931E+01  0.30000000000E-01 0.  1.
</event>
<event>
 5   0  0.4961200E+08  0.9118800E+02  0.7818608E-02  0.1180000E+00
       11   -1    0    0    0    0  0.00000000000E+00  0.00000000000E+00  0.39999999673E+01  0.40000000000E+01  0.51109989000E-03 0.  1.
     -623   -1    0    0    0    0  0.00000000000E+00  0.00000000000E+00  0.12525980253E-10  0.17130000000E+03  0.17130000000E+03 0. -1.
       11    1    1    2    0    0  0.35819653265E-02  0.19208252310E-02  0.58361911901E+00  0.58363349573E+00  0.51109989000E-03 0.  1.
     -623    1    1    2    0    0 -0.16699046563E-03 -0.41483387883E-03  0.14810496366E-03  0.17130000000E+03  0.17130000000E+03 0. -1.
      622    1    1    2    0    0 -0.34149748609E-02 -0.15059913522E-02  0.34162327433E+01  0.34163665035E+01  0.30000000000E-01 0.  1.
</event>
<event>
 5   0  0.4961200E+08  0.9118800E+02  0.7818608E-02  0.1180000E+00
       11   -1    0    0    0    0  0.00000000000E+00  0.00000000000E+00  0.39999999673E+01  0.40000000000E+01  0.51109989000E-03 0. -1.
     -623   -1    0    0    0    0  0.00000000000E+00  0.00000000000E+00  0.12525980253E-10  0.17130000000E+03  0.17130000000E+03 0.  1.
       11    1    1    2    0    0 -0.60770057749E-03 -0.30824719049E-02  0.15398590792E+00  0.15401880403E+00  0.51109989000E-03 0. -1.
     -623    1    1    2    0    0  0.24064702871E-02 -0.60287226027E-03  0.15207495040E-03  0.17130000002E+03  0.17130000000E+03 0.  1.
      622    1    1    2    0    0 -0.17987697114E-02  0.36853441656E-02  0.38458619874E+01  0.38459811808E+01  0.30000000000E-01 0. -1.
</event>
<event>
 5   0  0.4961200E+08  0.9118800E+02  0.7818608E-02  0.1180000E+00
       11   -1    0    0    0    0  0.00000000000E+00  0.00000000000E+00  0.39999999673E+01  0.40000000000E+01  0.51109989000E-03 0.  1.
     -623   -1    0    0    0    0  0.00000000000E+00  0.00000000000E+00  0.12525980253E-10  0.17130000000E+03  0.17130000000E+03 0.  1.
       11    1    1    2    0    0 -0.10284322169E-02  0.55405364998E-03  0.10049736430E+00  0.10050545309E+00  0.51109989000E-03 0.  1.
     -623    1    1    2    0    0  0.44846837704E-04 -0.31136043446E-03  0.12358936847E-03  0.17130000000E+03  0.17130000000E+03 0.  1.
      622    1    1    2    0    0  0.98358537921E-03 -0.24269321552E-03  0.38993790137E+01  0.38994945466E+01  0.30000000000E-01 0.  1.
</event>
<event>
 5   0  0.4961200E+08  0.9118800E+02  0.7818608E-02  0.1180000E+00
       11   -1    0    0    0    0  0.00000000000E+00  0.00000000000E+00  0.39999999673E+01  0.40000000000E+01  0.51109989000E-03 0. -1.
     -623   -1    0    0    0    0  0.00000000000E+00  0.00000000000E+00  0.12525980253E-10  0.17130000000E+03  0.17130000000E+03 0.  1.
       11    1    1    2    0    0 -0.14820332830E-03 -0.26283388211E-03  0.58792224534E-03  0.83541698584E-03  0.51109989000E-03 0. -1.
     -623    1    1    2    0    0  0.21477441199E-03 -0.19177829655E-03  0.36001419893E-03  0.17130000000E+03  0.17130000000E+03 0.  1.
      622    1    1    2    0    0 -0.66571083742E-04  0.45461217870E-03  0.39990520318E+01  0.39991645833E+01  0.30000000000E-01 0. -1.
</event>
<event>
 5   0  0.4961200E+08  0.9118800E+02  0.7818608E-02  0.1180000E+00
       11   -1    0    0    0    0  0.00000000000E+00  0.00000000000E+00  0.39999999673E+01  0.40000000000E+01  0.51109989000E-03 0.  1.
     -623   -1    0    0    0    0  0.00000000000E+00  0.00000000000E+00  0.12525980253E-10  0.17130000000E+03  0.17130000000E+03 0.  1.
       11    1    1    2    0    0  0.23474719981E-02  0.10735173575E-03  0.80078479625E-01  0.80114582125E-01  0.51109989000E-03 0.  1.
     -623    1    1    2    0    0 -0.84583890727E-04  0.22338515053E-03  0.15153818530E-03  0.17130000000E+03  0.17130000000E+03 0.  1.
      622    1    1    2    0    0 -0.22628881074E-02 -0.33073688628E-03  0.39197699495E+01  0.39198854176E+01  0.30000000000E-01 0.  1.
</event>
<event>
 5   0  0.4961200E+08  0.9118800E+02  0.7818608E-02  0.1180000E+00
       11   -1    0    0    0    0  0.00000000000E+00  0.00000000000E+00  0.39999999673E+01  0.40000000000E+01  0.51109989000E-03 0.  1.
     -623   -1    0    0    0    0  0.00000000000E+00  0.00000000000E+00  0.12525980253E-10  0.17130000000E+03  0.17130000000E+03 0.  1.
       11    1    1    2    0    0 -0.17550790191E-01 -0.55076786193E-02  0.18873737681E+00  0.18963233740E+00  0.51109989000E-03 0.  1.
     -623    1    1    2    0    0  0.16997484139E-01  0.15784528643E-01  0.10285016503E-02  0.17130000157E+03  0.17130000000E+03 0.  1.
      622    1    1    2    0    0  0.55330605172E-03 -0.10276850024E-01  0.38102340889E+01  0.38103660890E+01  0.30000000000E-01 0.  1.
</event>
<event>
 5   0  0.4961200E+08  0.9118800E+02  0.7818608E-02  0.1180000E+00
       11   -1    0    0    0    0  0.00000000000E+00  0.00000000000E+00  0.39999999673E+01  0.40000000000E+01  0.51109989000E-03 0.  1.
     -623   -1    0    0    0    0  0.00000000000E+00  0.00000000000E+00  0.12525980253E-10  0.17130000000E+03  0.17130000000E+03 0. -1.
       11    1    1    2    0    0 -0.60409722365E-03 -0.21656625511E-02  0.19445499515E-01  0.19581718571E-01  0.51109989000E-03 0.  1.
     -623    1    1    2    0    0 -0.33909718911E-03  0.72477147019E-03  0.24961607552E-03  0.17130000000E+03  0.17130000000E+03 0. -1.
      622    1    1    2    0    0  0.94319441273E-03  0.14408910810E-02  0.39803048514E+01  0.39804182790E+01  0.30000000000E-01 0.  1.
</event>
<event>
 5   0  0.4961200E+08  0.9118800E+02  0.7818608E-02  0.1180000E+00
       11   -1    0    0    0    0  0.00000000000E+00  0.00000000000E+00  0.39999999673E+01  0.40000000000E+01  0.51109989000E-03 0.  1.
     -623   -1    0    0    0    0  0.00000000000E+00  0.00000000000E+00  0.12525980253E-10  0.17130000000E+03  0.17130000000E+03 0.  1.
       11    1    1    2    0    0  0.34073510751E-03  0.82407125645E-02  0.16377041795E+00  0.16397876832E+00  0.51109989000E-03 0.  1.
     -623    1    1    2    0    0  0.35172875519E-02 -0.17328981005E-02  0.33313434044E-03  0.17130000005E+03  0.17130000000E+03 0.  1.
      622    1    1    2    0    0 -0.38580226594E-02 -0.65078144640E-02  0.38358964151E+01  0.38360211865E+01  0.30000000000E-01 0.  1.
</event>
<event>
 5   0  0.4961200E+08  0.9118800E+02  0.7818608E-02  0.1180000E+00
       11   -1    0    0    0    0  0.00000000000E+00  0.00000000000E+00  0.39999999673E+01  0.40000000000E+01  0.51109989000E-03 0. -1.
     -623   -1    0    0    0    0  0.00000000000E+00  0.00000000000E+00  0.12525980253E-10  0.17130000000E+03  0.17130000000E+03 0.  1.
       11    1    1    2    0    0 -0.10395442064E-01  0.93972911994E-02  0.16003835227E+00  0.16065151638E+00  0.51109989000E-03 0. -1.
     -623    1    1    2    0    0 -0.35686071698E-03 -0.30349115178E-03  0.75616972671E-03  0.17130000000E+03  0.17130000000E+03 0.  1.
      622    1    1    2    0    0  0.10752302781E-01 -0.90938000476E-02  0.38392054454E+01  0.38393484813E+01  0.30000000000E-01 0. -1.
</event>
<event>
 5   0  0.4961200E+08  0.9118800E+02  0.7818608E-02  0.1180000E+00
       11   -1    0    0    0    0  0.00000000000E+00  0.00000000000E+00  0.39999999673E+01  0.40000000000E+01  0.51109989000E-03 0. -1.
     -623   -1    0    0    0    0  0.00000000000E+00  0.00000000000E+00  0.12525980253E-10  0.17130000000E+03  0.17130000000E+03 0.  1.
       11    1    1    2    0    0  0.22434687267E-02  0.66098128446E-03  0.49308347725E-02  0.54812774822E-02  0.51109989000E-03 0. -1.
     -623    1    1    2    0    0 -0.15528066617E-02 -0.17079505199E-02  0.66327978806E-03  0.17130000002E+03  0.17130000000E+03 0.  1.
      622    1    1    2    0    0 -0.69066206502E-03  0.10469692355E-02  0.39944058529E+01  0.39945187058E+01  0.30000000000E-01 0. -1.
</event>
<event>
 5   0  0.4961200E+08  0.9118800E+02  0.7818608E-02  0.1180000E+00
       11   -1    0    0    0    0  0.00000000000E+00  0.00000000000E+00  0.39999999673E+01  0.40000000000E+01  0.51109989000E-03 0.  1.
     -623   -1    0    0    0    0  0.00000000000E+00  0.00000000000E+00  0.12525980253E-10  0.17130000000E+03  0.17130000000E+03 0. -1.
       11    1    1    2    0    0  0.13758637321E-03 -0.35225744540E-02  0.91496585213E-01  0.91565898610E-01  0.51109989000E-03 0.  1.
     -623    1    1    2    0    0 -0.70706756865E-02  0.62457811751E-02  0.19177612795E-03  0.17130000026E+03  0.17130000000E+03 0. -1.
      622    1    1    2    0    0  0.69330893133E-02 -0.27232067211E-02  0.39083116060E+01  0.39084338415E+01  0.30000000000E-01 0.  1.
</event>
<event>
 5   0  0.4961200E+08  0.9118800E+02  0.7818608E-02  0.1180000E+00
       11   -1    0    0    0    0  0.00000000000E+00  0.00000000000E+00  0.39999999673E+01  0.40000000000E+01  0.51109989000E-03 0.  1.
     -623   -1    0    0    0    0  0.00000000000E+00  0.00000000000E+00  0.12525980253E-10  0.17130000000E+03  0.17130000000E+03 0. -1.
       11    1    1    2    0    0 -0.16570773207E-02 -0.50380960714E-03  0.15251079048E+00  0.15252148100E+00  0.51109989000E-03 0.  1.
     -623    1    1    2    0    0  0.28923188700E-02  0.80083898562E-02  0.13534848585E-03  0.17130000021E+03  0.17130000000E+03 0. -1.
      622    1    1    2    0    0 -0.12352415508E-02 -0.75045802531E-02  0.38473538304E+01  0.38474783093E+01  0.30000000000E-01 0.  0.
</event>
<event>
 5   0  0.4961200E+08  0.9118800E+02  0.7818608E-02  0.1180000E+00
       11   -1    0    0    0    0  0.00000000000E+00  0.00000000000E+00  0.39999999673E+01  0.40000000000E+01  0.51109989000E-03 0.  1.
     -623   -1    0    0    0    0  0.00000000000E+00  0.00000000000E+00  0.12525980253E-10  0.17130000000E+03  0.17130000000E+03 0.  1.
       11    1    1    2    0    0 -0.18207887140E-03  0.20939812323E-02  0.23555121896E-01  0.23654236423E-01  0.51109989000E-03 0.  1.
     -623    1    1    2    0    0  0.14064737560E-02 -0.42871876360E-03  0.21279639524E-03  0.17130000001E+03  0.17130000000E+03 0.  1.
      622    1    1    2    0    0 -0.12243948853E-02 -0.16652624685E-02  0.39762320510E+01  0.39763457591E+01  0.30000000000E-01 0.  1.
</event>
<event>
 5   0  0.4961200E+08  0.9118800E+02  0.7818608E-02  0.1180000E+00
       11   -1    0    0    0    0  0.00000000000E+00  0.00000000000E+00  0.39999999673E+01  0.40000000000E+01  0.51109989000E-03 0. -1.
     -623   -1    0    0    0    0  0.00000000000E+00  0.00000000000E+00  0.12525980253E-10  0.17130000000E+03  0.17130000000E+03 0. -1.
       11    1    1    2    0    0  0.32053387510E-02 -0.38005912322E-02  0.22294580051E+00  0.22300181586E+00  0.51109989000E-03 0. -1.
     -623    1    1    2    0    0  0.10660945384E-02  0.75206635335E-03  0.17877757775E-03  0.17130000001E+03  0.17130000000E+03 0. -1.
      622    1    1    2    0    0 -0.42714332896E-02  0.30485248787E-02  0.37768753898E+01  0.37769981796E+01  0.30000000000E-01 0. -1.
</event>
<event>
 5   0  0.4961200E+08  0.9118800E+02  0.7818608E-02  0.1180000E+00
       11   -1    0    0    0    0  0.00000000000E+00  0.00000000000E+00  0.39999999673E+01  0.40000000000E+01  0.51109989000E-03 0. -1.
     -623   -1    0    0    0    0  0.00000000000E+00  0.00000000000E+00  0.12525980253E-10  0.17130000000E+03  0.17130000000E+03 0.  1.
       11    1    1    2    0    0 -0.31284247374E-03 -0.28073465675E-02  0.32719417078E-01  0.32845099211E-01  0.51109989000E-03 0. -1.
     -623    1    1    2    0    0 -0.13494597137E-02  0.60431582881E-03  0.24004906502E-03  0.17130000001E+03  0.17130000000E+03 0.  1.
      622    1    1    2    0    0  0.16623021876E-02  0.22030307386E-02  0.39670405015E+01  0.39671548945E+01  0.30000000000E-01 0. -1.
</event>
<event>
 5   0  0.4961200E+08  0.9118800E+02  0.7818608E-02  0.1180000E+00
       11   -1    0    0    0    0  0.00000000000E+00  0.00000000000E+00  0.39999999673E+01  0.40000000000E+01  0.51109989000E-03 0. -1.
     -623   -1    0    0    0    0  0.00000000000E+00  0.00000000000E+00  0.12525980253E-10  0.17130000000E+03  0.17130000000E+03 0.  1.
       11    1    1    2    0    0  0.29165420582E-02  0.60261294812E-02  0.84375009040E+00  0.84377680504E+00  0.51109989000E-03 0. -1.
     -623    1    1    2    0    0  0.11711591012E-03 -0.64523579265E-03  0.17530705318E-03  0.17130000000E+03  0.17130000000E+03 0.  1.
      622    1    1    2    0    0 -0.30336579683E-02 -0.53808936886E-02  0.31560745699E+01  0.31562231936E+01  0.30000000000E-01 0.  0.
</event>
<event>
 5   0  0.4961200E+08  0.9118800E+02  0.7818608E-02  0.1180000E+00
       11   -1    0    0    0    0  0.00000000000E+00  0.00000000000E+00  0.39999999673E+01  0.40000000000E+01  0.51109989000E-03 0.  1.
     -623   -1    0    0    0    0  0.00000000000E+00  0.00000000000E+00  0.12525980253E-10  0.17130000000E+03  0.17130000000E+03 0. -1.
       11    1    1    2    0    0  0.29370595879E-02 -0.58948752972E-02  0.54523874814E+00  0.54527876317E+00  0.51109989000E-03 0.  1.
     -623    1    1    2    0    0  0.89581256050E-03 -0.22768311952E-02  0.18205019377E-03  0.17130000002E+03  0.17130000000E+03 0. -1.
      622    1    1    2    0    0 -0.38328721482E-02  0.81717064920E-02  0.34545791683E+01  0.34547212185E+01  0.30000000000E-01 0.  0.
</event>
<event>
 5   0  0.4961200E+08  0.9118800E+02  0.7818608E-02  0.1180000E+00
       11   -1    0    0    0    0  0.00000000000E+00  0.00000000000E+00  0.39999999673E+01  0.40000000000E+01  0.51109989000E-03 0.  1.
     -623   -1    0    0    0    0  0.00000000000E+00  0.00000000000E+00  0.12525980253E-10  0.17130000000E+03  0.17130000000E+03 0. -1.
       11    1    1    2    0    0  0.79977185874E-02  0.31306339118E-02  0.50123397196E+00  0.50130780987E+00  0.51109989000E-03 0.  1.
     -623    1    1    2    0    0  0.37396022493E-03 -0.25413140591E-02  0.21251242217E-03  0.17130000002E+03  0.17130000000E+03 0. -1.
      622    1    1    2    0    0 -0.83716788122E-02 -0.58931985337E-03  0.34985534819E+01  0.34986921696E+01  0.30000000000E-01 0.  1.
</event>
<event>
 5   0  0.4961200E+08  0.9118800E+02  0.7818608E-02  0.1180000E+00
       11   -1    0    0    0    0  0.00000000000E+00  0.00000000000E+00  0.39999999673E+01  0.40000000000E+01  0.51109989000E-03 0. -1.
     -623   -1    0    0    0    0  0.00000000000E+00  0.00000000000E+00  0.12525980253E-10  0.17130000000E+03  0.17130000000E+03 0. -1.
       11    1    1    2    0    0  0.36496576537E-02 -0.16351745404E-02  0.33506000674E+00  0.33508426274E+00  0.51109989000E-03 0. -1.
     -623    1    1    2    0    0  0.29756099866E-03 -0.21884046225E-03  0.14960646207E-03  0.17130000000E+03  0.17130000000E+03 0. -1.
      622    1    1    2    0    0 -0.39472186524E-02  0.18540150027E-02  0.36647903542E+01  0.36649157368E+01  0.30000000000E-01 0.  1.
</event>
<event>
 5   0  0.4961200E+08  0.9118800E+02  0.7818608E-02  0.1180000E+00
       11   -1    0    0    0    0  0.00000000000E+00  0.00000000000E+00  0.39999999673E+01  0.40000000000E+01  0.51109989000E-03 0. -1.
     -623   -1    0    0    0    0  0.00000000000E+00  0.00000000000E+00  0.12525980253E-10  0.17130000000E+03  0.17130000000E+03 0. -1.
       11    1    1    2    0    0  0.14243396375E-02 -0.34362482020E-02  0.87391746322E+00  0.87392552903E+00  0.51109989000E-03 0. -1.
     -623    1    1    2    0    0  0.27264632361E-02 -0.16922578207E-03  0.15684398397E-03  0.17130000002E+03  0.17130000000E+03 0. -1.
      622    1    1    2    0    0 -0.41508028756E-02  0.36054739842E-02  0.31259256632E+01  0.31260744521E+01  0.30000000000E-01 0. -1.
</event>
<event>
 5   0  0.4961200E+08  0.9118800E+02  0.7818608E-02  0.1180000E+00
       11   -1    0    0    0    0  0.00000000000E+00  0.00000000000E+00  0.39999999673E+01  0.40000000000E+01  0.51109989000E-03 0. -1.
     -623   -1    0    0    0    0  0.00000000000E+00  0.00000000000E+00  0.12525980253E-10  0.17130000000E+03  0.17130000000E+03 0.  1.
       11    1    1    2    0    0  0.85205810415E-02 -0.15497210596E-01  0.11043994559E+01  0.11045411641E+01  0.51109989000E-03 0. -1.
     -623    1    1    2    0    0  0.94342392368E-02  0.58195117478E-02  0.36930176047E-03  0.17130000036E+03  0.17130000000E+03 0.  1.
      622    1    1    2    0    0 -0.17954820276E-01  0.96776988496E-02  0.28952312087E+01  0.28954584759E+01  0.30000000000E-01 0. -1.
</event>
<event>
 5   0  0.4961200E+08  0.9118800E+02  0.7818608E-02  0.1180000E+00
       11   -1    0    0    0    0  0.00000000000E+00  0.00000000000E+00  0.39999999673E+01  0.40000000000E+01  0.51109989000E-03 0.  1.
     -623   -1    0    0    0    0  0.00000000000E+00  0.00000000000E+00  0.12525980253E-10  0.17130000000E+03  0.17130000000E+03 0.  1.
       11    1    1    2    0    0  0.94029397551E-03 -0.19705983839E-02  0.21386811512E-01  0.21504054048E-01  0.51109989000E-03 0.  1.
     -623    1    1    2    0    0 -0.57524271185E-02  0.69930086843E-02  0.23663958868E-03  0.17130000024E+03  0.17130000000E+03 0.  1.
      622    1    1    2    0    0  0.48121331444E-02 -0.50224103021E-02  0.39783765172E+01  0.39784957074E+01  0.30000000000E-01 0.  1.
</event>
<event>
 5   0  0.4961200E+08  0.9118800E+02  0.7818608E-02  0.1180000E+00
       11   -1    0    0    0    0  0.00000000000E+00  0.00000000000E+00  0.39999999673E+01  0.40000000000E+01  0.51109989000E-03 0. -1.
     -623   -1    0    0    0    0  0.00000000000E+00  0.00000000000E+00  0.12525980253E-10  0.17130000000E+03  0.17130000000E+03 0.  1.
       11    1    1    2    0    0 -0.24236740533E-02 -0.35235411732E-01  0.15429025562E-01  0.38545096802E-01  0.51109989000E-03 0. -1.
     -623    1    1    2    0    0  0.11227812377E-02 -0.35821042328E-01  0.23872599878E-01  0.17130000541E+03  0.17130000000E+03 0.  1.
      622    1    1    2    0    0  0.13008928157E-02  0.71056454060E-01  0.39606983419E+01  0.39614494907E+01  0.30000000000E-01 0. -1.
</event>
<event>
 5   0  0.4961200E+08  0.9118800E+02  0.7818608E-02  0.1180000E+00
       11   -1    0    0    0    0  0.00000000000E+00  0.00000000000E+00  0.39999999673E+01  0.40000000000E+01  0.51109989000E-03 0.  1.
     -623   -1    0    0    0    0  0.00000000000E+00  0.00000000000E+00  0.12525980253E-10  0.17130000000E+03  0.17130000000E+03 0.  1.
       11    1    1    2    0    0  0.32563212125E-02  0.34769311446E-02  0.69442526077E+00  0.69444178783E+00  0.51109989000E-03 0.  1.
     -623    1    1    2    0    0 -0.13857547606E-02 -0.12796266154E-02  0.15390165238E-03  0.17130000001E+03  0.17130000000E+03 0.  1.
      622    1    1    2    0    0 -0.18705664519E-02 -0.21973045292E-02  0.33054208049E+01  0.33055582017E+01  0.30000000000E-01 0.  0.
</event>
<event>
 5   0  0.4961200E+08  0.9118800E+02  0.7818608E-02  0.1180000E+00
       11   -1    0    0    0    0  0.00000000000E+00  0.00000000000E+00  0.39999999673E+01  0.40000000000E+01  0.51109989000E-03 0.  1.
     -623   -1    0    0    0    0  0.00000000000E+00  0.00000000000E+00  0.12525980253E-10  0.17130000000E+03  0.17130000000E+03 0. -1.
       11    1    1    2    0    0  0.10977690373E-01 -0.81667631840E-02  0.88740202828E+00  0.88750764883E+00  0.51109989000E-03 0.  1.
     -623    1    1    2    0    0  0.21606472070E-02  0.49517410616E-02  0.27964686291E-03  0.17130000009E+03  0.17130000000E+03 0. -1.
      622    1    1    2    0    0 -0.13138337580E-01  0.32150221219E-02  0.31123182927E+01  0.31124922662E+01  0.30000000000E-01 0.  1.
</event>
<event>
 5   0  0.4961200E+08  0.9118800E+02  0.7818608E-02  0.1180000E+00
       11   -1    0    0    0    0  0.00000000000E+00  0.00000000000E+00  0.39999999673E+01  0.40000000000E+01  0.51109989000E-03 0.  1.
     -623   -1    0    0    0    0  0.00000000000E+00  0.00000000000E+00  0.12525980253E-10  0.17130000000E+03  0.17130000000E+03 0.  1.
       11    1    1    2    0    0  0.34013021686E-04 -0.34822304837E-02  0.95145233419E-02  0.10144676611E-01  0.51109989000E-03 0.  1.
     -623    1    1    2    0    0 -0.12036837375E-02 -0.45136330518E-03  0.74502528601E-03  0.17130000001E+03  0.17130000000E+03 0.  1.
      622    1    1    2    0    0  0.11696707159E-02  0.39335937889E-02  0.39897404188E+01  0.39898553170E+01  0.30000000000E-01 0.  1.
</event>
<event>
 5   0  0.4961200E+08  0.9118800E+02  0.7818608E-02  0.1180000E+00
       11   -1    0    0    0    0  0.00000000000E+00  0.00000000000E+00  0.39999999673E+01  0.40000000000E+01  0.51109989000E-03 0.  1.
     -623   -1    0    0    0    0  0.00000000000E+00  0.00000000000E+00  0.12525980253E-10  0.17130000000E+03  0.17130000000E+03 0.  1.
       11    1    1    2    0    0 -0.11761771738E-01  0.87347691355E-02  0.44715608885E+00  0.44739631702E+00  0.51109989000E-03 0.  1.
     -623    1    1    2    0    0 -0.57691882730E-03 -0.86408352115E-03  0.39701589792E-03  0.17130000000E+03  0.17130000000E+03 0.  1.
      622    1    1    2    0    0  0.12338690565E-01 -0.78706856143E-02  0.35524468626E+01  0.35526036794E+01  0.30000000000E-01 0.  1.
</event>
<event>
 5   0  0.4961200E+08  0.9118800E+02  0.7818608E-02  0.1180000E+00
       11   -1    0    0    0    0  0.00000000000E+00  0.00000000000E+00  0.39999999673E+01  0.40000000000E+01  0.51109989000E-03 0.  1.
     -623   -1    0    0    0    0  0.00000000000E+00  0.00000000000E+00  0.12525980253E-10  0.17130000000E+03  0.17130000000E+03 0. -1.
       11    1    1    2    0    0  0.35935210169E-03 -0.16705238183E-02  0.61348713006E-01  0.61374633151E-01  0.51109989000E-03 0.  1.
     -623    1    1    2    0    0 -0.33905569378E-03 -0.85507474421E-04  0.14053416165E-03  0.17130000000E+03  0.17130000000E+03 0. -1.
      622    1    1    2    0    0 -0.20296407640E-04  0.17560312928E-02  0.39385107233E+01  0.39386253695E+01  0.30000000000E-01 0.  1.
</event>
<event>
 5   0  0.4961200E+08  0.9118800E+02  0.7818608E-02  0.1180000E+00
       11   -1    0    0    0    0  0.00000000000E+00  0.00000000000E+00  0.39999999673E+01  0.40000000000E+01  0.51109989000E-03 0. -1.
     -623   -1    0    0    0    0  0.00000000000E+00  0.00000000000E+00  0.12525980253E-10  0.17130000000E+03  0.17130000000E+03 0.  1.
       11    1    1    2    0    0  0.22967999430E-05  0.42927040799E-04  0.23392316539E+00  0.23392372769E+00  0.51109989000E-03 0. -1.
     -623    1    1    2    0    0  0.96691071033E-03 -0.38071277731E-03  0.12016237085E-03  0.17130000000E+03  0.17130000000E+03 0.  1.
      622    1    1    2    0    0 -0.96920751027E-03  0.33778573651E-03  0.37659566396E+01  0.37660762691E+01  0.30000000000E-01 0. -1.
</event>
<event>
 5   0  0.4961200E+08  0.9118800E+02  0.7818608E-02  0.1180000E+00
       11   -1    0    0    0    0  0.00000000000E+00  0.00000000000E+00  0.39999999673E+01  0.40000000000E+01  0.51109989000E-03 0. -1.
     -623   -1    0    0    0    0  0.00000000000E+00  0.00000000000E+00  0.12525980253E-10  0.17130000000E+03  0.17130000000E+03 0. -1.
       11    1    1    2    0    0  0.19344823026E-02  0.37916880539E-02  0.33427304023E-01  0.33701112691E-01  0.51109989000E-03 0. -1.
     -623    1    1    2    0    0  0.20430232482E-02 -0.35000743699E-02  0.38928708166E-03  0.17130000005E+03  0.17130000000E+03 0. -1.
      622    1    1    2    0    0 -0.39775055508E-02 -0.29161368395E-03  0.39661833763E+01  0.39662988389E+01  0.30000000000E-01 0. -1.
</event>
<event>
 5   0  0.4961200E+08  0.9118800E+02  0.7818608E-02  0.1180000E+00
       11   -1    0    0    0    0  0.00000000000E+00  0.00000000000E+00  0.39999999673E+01  0.40000000000E+01  0.51109989000E-03 0. -1.
     -623   -1    0    0    0    0  0.00000000000E+00  0.00000000000E+00  0.12525980253E-10  0.17130000000E+03  0.17130000000E+03 0. -1.
       11    1    1    2    0    0 -0.28848586875E-03  0.73564430120E-03  0.25384762247E+00  0.25384936686E+00  0.51109989000E-03 0. -1.
     -623    1    1    2    0    0  0.66845543692E-05 -0.45426664120E-03  0.12185879156E-03  0.17130000000E+03  0.17130000000E+03 0. -1.
      622    1    1    2    0    0  0.28180131438E-03 -0.28137766003E-03  0.37460304858E+01  0.37461506322E+01  0.30000000000E-01 0. -1.
</event>
<event>
 5   0  0.4961200E+08  0.9118800E+02  0.7818608E-02  0.1180000E+00
       11   -1    0    0    0    0  0.00000000000E+00  0.00000000000E+00  0.39999999673E+01  0.40000000000E+01  0.51109989000E-03 0. -1.
     -623   -1    0    0    0    0  0.00000000000E+00  0.00000000000E+00  0.12525980253E-10  0.17130000000E+03  0.17130000000E+03 0.  1.
       11    1    1    2    0    0  0.21813793609E-02  0.60410720045E-04  0.80026949250E-02  0.83106205864E-02  0.51109989000E-03 0. -1.
     -623    1    1    2    0    0 -0.26025639967E-03  0.44029929965E-03  0.42112383514E-03  0.17130000000E+03  0.17130000000E+03 0.  1.
      622    1    1    2    0    0 -0.19211229613E-02 -0.50071001965E-03  0.39915761482E+01  0.39916893777E+01  0.30000000000E-01 0. -1.
</event>
<event>
 5   0  0.4961200E+08  0.9118800E+02  0.7818608E-02  0.1180000E+00
       11   -1    0    0    0    0  0.00000000000E+00  0.00000000000E+00  0.39999999673E+01  0.40000000000E+01  0.51109989000E-03 0.  1.
     -623   -1    0    0    0    0  0.00000000000E+00  0.00000000000E+00  0.12525980253E-10  0.17130000000E+03  0.17130000000E+03 0. -1.
       11    1    1    2    0    0 -0.16783546819E-01 -0.26854906344E-01  0.82055302245E+00  0.82116405018E+00  0.51109989000E-03 0.  1.
     -623    1    1    2    0    0  0.96596837551E-03 -0.31252947090E-03  0.90802017230E-03  0.17130000001E+03  0.17130000000E+03 0. -1.
      622    1    1    2    0    0  0.15817578443E-01  0.27167435815E-01  0.31785389247E+01  0.31788359444E+01  0.30000000000E-01 0. -1.
</event>
<event>
 5   0  0.4961200E+08  0.9118800E+02  0.7818608E-02  0.1180000E+00
       11   -1    0    0    0    0  0.00000000000E+00  0.00000000000E+00  0.39999999673E+01  0.40000000000E+01  0.51109989000E-03 0. -1.
     -623   -1    0    0    0    0  0.00000000000E+00  0.00000000000E+00  0.12525980253E-10  0.17130000000E+03  0.17130000000E+03 0. -1.
       11    1    1    2    0    0  0.12580734853E-03 -0.48805038472E-03  0.27992456201E-01  0.28001657928E-01  0.51109989000E-03 0. -1.
     -623    1    1    2    0    0  0.61502547280E-03 -0.40989295152E-03  0.12263603068E-03  0.17130000000E+03  0.17130000000E+03 0. -1.
      622    1    1    2    0    0 -0.74083282133E-03  0.89794333624E-03  0.39718848751E+01  0.39719983404E+01  0.30000000000E-01 0. -1.
</event>
<event>
 5   0  0.4961200E+08  0.9118800E+02  0.7818608E-02  0.1180000E+00
       11   -1    0    0    0    0  0.00000000000E+00  0.00000000000E+00  0.39999999673E+01  0.40000000000E+01  0.51109989000E-03 0. -1.
     -623   -1    0    0    0    0  0.00000000000E+00  0.00000000000E+00  0.12525980253E-10  0.17130000000E+03  0.17130000000E+03 0.  1.
       11    1    1    2    0    0  0.89270959461E-02  0.24424964544E-02  0.17987492001E+00  0.18011359444E+00  0.51109989000E-03 0. -1.
     -623    1    1    2    0    0  0.60867033214E-04 -0.10661410070E-02  0.36727425733E-03  0.17130000000E+03  0.17130000000E+03 0.  1.
      622    1    1    2    0    0 -0.89879629793E-02 -0.13763554470E-02  0.38197577742E+01  0.38198864029E+01  0.30000000000E-01 0. -1.
</event>
<event>
 5   0  0.4961200E+08  0.9118800E+02  0.7818608E-02  0.1180000E+00
       11   -1    0    0    0    0  0.00000000000E+00  0.00000000000E+00  0.39999999673E+01  0.40000000000E+01  0.51109989000E-03 0. -1.
     -623   -1    0    0    0    0  0.00000000000E+00  0.00000000000E+00  0.12525980253E-10  0.17130000000E+03  0.17130000000E+03 0.  1.
       11    1    1    2    0    0  0.56986459468E-02  0.12102608222E-01  0.11913252812E+00  0.11988230967E+00  0.51109989000E-03 0. -1.
     -623    1    1    2    0    0  0.17207971604E-02  0.16844893135E-03  0.89223595321E-03  0.17130000001E+03  0.17130000000E+03 0.  1.
      622    1    1    2    0    0 -0.74194431074E-02 -0.12271057153E-01  0.38799752036E+01  0.38801176796E+01  0.30000000000E-01 0. -1.
</event>
<event>
 5   0  0.4961200E+08  0.9118800E+02  0.7818608E-02  0.1180000E+00
       11   -1    0    0    0    0  0.00000000000E+00  0.00000000000E+00  0.39999999673E+01  0.40000000000E+01  0.51109989000E-03 0. -1.
     -623   -1    0    0    0    0  0.00000000000E+00  0.00000000000E+00  0.12525980253E-10  0.17130000000E+03  0.17130000000E+03 0.  1.
       11    1    1    2    0    0 -0.15498245207E-01  0.69558767593E-02  0.10668724218E+01  0.10670077813E+01  0.51109989000E-03 0. -1.
     -623    1    1    2    0    0  0.17804354888E-01  0.56742281406E-03  0.30024039980E-03  0.17130000093E+03  0.17130000000E+03 0.  1.
      622    1    1    2    0    0 -0.23061096882E-02 -0.75232995736E-02  0.29328273067E+01  0.29329912937E+01  0.30000000000E-01 0. -1.
</event>
<event>
 5   0  0.4961200E+08  0.9118800E+02  0.7818608E-02  0.1180000E+00
       11   -1    0    0    0    0  0.00000000000E+00  0.00000000000E+00  0.39999999673E+01  0.40000000000E+01  0.51109989000E-03 0. -1.
     -623   -1    0    0    0    0  0.00000000000E+00  0.00000000000E+00  0.12525980253E-10  0.17130000000E+03  0.17130000000E+03 0.  1.
       11    1    1    2    0    0 -0.23080540163E-01  0.48482829236E-02  0.52987833688E+00  0.53040317712E+00  0.51109989000E-03 0. -1.
     -623    1    1    2    0    0 -0.67423618561E-02  0.75246668337E-03  0.78734351950E-03  0.17130000014E+03  0.17130000000E+03 0.  1.
      622    1    1    2    0    0  0.29822902019E-01 -0.56007496069E-02  0.34693342870E+01  0.34695966867E+01  0.30000000000E-01 0. -1.
</event>
<event>
 5   0  0.4961200E+08  0.9118800E+02  0.7818608E-02  0.1180000E+00
       11   -1    0    0    0    0  0.00000000000E+00  0.00000000000E+00  0.39999999673E+01  0.40000000000E+01  0.51109989000E-03 0. -1.
     -623   -1    0    0    0    0  0.00000000000E+00  0.00000000000E+00  0.12525980253E-10  0.17130000000E+03  0.17130000000E+03 0. -1.
       11    1    1    2    0    0  0.20279141196E-02 -0.11706458466E-01  0.88975115221E+00  0.88983061742E+00  0.51109989000E-03 0. -1.
     -623    1    1    2    0    0  0.64335765671E-03 -0.90140104375E-03  0.25082943469E-03  0.17130000000E+03  0.17130000000E+03 0. -1.
      622    1    1    2    0    0 -0.26712717767E-02  0.12607859510E-01  0.31099979885E+01  0.31101693816E+01  0.30000000000E-01 0.  0.
</event>
<event>
 5   0  0.4961200E+08  0.9118800E+02  0.7818608E-02  0.1180000E+00
       11   -1    0    0    0    0  0.00000000000E+00  0.00000000000E+00  0.39999999673E+01  0.40000000000E+01  0.51109989000E-03 0. -1.
     -623   -1    0    0    0    0  0.00000000000E+00  0.00000000000E+00  0.12525980253E-10  0.17130000000E+03  0.17130000000E+03 0. -1.
       11    1    1    2    0    0  0.64817374036E-03 -0.79788249575E-03  0.11315509694E-01  0.11373597866E-01  0.51109989000E-03 0. -1.
     -623    1    1    2    0    0  0.60919041012E-03  0.80190740149E-03  0.17107915890E-03  0.17130000000E+03  0.17130000000E+03 0. -1.
      622    1    1    2    0    0 -0.12573641510E-02 -0.40249063920E-05  0.39885133818E+01  0.39886264024E+01  0.30000000000E-01 0. -1.
</event>
<event>
 5   0  0.4961200E+08  0.9118800E+02  0.7818608E-02  0.1180000E+00
       11   -1    0    0    0    0  0.00000000000E+00  0.00000000000E+00  0.39999999673E+01  0.40000000000E+01  0.51109989000E-03 0. -1.
     -623   -1    0    0    0    0  0.00000000000E+00  0.00000000000E+00  0.12525980253E-10  0.17130000000E+03  0.17130000000E+03 0. -1.
       11    1    1    2    0    0 -0.14924289246E-02 -0.10933952818E-02  0.22380811950E-01  0.22462965569E-01  0.51109989000E-03 0. -1.
     -623    1    1    2    0    0 -0.16268175444E-03  0.95412304097E-03  0.19560757841E-03  0.17130000000E+03  0.17130000000E+03 0. -1.
      622    1    1    2    0    0  0.16551106791E-02  0.13927224088E-03  0.39774235478E+01  0.39775370316E+01  0.30000000000E-01 0. -1.
</event>
<event>
 5   0  0.4961200E+08  0.9118800E+02  0.7818608E-02  0.1180000E+00
       11   -1    0    0    0    0  0.00000000000E+00  0.00000000000E+00  0.39999999673E+01  0.40000000000E+01  0.51109989000E-03 0.  1.
     -623   -1    0    0    0    0  0.00000000000E+00  0.00000000000E+00  0.12525980253E-10  0.17130000000E+03  0.17130000000E+03 0. -1.
       11    1    1    2    0    0 -0.45482475573E-02 -0.45880299682E-02  0.10945287324E+00  0.10964455871E+00  0.51109989000E-03 0.  1.
     -623    1    1    2    0    0  0.16538138022E-03 -0.13624781394E-03  0.31266314351E-03  0.17130000000E+03  0.17130000000E+03 0. -1.
      622    1    1    2    0    0  0.43828661771E-02  0.47242777821E-02  0.38902344310E+01  0.38903554409E+01  0.30000000000E-01 0.  1.
</event>
<event>
 5   0  0.4961200E+08  0.9118800E+02  0.7818608E-02  0.1180000E+00
       11   -1    0    0    0    0  0.00000000000E+00  0.00000000000E+00  0.39999999673E+01  0.40000000000E+01  0.51109989000E-03 0.  1.
     -623   -1    0    0    0    0  0.00000000000E+00  0.00000000000E+00  0.12525980253E-10  0.17130000000E+03  0.17130000000E+03 0.  1.
       11    1    1    2    0    0 -0.33701255839E-02 -0.15936450913E-02  0.75309558946E-01  0.75403503513E-01  0.51109989000E-03 0.  1.
     -623    1    1    2    0    0  0.87923732646E-02 -0.22936494688E-02  0.21448726210E-03  0.17130000024E+03  0.17130000000E+03 0.  1.
      622    1    1    2    0    0 -0.54222476807E-02  0.38872945601E-02  0.39244759212E+01  0.39245962554E+01  0.30000000000E-01 0.  1.
</event>
<event>
 5   0  0.4961200E+08  0.9118800E+02  0.7818608E-02  0.1180000E+00
       11   -1    0    0    0    0  0.00000000000E+00  0.00000000000E+00  0.39999999673E+01  0.40000000000E+01  0.51109989000E-03 0.  1.
     -623   -1    0    0    0    0  0.00000000000E+00  0.00000000000E+00  0.12525980253E-10  0.17130000000E+03  0.17130000000E+03 0. -1.
       11    1    1    2    0    0 -0.27885590780E-02 -0.11807707154E-02  0.94661608253E-01  0.94711412093E-01  0.51109989000E-03 0.  1.
     -623    1    1    2    0    0  0.94390089760E-03  0.51483415703E-02  0.16753246780E-03  0.17130000008E+03  0.17130000000E+03 0. -1.
      622    1    1    2    0    0  0.18446581804E-02 -0.39675708549E-02  0.39051708266E+01  0.39052885079E+01  0.30000000000E-01 0.  1.
</event>
<event>
 5   0  0.4961200E+08  0.9118800E+02  0.7818608E-02  0.1180000E+00
       11   -1    0    0    0    0  0.00000000000E+00  0.00000000000E+00  0.39999999673E+01  0.40000000000E+01  0.51109989000E-03 0.  1.
     -623   -1    0    0    0    0  0.00000000000E+00  0.00000000000E+00  0.12525980253E-10  0.17130000000E+03  0.17130000000E+03 0.  1.
       11    1    1    2    0    0  0.12744395208E-03  0.23544257466E-02  0.66645867266E-02  0.70878417531E-02  0.51109989000E-03 0.  1.
     -623    1    1    2    0    0  0.13085616884E-02 -0.10207897497E-02  0.53641350889E-03  0.17130000001E+03  0.17130000000E+03 0.  1.
      622    1    1    2    0    0 -0.14360056405E-02 -0.13336359969E-02  0.39927989671E+01  0.39929121494E+01  0.30000000000E-01 0.  1.
</event>
</LesHouchesEvents>
