<LesHouchesEvents version="1.0">
<header>
<!--
#*********************************************************************
#                                                                    *
#                       MadGraph/MadEvent                            *
#                                                                    *
#                      The new web generation                        *
#                                                                    *
#                   http://madgraph.hep.uiuc.edu                     *
#                   http://madgraph.phys.ucl.ac.be                   *
#                   http://madgraph.roma2.infn.it                    *
#                                                                    *
#            CP3 team                      Tim Stelzer               *
#      Universite de Louvain          University of Illinois         *
#                                                                    *
#....................................................................*
#                                                                    *
# This file contains all the information necessary to reproduce      *
# the events generated:                                              *
#                                                                    *
# 1. software version                                                *
# 2. proc_card.dat      : code generation info including model       *
# 3. param_card.dat     : model primary parameters in the LH format  *
# 4. run_card.dat       : running parameters (collider and cuts)     *
# 5. pythia_card.dat    : present only in the pythia event file      *
# 6. pgs_card.dat       : present only in the pgs event file         *
#                                                                    *
#                                                                    *
#*********************************************************************
-->
<MGVersion>
# MG/ME version    : 4.4.17
# madgraph version : 4.4.2
# template version : 2.4.8
# helas version    : 3.5
# model version    : usrmod_1.0.4
</MGVersion>
<MGProcCard>
#*********************************************************************
#                        MadGraph/MadEvent                           *
#                   http://madgraph.hep.uiuc.edu                     *
#                                                                    *
#                          proc_card.dat                             *
#                                                                    *
# This file is used to generate the code for a specific process.     *
# Some notation/conventions:                                         *
#                                                                    *
# 0. Do not modify the TAGS and their order.                         *
# 1. hash/pound is a comment.                                        *
# 2. The number after the @ is used as an identifier for the class   *
#    of processes. It can be any positive integer.                   *
# 3. The number of lines for the max couplings depends on how many   *
#    different classes of couplings are present in the model         *
#    In the SM these are just two: QED (which include EW) and QCD    *
# 4. Write "end_coup" after  the couplings list,                     *
#    to tell MG that the couplings input is over.                    *
# 5. Write "done" after the proc list to                             *
#    to tell MG that the proc input is over.                         *
# 6. Some model names available at present are:                      *
#    sm     =  Standard Model                                        *
#    smckm =  Standard Model with Cabibbo matrix                     *
#    mssm   =  Minimal Supersymmetric Standard Model                 *
#    2hdm   =  Generic Two Higgs Doublet model                       *
#    heft   =  Higgs EFT (+Standard Model)                           *
#    usrmod =  User Model                                            *
# 7. Don't leave spaces between the particles name in the            *
#    definition of the multiparticles.                               *
#*********************************************************************
#*********************************************************************
# Process(es) requested : mg2 input                                  *
#*********************************************************************
# Begin PROCESS # This is TAG. Do not modify this line
e- N+ > e- N+ x      # Radiative
QCD=0             # Max QCD couplings
QED=1             # Max QED couplings
QFD=0 
QND=1
QWD=9
QDS=2
end_coup           # End the couplings input
done               # this tells MG there are no more procs
# End PROCESS  # This is TAG. Do not modify this line
#*********************************************************************
# Model information                                                  *
#*********************************************************************
# Begin MODEL  # This is TAG. Do not modify this line
fixedAP2     
# End   MODEL  # This is TAG. Do not modify this line
#*********************************************************************
# Start multiparticle definitions                                    *
#*********************************************************************
# Begin MULTIPARTICLES # This is TAG. Do not modify this line
P uu~cc~dd~ss~gf+f-
J uu~cc~dd~ss~gf+f-
L+ e+mu+
L- e-mu-
vl vevm
vl~ ve~vm~
# End  MULTIPARTICLES # This is TAG. Do not modify this line
</MGProcCard>
<slha>
#*********************************************************************
#                        MadGraph/MadEvent                           *
#                   http://madgraph.hep.uiuc.edu                     *
#                                                                    *
#                         param_card.dat                             *
#                                                                    *
#   Les Houches friendly file for the SM parameters of MadGraph      *
#        Spectrum and decay widths produced by SMCalc                *
#                                                                    *
#  Please note the following IMPORTANT issues:                       *
#                                                                    *
# 0. REFRAIN from editing this file by hand! Some of the parame-     *
#    ters are not independent                                        *
#    (such as G_Fermi, alpha_em, sin(theta_W),MZ,MW) and serious     *
#    problems might be encountered (such as violation of unitarity   *
#    or gauge invariance).  Always use a calculator.                 *
#                                                                    *
# 1. alpha_S(MZ) has been used in the calculation of the parameters  *
#    but, for consistency, it will be reset by madgraph to the       *
#    value expected IF the pdfs for collisions with hadrons are      *
#    used. This value is KEPT by madgraph when no pdf are used       *
#    lpp(i)=0 .                                                      *
#                                                                    *
#  2. Values of the charm and bottom kinematic (pole) masses are     *
#     those used in the matrix elements and phase space UNLESS they  *
#     are set to ZERO from the start in the model (particles.dat)    *
#     This happens, for example,  when using 5-flavor QCD where      *
#     charm and bottom are treated as partons in the initial state   *
#     and a zero mass might be hardwired in the model definition.    *
#                                                                    *
##********************************************************************
Block MODSEL # Select Model
     0   1   #  0 1 = SM
Block SMINPUTS      # Standard Model inputs
     1         1.27900000E+02   # alpha_em(MZ)(-1) SM MSbar
     2         1.16600000E-05   # G_Fermi
     3         1.18000000E-01   # alpha_s(MZ) SM MSbar
     4         9.15445065E+01   # Z mass (as input parameter)
Block MGYUKAWA     # Yukawa masses m/v=y/sqrt(2)
#    PDG          YMASS
     5         4.20000000E+00   # mbottom for the Yukawa  y_b
     4         1.25000000E+00   # mcharm  for the Yukawa  y_c
     6         1.74300000E+02   # mtop    for the Yukawa  y_t
    15         1.77700000E+00   # mtau    for the Yukawa  y_ta
Block MGCKM     # CKM elements for MadGraph
     1   1     9.75000000E-01   # Vud for Cabibbo matrix
#===========================================================
# QUANTUM NUMBERS OF NEW STATE(S) (NON SM PDG CODE) IF ANY
# (see below for masses and decay tables)
# These blocks are automatically created by the MadGraph
# qnumbers.pl script from the particles.dat model file
#===========================================================
BLOCK QNUMBERS 611 # f-
         1  -3 # 3 times electric charge
         2  2 # number of spin states (2S+1)
         3  1 # colour rep (1: singlet, 3: triplet, 8: octet)
         4  1 # Particle/Antiparticle distinction (0=own anti)
BLOCK QNUMBERS 622 # x
         1  0 # 3 times electric charge
         2  3 # number of spin states (2S+1)
         3  1 # colour rep (1: singlet, 3: triplet, 8: octet)
         4  0 # Particle/Antiparticle distinction (0=own anti)
BLOCK QNUMBERS 623 # N-
         1  0 # 3 times electric charge
         2  2 # number of spin states (2S+1)
         3  1 # colour rep (1: singlet, 3: triplet, 8: octet)
         4  1 # Particle/Antiparticle distinction (0=own anti)
# END of QNUMBERS blocks
#===========================================================
Block MASS      #  Mass spectrum (kinematic masses)
#       PDG       Mass
         4     1.40000000E+00   # charm    pole mass
         5     4.20000000E+00   # bottom   pole mass
         6     1.74300000E+02   # top      pole mass
        11     0.51109989E-03   # electron mass
        13     0.10565837E+00   # muon     mass
        15     1.77700000E+00   # tau      mass
        23     9.15445065E+01   # Z        mass
        24     8.02673592E+01   # W        mass
        25     1.20000000E+02   # H        mass
       611 0.6 # FMASS
       622 1.8 # APMASS
       623     1.71300000e+02   # HPMASS (tungsten)
#            PDG       Width
DECAY       611     0.00000000e+00   # ELWIDTH
DECAY 622 0.05465943945 # APWIDTH
DECAY       623     0.00000000e+00   # HPWIDTH
DECAY         6     1.51013490E+00   # top width
DECAY        23     2.44639985E+00   # Z   width
DECAY        24     2.03535570E+00   # W   width
DECAY        25     6.79485838E-03   # H   width
#        BR           NDA        ID1       ID2
     7.00588389E-02    2           4        -4   # BR( H -> c  cbar  )
     7.61074375E-01    2           5        -5   # BR( H -> b  bbar  )
     0.00000000E+00    2           6        -6   # BR( H -> t  tbar  )
     3.65529942E-02    2          15       -15   # BR( H -> tau- tau+)
     5.84716539E-03    2          23        23   # BR( H -> Z   Z^(*))
     6.31545979E-02    2          24       -24   # BR( H -> W   W^(*))
     2.55499652E-02    2          21        21   # BR( H -> g   g    )
     1.20906932E-03    2          22        22   # BR( H -> A   A    )
BLOCK MGUSER
         1     1.00000000e-00   # epsilon ,mixing coefficient
         2     74.0000000e+00   # Znuc    ,nuclear charge
</slha>
<MGRunCard>
#*********************************************************************
#                       MadGraph/MadEvent                            *
#                  http://madgraph.hep.uiuc.edu                      *
#                                                                    *
#                        run_card.dat                                *
#                                                                    *
#  This file is used to set the parameters of the run.               *
#                                                                    *
#  Some notation/conventions:                                        *
#                                                                    *
#   Lines starting with a '# ' are info or comments                  *
#                                                                    *
#   mind the format:   value    = variable     ! comment             *
#*********************************************************************
#
#*******************                                                 
# Running parameters
#*******************                                                 
#                                                                    
#*********************************************************************
# Tag name for the run (one word)                                    *
#*********************************************************************
  'HPS'     = run_tag ! name of the run 
#*********************************************************************
# Run to generate the grid pack                                      *
#*********************************************************************
  .false.     = gridpack  !True = setting up the grid pack
#*********************************************************************
# Number of events and rnd seed                                      *
#*********************************************************************
   1000      = nevents ! Number of unweighted events requested 
188722 = iseed ! rnd seed (0=assigned automatically=default))
#*********************************************************************
# Collider type and energy                                           *
#*********************************************************************
        0     = lpp1  ! beam 1 type (0=NO PDF)
        0     = lpp2  ! beam 2 type (0=NO PDF)
4 = ebeam1  ! beam 1 energy in GeV
    171.3    = ebeam2  ! beam 2 energy in GeV
    0.000511  = mbeam1  ! beam 1 energy in GeV
    171.3    = mbeam2  ! beam 2 energy in GeV
#*********************************************************************
# Beam polarization from -100 (left-handed) to 100 (right-handed)    *
#*********************************************************************
        0     = polbeam1 ! beam polarization for beam 1
        0     = polbeam2 ! beam polarization for beam 2
#*********************************************************************
# PDF CHOICE: this automatically fixes also alpha_s and its evol.    *
#*********************************************************************
 'cteq6l1'    = pdlabel     ! PDF set                                     
#*********************************************************************
# Renormalization and factorization scales                           *
#*********************************************************************
 F        = fixed_ren_scale  ! if .true. use fixed ren scale
 F        = fixed_fac_scale  ! if .true. use fixed fac scale
 91.1880  = scale            ! fixed ren scale
 91.1880  = dsqrt_q2fact1    ! fixed fact scale for pdf1
 91.1880  = dsqrt_q2fact2    ! fixed fact scale for pdf2
 1        = scalefact        ! scale factor for event-by-event scales
 F        = fixed_couplings  ! if .false. calc. coupl. for every event
#*********************************************************************
# Matching - Warning! ickkw > 0 is still beta
#*********************************************************************
 0        = ickkw            ! 0 no matching, 1 MLM, 2 CKKW matching
#*********************************************************************
#                                                                    
#**********************************
32.9311829414 = bwcutoff*Gamma)
#**********************************
32.9311829414 = bwcutoff
#*******************                                                 
# Fixed-Target Cuts
#*******************                                                 
#
 0.0 = ef        ! minimum E for all f's
 100.0 = efmax     ! maximum E for all f's
 0.0 = thetafmin ! min angle for both f's
 100.0 = thetafmax ! max angle for both f's
 0.0 = thetaxfmin ! min angle (x direction) for both f's
 100.0 = thetaxfmax ! max angle (x direction) for both f's 
 0.0 = thetayfmin ! min angle (y direction) for both f's
 100.0 = thetayfmax ! max angle (y direction) for both f's 
 0.0 = xthetaxfmin ! min angle (x direction) for >=1 f's
 100.0 = xthetaxfmax ! max angle (x direction) for >=1 f's 
 0.0 = xthetayfmin ! min angle (y direction) for >=1 f's
 100.0 = xthetayfmax ! max angle (y direction) for >=1 f's 
 0.0 = mmff      ! min invariant mass of f+f- lepton pair
 100.0 = mmffmax  ! max invariant mass of f+f- lepton pair
 0.0 = xef       ! min. energy for at least one f
 0.0 = xthetaf   ! minimum angle for at least one f
 0.0 = eftot     ! minimum energy for the two f's
 0d0 = efrat     ! min. ratio Emin/Emax for the two f's
 0.0  = el     !!! 0.2 = el  !!! was 0.05 with normal cuts! minimum E for the charged leptons 
 0.0  = drll  !!! was 0.1  ! min distance between leptons 
 0.0  = mmll    ! min invariant mass of l+l- (same flavour) lepton pair
#
#*******************                                                 
# Standard Cuts
#*******************                                                 
#                                                                    
#*********************************************************************
# Minimum and maximum pt's                                           *
#*********************************************************************
  0  = ptj       ! minimum pt for the jets 
  0  = ptb       ! minimum pt for the b 
  0  = pta       ! minimum pt for the photons 
  0  = ptl       ! minimum pt for the charged leptons 
  0  = misset    ! minimum missing Et (sum of neutrino's momenta)
  0  = ptheavy   ! minimum pt for one heavy final state
 1.0 = ptonium   ! minimum pt for the quarkonium states
 1d5 = ptjmax    ! maximum pt for the jets
 1d5 = ptbmax    ! maximum pt for the b
 1d5 = ptamax    ! maximum pt for the photons
 1d9 = ptlmax    ! maximum pt for the charged leptons
 1d9 = missetmax ! maximum missing Et (sum of neutrino's momenta)
#*********************************************************************
# Minimum and maximum E's (in the lab frame)                         *
#*********************************************************************
  0  = ej     ! minimum E for the jets 
  0  = eb     ! minimum E for the b 
  0  = ea     ! minimum E for the photons 
 1d5  = ejmax ! maximum E for the jets
 1d5  = ebmax ! maximum E for the b
 1d5  = eamax ! maximum E for the photons
 1.2  = elmax ! maximum E for the charged leptons
#*********************************************************************
# Maximum and minimum rapidity                                       *
#*********************************************************************
 1d5  = etaj    ! max rap for the jets 
 1d5  = etab    ! max rap for the b 
 1d5  = etaa    ! max rap for the photons 
 1d5  = etal     !!! 1(2) wth cuts ! max rap for the charged leptons 
 1d5  = etafl     !!! 0(1) wth cuts ! max rap for the charged leptons 
 0.0  = etaonium ! max rap for the quarkonium states
 0d0  = etajmin ! min rap for the jets
 0d0  = etabmin ! min rap for the b
 0d0  = etaamin ! min rap for the photons
 0d0  = etalmin ! main rap for the charged lepton
#*********************************************************************
# Minimum and maximum DeltaR distance                                *
#*********************************************************************
 0   = drjj    ! min distance between jets 
 0   = drbb    ! min distance between b's 
 0   = draa    ! min distance between gammas 
 0   = drbj    ! min distance between b and jet 
 0   = draj    ! min distance between gamma and jet 
 0   = drjl    ! min distance between jet and lepton 
 0   = drab    ! min distance between gamma and b 
 0   = drbl    ! min distance between b and lepton 
 0   = dral    ! min distance between gamma and lepton 
 1d2 = drjjmax ! max distance between jets
 1d2 = drbbmax ! max distance between b's
 1d9 = drllmax ! max distance between leptons
 1d2 = draamax ! max distance between gammas
 1d2 = drbjmax ! max distance between b and jet
 1d2 = drajmax ! max distance between gamma and jet
 1d2 = drjlmax ! max distance between jet and lepton
 1d2 = drabmax ! max distance between gamma and b
 1d2 = drblmax ! max distance between b and lepton
 1d2 = dralmax ! maxdistance between gamma and lepton
#*********************************************************************
# Minimum and maximum invariant mass for pairs                       *
#*********************************************************************
 0   = mmjj    ! min invariant mass of a jet pair 
 0   = mmbb    ! min invariant mass of a b pair 
 0   = mmaa    ! min invariant mass of gamma gamma pair
 1d5 = mmjjmax ! max invariant mass of a jet pair
 1d5 = mmbbmax ! max invariant mass of a b pair
 1d5 = mmaamax ! max invariant mass of gamma gamma pair
 1d5 = mmllmax ! max invariant mass of l+l- (same flavour) lepton pair
#*********************************************************************
# Minimum and maximum invariant mass for all letpons                 *
#*********************************************************************
 0   = mmnl    ! min invariant mass for all letpons (l+- and vl) 
 1d9 = mmnlmax ! max invariant mass for all letpons (l+- and vl) 
#*********************************************************************
# Inclusive cuts                                                     *
#*********************************************************************
 0  = xptj ! minimum pt for at least one jet  
 0  = xptb ! minimum pt for at least one b 
 0  = xpta ! minimum pt for at least one photon 
 0  = xptl ! minimum pt for at least one charged lepton 
#*********************************************************************
# Control the pt's of the jets sorted by pt                          *
#*********************************************************************
 0   = ptj1min ! minimum pt for the leading jet in pt
 0   = ptj2min ! minimum pt for the second jet in pt
 0   = ptj3min ! minimum pt for the third jet in pt
 0   = ptj4min ! minimum pt for the fourth jet in pt
 1d5 = ptj1max ! maximum pt for the leading jet in pt 
 1d5 = ptj2max ! maximum pt for the second jet in pt
 1d5 = ptj3max ! maximum pt for the third jet in pt
 1d5 = ptj4max ! maximum pt for the fourth jet in pt
 0   = cutuse  ! reject event if fails any (0) / all (1) jet pt cuts
#*********************************************************************
# Control the Ht(k)=Sum of k leading jets                            *
#*********************************************************************
 0   = htjmin ! minimum jet HT=Sum(jet pt)
 1d5 = htjmax ! maximum jet HT=Sum(jet pt)
 0   = ht2min ! minimum Ht for the two leading jets
 0   = ht3min ! minimum Ht for the three leading jets
 0   = ht4min ! minimum Ht for the four leading jets
 1d5 = ht2max ! maximum Ht for the two leading jets
 1d5 = ht3max ! maximum Ht for the three leading jets
 1d5 = ht4max ! maximum Ht for the four leading jets
#*********************************************************************
# WBF cuts                                                           *
#*********************************************************************
 0   = xetamin ! minimum rapidity for two jets in the WBF case  
 0   = deltaeta ! minimum rapidity for two jets in the WBF case 
#*********************************************************************
# maximal pdg code for quark to be considered as a jet               *
# otherwise b cuts are applied                                       *
#*********************************************************************
 4 = maxjetflavor
#*********************************************************************
# Jet measure cuts                                                   *
#*********************************************************************
 0   = xqcut   ! minimum kt jet measure between partons
#*********************************************************************
</MGRunCard>
<MGGenerationInfo>
#  Number of Events        :        1000
#  Integrated weight (pb)  :  .77645E+02
#  Truncated wgt (pb)      :  .28048E+00
#  Unit wgt                :  .77645E-01
</MGGenerationInfo>
</header>
<init>
       11     -623  0.40000000000E+01  0.17130000000E+03 0 0     0     0 3  1
  0.77203902780E+02  0.81173224435E+00  0.77645000000E-01   0
</init>
<event>
 5   0  0.7764500E-01  0.9118800E+02  0.7818608E-02  0.1180000E+00
       11   -1    0    0    0    0  0.00000000000E+00  0.00000000000E+00  0.39999999673E+01  0.40000000000E+01  0.51109989000E-03 0.  1.
     -623   -1    0    0    0    0  0.00000000000E+00  0.00000000000E+00  0.12525980253E-10  0.17130000000E+03  0.17130000000E+03 0. -1.
       11    1    1    2    0    0  0.10090825724E+00  0.64105746749E-01  0.68485785168E-01  0.13777730995E+00  0.51109989000E-03 0.  1.
     -623    1    1    2    0    0 -0.40466604797E+00 -0.13959532774E+00  0.53028987327E+00  0.17130135565E+03  0.17130000000E+03 0. -1.
      622    1    1    2    0    0  0.30375779073E+00  0.75489580996E-01  0.34012243089E+01  0.38608670363E+01  0.18000000000E+01 0.  1.
</event>
<event>
 5   0  0.7764500E-01  0.9118800E+02  0.7818608E-02  0.1180000E+00
       11   -1    0    0    0    0  0.00000000000E+00  0.00000000000E+00  0.39999999673E+01  0.40000000000E+01  0.51109989000E-03 0.  1.
     -623   -1    0    0    0    0  0.00000000000E+00  0.00000000000E+00  0.12525980253E-10  0.17130000000E+03  0.17130000000E+03 0.  1.
       11    1    1    2    0    0 -0.12192971476E+00  0.14284598334E+00  0.25234438435E+00  0.31456283925E+00  0.51109989000E-03 0.  1.
     -623    1    1    2    0    0  0.28704586638E+00 -0.74930992949E-01  0.53791200890E+00  0.17130110145E+03  0.17130000000E+03 0.  1.
      622    1    1    2    0    0 -0.16511615162E+00 -0.67914990387E-01  0.32097435741E+01  0.36843357069E+01  0.18000000000E+01 0.  1.
</event>
<event>
 5   0  0.7764500E-01  0.9118800E+02  0.7818608E-02  0.1180000E+00
       11   -1    0    0    0    0  0.00000000000E+00  0.00000000000E+00  0.39999999673E+01  0.40000000000E+01  0.51109989000E-03 0.  1.
     -623   -1    0    0    0    0  0.00000000000E+00  0.00000000000E+00  0.12525980253E-10  0.17130000000E+03  0.17130000000E+03 0.  1.
       11    1    1    2    0    0 -0.46598476664E-01  0.18728988191E+00  0.43549491750E+00  0.47634546528E+00  0.51109989000E-03 0.  1.
     -623    1    1    2    0    0 -0.24118152886E+00 -0.78968603089E-01  0.55219786958E+00  0.17130107801E+03  0.17130000000E+03 0.  1.
      622    1    1    2    0    0  0.28778000552E+00 -0.10832127882E+00  0.30123071803E+01  0.35225765257E+01  0.18000000000E+01 0.  1.
</event>
<event>
 5   0  0.7764500E-01  0.9118800E+02  0.7818608E-02  0.1180000E+00
       11   -1    0    0    0    0  0.00000000000E+00  0.00000000000E+00  0.39999999673E+01  0.40000000000E+01  0.51109989000E-03 0.  1.
     -623   -1    0    0    0    0  0.00000000000E+00  0.00000000000E+00  0.12525980253E-10  0.17130000000E+03  0.17130000000E+03 0.  1.
       11    1    1    2    0    0  0.11049249270E+00  0.51688109603E-03 -0.29056694743E-01  0.11425152445E+00  0.51109989000E-03 0.  1.
     -623    1    1    2    0    0 -0.39882317356E+00  0.26115086190E-01  0.59927098555E+00  0.17130151449E+03  0.17130000000E+03 0.  1.
      622    1    1    2    0    0  0.28833068087E+00 -0.26631967286E-01  0.34297856765E+01  0.38842339824E+01  0.18000000000E+01 0.  1.
</event>
<event>
 5   0  0.7764500E-01  0.9118800E+02  0.7818608E-02  0.1180000E+00
       11   -1    0    0    0    0  0.00000000000E+00  0.00000000000E+00  0.39999999673E+01  0.40000000000E+01  0.51109989000E-03 0.  1.
     -623   -1    0    0    0    0  0.00000000000E+00  0.00000000000E+00  0.12525980253E-10  0.17130000000E+03  0.17130000000E+03 0.  1.
       11    1    1    2    0    0 -0.20492550541E+00 -0.31226586315E-01  0.38450614094E+00  0.43682352971E+00  0.51109989000E-03 0.  1.
     -623    1    1    2    0    0  0.34315305000E+00 -0.37162419185E-01  0.54567749172E+00  0.17130121686E+03  0.17130000000E+03 0.  1.
      622    1    1    2    0    0 -0.13822754459E+00  0.68389005500E-01  0.30698163347E+01  0.35619596066E+01  0.18000000000E+01 0.  1.
</event>
<event>
 5   0  0.7764500E-01  0.9118800E+02  0.7818608E-02  0.1180000E+00
       11   -1    0    0    0    0  0.00000000000E+00  0.00000000000E+00  0.39999999673E+01  0.40000000000E+01  0.51109989000E-03 0.  1.
     -623   -1    0    0    0    0  0.00000000000E+00  0.00000000000E+00  0.12525980253E-10  0.17130000000E+03  0.17130000000E+03 0. -1.
       11    1    1    2    0    0 -0.42465831425E-01 -0.17885960621E-01  0.26041918759E+00  0.26446487274E+00  0.51109989000E-03 0.  1.
     -623    1    1    2    0    0 -0.18949449426E+00  0.25364929647E+00  0.48419522396E+00  0.17130097691E+03  0.17130000000E+03 0. -1.
      622    1    1    2    0    0  0.23196032569E+00 -0.23576333585E+00  0.32553855558E+01  0.37345582149E+01  0.18000000000E+01 0.  1.
</event>
<event>
 5   0  0.7764500E-01  0.9118800E+02  0.7818608E-02  0.1180000E+00
       11   -1    0    0    0    0  0.00000000000E+00  0.00000000000E+00  0.39999999673E+01  0.40000000000E+01  0.51109989000E-03 0.  1.
     -623   -1    0    0    0    0  0.00000000000E+00  0.00000000000E+00  0.12525980253E-10  0.17130000000E+03  0.17130000000E+03 0.  1.
       11    1    1    2    0    0  0.11865156980E+00 -0.20080881428E+00  0.10992875872E+00  0.25785067020E+00  0.51109989000E-03 0.  1.
     -623    1    1    2    0    0  0.11462632842E+00 -0.52787039512E-01  0.62878794050E+00  0.17130120052E+03  0.17130000000E+03 0.  1.
      622    1    1    2    0    0 -0.23327789822E+00  0.25359585379E+00  0.32612832681E+01  0.37409488088E+01  0.18000000000E+01 0.  1.
</event>
<event>
 5   0  0.7764500E-01  0.9118800E+02  0.7818608E-02  0.1180000E+00
       11   -1    0    0    0    0  0.00000000000E+00  0.00000000000E+00  0.39999999673E+01  0.40000000000E+01  0.51109989000E-03 0.  1.
     -623   -1    0    0    0    0  0.00000000000E+00  0.00000000000E+00  0.12525980253E-10  0.17130000000E+03  0.17130000000E+03 0. -1.
       11    1    1    2    0    0  0.26934439569E-01 -0.16628661566E+00  0.50448597041E+00  0.53186751935E+00  0.51109989000E-03 0.  1.
     -623    1    1    2    0    0 -0.16997960269E-01  0.12755535213E+00  0.53236167271E+00  0.17130087556E+03  0.17130000000E+03 0. -1.
      622    1    1    2    0    0 -0.99364792992E-02  0.38731263529E-01  0.29631523242E+01  0.34672569188E+01  0.18000000000E+01 0.  1.
</event>
<event>
 5   0  0.7764500E-01  0.9118800E+02  0.7818608E-02  0.1180000E+00
       11   -1    0    0    0    0  0.00000000000E+00  0.00000000000E+00  0.39999999673E+01  0.40000000000E+01  0.51109989000E-03 0.  1.
     -623   -1    0    0    0    0  0.00000000000E+00  0.00000000000E+00  0.12525980253E-10  0.17130000000E+03  0.17130000000E+03 0. -1.
       11    1    1    2    0    0  0.54178383680E-02  0.28269227257E+00  0.13311182802E+00  0.31251127007E+00  0.51109989000E-03 0.  1.
     -623    1    1    2    0    0 -0.11726180109E+00 -0.43080481908E+00  0.65603554271E+00  0.17130183807E+03  0.17130000000E+03 0. -1.
      622    1    1    2    0    0  0.11184396272E+00  0.14811254651E+00  0.32108525966E+01  0.36856506611E+01  0.18000000000E+01 0.  1.
</event>
<event>
 5   0  0.7764500E-01  0.9118800E+02  0.7818608E-02  0.1180000E+00
       11   -1    0    0    0    0  0.00000000000E+00  0.00000000000E+00  0.39999999673E+01  0.40000000000E+01  0.51109989000E-03 0. -1.
     -623   -1    0    0    0    0  0.00000000000E+00  0.00000000000E+00  0.12525980253E-10  0.17130000000E+03  0.17130000000E+03 0. -1.
       11    1    1    2    0    0  0.73123530789E-01  0.25889638624E+00 -0.94963940651E-01  0.28529423550E+00  0.51109989000E-03 0. -1.
     -623    1    1    2    0    0 -0.46558938326E-01 -0.24301148809E+00  0.84824935799E+00  0.17130227888E+03  0.17130000000E+03 0. -1.
      622    1    1    2    0    0 -0.26564592463E-01 -0.15884898144E-01  0.32467145500E+01  0.37124268851E+01  0.18000000000E+01 0. -1.
</event>
<event>
 5   0  0.7764500E-01  0.9118800E+02  0.7818608E-02  0.1180000E+00
       11   -1    0    0    0    0  0.00000000000E+00  0.00000000000E+00  0.39999999673E+01  0.40000000000E+01  0.51109989000E-03 0.  1.
     -623   -1    0    0    0    0  0.00000000000E+00  0.00000000000E+00  0.12525980253E-10  0.17130000000E+03  0.17130000000E+03 0. -1.
       11    1    1    2    0    0  0.31598966358E+00  0.66098456503E-01  0.38274719076E+00  0.50071363741E+00  0.51109989000E-03 0.  1.
     -623    1    1    2    0    0 -0.30728351608E+00 -0.19482349877E+00  0.62095831931E+00  0.17130151187E+03  0.17130000000E+03 0. -1.
      622    1    1    2    0    0 -0.87061474953E-02  0.12872504227E+00  0.29962944573E+01  0.34977744936E+01  0.18000000000E+01 0.  1.
</event>
<event>
 5   0  0.7764500E-01  0.9118800E+02  0.7818608E-02  0.1180000E+00
       11   -1    0    0    0    0  0.00000000000E+00  0.00000000000E+00  0.39999999673E+01  0.40000000000E+01  0.51109989000E-03 0. -1.
     -623   -1    0    0    0    0  0.00000000000E+00  0.00000000000E+00  0.12525980253E-10  0.17130000000E+03  0.17130000000E+03 0.  1.
       11    1    1    2    0    0 -0.15689264610E+00  0.85701015912E-01  0.93002694925E-01  0.20151855748E+00  0.51109989000E-03 0. -1.
     -623    1    1    2    0    0  0.29074137805E-01 -0.13280893397E+00  0.56598059294E+00  0.17130098896E+03  0.17130000000E+03 0.  1.
      622    1    1    2    0    0  0.12781850829E+00  0.47107918063E-01  0.33410166795E+01  0.37974924858E+01  0.18000000000E+01 0. -1.
</event>
<event>
 5   0  0.7764500E-01  0.9118800E+02  0.7818608E-02  0.1180000E+00
       11   -1    0    0    0    0  0.00000000000E+00  0.00000000000E+00  0.39999999673E+01  0.40000000000E+01  0.51109989000E-03 0.  1.
     -623   -1    0    0    0    0  0.00000000000E+00  0.00000000000E+00  0.12525980253E-10  0.17130000000E+03  0.17130000000E+03 0.  1.
       11    1    1    2    0    0  0.13225389413E+00  0.27483141739E+00  0.22972815146E+00  0.38183594028E+00  0.51109989000E-03 0.  1.
     -623    1    1    2    0    0 -0.42718173633E-01  0.32946802332E+00  0.69367875740E+00  0.17130172668E+03  0.17130000000E+03 0.  1.
      622    1    1    2    0    0 -0.89535720493E-01 -0.60429944070E+00  0.30765930585E+01  0.36164373777E+01  0.18000000000E+01 0.  1.
</event>
<event>
 5   0  0.7764500E-01  0.9118800E+02  0.7818608E-02  0.1180000E+00
       11   -1    0    0    0    0  0.00000000000E+00  0.00000000000E+00  0.39999999673E+01  0.40000000000E+01  0.51109989000E-03 0. -1.
     -623   -1    0    0    0    0  0.00000000000E+00  0.00000000000E+00  0.12525980253E-10  0.17130000000E+03  0.17130000000E+03 0. -1.
       11    1    1    2    0    0 -0.28551925544E-01  0.19423642545E+00 -0.23514474467E-02  0.19633846273E+00  0.51109989000E-03 0. -1.
     -623    1    1    2    0    0 -0.27998690724E+00 -0.36995074933E+00  0.67264466849E+00  0.17130194893E+03  0.17130000000E+03 0. -1.
      622    1    1    2    0    0  0.30853883279E+00  0.17571432388E+00  0.33297067463E+01  0.38017126077E+01  0.18000000000E+01 0. -1.
</event>
<event>
 5   0  0.7764500E-01  0.9118800E+02  0.7818608E-02  0.1180000E+00
       11   -1    0    0    0    0  0.00000000000E+00  0.00000000000E+00  0.39999999673E+01  0.40000000000E+01  0.51109989000E-03 0.  1.
     -623   -1    0    0    0    0  0.00000000000E+00  0.00000000000E+00  0.12525980253E-10  0.17130000000E+03  0.17130000000E+03 0.  1.
       11    1    1    2    0    0  0.21585480935E+00 -0.13530768464E-01  0.25941509658E+00  0.33774670090E+00  0.51109989000E-03 0.  1.
     -623    1    1    2    0    0 -0.30202305477E-01  0.76785201716E-01  0.55831802386E+00  0.17130092973E+03  0.17130000000E+03 0.  1.
      622    1    1    2    0    0 -0.18565250387E+00 -0.63254433252E-01  0.31822668469E+01  0.36613235668E+01  0.18000000000E+01 0.  1.
</event>
<event>
 5   0  0.7764500E-01  0.9118800E+02  0.7818608E-02  0.1180000E+00
       11   -1    0    0    0    0  0.00000000000E+00  0.00000000000E+00  0.39999999673E+01  0.40000000000E+01  0.51109989000E-03 0.  1.
     -623   -1    0    0    0    0  0.00000000000E+00  0.00000000000E+00  0.12525980253E-10  0.17130000000E+03  0.17130000000E+03 0.  1.
       11    1    1    2    0    0  0.65580948243E-01  0.98148372797E-01  0.89517913119E-01  0.14814750031E+00  0.51109989000E-03 0.  1.
     -623    1    1    2    0    0  0.17697677467E+00  0.27434760525E-01  0.51704270309E+00  0.17130087392E+03  0.17130000000E+03 0.  1.
      622    1    1    2    0    0 -0.24255772292E+00 -0.12558313332E+00  0.33934393511E+01  0.38509785772E+01  0.18000000000E+01 0.  1.
</event>
<event>
 5   0  0.7764500E-01  0.9118800E+02  0.7818608E-02  0.1180000E+00
       11   -1    0    0    0    0  0.00000000000E+00  0.00000000000E+00  0.39999999673E+01  0.40000000000E+01  0.51109989000E-03 0.  1.
     -623   -1    0    0    0    0  0.00000000000E+00  0.00000000000E+00  0.12525980253E-10  0.17130000000E+03  0.17130000000E+03 0. -1.
       11    1    1    2    0    0 -0.16016110325E+00 -0.13005018012E+00  0.19604387229E+00  0.28460163287E+00  0.51109989000E-03 0.  1.
     -623    1    1    2    0    0  0.61654291298E-01 -0.54028592513E-01  0.56148579643E+00  0.17130093983E+03  0.17130000000E+03 0. -1.
      622    1    1    2    0    0  0.98506811956E-01  0.18407877264E+00  0.32424702986E+01  0.37144585371E+01  0.18000000000E+01 0.  1.
</event>
<event>
 5   0  0.7764500E-01  0.9118800E+02  0.7818608E-02  0.1180000E+00
       11   -1    0    0    0    0  0.00000000000E+00  0.00000000000E+00  0.39999999673E+01  0.40000000000E+01  0.51109989000E-03 0. -1.
     -623   -1    0    0    0    0  0.00000000000E+00  0.00000000000E+00  0.12525980253E-10  0.17130000000E+03  0.17130000000E+03 0. -1.
       11    1    1    2    0    0  0.74807634402E-01 -0.57633110017E-01  0.57254248294E-01  0.11043580808E+00  0.51109989000E-03 0. -1.
     -623    1    1    2    0    0 -0.10880381517E-01  0.30841838762E+00  0.50563020053E+00  0.17130102423E+03  0.17130000000E+03 0. -1.
      622    1    1    2    0    0 -0.63927252885E-01 -0.25078527760E+00  0.34371155185E+01  0.38885399621E+01  0.18000000000E+01 0. -1.
</event>
<event>
 5   0  0.7764500E-01  0.9118800E+02  0.7818608E-02  0.1180000E+00
       11   -1    0    0    0    0  0.00000000000E+00  0.00000000000E+00  0.39999999673E+01  0.40000000000E+01  0.51109989000E-03 0.  1.
     -623   -1    0    0    0    0  0.00000000000E+00  0.00000000000E+00  0.12525980253E-10  0.17130000000E+03  0.17130000000E+03 0. -1.
       11    1    1    2    0    0 -0.77219227445E-01 -0.34090670089E+00  0.60114606328E+00  0.69538265611E+00  0.51109989000E-03 0.  1.
     -623    1    1    2    0    0  0.52192428071E+00  0.78611421181E-01  0.67861848973E+00  0.17130215734E+03  0.17130000000E+03 0. -1.
      622    1    1    2    0    0 -0.44470505326E+00  0.26229527971E+00  0.27202354143E+01  0.33024600085E+01  0.18000000000E+01 0.  1.
</event>
<event>
 5   0  0.7764500E-01  0.9118800E+02  0.7818608E-02  0.1180000E+00
       11   -1    0    0    0    0  0.00000000000E+00  0.00000000000E+00  0.39999999673E+01  0.40000000000E+01  0.51109989000E-03 0.  1.
     -623   -1    0    0    0    0  0.00000000000E+00  0.00000000000E+00  0.12525980253E-10  0.17130000000E+03  0.17130000000E+03 0. -1.
       11    1    1    2    0    0  0.24313960717E-01 -0.10393334567E-01  0.75618024678E-01  0.80109531053E-01  0.51109989000E-03 0.  1.
     -623    1    1    2    0    0 -0.12627211636E+00 -0.22586839228E+00  0.45262352029E+00  0.17130079343E+03  0.17130000000E+03 0. -1.
      622    1    1    2    0    0  0.10195815564E+00  0.23626172685E+00  0.34717584224E+01  0.39190970405E+01  0.18000000000E+01 0.  1.
</event>
<event>
 5   0  0.7764500E-01  0.9118800E+02  0.7818608E-02  0.1180000E+00
       11   -1    0    0    0    0  0.00000000000E+00  0.00000000000E+00  0.39999999673E+01  0.40000000000E+01  0.51109989000E-03 0.  1.
     -623   -1    0    0    0    0  0.00000000000E+00  0.00000000000E+00  0.12525980253E-10  0.17130000000E+03  0.17130000000E+03 0.  1.
       11    1    1    2    0    0 -0.55097271929E-01  0.78205893560E-02 -0.21805007974E-01  0.59771151802E-01  0.51109989000E-03 0.  1.
     -623    1    1    2    0    0  0.13938848515E+00  0.18715466689E+00  0.52427599916E+00  0.17130096124E+03  0.17130000000E+03 0.  1.
      622    1    1    2    0    0 -0.84291213216E-01 -0.19497525625E+00  0.34975289762E+01  0.39392676094E+01  0.18000000000E+01 0.  1.
</event>
<event>
 5   0  0.7764500E-01  0.9118800E+02  0.7818608E-02  0.1180000E+00
       11   -1    0    0    0    0  0.00000000000E+00  0.00000000000E+00  0.39999999673E+01  0.40000000000E+01  0.51109989000E-03 0. -1.
     -623   -1    0    0    0    0  0.00000000000E+00  0.00000000000E+00  0.12525980253E-10  0.17130000000E+03  0.17130000000E+03 0.  1.
       11    1    1    2    0    0  0.30429980719E-01 -0.25270606245E-01 -0.38573296956E-01  0.55251676232E-01  0.51109989000E-03 0. -1.
     -623    1    1    2    0    0  0.12794953118E+00  0.21595590616E+00  0.53836325729E+00  0.17130102989E+03  0.17130000000E+03 0.  1.
      622    1    1    2    0    0 -0.15837951190E+00 -0.19068529991E+00  0.35002100070E+01  0.39437184289E+01  0.18000000000E+01 0. -1.
</event>
<event>
 5   0  0.7764500E-01  0.9118800E+02  0.7818608E-02  0.1180000E+00
       11   -1    0    0    0    0  0.00000000000E+00  0.00000000000E+00  0.39999999673E+01  0.40000000000E+01  0.51109989000E-03 0. -1.
     -623   -1    0    0    0    0  0.00000000000E+00  0.00000000000E+00  0.12525980253E-10  0.17130000000E+03  0.17130000000E+03 0.  1.
       11    1    1    2    0    0  0.99409374009E-02  0.53714169399E-01 -0.70749638193E-01  0.89385718983E-01  0.51109989000E-03 0. -1.
     -623    1    1    2    0    0 -0.23739205628E-01 -0.94080410054E-01  0.60049913025E+00  0.17130108001E+03  0.17130000000E+03 0.  1.
      622    1    1    2    0    0  0.13798268227E-01  0.40366240655E-01  0.34702504753E+01  0.39095342673E+01  0.18000000000E+01 0. -1.
</event>
<event>
 5   0  0.7764500E-01  0.9118800E+02  0.7818608E-02  0.1180000E+00
       11   -1    0    0    0    0  0.00000000000E+00  0.00000000000E+00  0.39999999673E+01  0.40000000000E+01  0.51109989000E-03 0.  1.
     -623   -1    0    0    0    0  0.00000000000E+00  0.00000000000E+00  0.12525980253E-10  0.17130000000E+03  0.17130000000E+03 0.  1.
       11    1    1    2    0    0  0.34241095495E+00 -0.10289544909E+00  0.37609806314E+00  0.51892460900E+00  0.51109989000E-03 0.  1.
     -623    1    1    2    0    0 -0.75419704493E-01  0.46166462734E+00  0.68042862458E+00  0.17130199008E+03  0.17130000000E+03 0.  1.
      622    1    1    2    0    0 -0.26699125045E+00 -0.35876917825E+00  0.29434732796E+01  0.34790853107E+01  0.18000000000E+01 0.  1.
</event>
<event>
 5   0  0.7764500E-01  0.9118800E+02  0.7818608E-02  0.1180000E+00
       11   -1    0    0    0    0  0.00000000000E+00  0.00000000000E+00  0.39999999673E+01  0.40000000000E+01  0.51109989000E-03 0.  1.
     -623   -1    0    0    0    0  0.00000000000E+00  0.00000000000E+00  0.12525980253E-10  0.17130000000E+03  0.17130000000E+03 0.  1.
       11    1    1    2    0    0  0.14711701212E-02 -0.23676577147E+00  0.43756208996E-01  0.24078011116E+00  0.51109989000E-03 0.  1.
     -623    1    1    2    0    0 -0.24573152398E+00  0.42880932303E+00  0.67296864470E+00  0.17130203486E+03  0.17130000000E+03 0.  1.
      622    1    1    2    0    0  0.24426035386E+00 -0.19204355156E+00  0.32832751137E+01  0.37571850258E+01  0.18000000000E+01 0.  1.
</event>
<event>
 5   0  0.7764500E-01  0.9118800E+02  0.7818608E-02  0.1180000E+00
       11   -1    0    0    0    0  0.00000000000E+00  0.00000000000E+00  0.39999999673E+01  0.40000000000E+01  0.51109989000E-03 0.  1.
     -623   -1    0    0    0    0  0.00000000000E+00  0.00000000000E+00  0.12525980253E-10  0.17130000000E+03  0.17130000000E+03 0.  1.
       11    1    1    2    0    0 -0.44814962782E-01  0.11223361335E-01 -0.32247655644E-01  0.56342854424E-01  0.51109989000E-03 0.  1.
     -623    1    1    2    0    0 -0.91309463172E-02  0.14351034695E+00  0.52815260942E+00  0.17130087456E+03  0.17130000000E+03 0.  1.
      622    1    1    2    0    0  0.53945909099E-01 -0.15473370829E+00  0.35040950136E+01  0.39427825892E+01  0.18000000000E+01 0.  1.
</event>
<event>
 5   0  0.7764500E-01  0.9118800E+02  0.7818608E-02  0.1180000E+00
       11   -1    0    0    0    0  0.00000000000E+00  0.00000000000E+00  0.39999999673E+01  0.40000000000E+01  0.51109989000E-03 0. -1.
     -623   -1    0    0    0    0  0.00000000000E+00  0.00000000000E+00  0.12525980253E-10  0.17130000000E+03  0.17130000000E+03 0.  1.
       11    1    1    2    0    0 -0.97993439173E-01 -0.22306325944E-01  0.26690266321E-01  0.10398518085E+00  0.51109989000E-03 0. -1.
     -623    1    1    2    0    0  0.80284848416E-01 -0.13957348705E+00  0.52285956130E+00  0.17130087364E+03  0.17130000000E+03 0.  1.
      622    1    1    2    0    0  0.17708590758E-01  0.16187981300E+00  0.34504501397E+01  0.38951411829E+01  0.18000000000E+01 0. -1.
</event>
<event>
 5   0  0.7764500E-01  0.9118800E+02  0.7818608E-02  0.1180000E+00
       11   -1    0    0    0    0  0.00000000000E+00  0.00000000000E+00  0.39999999673E+01  0.40000000000E+01  0.51109989000E-03 0. -1.
     -623   -1    0    0    0    0  0.00000000000E+00  0.00000000000E+00  0.12525980253E-10  0.17130000000E+03  0.17130000000E+03 0. -1.
       11    1    1    2    0    0 -0.10329980732E+00  0.10338542222E-01  0.16478750193E+00  0.19476374832E+00  0.51109989000E-03 0. -1.
     -623    1    1    2    0    0  0.33718097759E-01  0.20514130778E+00  0.49122830704E+00  0.17130083049E+03  0.17130000000E+03 0. -1.
      622    1    1    2    0    0  0.69581709564E-01 -0.21547985000E+00  0.33439841584E+01  0.38044057659E+01  0.18000000000E+01 0. -1.
</event>
<event>
 5   0  0.7764500E-01  0.9118800E+02  0.7818608E-02  0.1180000E+00
       11   -1    0    0    0    0  0.00000000000E+00  0.00000000000E+00  0.39999999673E+01  0.40000000000E+01  0.51109989000E-03 0.  1.
     -623   -1    0    0    0    0  0.00000000000E+00  0.00000000000E+00  0.12525980253E-10  0.17130000000E+03  0.17130000000E+03 0.  1.
       11    1    1    2    0    0 -0.23959831720E+00  0.10156298034E+00  0.41407768858E+00  0.48906337624E+00  0.51109989000E-03 0.  1.
     -623    1    1    2    0    0  0.20188893955E+00  0.16160551060E+00  0.58465233845E+00  0.17130119291E+03  0.17130000000E+03 0.  1.
      622    1    1    2    0    0  0.37709377654E-01 -0.26316849094E+00  0.30012699403E+01  0.35097437095E+01  0.18000000000E+01 0.  1.
</event>
<event>
 5   0  0.7764500E-01  0.9118800E+02  0.7818608E-02  0.1180000E+00
       11   -1    0    0    0    0  0.00000000000E+00  0.00000000000E+00  0.39999999673E+01  0.40000000000E+01  0.51109989000E-03 0.  1.
     -623   -1    0    0    0    0  0.00000000000E+00  0.00000000000E+00  0.12525980253E-10  0.17130000000E+03  0.17130000000E+03 0. -1.
       11    1    1    2    0    0  0.10577249950E+00  0.18835072391E+00  0.67448023011E+00  0.70822853578E+00  0.51109989000E-03 0.  1.
     -623    1    1    2    0    0 -0.41906161928E-01 -0.14011062112E+00  0.57185685477E+00  0.17130101695E+03  0.17130000000E+03 0. -1.
      622    1    1    2    0    0 -0.63866337573E-01 -0.48240102798E-01  0.27536628825E+01  0.32907545164E+01  0.18000000000E+01 0.  1.
</event>
<event>
 5   0  0.7764500E-01  0.9118800E+02  0.7818608E-02  0.1180000E+00
       11   -1    0    0    0    0  0.00000000000E+00  0.00000000000E+00  0.39999999673E+01  0.40000000000E+01  0.51109989000E-03 0.  1.
     -623   -1    0    0    0    0  0.00000000000E+00  0.00000000000E+00  0.12525980253E-10  0.17130000000E+03  0.17130000000E+03 0. -1.
       11    1    1    2    0    0  0.11737072981E+00  0.10984745943E-01 -0.92634523210E-02  0.11824815276E+00  0.51109989000E-03 0.  1.
     -623    1    1    2    0    0  0.10985648150E+00  0.62902835795E-01  0.57955022876E+00  0.17130102715E+03  0.17130000000E+03 0. -1.
      622    1    1    2    0    0 -0.22722721131E+00 -0.73887581738E-01  0.34297131909E+01  0.38807246942E+01  0.18000000000E+01 0.  1.
</event>
<event>
 5   0  0.7764500E-01  0.9118800E+02  0.7818608E-02  0.1180000E+00
       11   -1    0    0    0    0  0.00000000000E+00  0.00000000000E+00  0.39999999673E+01  0.40000000000E+01  0.51109989000E-03 0. -1.
     -623   -1    0    0    0    0  0.00000000000E+00  0.00000000000E+00  0.12525980253E-10  0.17130000000E+03  0.17130000000E+03 0. -1.
       11    1    1    2    0    0  0.61553249938E-01  0.11946096393E+00 -0.12709727231E+00  0.18496946324E+00  0.51109989000E-03 0. -1.
     -623    1    1    2    0    0 -0.37759531326E-01 -0.49806409629E+00  0.78775882887E+00  0.17130253955E+03  0.17130000000E+03 0. -1.
      622    1    1    2    0    0 -0.23793718612E-01  0.37860313236E+00  0.33393384108E+01  0.38124909829E+01  0.18000000000E+01 0. -1.
</event>
<event>
 5   0  0.7764500E-01  0.9118800E+02  0.7818608E-02  0.1180000E+00
       11   -1    0    0    0    0  0.00000000000E+00  0.00000000000E+00  0.39999999673E+01  0.40000000000E+01  0.51109989000E-03 0. -1.
     -623   -1    0    0    0    0  0.00000000000E+00  0.00000000000E+00  0.12525980253E-10  0.17130000000E+03  0.17130000000E+03 0.  1.
       11    1    1    2    0    0  0.46663241769E-01  0.24734407142E+00  0.27862312538E+00  0.37548322867E+00  0.51109989000E-03 0. -1.
     -623    1    1    2    0    0 -0.16114621010E+00  0.56863750824E+00  0.68809709599E+00  0.17130240160E+03  0.17130000000E+03 0.  1.
      622    1    1    2    0    0  0.11448296833E+00 -0.81598157966E+00  0.30332797460E+01  0.36221151702E+01  0.18000000000E+01 0. -1.
</event>
<event>
 5   0  0.7764500E-01  0.9118800E+02  0.7818608E-02  0.1180000E+00
       11   -1    0    0    0    0  0.00000000000E+00  0.00000000000E+00  0.39999999673E+01  0.40000000000E+01  0.51109989000E-03 0. -1.
     -623   -1    0    0    0    0  0.00000000000E+00  0.00000000000E+00  0.12525980253E-10  0.17130000000E+03  0.17130000000E+03 0. -1.
       11    1    1    2    0    0 -0.15913709382E+00 -0.40716563670E-01 -0.33312645121E+00  0.37142421421E+00  0.51109989000E-03 0. -1.
     -623    1    1    2    0    0  0.18614398628E+00  0.51839234297E+00  0.12251583792E+01  0.17130526668E+03  0.17130000000E+03 0. -1.
      622    1    1    2    0    0 -0.27006892457E-01 -0.47767577930E+00  0.31079680393E+01  0.36233091030E+01  0.18000000000E+01 0. -1.
</event>
<event>
 5   0  0.7764500E-01  0.9118800E+02  0.7818608E-02  0.1180000E+00
       11   -1    0    0    0    0  0.00000000000E+00  0.00000000000E+00  0.39999999673E+01  0.40000000000E+01  0.51109989000E-03 0. -1.
     -623   -1    0    0    0    0  0.00000000000E+00  0.00000000000E+00  0.12525980253E-10  0.17130000000E+03  0.17130000000E+03 0. -1.
       11    1    1    2    0    0  0.31480933408E+00  0.22173381882E+00  0.61234386974E+00  0.72335059222E+00  0.51109989000E-03 0. -1.
     -623    1    1    2    0    0 -0.67658290067E+00 -0.15663105844E+00  0.67780235033E+00  0.17130274870E+03  0.17130000000E+03 0. -1.
      622    1    1    2    0    0  0.36177356659E+00 -0.65102760376E-01  0.27098537473E+01  0.32739007032E+01  0.18000000000E+01 0. -1.
</event>
<event>
 5   0  0.7764500E-01  0.9118800E+02  0.7818608E-02  0.1180000E+00
       11   -1    0    0    0    0  0.00000000000E+00  0.00000000000E+00  0.39999999673E+01  0.40000000000E+01  0.51109989000E-03 0.  1.
     -623   -1    0    0    0    0  0.00000000000E+00  0.00000000000E+00  0.12525980253E-10  0.17130000000E+03  0.17130000000E+03 0. -1.
       11    1    1    2    0    0  0.10165281253E-01  0.16698890180E+00 -0.30403896872E-01  0.17003906738E+00  0.51109989000E-03 0.  1.
     -623    1    1    2    0    0  0.82494522346E-01 -0.38630536438E+00  0.66013885970E+00  0.17130172743E+03  0.17130000000E+03 0. -1.
      622    1    1    2    0    0 -0.92659803599E-01  0.21931646258E+00  0.33702650045E+01  0.38282335026E+01  0.18000000000E+01 0.  1.
</event>
<event>
 5   0  0.7764500E-01  0.9118800E+02  0.7818608E-02  0.1180000E+00
       11   -1    0    0    0    0  0.00000000000E+00  0.00000000000E+00  0.39999999673E+01  0.40000000000E+01  0.51109989000E-03 0.  1.
     -623   -1    0    0    0    0  0.00000000000E+00  0.00000000000E+00  0.12525980253E-10  0.17130000000E+03  0.17130000000E+03 0. -1.
       11    1    1    2    0    0  0.82354872211E-01 -0.10768854805E+00 -0.86885615303E-01  0.16102335150E+00  0.51109989000E-03 0.  1.
     -623    1    1    2    0    0 -0.49066950774E-01  0.17900406849E+00  0.69869467162E+00  0.17130152546E+03  0.17130000000E+03 0. -1.
      622    1    1    2    0    0 -0.33287921437E-01 -0.71315520433E-01  0.33881909110E+01  0.38374511904E+01  0.18000000000E+01 0.  1.
</event>
<event>
 5   0  0.7764500E-01  0.9118800E+02  0.7818608E-02  0.1180000E+00
       11   -1    0    0    0    0  0.00000000000E+00  0.00000000000E+00  0.39999999673E+01  0.40000000000E+01  0.51109989000E-03 0. -1.
     -623   -1    0    0    0    0  0.00000000000E+00  0.00000000000E+00  0.12525980253E-10  0.17130000000E+03  0.17130000000E+03 0. -1.
       11    1    1    2    0    0 -0.94102605173E-01  0.22180286037E-01  0.89193708521E-02  0.97093160359E-01  0.51109989000E-03 0. -1.
     -623    1    1    2    0    0  0.55243639236E-01  0.25379298743E+00  0.54045462933E+00  0.17130104948E+03  0.17130000000E+03 0. -1.
      622    1    1    2    0    0  0.38858965937E-01 -0.27597327347E+00  0.34506259672E+01  0.39018573567E+01  0.18000000000E+01 0. -1.
</event>
<event>
 5   0  0.7764500E-01  0.9118800E+02  0.7818608E-02  0.1180000E+00
       11   -1    0    0    0    0  0.00000000000E+00  0.00000000000E+00  0.39999999673E+01  0.40000000000E+01  0.51109989000E-03 0.  1.
     -623   -1    0    0    0    0  0.00000000000E+00  0.00000000000E+00  0.12525980253E-10  0.17130000000E+03  0.17130000000E+03 0.  1.
       11    1    1    2    0    0  0.14505308888E+00 -0.48759773210E-01  0.31079023791E+00  0.34642278689E+00  0.51109989000E-03 0.  1.
     -623    1    1    2    0    0 -0.14985557813E+00 -0.43735823561E-01  0.51211431721E+00  0.17130083663E+03  0.17130000000E+03 0.  1.
      622    1    1    2    0    0  0.48024892504E-02  0.92495596771E-01  0.31770954122E+01  0.36527405818E+01  0.18000000000E+01 0.  1.
</event>
<event>
 5   0  0.7764500E-01  0.9118800E+02  0.7818608E-02  0.1180000E+00
       11   -1    0    0    0    0  0.00000000000E+00  0.00000000000E+00  0.39999999673E+01  0.40000000000E+01  0.51109989000E-03 0.  1.
     -623   -1    0    0    0    0  0.00000000000E+00  0.00000000000E+00  0.12525980253E-10  0.17130000000E+03  0.17130000000E+03 0.  1.
       11    1    1    2    0    0  0.12031904654E+00 -0.13515767397E+00  0.13360928099E+00  0.22493548182E+00  0.51109989000E-03 0.  1.
     -623    1    1    2    0    0 -0.10687258373E-02  0.21890850417E+00  0.55246613457E+00  0.17130103076E+03  0.17130000000E+03 0.  1.
      622    1    1    2    0    0 -0.11925032070E+00 -0.83750830204E-01  0.33139245518E+01  0.37740337539E+01  0.18000000000E+01 0.  1.
</event>
<event>
 5   0  0.7764500E-01  0.9118800E+02  0.7818608E-02  0.1180000E+00
       11   -1    0    0    0    0  0.00000000000E+00  0.00000000000E+00  0.39999999673E+01  0.40000000000E+01  0.51109989000E-03 0.  1.
     -623   -1    0    0    0    0  0.00000000000E+00  0.00000000000E+00  0.12525980253E-10  0.17130000000E+03  0.17130000000E+03 0.  1.
       11    1    1    2    0    0 -0.14715215536E+00 -0.12675746842E+00  0.13446435404E+00  0.23622475814E+00  0.51109989000E-03 0.  1.
     -623    1    1    2    0    0  0.41534870686E+00  0.79241169446E+00  0.64306467176E+00  0.17130354335E+03  0.17130000000E+03 0.  1.
      622    1    1    2    0    0 -0.26819655150E+00 -0.66565422604E+00  0.32224709416E+01  0.37602318955E+01  0.18000000000E+01 0.  1.
</event>
<event>
 5   0  0.7764500E-01  0.9118800E+02  0.7818608E-02  0.1180000E+00
       11   -1    0    0    0    0  0.00000000000E+00  0.00000000000E+00  0.39999999673E+01  0.40000000000E+01  0.51109989000E-03 0. -1.
     -623   -1    0    0    0    0  0.00000000000E+00  0.00000000000E+00  0.12525980253E-10  0.17130000000E+03  0.17130000000E+03 0. -1.
       11    1    1    2    0    0 -0.88190234596E-01 -0.10282614900E-02 -0.32719384316E-01  0.94071218397E-01  0.51109989000E-03 0. -1.
     -623    1    1    2    0    0  0.37475949508E+00  0.53440967017E-01  0.58011575791E+00  0.17130140056E+03  0.17130000000E+03 0. -1.
      622    1    1    2    0    0 -0.28656926048E+00 -0.52412705527E-01  0.34526035938E+01  0.39045282184E+01  0.18000000000E+01 0. -1.
</event>
<event>
 5   0  0.7764500E-01  0.9118800E+02  0.7818608E-02  0.1180000E+00
       11   -1    0    0    0    0  0.00000000000E+00  0.00000000000E+00  0.39999999673E+01  0.40000000000E+01  0.51109989000E-03 0. -1.
     -623   -1    0    0    0    0  0.00000000000E+00  0.00000000000E+00  0.12525980253E-10  0.17130000000E+03  0.17130000000E+03 0. -1.
       11    1    1    2    0    0  0.33511640302E-01  0.26130253825E-01 -0.23372020907E-02  0.42562236020E-01  0.51109989000E-03 0. -1.
     -623    1    1    2    0    0  0.10223158655E+00 -0.76656733646E-01  0.48174114528E+00  0.17130072505E+03  0.17130000000E+03 0. -1.
      622    1    1    2    0    0 -0.13574322685E+00  0.50526479821E-01  0.35205960242E+01  0.39567127157E+01  0.18000000000E+01 0. -1.
</event>
<event>
 5   0  0.7764500E-01  0.9118800E+02  0.7818608E-02  0.1180000E+00
       11   -1    0    0    0    0  0.00000000000E+00  0.00000000000E+00  0.39999999673E+01  0.40000000000E+01  0.51109989000E-03 0. -1.
     -623   -1    0    0    0    0  0.00000000000E+00  0.00000000000E+00  0.12525980253E-10  0.17130000000E+03  0.17130000000E+03 0. -1.
       11    1    1    2    0    0 -0.34342559754E-01  0.98079893658E-01 -0.44667249292E-01  0.11311278147E+00  0.51109989000E-03 0. -1.
     -623    1    1    2    0    0  0.14437546334E+01  0.63902466285E+00  0.10018235809E+01  0.17131020527E+03  0.17130000000E+03 0. -1.
      622    1    1    2    0    0 -0.14094120736E+01 -0.73710455651E+00  0.30428436357E+01  0.38766819462E+01  0.18000000000E+01 0. -1.
</event>
<event>
 5   0  0.7764500E-01  0.9118800E+02  0.7818608E-02  0.1180000E+00
       11   -1    0    0    0    0  0.00000000000E+00  0.00000000000E+00  0.39999999673E+01  0.40000000000E+01  0.51109989000E-03 0.  1.
     -623   -1    0    0    0    0  0.00000000000E+00  0.00000000000E+00  0.12525980253E-10  0.17130000000E+03  0.17130000000E+03 0.  1.
       11    1    1    2    0    0  0.30617301889E+00 -0.81835299537E-01  0.17518789968E+00  0.36211875837E+00  0.51109989000E-03 0.  1.
     -623    1    1    2    0    0  0.21558510232E+00 -0.24519155999E+00  0.72617645624E+00  0.17130185033E+03  0.17130000000E+03 0.  1.
      622    1    1    2    0    0 -0.52175812121E+00  0.32702685952E+00  0.30986356114E+01  0.36360309070E+01  0.18000000000E+01 0.  1.
</event>
<event>
 5   0  0.7764500E-01  0.9118800E+02  0.7818608E-02  0.1180000E+00
       11   -1    0    0    0    0  0.00000000000E+00  0.00000000000E+00  0.39999999673E+01  0.40000000000E+01  0.51109989000E-03 0. -1.
     -623   -1    0    0    0    0  0.00000000000E+00  0.00000000000E+00  0.12525980253E-10  0.17130000000E+03  0.17130000000E+03 0.  1.
       11    1    1    2    0    0 -0.10423512666E+00 -0.50374799573E-01  0.68349260910E-01  0.13444130597E+00  0.51109989000E-03 0. -1.
     -623    1    1    2    0    0  0.96583068099E-01  0.47208201087E+00  0.53858935214E+00  0.17130152442E+03  0.17130000000E+03 0.  1.
      622    1    1    2    0    0  0.76520585605E-02 -0.42170721129E+00  0.33930613543E+01  0.38640342752E+01  0.18000000000E+01 0. -1.
</event>
<event>
 5   0  0.7764500E-01  0.9118800E+02  0.7818608E-02  0.1180000E+00
       11   -1    0    0    0    0  0.00000000000E+00  0.00000000000E+00  0.39999999673E+01  0.40000000000E+01  0.51109989000E-03 0. -1.
     -623   -1    0    0    0    0  0.00000000000E+00  0.00000000000E+00  0.12525980253E-10  0.17130000000E+03  0.17130000000E+03 0.  1.
       11    1    1    2    0    0 -0.12996244239E+00  0.12604545408E-01  0.14296574835E+00  0.19361967209E+00  0.51109989000E-03 0. -1.
     -623    1    1    2    0    0  0.48824074768E-01  0.17241858909E+00  0.51021228959E+00  0.17130085355E+03  0.17130000000E+03 0.  1.
      622    1    1    2    0    0  0.81138367621E-01 -0.18502313450E+00  0.33468219294E+01  0.38055267733E+01  0.18000000000E+01 0. -1.
</event>
<event>
 5   0  0.7764500E-01  0.9118800E+02  0.7818608E-02  0.1180000E+00
       11   -1    0    0    0    0  0.00000000000E+00  0.00000000000E+00  0.39999999673E+01  0.40000000000E+01  0.51109989000E-03 0. -1.
     -623   -1    0    0    0    0  0.00000000000E+00  0.00000000000E+00  0.12525980253E-10  0.17130000000E+03  0.17130000000E+03 0. -1.
       11    1    1    2    0    0  0.43626975712E+00 -0.62588911472E-01  0.88378521330E+00  0.98758555948E+00  0.51109989000E-03 0. -1.
     -623    1    1    2    0    0 -0.10444092690E+01 -0.86615456867E-01  0.78978238218E+00  0.17130502634E+03  0.17130000000E+03 0.  1.
      622    1    1    2    0    0  0.60813951183E+00  0.14920436834E+00  0.23264323719E+01  0.30073881010E+01  0.18000000000E+01 0.  0.
</event>
<event>
 5   0  0.7764500E-01  0.9118800E+02  0.7818608E-02  0.1180000E+00
       11   -1    0    0    0    0  0.00000000000E+00  0.00000000000E+00  0.39999999673E+01  0.40000000000E+01  0.51109989000E-03 0.  1.
     -623   -1    0    0    0    0  0.00000000000E+00  0.00000000000E+00  0.12525980253E-10  0.17130000000E+03  0.17130000000E+03 0. -1.
       11    1    1    2    0    0  0.11977095536E+00  0.13117067224E+00  0.64604295654E-01  0.18901006121E+00  0.51109989000E-03 0.  1.
     -623    1    1    2    0    0 -0.15055706263E+00 -0.10021323694E+00  0.57777973738E+00  0.17130106987E+03  0.17130000000E+03 0. -1.
      622    1    1    2    0    0  0.30786107272E-01 -0.30957435291E-01  0.33576159343E+01  0.38099200660E+01  0.18000000000E+01 0.  1.
</event>
<event>
 5   0  0.7764500E-01  0.9118800E+02  0.7818608E-02  0.1180000E+00
       11   -1    0    0    0    0  0.00000000000E+00  0.00000000000E+00  0.39999999673E+01  0.40000000000E+01  0.51109989000E-03 0.  1.
     -623   -1    0    0    0    0  0.00000000000E+00  0.00000000000E+00  0.12525980253E-10  0.17130000000E+03  0.17130000000E+03 0. -1.
       11    1    1    2    0    0 -0.25360976075E-02  0.46430223201E-01 -0.59056860530E-01  0.75167622121E-01  0.51109989000E-03 0.  1.
     -623    1    1    2    0    0  0.15330489556E+00 -0.13844627539E+00  0.57703073761E+00  0.17130109642E+03  0.17130000000E+03 0. -1.
      622    1    1    2    0    0 -0.15076879795E+00  0.92016052187E-01  0.34820260903E+01  0.39237359592E+01  0.18000000000E+01 0.  1.
</event>
<event>
 5   0  0.7764500E-01  0.9118800E+02  0.7818608E-02  0.1180000E+00
       11   -1    0    0    0    0  0.00000000000E+00  0.00000000000E+00  0.39999999673E+01  0.40000000000E+01  0.51109989000E-03 0. -1.
     -623   -1    0    0    0    0  0.00000000000E+00  0.00000000000E+00  0.12525980253E-10  0.17130000000E+03  0.17130000000E+03 0. -1.
       11    1    1    2    0    0  0.79006531883E-01  0.32746792416E-01  0.43656212861E-01  0.96023490033E-01  0.51109989000E-03 0. -1.
     -623    1    1    2    0    0 -0.21730195979E+00 -0.45032931663E-01  0.49584797255E+00  0.17130086139E+03  0.17130000000E+03 0. -1.
      622    1    1    2    0    0  0.13829542791E+00  0.12286139247E-01  0.34604957819E+01  0.39031151189E+01  0.18000000000E+01 0. -1.
</event>
<event>
 5   0  0.7764500E-01  0.9118800E+02  0.7818608E-02  0.1180000E+00
       11   -1    0    0    0    0  0.00000000000E+00  0.00000000000E+00  0.39999999673E+01  0.40000000000E+01  0.51109989000E-03 0.  1.
     -623   -1    0    0    0    0  0.00000000000E+00  0.00000000000E+00  0.12525980253E-10  0.17130000000E+03  0.17130000000E+03 0. -1.
       11    1    1    2    0    0 -0.50973612455E-02  0.86494572175E-01 -0.13690322869E-01  0.87721036649E-01  0.51109989000E-03 0.  1.
     -623    1    1    2    0    0  0.46694906334E-01 -0.52161849211E-01  0.54148494322E+00  0.17130087013E+03  0.17130000000E+03 0. -1.
      622    1    1    2    0    0 -0.41597545088E-01 -0.34332722963E-01  0.34722053470E+01  0.39114088336E+01  0.18000000000E+01 0.  1.
</event>
<event>
 5   0  0.7764500E-01  0.9118800E+02  0.7818608E-02  0.1180000E+00
       11   -1    0    0    0    0  0.00000000000E+00  0.00000000000E+00  0.39999999673E+01  0.40000000000E+01  0.51109989000E-03 0. -1.
     -623   -1    0    0    0    0  0.00000000000E+00  0.00000000000E+00  0.12525980253E-10  0.17130000000E+03  0.17130000000E+03 0.  1.
       11    1    1    2    0    0  0.90305495474E-01 -0.12288456565E+00 -0.24402866924E-01  0.15443917937E+00  0.51109989000E-03 0. -1.
     -623    1    1    2    0    0 -0.15967274821E+00 -0.90137435401E-01  0.63495688090E+00  0.17130127492E+03  0.17130000000E+03 0.  1.
      622    1    1    2    0    0  0.69367252736E-01  0.21302200105E+00  0.33894459534E+01  0.38442858972E+01  0.18000000000E+01 0. -1.
</event>
<event>
 5   0  0.7764500E-01  0.9118800E+02  0.7818608E-02  0.1180000E+00
       11   -1    0    0    0    0  0.00000000000E+00  0.00000000000E+00  0.39999999673E+01  0.40000000000E+01  0.51109989000E-03 0.  1.
     -623   -1    0    0    0    0  0.00000000000E+00  0.00000000000E+00  0.12525980253E-10  0.17130000000E+03  0.17130000000E+03 0. -1.
       11    1    1    2    0    0  0.39374129850E-01 -0.63636788306E-01 -0.27143319951E-02  0.74883855045E-01  0.51109989000E-03 0.  1.
     -623    1    1    2    0    0 -0.21341718751E-01  0.24802023695E+00  0.52067706013E+00  0.17130097219E+03  0.17130000000E+03 0. -1.
      622    1    1    2    0    0 -0.18032411098E-01 -0.18438344865E+00  0.34820372392E+01  0.39241439524E+01  0.18000000000E+01 0.  1.
</event>
<event>
 5   0  0.7764500E-01  0.9118800E+02  0.7818608E-02  0.1180000E+00
       11   -1    0    0    0    0  0.00000000000E+00  0.00000000000E+00  0.39999999673E+01  0.40000000000E+01  0.51109989000E-03 0. -1.
     -623   -1    0    0    0    0  0.00000000000E+00  0.00000000000E+00  0.12525980253E-10  0.17130000000E+03  0.17130000000E+03 0. -1.
       11    1    1    2    0    0 -0.95142047281E-02  0.14211054171E+00  0.69960212694E-01  0.15868402169E+00  0.51109989000E-03 0. -1.
     -623    1    1    2    0    0  0.21224571887E+00 -0.58819524734E+00  0.57452922546E+00  0.17130210479E+03  0.17130000000E+03 0. -1.
      622    1    1    2    0    0 -0.20273151414E+00  0.44608470562E+00  0.33555105292E+01  0.38392111876E+01  0.18000000000E+01 0. -1.
</event>
<event>
 5   0  0.7764500E-01  0.9118800E+02  0.7818608E-02  0.1180000E+00
       11   -1    0    0    0    0  0.00000000000E+00  0.00000000000E+00  0.39999999673E+01  0.40000000000E+01  0.51109989000E-03 0. -1.
     -623   -1    0    0    0    0  0.00000000000E+00  0.00000000000E+00  0.12525980253E-10  0.17130000000E+03  0.17130000000E+03 0. -1.
       11    1    1    2    0    0 -0.80734345471E-02  0.99973799824E-01 -0.69062303407E-03  0.10030293704E+00  0.51109989000E-03 0. -1.
     -623    1    1    2    0    0 -0.11990047787E+00 -0.16807035342E+00  0.54542199825E+00  0.17130099273E+03  0.17130000000E+03 0. -1.
      622    1    1    2    0    0  0.12797391241E+00  0.68096553598E-01  0.34552685921E+01  0.38987043369E+01  0.18000000000E+01 0. -1.
</event>
<event>
 5   0  0.7764500E-01  0.9118800E+02  0.7818608E-02  0.1180000E+00
       11   -1    0    0    0    0  0.00000000000E+00  0.00000000000E+00  0.39999999673E+01  0.40000000000E+01  0.51109989000E-03 0. -1.
     -623   -1    0    0    0    0  0.00000000000E+00  0.00000000000E+00  0.12525980253E-10  0.17130000000E+03  0.17130000000E+03 0. -1.
       11    1    1    2    0    0  0.31801011502E+00 -0.46752936202E+00  0.62257544383E+00  0.84101996534E+00  0.51109989000E-03 0. -1.
     -623    1    1    2    0    0 -0.17032311211E+00  0.82611935704E+00  0.81551353860E+00  0.17130401789E+03  0.17130000000E+03 0. -1.
      622    1    1    2    0    0 -0.14768700291E+00 -0.35858999503E+00  0.25619109849E+01  0.31549621440E+01  0.18000000000E+01 0. -1.
</event>
<event>
 5   0  0.7764500E-01  0.9118800E+02  0.7818608E-02  0.1180000E+00
       11   -1    0    0    0    0  0.00000000000E+00  0.00000000000E+00  0.39999999673E+01  0.40000000000E+01  0.51109989000E-03 0. -1.
     -623   -1    0    0    0    0  0.00000000000E+00  0.00000000000E+00  0.12525980253E-10  0.17130000000E+03  0.17130000000E+03 0. -1.
       11    1    1    2    0    0  0.69364631902E-01  0.27940813783E+00  0.44418161819E+00  0.52931836431E+00  0.51109989000E-03 0. -1.
     -623    1    1    2    0    0  0.29472317639E+00 -0.41198704371E+00  0.61598657828E+00  0.17130185648E+03  0.17130000000E+03 0. -1.
      622    1    1    2    0    0 -0.36408780830E+00  0.13257890588E+00  0.29398317709E+01  0.34688251526E+01  0.18000000000E+01 0. -1.
</event>
<event>
 5   0  0.7764500E-01  0.9118800E+02  0.7818608E-02  0.1180000E+00
       11   -1    0    0    0    0  0.00000000000E+00  0.00000000000E+00  0.39999999673E+01  0.40000000000E+01  0.51109989000E-03 0. -1.
     -623   -1    0    0    0    0  0.00000000000E+00  0.00000000000E+00  0.12525980253E-10  0.17130000000E+03  0.17130000000E+03 0. -1.
       11    1    1    2    0    0 -0.11682542231E+00  0.23098737526E-01  0.69733926512E-01  0.13800294454E+00  0.51109989000E-03 0. -1.
     -623    1    1    2    0    0 -0.29032770504E+00 -0.22869096436E+00  0.54541820940E+00  0.17130126699E+03  0.17130000000E+03 0. -1.
      622    1    1    2    0    0  0.40715312734E+00  0.20559222684E+00  0.33848478314E+01  0.38607300702E+01  0.18000000000E+01 0. -1.
</event>
<event>
 5   0  0.7764500E-01  0.9118800E+02  0.7818608E-02  0.1180000E+00
       11   -1    0    0    0    0  0.00000000000E+00  0.00000000000E+00  0.39999999673E+01  0.40000000000E+01  0.51109989000E-03 0. -1.
     -623   -1    0    0    0    0  0.00000000000E+00  0.00000000000E+00  0.12525980253E-10  0.17130000000E+03  0.17130000000E+03 0.  1.
       11    1    1    2    0    0  0.49043608440E+00  0.36077657671E+00  0.53723813238E+00  0.81198051903E+00  0.51109989000E-03 0. -1.
     -623    1    1    2    0    0  0.41208357770E+00 -0.10577977628E+01  0.11012821822E+01  0.17130730157E+03  0.17130000000E+03 0.  1.
      622    1    1    2    0    0 -0.90251966210E+00  0.69702118608E+00  0.23614796528E+01  0.31807179103E+01  0.18000000000E+01 0. -1.
</event>
<event>
 5   0  0.7764500E-01  0.9118800E+02  0.7818608E-02  0.1180000E+00
       11   -1    0    0    0    0  0.00000000000E+00  0.00000000000E+00  0.39999999673E+01  0.40000000000E+01  0.51109989000E-03 0.  1.
     -623   -1    0    0    0    0  0.00000000000E+00  0.00000000000E+00  0.12525980253E-10  0.17130000000E+03  0.17130000000E+03 0. -1.
       11    1    1    2    0    0 -0.51101702128E-01  0.39704814622E-01  0.39934523524E-01  0.76045273731E-01  0.51109989000E-03 0.  1.
     -623    1    1    2    0    0  0.11105826404E+00 -0.12234179192E+00  0.47564443076E+00  0.17130074004E+03  0.17130000000E+03 0. -1.
      622    1    1    2    0    0 -0.59956561910E-01  0.82636977297E-01  0.34844210131E+01  0.39232146839E+01  0.18000000000E+01 0.  1.
</event>
<event>
 5   0  0.7764500E-01  0.9118800E+02  0.7818608E-02  0.1180000E+00
       11   -1    0    0    0    0  0.00000000000E+00  0.00000000000E+00  0.39999999673E+01  0.40000000000E+01  0.51109989000E-03 0. -1.
     -623   -1    0    0    0    0  0.00000000000E+00  0.00000000000E+00  0.12525980253E-10  0.17130000000E+03  0.17130000000E+03 0.  1.
       11    1    1    2    0    0 -0.32114316664E-01  0.18050038185E+00  0.31837741106E+00  0.36739101007E+00  0.51109989000E-03 0. -1.
     -623    1    1    2    0    0  0.26428847755E+00 -0.21309551420E+00  0.53641410955E+00  0.17130117629E+03  0.17130000000E+03 0.  1.
      622    1    1    2    0    0 -0.23217416089E+00  0.32595132348E-01  0.31452084468E+01  0.36314327004E+01  0.18000000000E+01 0. -1.
</event>
<event>
 5   0  0.7764500E-01  0.9118800E+02  0.7818608E-02  0.1180000E+00
       11   -1    0    0    0    0  0.00000000000E+00  0.00000000000E+00  0.39999999673E+01  0.40000000000E+01  0.51109989000E-03 0.  1.
     -623   -1    0    0    0    0  0.00000000000E+00  0.00000000000E+00  0.12525980253E-10  0.17130000000E+03  0.17130000000E+03 0.  1.
       11    1    1    2    0    0  0.85214639709E-02  0.42773141414E-01 -0.62312958365E-02  0.44059587442E-01  0.51109989000E-03 0.  1.
     -623    1    1    2    0    0 -0.30552634708E+00 -0.16381997217E+00  0.49937125275E+00  0.17130107867E+03  0.17130000000E+03 0.  1.
      622    1    1    2    0    0  0.29700488311E+00  0.12104683076E+00  0.35068600104E+01  0.39548617383E+01  0.18000000000E+01 0.  1.
</event>
<event>
 5   0  0.7764500E-01  0.9118800E+02  0.7818608E-02  0.1180000E+00
       11   -1    0    0    0    0  0.00000000000E+00  0.00000000000E+00  0.39999999673E+01  0.40000000000E+01  0.51109989000E-03 0.  1.
     -623   -1    0    0    0    0  0.00000000000E+00  0.00000000000E+00  0.12525980253E-10  0.17130000000E+03  0.17130000000E+03 0.  1.
       11    1    1    2    0    0  0.16773029477E+00 -0.15342044797E+00  0.21281242769E+00  0.31138509316E+00  0.51109989000E-03 0.  1.
     -623    1    1    2    0    0 -0.14566425324E+00  0.24982087827E+00  0.57046667834E+00  0.17130119399E+03  0.17130000000E+03 0.  1.
      622    1    1    2    0    0 -0.22066041533E-01 -0.96400430302E-01  0.32167208613E+01  0.36874209216E+01  0.18000000000E+01 0.  1.
</event>
<event>
 5   0  0.7764500E-01  0.9118800E+02  0.7818608E-02  0.1180000E+00
       11   -1    0    0    0    0  0.00000000000E+00  0.00000000000E+00  0.39999999673E+01  0.40000000000E+01  0.51109989000E-03 0.  1.
     -623   -1    0    0    0    0  0.00000000000E+00  0.00000000000E+00  0.12525980253E-10  0.17130000000E+03  0.17130000000E+03 0. -1.
       11    1    1    2    0    0  0.41006590732E-01  0.53449328455E-01  0.70194589007E-01  0.97292922371E-01  0.51109989000E-03 0.  1.
     -623    1    1    2    0    0 -0.74321328869E-01 -0.19211996820E+00  0.47079291416E+00  0.17130077081E+03  0.17130000000E+03 0. -1.
      622    1    1    2    0    0  0.33314738137E-01  0.13867063975E+00  0.34590124642E+01  0.39019362688E+01  0.18000000000E+01 0.  1.
</event>
<event>
 5   0  0.7764500E-01  0.9118800E+02  0.7818608E-02  0.1180000E+00
       11   -1    0    0    0    0  0.00000000000E+00  0.00000000000E+00  0.39999999673E+01  0.40000000000E+01  0.51109989000E-03 0. -1.
     -623   -1    0    0    0    0  0.00000000000E+00  0.00000000000E+00  0.12525980253E-10  0.17130000000E+03  0.17130000000E+03 0.  1.
       11    1    1    2    0    0 -0.29259071283E+00  0.14563052612E+00  0.43017478810E-01  0.32964881325E+00  0.51109989000E-03 0. -1.
     -623    1    1    2    0    0  0.64446928839E+00  0.19756207906E+00  0.80001566476E+00  0.17130319436E+03  0.17130000000E+03 0.  1.
      622    1    1    2    0    0 -0.35187857556E+00 -0.34319260518E+00  0.31569668238E+01  0.36671568309E+01  0.18000000000E+01 0. -1.
</event>
<event>
 5   0  0.7764500E-01  0.9118800E+02  0.7818608E-02  0.1180000E+00
       11   -1    0    0    0    0  0.00000000000E+00  0.00000000000E+00  0.39999999673E+01  0.40000000000E+01  0.51109989000E-03 0.  1.
     -623   -1    0    0    0    0  0.00000000000E+00  0.00000000000E+00  0.12525980253E-10  0.17130000000E+03  0.17130000000E+03 0. -1.
       11    1    1    2    0    0  0.16408560808E+00 -0.11972750179E+00  0.30457919100E+00  0.36609767314E+00  0.51109989000E-03 0.  1.
     -623    1    1    2    0    0 -0.20449745070E-01 -0.86137649626E-01  0.54968410618E+00  0.17130090482E+03  0.17130000000E+03 0. -1.
      622    1    1    2    0    0 -0.14363586301E+00  0.20586515142E+00  0.31457366702E+01  0.36329975117E+01  0.18000000000E+01 0.  1.
</event>
<event>
 5   0  0.7764500E-01  0.9118800E+02  0.7818608E-02  0.1180000E+00
       11   -1    0    0    0    0  0.00000000000E+00  0.00000000000E+00  0.39999999673E+01  0.40000000000E+01  0.51109989000E-03 0. -1.
     -623   -1    0    0    0    0  0.00000000000E+00  0.00000000000E+00  0.12525980253E-10  0.17130000000E+03  0.17130000000E+03 0.  1.
       11    1    1    2    0    0 -0.17774396757E+00 -0.31581269936E-01  0.17642663352E-01  0.18138858678E+00  0.51109989000E-03 0. -1.
     -623    1    1    2    0    0 -0.14586443919E+00  0.22224590718E+00  0.63719761603E+00  0.17130139139E+03  0.17130000000E+03 0.  1.
      622    1    1    2    0    0  0.32360840676E+00 -0.19066463724E+00  0.33451596880E+01  0.38172200281E+01  0.18000000000E+01 0. -1.
</event>
<event>
 5   0  0.7764500E-01  0.9118800E+02  0.7818608E-02  0.1180000E+00
       11   -1    0    0    0    0  0.00000000000E+00  0.00000000000E+00  0.39999999673E+01  0.40000000000E+01  0.51109989000E-03 0.  1.
     -623   -1    0    0    0    0  0.00000000000E+00  0.00000000000E+00  0.12525980253E-10  0.17130000000E+03  0.17130000000E+03 0.  1.
       11    1    1    2    0    0  0.11489451929E-01 -0.16272003466E+00  0.25976121028E+00  0.30673435538E+00  0.51109989000E-03 0.  1.
     -623    1    1    2    0    0 -0.77677881920E-01  0.11602730318E+00  0.51728028424E+00  0.17130083793E+03  0.17130000000E+03 0.  1.
      622    1    1    2    0    0  0.66188429991E-01  0.46692731475E-01  0.32229584728E+01  0.36924277159E+01  0.18000000000E+01 0.  1.
</event>
<event>
 5   0  0.7764500E-01  0.9118800E+02  0.7818608E-02  0.1180000E+00
       11   -1    0    0    0    0  0.00000000000E+00  0.00000000000E+00  0.39999999673E+01  0.40000000000E+01  0.51109989000E-03 0. -1.
     -623   -1    0    0    0    0  0.00000000000E+00  0.00000000000E+00  0.12525980253E-10  0.17130000000E+03  0.17130000000E+03 0.  1.
       11    1    1    2    0    0  0.98576002739E-01  0.10355635256E+00 -0.92636038062E-01  0.17036092053E+00  0.51109989000E-03 0. -1.
     -623    1    1    2    0    0 -0.34319738435E+00  0.36069826424E+00  0.75610389214E+00  0.17130239222E+03  0.17130000000E+03 0.  1.
      622    1    1    2    0    0  0.24462138161E+00 -0.46425461680E+00  0.33365321133E+01  0.38272468581E+01  0.18000000000E+01 0. -1.
</event>
<event>
 5   0  0.7764500E-01  0.9118800E+02  0.7818608E-02  0.1180000E+00
       11   -1    0    0    0    0  0.00000000000E+00  0.00000000000E+00  0.39999999673E+01  0.40000000000E+01  0.51109989000E-03 0. -1.
     -623   -1    0    0    0    0  0.00000000000E+00  0.00000000000E+00  0.12525980253E-10  0.17130000000E+03  0.17130000000E+03 0. -1.
       11    1    1    2    0    0  0.17513169825E+00 -0.25399812092E+00  0.13241522927E+00  0.33573830780E+00  0.51109989000E-03 0. -1.
     -623    1    1    2    0    0 -0.36959638048E+00  0.60668534434E+00  0.70480170179E+00  0.17130292296E+03  0.17130000000E+03 0. -1.
      622    1    1    2    0    0  0.19446468223E+00 -0.35268722342E+00  0.31627830363E+01  0.36613387340E+01  0.18000000000E+01 0. -1.
</event>
<event>
 5   0  0.7764500E-01  0.9118800E+02  0.7818608E-02  0.1180000E+00
       11   -1    0    0    0    0  0.00000000000E+00  0.00000000000E+00  0.39999999673E+01  0.40000000000E+01  0.51109989000E-03 0.  1.
     -623   -1    0    0    0    0  0.00000000000E+00  0.00000000000E+00  0.12525980253E-10  0.17130000000E+03  0.17130000000E+03 0.  1.
       11    1    1    2    0    0 -0.81406689139E-03 -0.59067976501E-01  0.27428523018E+00  0.28057501184E+00  0.51109989000E-03 0.  1.
     -623    1    1    2    0    0 -0.29002132063E+00  0.44502682580E+00  0.50875518053E+00  0.17130157907E+03  0.17130000000E+03 0.  1.
      622    1    1    2    0    0  0.29083538752E+00 -0.38595884929E+00  0.32169595567E+01  0.37178459147E+01  0.18000000000E+01 0. -1.
</event>
<event>
 5   0  0.7764500E-01  0.9118800E+02  0.7818608E-02  0.1180000E+00
       11   -1    0    0    0    0  0.00000000000E+00  0.00000000000E+00  0.39999999673E+01  0.40000000000E+01  0.51109989000E-03 0. -1.
     -623   -1    0    0    0    0  0.00000000000E+00  0.00000000000E+00  0.12525980253E-10  0.17130000000E+03  0.17130000000E+03 0.  1.
       11    1    1    2    0    0  0.21340487240E+00 -0.57587174495E-01 -0.28404047355E-01  0.22285639626E+00  0.51109989000E-03 0. -1.
     -623    1    1    2    0    0 -0.27136459340E+00 -0.45154584760E-01  0.71176987048E+00  0.17130169962E+03  0.17130000000E+03 0.  1.
      622    1    1    2    0    0  0.57959721001E-01  0.10274175926E+00  0.33166341442E+01  0.37754439799E+01  0.18000000000E+01 0. -1.
</event>
<event>
 5   0  0.7764500E-01  0.9118800E+02  0.7818608E-02  0.1180000E+00
       11   -1    0    0    0    0  0.00000000000E+00  0.00000000000E+00  0.39999999673E+01  0.40000000000E+01  0.51109989000E-03 0.  1.
     -623   -1    0    0    0    0  0.00000000000E+00  0.00000000000E+00  0.12525980253E-10  0.17130000000E+03  0.17130000000E+03 0.  1.
       11    1    1    2    0    0 -0.52251833009E-01 -0.16674725730E+00  0.64923291677E-01  0.18641404694E+00  0.51109989000E-03 0.  1.
     -623    1    1    2    0    0  0.46811146777E-01  0.14200710079E+00  0.57427954561E+00  0.17130102788E+03  0.17130000000E+03 0.  1.
      622    1    1    2    0    0  0.54406862322E-02  0.24740156517E-01  0.33607971301E+01  0.38125580685E+01  0.18000000000E+01 0.  1.
</event>
<event>
 5   0  0.7764500E-01  0.9118800E+02  0.7818608E-02  0.1180000E+00
       11   -1    0    0    0    0  0.00000000000E+00  0.00000000000E+00  0.39999999673E+01  0.40000000000E+01  0.51109989000E-03 0. -1.
     -623   -1    0    0    0    0  0.00000000000E+00  0.00000000000E+00  0.12525980253E-10  0.17130000000E+03  0.17130000000E+03 0.  1.
       11    1    1    2    0    0 -0.14873436207E+00 -0.11731864495E+00  0.12249314375E+00  0.22558902102E+00  0.51109989000E-03 0. -1.
     -623    1    1    2    0    0 -0.21847319974E-01  0.28887266951E+00  0.57014546834E+00  0.17130119378E+03  0.17130000000E+03 0.  1.
      622    1    1    2    0    0  0.17058168205E+00 -0.17155402455E+00  0.33073613553E+01  0.37732171986E+01  0.18000000000E+01 0. -1.
</event>
<event>
 5   0  0.7764500E-01  0.9118800E+02  0.7818608E-02  0.1180000E+00
       11   -1    0    0    0    0  0.00000000000E+00  0.00000000000E+00  0.39999999673E+01  0.40000000000E+01  0.51109989000E-03 0. -1.
     -623   -1    0    0    0    0  0.00000000000E+00  0.00000000000E+00  0.12525980253E-10  0.17130000000E+03  0.17130000000E+03 0. -1.
       11    1    1    2    0    0 -0.55846814745E-01 -0.45969492034E+00  0.61550368490E+00  0.77024887787E+00  0.51109989000E-03 0. -1.
     -623    1    1    2    0    0  0.19140926471E-01  0.91488518964E+00  0.74698706201E+00  0.17130407284E+03  0.17130000000E+03 0. -1.
      622    1    1    2    0    0  0.36705888274E-01 -0.45519026930E+00  0.26375092204E+01  0.32256782839E+01  0.18000000000E+01 0. -1.
</event>
<event>
 5   0  0.7764500E-01  0.9118800E+02  0.7818608E-02  0.1180000E+00
       11   -1    0    0    0    0  0.00000000000E+00  0.00000000000E+00  0.39999999673E+01  0.40000000000E+01  0.51109989000E-03 0.  1.
     -623   -1    0    0    0    0  0.00000000000E+00  0.00000000000E+00  0.12525980253E-10  0.17130000000E+03  0.17130000000E+03 0. -1.
       11    1    1    2    0    0 -0.16548184403E-01  0.26573794093E-01  0.20025139255E+00  0.20268421344E+00  0.51109989000E-03 0.  1.
     -623    1    1    2    0    0 -0.12732375455E+00 -0.22646906006E+00  0.46618641936E+00  0.17130083137E+03  0.17130000000E+03 0. -1.
      622    1    1    2    0    0  0.14387193895E+00  0.19989526597E+00  0.33335621554E+01  0.37964844128E+01  0.18000000000E+01 0.  1.
</event>
<event>
 5   0  0.7764500E-01  0.9118800E+02  0.7818608E-02  0.1180000E+00
       11   -1    0    0    0    0  0.00000000000E+00  0.00000000000E+00  0.39999999673E+01  0.40000000000E+01  0.51109989000E-03 0. -1.
     -623   -1    0    0    0    0  0.00000000000E+00  0.00000000000E+00  0.12525980253E-10  0.17130000000E+03  0.17130000000E+03 0.  1.
       11    1    1    2    0    0  0.31716851367E-01  0.24743991502E-01 -0.24464279207E-01  0.47084880336E-01  0.51109989000E-03 0. -1.
     -623    1    1    2    0    0 -0.12136423598E+00 -0.80010131190E-01  0.50764562298E+00  0.17130081388E+03  0.17130000000E+03 0.  1.
      622    1    1    2    0    0  0.89647384611E-01  0.55266139689E-01  0.35168186236E+01  0.39521012425E+01  0.18000000000E+01 0. -1.
</event>
<event>
 5   0  0.7764500E-01  0.9118800E+02  0.7818608E-02  0.1180000E+00
       11   -1    0    0    0    0  0.00000000000E+00  0.00000000000E+00  0.39999999673E+01  0.40000000000E+01  0.51109989000E-03 0.  1.
     -623   -1    0    0    0    0  0.00000000000E+00  0.00000000000E+00  0.12525980253E-10  0.17130000000E+03  0.17130000000E+03 0. -1.
       11    1    1    2    0    0 -0.26891968711E+00 -0.49665612636E-01  0.20191035036E+00  0.33993017224E+00  0.51109989000E-03 0.  1.
     -623    1    1    2    0    0  0.37886628463E+00  0.13945603039E+00  0.61620848169E+00  0.17130158406E+03  0.17130000000E+03 0. -1.
      622    1    1    2    0    0 -0.10994659752E+00 -0.89790417750E-01  0.31818811353E+01  0.36584857705E+01  0.18000000000E+01 0.  1.
</event>
<event>
 5   0  0.7764500E-01  0.9118800E+02  0.7818608E-02  0.1180000E+00
       11   -1    0    0    0    0  0.00000000000E+00  0.00000000000E+00  0.39999999673E+01  0.40000000000E+01  0.51109989000E-03 0.  1.
     -623   -1    0    0    0    0  0.00000000000E+00  0.00000000000E+00  0.12525980253E-10  0.17130000000E+03  0.17130000000E+03 0. -1.
       11    1    1    2    0    0  0.10286427408E-01  0.10477829119E+00 -0.13791825373E-01  0.10618275077E+00  0.51109989000E-03 0.  1.
     -623    1    1    2    0    0  0.36178192697E+00 -0.11380313210E+00  0.58271170576E+00  0.17130141094E+03  0.17130000000E+03 0. -1.
      622    1    1    2    0    0 -0.37206835438E+00  0.90248409155E-02  0.34310800870E+01  0.38924063086E+01  0.18000000000E+01 0.  1.
</event>
<event>
 5   0  0.7764500E-01  0.9118800E+02  0.7818608E-02  0.1180000E+00
       11   -1    0    0    0    0  0.00000000000E+00  0.00000000000E+00  0.39999999673E+01  0.40000000000E+01  0.51109989000E-03 0. -1.
     -623   -1    0    0    0    0  0.00000000000E+00  0.00000000000E+00  0.12525980253E-10  0.17130000000E+03  0.17130000000E+03 0.  1.
       11    1    1    2    0    0 -0.17533059717E+00 -0.98279624346E-01  0.19308769403E+00  0.27871638214E+00  0.51109989000E-03 0. -1.
     -623    1    1    2    0    0 -0.12816774925E+00  0.16662829775E+00  0.56604051128E+00  0.17130106419E+03  0.17130000000E+03 0.  1.
      622    1    1    2    0    0  0.30349834642E+00 -0.68348673406E-01  0.32408717620E+01  0.37202194244E+01  0.18000000000E+01 0. -1.
</event>
<event>
 5   0  0.7764500E-01  0.9118800E+02  0.7818608E-02  0.1180000E+00
       11   -1    0    0    0    0  0.00000000000E+00  0.00000000000E+00  0.39999999673E+01  0.40000000000E+01  0.51109989000E-03 0.  1.
     -623   -1    0    0    0    0  0.00000000000E+00  0.00000000000E+00  0.12525980253E-10  0.17130000000E+03  0.17130000000E+03 0. -1.
       11    1    1    2    0    0 -0.38190614728E+00  0.51807865416E-01  0.63791267852E+00  0.74529806580E+00  0.51109989000E-03 0.  1.
     -623    1    1    2    0    0  0.38692965420E+00  0.31258866947E+00  0.67752848250E+00  0.17130206207E+03  0.17130000000E+03 0. -1.
      622    1    1    2    0    0 -0.50235069174E-02 -0.36439653488E+00  0.26845588063E+01  0.32526398594E+01  0.18000000000E+01 0.  1.
</event>
<event>
 5   0  0.7764500E-01  0.9118800E+02  0.7818608E-02  0.1180000E+00
       11   -1    0    0    0    0  0.00000000000E+00  0.00000000000E+00  0.39999999673E+01  0.40000000000E+01  0.51109989000E-03 0.  1.
     -623   -1    0    0    0    0  0.00000000000E+00  0.00000000000E+00  0.12525980253E-10  0.17130000000E+03  0.17130000000E+03 0.  1.
       11    1    1    2    0    0 -0.17737303058E-01 -0.28098770799E-01 -0.12300219611E-01  0.35435991108E-01  0.51109989000E-03 0.  1.
     -623    1    1    2    0    0  0.16136716801E+00  0.12135441510E+00  0.48497040099E+00  0.17130080549E+03  0.17130000000E+03 0.  1.
      622    1    1    2    0    0 -0.14362986495E+00 -0.93255644305E-01  0.35273297860E+01  0.39637585159E+01  0.18000000000E+01 0.  1.
</event>
<event>
 5   0  0.7764500E-01  0.9118800E+02  0.7818608E-02  0.1180000E+00
       11   -1    0    0    0    0  0.00000000000E+00  0.00000000000E+00  0.39999999673E+01  0.40000000000E+01  0.51109989000E-03 0.  1.
     -623   -1    0    0    0    0  0.00000000000E+00  0.00000000000E+00  0.12525980253E-10  0.17130000000E+03  0.17130000000E+03 0. -1.
       11    1    1    2    0    0 -0.25808566817E-04  0.47380508967E+00  0.60092608559E+00  0.76524746666E+00  0.51109989000E-03 0.  1.
     -623    1    1    2    0    0 -0.45936475611E+00 -0.28379865867E+00  0.76088316718E+00  0.17130254085E+03  0.17130000000E+03 0. -1.
      622    1    1    2    0    0  0.45939056468E+00 -0.19000643100E+00  0.26381907146E+01  0.32322116857E+01  0.18000000000E+01 0.  1.
</event>
<event>
 5   0  0.7764500E-01  0.9118800E+02  0.7818608E-02  0.1180000E+00
       11   -1    0    0    0    0  0.00000000000E+00  0.00000000000E+00  0.39999999673E+01  0.40000000000E+01  0.51109989000E-03 0.  1.
     -623   -1    0    0    0    0  0.00000000000E+00  0.00000000000E+00  0.12525980253E-10  0.17130000000E+03  0.17130000000E+03 0. -1.
       11    1    1    2    0    0 -0.48246990130E-01  0.38119356285E-01  0.32695860425E-01  0.69642931384E-01  0.51109989000E-03 0.  1.
     -623    1    1    2    0    0  0.28687187545E+00  0.37123930304E+00  0.50721173404E+00  0.17130139339E+03  0.17130000000E+03 0. -1.
      622    1    1    2    0    0 -0.23862488532E+00 -0.40935865933E+00  0.34600923729E+01  0.39289636772E+01  0.18000000000E+01 0.  1.
</event>
<event>
 5   0  0.7764500E-01  0.9118800E+02  0.7818608E-02  0.1180000E+00
       11   -1    0    0    0    0  0.00000000000E+00  0.00000000000E+00  0.39999999673E+01  0.40000000000E+01  0.51109989000E-03 0. -1.
     -623   -1    0    0    0    0  0.00000000000E+00  0.00000000000E+00  0.12525980253E-10  0.17130000000E+03  0.17130000000E+03 0. -1.
       11    1    1    2    0    0 -0.13010416237E-01  0.23981895260E-01 -0.46130679720E-01  0.53597603169E-01  0.51109989000E-03 0. -1.
     -623    1    1    2    0    0 -0.47889680263E+00 -0.11858792621E+00  0.57193603890E+00  0.17130166525E+03  0.17130000000E+03 0. -1.
      622    1    1    2    0    0  0.49190721886E+00  0.94606030954E-01  0.34741946082E+01  0.39447371508E+01  0.18000000000E+01 0. -1.
</event>
<event>
 5   0  0.7764500E-01  0.9118800E+02  0.7818608E-02  0.1180000E+00
       11   -1    0    0    0    0  0.00000000000E+00  0.00000000000E+00  0.39999999673E+01  0.40000000000E+01  0.51109989000E-03 0. -1.
     -623   -1    0    0    0    0  0.00000000000E+00  0.00000000000E+00  0.12525980253E-10  0.17130000000E+03  0.17130000000E+03 0. -1.
       11    1    1    2    0    0 -0.65251576038E-01  0.17708724766E+00 -0.25581099444E-01  0.19045292156E+00  0.51109989000E-03 0. -1.
     -623    1    1    2    0    0  0.48335890219E+00  0.28603905407E+00  0.72944592168E+00  0.17130247385E+03  0.17130000000E+03 0. -1.
      622    1    1    2    0    0 -0.41810732615E+00 -0.46312630173E+00  0.32961351451E+01  0.38070732331E+01  0.18000000000E+01 0. -1.
</event>
<event>
 5   0  0.7764500E-01  0.9118800E+02  0.7818608E-02  0.1180000E+00
       11   -1    0    0    0    0  0.00000000000E+00  0.00000000000E+00  0.39999999673E+01  0.40000000000E+01  0.51109989000E-03 0.  1.
     -623   -1    0    0    0    0  0.00000000000E+00  0.00000000000E+00  0.12525980253E-10  0.17130000000E+03  0.17130000000E+03 0.  1.
       11    1    1    2    0    0  0.12476056034E+00 -0.16574333389E+00  0.22604979933E+00  0.30681398786E+00  0.51109989000E-03 0.  1.
     -623    1    1    2    0    0 -0.19416750453E+00  0.15564049054E+00  0.55109089681E+00  0.17130106721E+03  0.17130000000E+03 0.  1.
      622    1    1    2    0    0  0.69406944192E-01  0.10102843354E-01  0.32228592712E+01  0.36921188054E+01  0.18000000000E+01 0.  1.
</event>
<event>
 5   0  0.7764500E-01  0.9118800E+02  0.7818608E-02  0.1180000E+00
       11   -1    0    0    0    0  0.00000000000E+00  0.00000000000E+00  0.39999999673E+01  0.40000000000E+01  0.51109989000E-03 0. -1.
     -623   -1    0    0    0    0  0.00000000000E+00  0.00000000000E+00  0.12525980253E-10  0.17130000000E+03  0.17130000000E+03 0. -1.
       11    1    1    2    0    0 -0.75646974369E-01  0.62668175968E-01  0.47554773197E+00  0.48558796485E+00  0.51109989000E-03 0. -1.
     -623    1    1    2    0    0  0.20417655424E-01 -0.22483727777E+00  0.51192481971E+00  0.17130091370E+03  0.17130000000E+03 0. -1.
      622    1    1    2    0    0  0.55229318945E-01  0.16216910180E+00  0.30125274157E+01  0.35134983315E+01  0.18000000000E+01 0. -1.
</event>
<event>
 5   0  0.7764500E-01  0.9118800E+02  0.7818608E-02  0.1180000E+00
       11   -1    0    0    0    0  0.00000000000E+00  0.00000000000E+00  0.39999999673E+01  0.40000000000E+01  0.51109989000E-03 0.  1.
     -623   -1    0    0    0    0  0.00000000000E+00  0.00000000000E+00  0.12525980253E-10  0.17130000000E+03  0.17130000000E+03 0. -1.
       11    1    1    2    0    0 -0.11875600316E+00 -0.22321118005E+00  0.83216750367E+00  0.86972940307E+00  0.51109989000E-03 0.  1.
     -623    1    1    2    0    0  0.25775298301E+00  0.11177551117E+00  0.61469503650E+00  0.17130133327E+03  0.17130000000E+03 0. -1.
      622    1    1    2    0    0 -0.13899697985E+00  0.11143566887E+00  0.25531374272E+01  0.31289373261E+01  0.18000000000E+01 0.  1.
</event>
<event>
 5   0  0.7764500E-01  0.9118800E+02  0.7818608E-02  0.1180000E+00
       11   -1    0    0    0    0  0.00000000000E+00  0.00000000000E+00  0.39999999673E+01  0.40000000000E+01  0.51109989000E-03 0. -1.
     -623   -1    0    0    0    0  0.00000000000E+00  0.00000000000E+00  0.12525980253E-10  0.17130000000E+03  0.17130000000E+03 0.  1.
       11    1    1    2    0    0 -0.48252543994E-01  0.51064823801E+00  0.63041113151E+00  0.81271667076E+00  0.51109989000E-03 0. -1.
     -623    1    1    2    0    0  0.11051996453E-01 -0.80388953134E+00  0.76025309967E+00  0.17130357365E+03  0.17130000000E+03 0.  1.
      622    1    1    2    0    0  0.37200547542E-01  0.29324129333E+00  0.26093357362E+01  0.31837096791E+01  0.18000000000E+01 0. -1.
</event>
<event>
 5   0  0.7764500E-01  0.9118800E+02  0.7818608E-02  0.1180000E+00
       11   -1    0    0    0    0  0.00000000000E+00  0.00000000000E+00  0.39999999673E+01  0.40000000000E+01  0.51109989000E-03 0.  1.
     -623   -1    0    0    0    0  0.00000000000E+00  0.00000000000E+00  0.12525980253E-10  0.17130000000E+03  0.17130000000E+03 0.  1.
       11    1    1    2    0    0 -0.29526405755E-03 -0.22262191897E+00  0.16601722834E+00  0.27770953767E+00  0.51109989000E-03 0.  1.
     -623    1    1    2    0    0 -0.12615697480E+00 -0.11780629495E-01  0.58796180211E+00  0.17130105590E+03  0.17130000000E+03 0.  1.
      622    1    1    2    0    0  0.12645223886E+00  0.23440254847E+00  0.32460209369E+01  0.37212345594E+01  0.18000000000E+01 0.  1.
</event>
<event>
 5   0  0.7764500E-01  0.9118800E+02  0.7818608E-02  0.1180000E+00
       11   -1    0    0    0    0  0.00000000000E+00  0.00000000000E+00  0.39999999673E+01  0.40000000000E+01  0.51109989000E-03 0. -1.
     -623   -1    0    0    0    0  0.00000000000E+00  0.00000000000E+00  0.12525980253E-10  0.17130000000E+03  0.17130000000E+03 0.  1.
       11    1    1    2    0    0 -0.58376606798E-01  0.15427963737E+00  0.27991761499E+00  0.32490639750E+00  0.51109989000E-03 0. -1.
     -623    1    1    2    0    0  0.22133761908E+00  0.12304128426E+00  0.53333283006E+00  0.17130101743E+03  0.17130000000E+03 0.  1.
      622    1    1    2    0    0 -0.16296101228E+00 -0.27732092163E+00  0.31867495223E+01  0.36740761700E+01  0.18000000000E+01 0. -1.
</event>
<event>
 5   0  0.7764500E-01  0.9118800E+02  0.7818608E-02  0.1180000E+00
       11   -1    0    0    0    0  0.00000000000E+00  0.00000000000E+00  0.39999999673E+01  0.40000000000E+01  0.51109989000E-03 0.  1.
     -623   -1    0    0    0    0  0.00000000000E+00  0.00000000000E+00  0.12525980253E-10  0.17130000000E+03  0.17130000000E+03 0.  1.
       11    1    1    2    0    0 -0.15736062060E+00  0.12914037412E+00  0.16439020685E-01  0.20423051624E+00  0.51109989000E-03 0.  1.
     -623    1    1    2    0    0  0.72859628379E-01  0.34613463018E+00  0.67873694711E+00  0.17130170986E+03  0.17130000000E+03 0.  1.
      622    1    1    2    0    0  0.84500992218E-01 -0.47527500431E+00  0.33048239996E+01  0.37940596220E+01  0.18000000000E+01 0.  0.
</event>
<event>
 5   0  0.7764500E-01  0.9118800E+02  0.7818608E-02  0.1180000E+00
       11   -1    0    0    0    0  0.00000000000E+00  0.00000000000E+00  0.39999999673E+01  0.40000000000E+01  0.51109989000E-03 0.  1.
     -623   -1    0    0    0    0  0.00000000000E+00  0.00000000000E+00  0.12525980253E-10  0.17130000000E+03  0.17130000000E+03 0.  1.
       11    1    1    2    0    0 -0.64717254151E-01  0.15000712772E-01 -0.54130989472E-01  0.85695796938E-01  0.51109989000E-03 0.  1.
     -623    1    1    2    0    0  0.74427896978E-01  0.26469588494E-01  0.57963177513E+00  0.17130099887E+03  0.17130000000E+03 0.  1.
      622    1    1    2    0    0 -0.97106428267E-02 -0.41470301266E-01  0.34744991817E+01  0.39133053351E+01  0.18000000000E+01 0.  1.
</event>
<event>
 5   0  0.7764500E-01  0.9118800E+02  0.7818608E-02  0.1180000E+00
       11   -1    0    0    0    0  0.00000000000E+00  0.00000000000E+00  0.39999999673E+01  0.40000000000E+01  0.51109989000E-03 0.  1.
     -623   -1    0    0    0    0  0.00000000000E+00  0.00000000000E+00  0.12525980253E-10  0.17130000000E+03  0.17130000000E+03 0. -1.
       11    1    1    2    0    0 -0.91055538789E-01  0.14330309628E+00  0.36758339168E-01  0.17371909873E+00  0.51109989000E-03 0.  1.
     -623    1    1    2    0    0  0.13671140870E+00  0.37277473602E-01  0.59316367610E+00  0.17130108559E+03  0.17130000000E+03 0. -1.
      622    1    1    2    0    0 -0.45655869915E-01 -0.18058056988E+00  0.33700779521E+01  0.38251953158E+01  0.18000000000E+01 0.  1.
</event>
<event>
 5   0  0.7764500E-01  0.9118800E+02  0.7818608E-02  0.1180000E+00
       11   -1    0    0    0    0  0.00000000000E+00  0.00000000000E+00  0.39999999673E+01  0.40000000000E+01  0.51109989000E-03 0. -1.
     -623   -1    0    0    0    0  0.00000000000E+00  0.00000000000E+00  0.12525980253E-10  0.17130000000E+03  0.17130000000E+03 0. -1.
       11    1    1    2    0    0 -0.50868971713E-01 -0.58151602572E-01 -0.61534745755E-01  0.98772705353E-01  0.51109989000E-03 0. -1.
     -623    1    1    2    0    0  0.41403063842E+00  0.16139184296E+00  0.62297445753E+00  0.17130170917E+03  0.17130000000E+03 0. -1.
      622    1    1    2    0    0 -0.36316166670E+00 -0.10324024038E+00  0.34385602556E+01  0.38995181208E+01  0.18000000000E+01 0. -1.
</event>
<event>
 5   0  0.7764500E-01  0.9118800E+02  0.7818608E-02  0.1180000E+00
       11   -1    0    0    0    0  0.00000000000E+00  0.00000000000E+00  0.39999999673E+01  0.40000000000E+01  0.51109989000E-03 0. -1.
     -623   -1    0    0    0    0  0.00000000000E+00  0.00000000000E+00  0.12525980253E-10  0.17130000000E+03  0.17130000000E+03 0.  1.
       11    1    1    2    0    0 -0.79885024429E-01  0.22603902587E-01  0.15205398559E+00  0.17324326623E+00  0.51109989000E-03 0. -1.
     -623    1    1    2    0    0  0.17620650970E+00 -0.25213376577E-01  0.47317584079E+00  0.17130074600E+03  0.17130000000E+03 0.  1.
      622    1    1    2    0    0 -0.96321485270E-01  0.26094739898E-02  0.33747701410E+01  0.38260107347E+01  0.18000000000E+01 0. -1.
</event>
<event>
 5   0  0.7764500E-01  0.9118800E+02  0.7818608E-02  0.1180000E+00
       11   -1    0    0    0    0  0.00000000000E+00  0.00000000000E+00  0.39999999673E+01  0.40000000000E+01  0.51109989000E-03 0.  1.
     -623   -1    0    0    0    0  0.00000000000E+00  0.00000000000E+00  0.12525980253E-10  0.17130000000E+03  0.17130000000E+03 0.  1.
       11    1    1    2    0    0 -0.44035739823E-01 -0.14973019294E+00 -0.18285009381E-02  0.15608293212E+00  0.51109989000E-03 0.  1.
     -623    1    1    2    0    0 -0.15873942652E+00 -0.65010556485E-01  0.61964094351E+00  0.17130120659E+03  0.17130000000E+03 0.  1.
      622    1    1    2    0    0  0.20277516635E+00  0.21474074943E+00  0.33821875248E+01  0.38427104770E+01  0.18000000000E+01 0.  1.
</event>
<event>
 5   0  0.7764500E-01  0.9118800E+02  0.7818608E-02  0.1180000E+00
       11   -1    0    0    0    0  0.00000000000E+00  0.00000000000E+00  0.39999999673E+01  0.40000000000E+01  0.51109989000E-03 0.  1.
     -623   -1    0    0    0    0  0.00000000000E+00  0.00000000000E+00  0.12525980253E-10  0.17130000000E+03  0.17130000000E+03 0. -1.
       11    1    1    2    0    0 -0.98115305128E-01  0.19029615290E+00  0.52522047440E+00  0.56718255162E+00  0.51109989000E-03 0.  1.
     -623    1    1    2    0    0  0.32768207489E+00 -0.42314305952E+00  0.57219110840E+00  0.17130179167E+03  0.17130000000E+03 0. -1.
      622    1    1    2    0    0 -0.22956676976E+00  0.23284690662E+00  0.29025883846E+01  0.34310257816E+01  0.18000000000E+01 0.  1.
</event>
<event>
 5   0  0.7764500E-01  0.9118800E+02  0.7818608E-02  0.1180000E+00
       11   -1    0    0    0    0  0.00000000000E+00  0.00000000000E+00  0.39999999673E+01  0.40000000000E+01  0.51109989000E-03 0. -1.
     -623   -1    0    0    0    0  0.00000000000E+00  0.00000000000E+00  0.12525980253E-10  0.17130000000E+03  0.17130000000E+03 0. -1.
       11    1    1    2    0    0  0.14468611415E-01  0.19315380051E+00 -0.60265570784E-02  0.19378934950E+00  0.51109989000E-03 0. -1.
     -623    1    1    2    0    0  0.15550543380E+00 -0.46095989738E+00  0.66964978124E+00  0.17130199969E+03  0.17130000000E+03 0. -1.
      622    1    1    2    0    0 -0.16997404522E+00  0.26780609687E+00  0.33363767432E+01  0.38042109634E+01  0.18000000000E+01 0. -1.
</event>
<event>
 5   0  0.7764500E-01  0.9118800E+02  0.7818608E-02  0.1180000E+00
       11   -1    0    0    0    0  0.00000000000E+00  0.00000000000E+00  0.39999999673E+01  0.40000000000E+01  0.51109989000E-03 0.  1.
     -623   -1    0    0    0    0  0.00000000000E+00  0.00000000000E+00  0.12525980253E-10  0.17130000000E+03  0.17130000000E+03 0. -1.
       11    1    1    2    0    0  0.31376375516E-02  0.67465277598E-01 -0.43145084501E-01  0.80144669121E-01  0.51109989000E-03 0.  1.
     -623    1    1    2    0    0  0.34625336091E+00 -0.19533341850E+00  0.58258723581E+00  0.17130145199E+03  0.17130000000E+03 0. -1.
      622    1    1    2    0    0 -0.34939099846E+00  0.12786814090E+00  0.34605578160E+01  0.39184033393E+01  0.18000000000E+01 0.  1.
</event>
<event>
 5   0  0.7764500E-01  0.9118800E+02  0.7818608E-02  0.1180000E+00
       11   -1    0    0    0    0  0.00000000000E+00  0.00000000000E+00  0.39999999673E+01  0.40000000000E+01  0.51109989000E-03 0.  1.
     -623   -1    0    0    0    0  0.00000000000E+00  0.00000000000E+00  0.12525980253E-10  0.17130000000E+03  0.17130000000E+03 0. -1.
       11    1    1    2    0    0  0.13605492045E-01 -0.44471353474E-02 -0.29368830613E-02  0.14620975702E-01  0.51109989000E-03 0.  1.
     -623    1    1    2    0    0  0.17060229768E+00  0.76441362630E-02  0.45274583063E+00  0.17130068343E+03  0.17130000000E+03 0. -1.
      622    1    1    2    0    0 -0.18420778973E+00 -0.31970009155E-02  0.35501910198E+01  0.39846955979E+01  0.18000000000E+01 0.  1.
</event>
<event>
 5   0  0.7764500E-01  0.9118800E+02  0.7818608E-02  0.1180000E+00
       11   -1    0    0    0    0  0.00000000000E+00  0.00000000000E+00  0.39999999673E+01  0.40000000000E+01  0.51109989000E-03 0.  1.
     -623   -1    0    0    0    0  0.00000000000E+00  0.00000000000E+00  0.12525980253E-10  0.17130000000E+03  0.17130000000E+03 0. -1.
       11    1    1    2    0    0  0.13929511526E+00  0.20096150929E-02  0.16475531457E-01  0.14028140307E+00  0.51109989000E-03 0.  1.
     -623    1    1    2    0    0 -0.44416615760E+00  0.21932877473E+00  0.59205476372E+00  0.17130173939E+03  0.17130000000E+03 0. -1.
      622    1    1    2    0    0  0.30487104233E+00 -0.22133838983E+00  0.33914696722E+01  0.38579792084E+01  0.18000000000E+01 0.  1.
</event>
<event>
 5   0  0.7764500E-01  0.9118800E+02  0.7818608E-02  0.1180000E+00
       11   -1    0    0    0    0  0.00000000000E+00  0.00000000000E+00  0.39999999673E+01  0.40000000000E+01  0.51109989000E-03 0.  1.
     -623   -1    0    0    0    0  0.00000000000E+00  0.00000000000E+00  0.12525980253E-10  0.17130000000E+03  0.17130000000E+03 0. -1.
       11    1    1    2    0    0 -0.36817075213E-01  0.42156567640E-01  0.28795499948E-01  0.62945335504E-01  0.51109989000E-03 0.  1.
     -623    1    1    2    0    0  0.86516574154E-01  0.74187469284E-02  0.47117641584E+00  0.17130067001E+03  0.17130000000E+03 0. -1.
      622    1    1    2    0    0 -0.49699498942E-01 -0.49575314568E-01  0.35000280516E+01  0.39363846501E+01  0.18000000000E+01 0.  1.
</event>
<event>
 5   0  0.7764500E-01  0.9118800E+02  0.7818608E-02  0.1180000E+00
       11   -1    0    0    0    0  0.00000000000E+00  0.00000000000E+00  0.39999999673E+01  0.40000000000E+01  0.51109989000E-03 0.  1.
     -623   -1    0    0    0    0  0.00000000000E+00  0.00000000000E+00  0.12525980253E-10  0.17130000000E+03  0.17130000000E+03 0. -1.
       11    1    1    2    0    0 -0.30436422928E+00 -0.17771295639E+00  0.29498389431E+00  0.45960334862E+00  0.51109989000E-03 0.  1.
     -623    1    1    2    0    0 -0.18213865507E+00  0.12851090708E+00  0.69765534001E+00  0.17130156570E+03  0.17130000000E+03 0. -1.
      622    1    1    2    0    0  0.48650288435E+00  0.49202049307E-01  0.30073607330E+01  0.35388309477E+01  0.18000000000E+01 0.  1.
</event>
<event>
 5   0  0.7764500E-01  0.9118800E+02  0.7818608E-02  0.1180000E+00
       11   -1    0    0    0    0  0.00000000000E+00  0.00000000000E+00  0.39999999673E+01  0.40000000000E+01  0.51109989000E-03 0. -1.
     -623   -1    0    0    0    0  0.00000000000E+00  0.00000000000E+00  0.12525980253E-10  0.17130000000E+03  0.17130000000E+03 0. -1.
       11    1    1    2    0    0 -0.17970478412E+00 -0.23623677266E-01  0.25931529405E+00  0.31638042056E+00  0.51109989000E-03 0. -1.
     -623    1    1    2    0    0  0.24905825996E+00 -0.23642108772E+00  0.53946184728E+00  0.17130119364E+03  0.17130000000E+03 0. -1.
      622    1    1    2    0    0 -0.69353475840E-01  0.26004476498E+00  0.32012228260E+01  0.36824259349E+01  0.18000000000E+01 0. -1.
</event>
<event>
 5   0  0.7764500E-01  0.9118800E+02  0.7818608E-02  0.1180000E+00
       11   -1    0    0    0    0  0.00000000000E+00  0.00000000000E+00  0.39999999673E+01  0.40000000000E+01  0.51109989000E-03 0.  1.
     -623   -1    0    0    0    0  0.00000000000E+00  0.00000000000E+00  0.12525980253E-10  0.17130000000E+03  0.17130000000E+03 0. -1.
       11    1    1    2    0    0 -0.10324238055E+00 -0.14402474513E+00  0.66815719523E-01  0.18938510487E+00  0.51109989000E-03 0.  1.
     -623    1    1    2    0    0  0.10897657742E+00  0.26369570529E+00  0.57801058845E+00  0.17130121280E+03  0.17130000000E+03 0. -1.
      622    1    1    2    0    0 -0.57341968706E-02 -0.11967096016E+00  0.33551736594E+01  0.38094020928E+01  0.18000000000E+01 0.  1.
</event>
<event>
 5   0  0.7764500E-01  0.9118800E+02  0.7818608E-02  0.1180000E+00
       11   -1    0    0    0    0  0.00000000000E+00  0.00000000000E+00  0.39999999673E+01  0.40000000000E+01  0.51109989000E-03 0.  1.
     -623   -1    0    0    0    0  0.00000000000E+00  0.00000000000E+00  0.12525980253E-10  0.17130000000E+03  0.17130000000E+03 0. -1.
       11    1    1    2    0    0 -0.29340023902E-01 -0.49573705761E-01  0.18218114342E+00  0.19107228879E+00  0.51109989000E-03 0.  1.
     -623    1    1    2    0    0 -0.12437616215E+00  0.39746273556E+00  0.48402062323E+00  0.17130119008E+03  0.17130000000E+03 0. -1.
      622    1    1    2    0    0  0.15371618605E+00 -0.34788902980E+00  0.33337982007E+01  0.38077376336E+01  0.18000000000E+01 0.  1.
</event>
<event>
 5   0  0.7764500E-01  0.9118800E+02  0.7818608E-02  0.1180000E+00
       11   -1    0    0    0    0  0.00000000000E+00  0.00000000000E+00  0.39999999673E+01  0.40000000000E+01  0.51109989000E-03 0. -1.
     -623   -1    0    0    0    0  0.00000000000E+00  0.00000000000E+00  0.12525980253E-10  0.17130000000E+03  0.17130000000E+03 0.  1.
       11    1    1    2    0    0 -0.15024639647E+00  0.57825235435E-01 -0.36174754157E-01  0.16500488346E+00  0.51109989000E-03 0. -1.
     -623    1    1    2    0    0 -0.50221821602E-01  0.47583553570E-02  0.65781113111E+00  0.17130127046E+03  0.17130000000E+03 0.  1.
      622    1    1    2    0    0  0.20046821807E+00 -0.62583590792E-01  0.33783635904E+01  0.38337246590E+01  0.18000000000E+01 0. -1.
</event>
<event>
 5   0  0.7764500E-01  0.9118800E+02  0.7818608E-02  0.1180000E+00
       11   -1    0    0    0    0  0.00000000000E+00  0.00000000000E+00  0.39999999673E+01  0.40000000000E+01  0.51109989000E-03 0. -1.
     -623   -1    0    0    0    0  0.00000000000E+00  0.00000000000E+00  0.12525980253E-10  0.17130000000E+03  0.17130000000E+03 0. -1.
       11    1    1    2    0    0  0.67128092617E-01  0.47440246644E-01  0.23080074734E-01  0.85379792064E-01  0.51109989000E-03 0. -1.
     -623    1    1    2    0    0 -0.17381113565E+00 -0.47161184674E+00  0.53007251132E+00  0.17130155751E+03  0.17130000000E+03 0. -1.
      622    1    1    2    0    0  0.10668304303E+00  0.42417160009E+00  0.34468473813E+01  0.39130626992E+01  0.18000000000E+01 0. -1.
</event>
<event>
 5   0  0.7764500E-01  0.9118800E+02  0.7818608E-02  0.1180000E+00
       11   -1    0    0    0    0  0.00000000000E+00  0.00000000000E+00  0.39999999673E+01  0.40000000000E+01  0.51109989000E-03 0.  1.
     -623   -1    0    0    0    0  0.00000000000E+00  0.00000000000E+00  0.12525980253E-10  0.17130000000E+03  0.17130000000E+03 0.  1.
       11    1    1    2    0    0 -0.12526543051E+00  0.38840122919E-01  0.15335077919E-01  0.13204320908E+00  0.51109989000E-03 0.  1.
     -623    1    1    2    0    0  0.12224703267E+00  0.10921578065E+00  0.56540533657E+00  0.17130101154E+03  0.17130000000E+03 0.  1.
      622    1    1    2    0    0  0.30183978382E-02 -0.14805590357E+00  0.34192595529E+01  0.38669452480E+01  0.18000000000E+01 0.  1.
</event>
<event>
 5   0  0.7764500E-01  0.9118800E+02  0.7818608E-02  0.1180000E+00
       11   -1    0    0    0    0  0.00000000000E+00  0.00000000000E+00  0.39999999673E+01  0.40000000000E+01  0.51109989000E-03 0. -1.
     -623   -1    0    0    0    0  0.00000000000E+00  0.00000000000E+00  0.12525980253E-10  0.17130000000E+03  0.17130000000E+03 0.  1.
       11    1    1    2    0    0  0.12853950790E-01 -0.19533705399E-01  0.20923779675E-02  0.23482524698E-01  0.51109989000E-03 0. -1.
     -623    1    1    2    0    0 -0.19563857575E+00  0.43224003232E-01  0.45772044863E+00  0.17130072869E+03  0.17130000000E+03 0.  1.
      622    1    1    2    0    0  0.18278462496E+00 -0.23690297833E-01  0.35401871408E+01  0.39757887822E+01  0.18000000000E+01 0. -1.
</event>
<event>
 5   0  0.7764500E-01  0.9118800E+02  0.7818608E-02  0.1180000E+00
       11   -1    0    0    0    0  0.00000000000E+00  0.00000000000E+00  0.39999999673E+01  0.40000000000E+01  0.51109989000E-03 0.  1.
     -623   -1    0    0    0    0  0.00000000000E+00  0.00000000000E+00  0.12525980253E-10  0.17130000000E+03  0.17130000000E+03 0. -1.
       11    1    1    2    0    0 -0.32234144090E+00  0.17064242793E+00  0.44430210574E+00  0.57482820488E+00  0.51109989000E-03 0.  1.
     -623    1    1    2    0    0 -0.31875465352E-01 -0.24623692440E+00  0.66597140224E+00  0.17130147450E+03  0.17130000000E+03 0. -1.
      622    1    1    2    0    0  0.35421690626E+00  0.75594496472E-01  0.28897264594E+01  0.34236972931E+01  0.18000000000E+01 0.  1.
</event>
<event>
 5   0  0.7764500E-01  0.9118800E+02  0.7818608E-02  0.1180000E+00
       11   -1    0    0    0    0  0.00000000000E+00  0.00000000000E+00  0.39999999673E+01  0.40000000000E+01  0.51109989000E-03 0. -1.
     -623   -1    0    0    0    0  0.00000000000E+00  0.00000000000E+00  0.12525980253E-10  0.17130000000E+03  0.17130000000E+03 0. -1.
       11    1    1    2    0    0  0.20980912919E+00 -0.60226554352E-02 -0.12634969454E+00  0.24499112148E+00  0.51109989000E-03 0. -1.
     -623    1    1    2    0    0 -0.10064646148E+00 -0.26123981171E+00  0.84620686532E+00  0.17130231885E+03  0.17130000000E+03 0. -1.
      622    1    1    2    0    0 -0.10916266771E+00  0.26726246715E+00  0.32801427966E+01  0.37526900325E+01  0.18000000000E+01 0. -1.
</event>
<event>
 5   0  0.7764500E-01  0.9118800E+02  0.7818608E-02  0.1180000E+00
       11   -1    0    0    0    0  0.00000000000E+00  0.00000000000E+00  0.39999999673E+01  0.40000000000E+01  0.51109989000E-03 0.  1.
     -623   -1    0    0    0    0  0.00000000000E+00  0.00000000000E+00  0.12525980253E-10  0.17130000000E+03  0.17130000000E+03 0. -1.
       11    1    1    2    0    0  0.15225309378E+00 -0.52735585694E-01  0.30211926559E-01  0.16393617140E+00  0.51109989000E-03 0.  1.
     -623    1    1    2    0    0 -0.21554172396E+00  0.91374655879E-02  0.58440914658E+00  0.17130113273E+03  0.17130000000E+03 0. -1.
      622    1    1    2    0    0  0.63288630184E-01  0.43598120106E-01  0.33853788942E+01  0.38349310951E+01  0.18000000000E+01 0.  1.
</event>
<event>
 5   0  0.7764500E-01  0.9118800E+02  0.7818608E-02  0.1180000E+00
       11   -1    0    0    0    0  0.00000000000E+00  0.00000000000E+00  0.39999999673E+01  0.40000000000E+01  0.51109989000E-03 0.  1.
     -623   -1    0    0    0    0  0.00000000000E+00  0.00000000000E+00  0.12525980253E-10  0.17130000000E+03  0.17130000000E+03 0.  1.
       11    1    1    2    0    0 -0.96513929472E-01  0.12371038622E+00 -0.14279007093E+00  0.21215198283E+00  0.51109989000E-03 0.  1.
     -623    1    1    2    0    0  0.18877134430E+00 -0.82243302864E-01  0.81382878256E+00  0.17130205695E+03  0.17130000000E+03 0.  1.
      622    1    1    2    0    0 -0.92257414833E-01 -0.41467083354E-01  0.33289612557E+01  0.37857910655E+01  0.18000000000E+01 0.  1.
</event>
<event>
 5   0  0.7764500E-01  0.9118800E+02  0.7818608E-02  0.1180000E+00
       11   -1    0    0    0    0  0.00000000000E+00  0.00000000000E+00  0.39999999673E+01  0.40000000000E+01  0.51109989000E-03 0. -1.
     -623   -1    0    0    0    0  0.00000000000E+00  0.00000000000E+00  0.12525980253E-10  0.17130000000E+03  0.17130000000E+03 0. -1.
       11    1    1    2    0    0 -0.94102914193E-02  0.28540251731E-01  0.14704074181E+00  0.15008111316E+00  0.51109989000E-03 0. -1.
     -623    1    1    2    0    0  0.43474590666E+00 -0.30443005353E+00  0.48945848086E+00  0.17130152145E+03  0.17130000000E+03 0. -1.
      622    1    1    2    0    0 -0.42533561524E+00  0.27588980179E+00  0.33635007447E+01  0.38483974363E+01  0.18000000000E+01 0. -1.
</event>
<event>
 5   0  0.7764500E-01  0.9118800E+02  0.7818608E-02  0.1180000E+00
       11   -1    0    0    0    0  0.00000000000E+00  0.00000000000E+00  0.39999999673E+01  0.40000000000E+01  0.51109989000E-03 0.  1.
     -623   -1    0    0    0    0  0.00000000000E+00  0.00000000000E+00  0.12525980253E-10  0.17130000000E+03  0.17130000000E+03 0.  1.
       11    1    1    2    0    0  0.29669937340E-01  0.56544418454E-01  0.45888509507E+00  0.46330699124E+00  0.51109989000E-03 0.  1.
     -623    1    1    2    0    0 -0.26222252589E+00 -0.29267480290E+00  0.51627280063E+00  0.17130122871E+03  0.17130000000E+03 0.  1.
      622    1    1    2    0    0  0.23255258855E+00  0.23613038444E+00  0.30248420717E+01  0.35354643010E+01  0.18000000000E+01 0.  1.
</event>
<event>
 5   0  0.7764500E-01  0.9118800E+02  0.7818608E-02  0.1180000E+00
       11   -1    0    0    0    0  0.00000000000E+00  0.00000000000E+00  0.39999999673E+01  0.40000000000E+01  0.51109989000E-03 0. -1.
     -623   -1    0    0    0    0  0.00000000000E+00  0.00000000000E+00  0.12525980253E-10  0.17130000000E+03  0.17130000000E+03 0.  1.
       11    1    1    2    0    0  0.77259668767E-01  0.35564945257E+00  0.67216251005E-01  0.37009981782E+00  0.51109989000E-03 0. -1.
     -623    1    1    2    0    0 -0.35674025478E-01 -0.45928358763E+00  0.78538092104E+00  0.17130241982E+03  0.17130000000E+03 0.  1.
      622    1    1    2    0    0 -0.41585643289E-01  0.10363413506E+00  0.31474027953E+01  0.36274803591E+01  0.18000000000E+01 0. -1.
</event>
<event>
 5   0  0.7764500E-01  0.9118800E+02  0.7818608E-02  0.1180000E+00
       11   -1    0    0    0    0  0.00000000000E+00  0.00000000000E+00  0.39999999673E+01  0.40000000000E+01  0.51109989000E-03 0.  1.
     -623   -1    0    0    0    0  0.00000000000E+00  0.00000000000E+00  0.12525980253E-10  0.17130000000E+03  0.17130000000E+03 0. -1.
       11    1    1    2    0    0 -0.17540855762E-01 -0.44907536512E-01  0.14712262392E-01  0.50409129561E-01  0.51109989000E-03 0.  1.
     -623    1    1    2    0    0  0.32817118311E+00  0.14215822207E+00  0.48601276729E+00  0.17130106279E+03  0.17130000000E+03 0. -1.
      622    1    1    2    0    0 -0.31063032735E+00 -0.97250685561E-01  0.34992749377E+01  0.39485280784E+01  0.18000000000E+01 0.  1.
</event>
<event>
 5   0  0.7764500E-01  0.9118800E+02  0.7818608E-02  0.1180000E+00
       11   -1    0    0    0    0  0.00000000000E+00  0.00000000000E+00  0.39999999673E+01  0.40000000000E+01  0.51109989000E-03 0. -1.
     -623   -1    0    0    0    0  0.00000000000E+00  0.00000000000E+00  0.12525980253E-10  0.17130000000E+03  0.17130000000E+03 0.  1.
       11    1    1    2    0    0 -0.41801222569E+00 -0.13124065707E+00  0.20537156767E+00  0.48387609253E+00  0.51109989000E-03 0. -1.
     -623    1    1    2    0    0 -0.22003021551E+00 -0.76403535021E+00  0.98721822587E+00  0.17130468985E+03  0.17130000000E+03 0.  1.
      622    1    1    2    0    0  0.63804244120E+00  0.89527600728E+00  0.28074101738E+01  0.35114340618E+01  0.18000000000E+01 0. -1.
</event>
<event>
 5   0  0.7764500E-01  0.9118800E+02  0.7818608E-02  0.1180000E+00
       11   -1    0    0    0    0  0.00000000000E+00  0.00000000000E+00  0.39999999673E+01  0.40000000000E+01  0.51109989000E-03 0. -1.
     -623   -1    0    0    0    0  0.00000000000E+00  0.00000000000E+00  0.12525980253E-10  0.17130000000E+03  0.17130000000E+03 0. -1.
       11    1    1    2    0    0 -0.19492013664E-01 -0.49960616114E-01 -0.47480999210E-01  0.71628962484E-01  0.51109989000E-03 0. -1.
     -623    1    1    2    0    0  0.58227947176E-01 -0.28371359964E+00  0.57331919827E+00  0.17130120425E+03  0.17130000000E+03 0. -1.
      622    1    1    2    0    0 -0.38735933512E-01  0.33367421575E+00  0.34741617683E+01  0.39271667837E+01  0.18000000000E+01 0. -1.
</event>
<event>
 5   0  0.7764500E-01  0.9118800E+02  0.7818608E-02  0.1180000E+00
       11   -1    0    0    0    0  0.00000000000E+00  0.00000000000E+00  0.39999999673E+01  0.40000000000E+01  0.51109989000E-03 0. -1.
     -623   -1    0    0    0    0  0.00000000000E+00  0.00000000000E+00  0.12525980253E-10  0.17130000000E+03  0.17130000000E+03 0.  1.
       11    1    1    2    0    0  0.35379200403E+00  0.18581917137E-01  0.45875058703E+00  0.57962611404E+00  0.51109989000E-03 0. -1.
     -623    1    1    2    0    0  0.48902552038E-01 -0.18162099961E+00  0.66711957586E+00  0.17130140229E+03  0.17130000000E+03 0.  1.
      622    1    1    2    0    0 -0.40269455607E+00  0.16303908248E+00  0.28741298045E+01  0.34189715970E+01  0.18000000000E+01 0. -1.
</event>
<event>
 5   0  0.7764500E-01  0.9118800E+02  0.7818608E-02  0.1180000E+00
       11   -1    0    0    0    0  0.00000000000E+00  0.00000000000E+00  0.39999999673E+01  0.40000000000E+01  0.51109989000E-03 0. -1.
     -623   -1    0    0    0    0  0.00000000000E+00  0.00000000000E+00  0.12525980253E-10  0.17130000000E+03  0.17130000000E+03 0. -1.
       11    1    1    2    0    0 -0.16974438725E-01  0.85573304558E-01  0.31965916613E-01  0.92913955188E-01  0.51109989000E-03 0. -1.
     -623    1    1    2    0    0  0.18771880044E+00 -0.18795412069E+00  0.50707859831E+00  0.17130095649E+03  0.17130000000E+03 0. -1.
      622    1    1    2    0    0 -0.17074436172E+00  0.10238081613E+00  0.34609554524E+01  0.39061295565E+01  0.18000000000E+01 0. -1.
</event>
<event>
 5   0  0.7764500E-01  0.9118800E+02  0.7818608E-02  0.1180000E+00
       11   -1    0    0    0    0  0.00000000000E+00  0.00000000000E+00  0.39999999673E+01  0.40000000000E+01  0.51109989000E-03 0.  1.
     -623   -1    0    0    0    0  0.00000000000E+00  0.00000000000E+00  0.12525980253E-10  0.17130000000E+03  0.17130000000E+03 0. -1.
       11    1    1    2    0    0  0.24496036817E+00 -0.20237947318E+00  0.87566145727E-01  0.32959236071E+00  0.51109989000E-03 0.  1.
     -623    1    1    2    0    0 -0.64524543953E-01 -0.18348505698E+00  0.74418988632E+00  0.17130172693E+03  0.17130000000E+03 0. -1.
      622    1    1    2    0    0 -0.18043582422E+00  0.38586453015E+00  0.31682439353E+01  0.36686807105E+01  0.18000000000E+01 0.  1.
</event>
<event>
 5   0  0.7764500E-01  0.9118800E+02  0.7818608E-02  0.1180000E+00
       11   -1    0    0    0    0  0.00000000000E+00  0.00000000000E+00  0.39999999673E+01  0.40000000000E+01  0.51109989000E-03 0. -1.
     -623   -1    0    0    0    0  0.00000000000E+00  0.00000000000E+00  0.12525980253E-10  0.17130000000E+03  0.17130000000E+03 0. -1.
       11    1    1    2    0    0  0.17442966698E-01  0.16615092630E+00  0.16445980855E+00  0.23443053822E+00  0.51109989000E-03 0. -1.
     -623    1    1    2    0    0  0.16816130991E+00 -0.72831500995E-01  0.53564447488E+00  0.17130093548E+03  0.17130000000E+03 0. -1.
      622    1    1    2    0    0 -0.18560427661E+00 -0.93319425306E-01  0.32998956839E+01  0.37646339779E+01  0.18000000000E+01 0.  1.
</event>
<event>
 5   0  0.7764500E-01  0.9118800E+02  0.7818608E-02  0.1180000E+00
       11   -1    0    0    0    0  0.00000000000E+00  0.00000000000E+00  0.39999999673E+01  0.40000000000E+01  0.51109989000E-03 0. -1.
     -623   -1    0    0    0    0  0.00000000000E+00  0.00000000000E+00  0.12525980253E-10  0.17130000000E+03  0.17130000000E+03 0. -1.
       11    1    1    2    0    0 -0.15458443715E+00 -0.12353800879E+00  0.38361807549E+00  0.43164925216E+00  0.51109989000E-03 0. -1.
     -623    1    1    2    0    0 -0.29855051781E+00 -0.37240596173E+00  0.61150196486E+00  0.17130175642E+03  0.17130000000E+03 0. -1.
      622    1    1    2    0    0  0.45313495496E+00  0.49594397052E+00  0.30048799270E+01  0.35665943258E+01  0.18000000000E+01 0.  0.
</event>
<event>
 5   0  0.7764500E-01  0.9118800E+02  0.7818608E-02  0.1180000E+00
       11   -1    0    0    0    0  0.00000000000E+00  0.00000000000E+00  0.39999999673E+01  0.40000000000E+01  0.51109989000E-03 0. -1.
     -623   -1    0    0    0    0  0.00000000000E+00  0.00000000000E+00  0.12525980253E-10  0.17130000000E+03  0.17130000000E+03 0. -1.
       11    1    1    2    0    0 -0.19231217151E+00  0.75048532105E-01  0.14088705363E-03  0.20643772561E+00  0.51109989000E-03 0. -1.
     -623    1    1    2    0    0  0.57075645814E-01 -0.49641121944E-01  0.66485289645E+00  0.17130130692E+03  0.17130000000E+03 0. -1.
      622    1    1    2    0    0  0.13523652569E+00 -0.25407410161E-01  0.33350061839E+01  0.37922553581E+01  0.18000000000E+01 0. -1.
</event>
<event>
 5   0  0.7764500E-01  0.9118800E+02  0.7818608E-02  0.1180000E+00
       11   -1    0    0    0    0  0.00000000000E+00  0.00000000000E+00  0.39999999673E+01  0.40000000000E+01  0.51109989000E-03 0. -1.
     -623   -1    0    0    0    0  0.00000000000E+00  0.00000000000E+00  0.12525980253E-10  0.17130000000E+03  0.17130000000E+03 0. -1.
       11    1    1    2    0    0  0.98847199201E-01 -0.36280879093E+00  0.60600986149E+00  0.71319646733E+00  0.51109989000E-03 0. -1.
     -623    1    1    2    0    0  0.25448690259E+00  0.35498109107E+00  0.66893443599E+00  0.17130186295E+03  0.17130000000E+03 0. -1.
      622    1    1    2    0    0 -0.35333410179E+00  0.78276998531E-02  0.27250556699E+01  0.32849405876E+01  0.18000000000E+01 0. -1.
</event>
<event>
 5   0  0.7764500E-01  0.9118800E+02  0.7818608E-02  0.1180000E+00
       11   -1    0    0    0    0  0.00000000000E+00  0.00000000000E+00  0.39999999673E+01  0.40000000000E+01  0.51109989000E-03 0. -1.
     -623   -1    0    0    0    0  0.00000000000E+00  0.00000000000E+00  0.12525980253E-10  0.17130000000E+03  0.17130000000E+03 0.  1.
       11    1    1    2    0    0  0.11995380533E-01  0.55116878624E-01  0.55892886073E-01  0.79410549677E-01  0.51109989000E-03 0. -1.
     -623    1    1    2    0    0  0.52327105652E-01 -0.43568673233E+00  0.48400830112E+00  0.17130124584E+03  0.17130000000E+03 0.  1.
      622    1    1    2    0    0 -0.64322486185E-01  0.38056985370E+00  0.34600987802E+01  0.39193436140E+01  0.18000000000E+01 0.  0.
</event>
<event>
 5   0  0.7764500E-01  0.9118800E+02  0.7818608E-02  0.1180000E+00
       11   -1    0    0    0    0  0.00000000000E+00  0.00000000000E+00  0.39999999673E+01  0.40000000000E+01  0.51109989000E-03 0. -1.
     -623   -1    0    0    0    0  0.00000000000E+00  0.00000000000E+00  0.12525980253E-10  0.17130000000E+03  0.17130000000E+03 0. -1.
       11    1    1    2    0    0 -0.15669921710E+00  0.11339886697E+00 -0.12778762308E+00  0.23182727515E+00  0.51109989000E-03 0. -1.
     -623    1    1    2    0    0  0.20436521442E+00  0.42274677121E-01  0.82373862311E+00  0.17130210769E+03  0.17130000000E+03 0. -1.
      622    1    1    2    0    0 -0.47665997323E-01 -0.15567354409E+00  0.33040489673E+01  0.37660650390E+01  0.18000000000E+01 0. -1.
</event>
<event>
 5   0  0.7764500E-01  0.9118800E+02  0.7818608E-02  0.1180000E+00
       11   -1    0    0    0    0  0.00000000000E+00  0.00000000000E+00  0.39999999673E+01  0.40000000000E+01  0.51109989000E-03 0.  1.
     -623   -1    0    0    0    0  0.00000000000E+00  0.00000000000E+00  0.12525980253E-10  0.17130000000E+03  0.17130000000E+03 0. -1.
       11    1    1    2    0    0  0.38049289740E-01  0.45158105442E-01  0.41780819367E-01  0.72338793371E-01  0.51109989000E-03 0.  1.
     -623    1    1    2    0    0  0.20419200422E+00 -0.44564209638E+00  0.50044464515E+00  0.17130143238E+03  0.17130000000E+03 0. -1.
      622    1    1    2    0    0 -0.24224129396E+00  0.40048399094E+00  0.34577745028E+01  0.39262288247E+01  0.18000000000E+01 0.  1.
</event>
<event>
 5   0  0.7764500E-01  0.9118800E+02  0.7818608E-02  0.1180000E+00
       11   -1    0    0    0    0  0.00000000000E+00  0.00000000000E+00  0.39999999673E+01  0.40000000000E+01  0.51109989000E-03 0.  1.
     -623   -1    0    0    0    0  0.00000000000E+00  0.00000000000E+00  0.12525980253E-10  0.17130000000E+03  0.17130000000E+03 0.  1.
       11    1    1    2    0    0 -0.34887651180E-01  0.73313444578E-01  0.41328281266E+00  0.42118280333E+00  0.51109989000E-03 0.  1.
     -623    1    1    2    0    0  0.43068836796E-01 -0.12182668142E+00  0.49478423144E+00  0.17130076330E+03  0.17130000000E+03 0.  1.
      622    1    1    2    0    0 -0.81811856167E-02  0.48513236838E-01  0.30919329233E+01  0.35780538939E+01  0.18000000000E+01 0.  1.
</event>
<event>
 5   0  0.7764500E-01  0.9118800E+02  0.7818608E-02  0.1180000E+00
       11   -1    0    0    0    0  0.00000000000E+00  0.00000000000E+00  0.39999999673E+01  0.40000000000E+01  0.51109989000E-03 0. -1.
     -623   -1    0    0    0    0  0.00000000000E+00  0.00000000000E+00  0.12525980253E-10  0.17130000000E+03  0.17130000000E+03 0.  1.
       11    1    1    2    0    0  0.99238992746E-01 -0.91821408830E-02  0.36614025141E-01  0.10617691581E+00  0.51109989000E-03 0. -1.
     -623    1    1    2    0    0 -0.22489338433E+00  0.16193240716E+00  0.51738724856E+00  0.17130100551E+03  0.17130000000E+03 0.  1.
      622    1    1    2    0    0  0.12565439158E+00 -0.15275026627E+00  0.34459986937E+01  0.38928175743E+01  0.18000000000E+01 0. -1.
</event>
<event>
 5   0  0.7764500E-01  0.9118800E+02  0.7818608E-02  0.1180000E+00
       11   -1    0    0    0    0  0.00000000000E+00  0.00000000000E+00  0.39999999673E+01  0.40000000000E+01  0.51109989000E-03 0. -1.
     -623   -1    0    0    0    0  0.00000000000E+00  0.00000000000E+00  0.12525980253E-10  0.17130000000E+03  0.17130000000E+03 0.  1.
       11    1    1    2    0    0 -0.38129645572E-02 -0.17647888677E+00  0.15325269124E+00  0.23376480652E+00  0.51109989000E-03 0. -1.
     -623    1    1    2    0    0 -0.18535991542E+00 -0.14750585686E+00  0.56107824120E+00  0.17130108267E+03  0.17130000000E+03 0.  1.
      622    1    1    2    0    0  0.18917287998E+00  0.32398474362E+00  0.32856690349E+01  0.37651525201E+01  0.18000000000E+01 0. -1.
</event>
<event>
 5   0  0.7764500E-01  0.9118800E+02  0.7818608E-02  0.1180000E+00
       11   -1    0    0    0    0  0.00000000000E+00  0.00000000000E+00  0.39999999673E+01  0.40000000000E+01  0.51109989000E-03 0. -1.
     -623   -1    0    0    0    0  0.00000000000E+00  0.00000000000E+00  0.12525980253E-10  0.17130000000E+03  0.17130000000E+03 0. -1.
       11    1    1    2    0    0  0.44016337508E+00 -0.60549489018E-01  0.67419464619E+00  0.80743341493E+00  0.51109989000E-03 0. -1.
     -623    1    1    2    0    0 -0.63951853484E+00 -0.16043923961E+00  0.70923627126E+00  0.17130273711E+03  0.17130000000E+03 0. -1.
      622    1    1    2    0    0  0.19935515976E+00  0.22098872863E+00  0.26165690499E+01  0.31898294768E+01  0.18000000000E+01 0. -1.
</event>
<event>
 5   0  0.7764500E-01  0.9118800E+02  0.7818608E-02  0.1180000E+00
       11   -1    0    0    0    0  0.00000000000E+00  0.00000000000E+00  0.39999999673E+01  0.40000000000E+01  0.51109989000E-03 0.  1.
     -623   -1    0    0    0    0  0.00000000000E+00  0.00000000000E+00  0.12525980253E-10  0.17130000000E+03  0.17130000000E+03 0.  1.
       11    1    1    2    0    0  0.17795778106E+00  0.15079717078E+00  0.33456189844E+00  0.40784884904E+00  0.51109989000E-03 0.  1.
     -623    1    1    2    0    0 -0.34270252344E+00 -0.90748658480E-01  0.56325875405E+00  0.17130129288E+03  0.17130000000E+03 0.  1.
      622    1    1    2    0    0  0.16474474238E+00 -0.60048512297E-01  0.31021793149E+01  0.35908582756E+01  0.18000000000E+01 0.  1.
</event>
<event>
 5   0  0.7764500E-01  0.9118800E+02  0.7818608E-02  0.1180000E+00
       11   -1    0    0    0    0  0.00000000000E+00  0.00000000000E+00  0.39999999673E+01  0.40000000000E+01  0.51109989000E-03 0. -1.
     -623   -1    0    0    0    0  0.00000000000E+00  0.00000000000E+00  0.12525980253E-10  0.17130000000E+03  0.17130000000E+03 0.  1.
       11    1    1    2    0    0 -0.31794505356E-01  0.14143049430E+00  0.68089454237E-01  0.16015589371E+00  0.51109989000E-03 0. -1.
     -623    1    1    2    0    0 -0.25807088910E+00 -0.78773159936E-01  0.55434693794E+00  0.17130110947E+03  0.17130000000E+03 0.  1.
      622    1    1    2    0    0  0.28986539445E+00 -0.62657334359E-01  0.33775635752E+01  0.38387346343E+01  0.18000000000E+01 0. -1.
</event>
<event>
 5   0  0.7764500E-01  0.9118800E+02  0.7818608E-02  0.1180000E+00
       11   -1    0    0    0    0  0.00000000000E+00  0.00000000000E+00  0.39999999673E+01  0.40000000000E+01  0.51109989000E-03 0. -1.
     -623   -1    0    0    0    0  0.00000000000E+00  0.00000000000E+00  0.12525980253E-10  0.17130000000E+03  0.17130000000E+03 0. -1.
       11    1    1    2    0    0 -0.15343401251E+00  0.27623628344E+00 -0.23732985818E-01  0.31687851982E+00  0.51109989000E-03 0. -1.
     -623    1    1    2    0    0  0.70514439041E-01 -0.65437557237E+00  0.83764915599E+00  0.17130331239E+03  0.17130000000E+03 0. -1.
      622    1    1    2    0    0  0.82919573470E-01  0.37813928893E+00  0.31860837972E+01  0.36798090902E+01  0.18000000000E+01 0. -1.
</event>
<event>
 5   0  0.7764500E-01  0.9118800E+02  0.7818608E-02  0.1180000E+00
       11   -1    0    0    0    0  0.00000000000E+00  0.00000000000E+00  0.39999999673E+01  0.40000000000E+01  0.51109989000E-03 0. -1.
     -623   -1    0    0    0    0  0.00000000000E+00  0.00000000000E+00  0.12525980253E-10  0.17130000000E+03  0.17130000000E+03 0. -1.
       11    1    1    2    0    0 -0.16941301583E+00  0.10825149933E+00 -0.48417557837E-01  0.20679380593E+00  0.51109989000E-03 0. -1.
     -623    1    1    2    0    0  0.55274499483E+00 -0.27607070749E+00  0.73892052946E+00  0.17130270793E+03  0.17130000000E+03 0. -1.
      622    1    1    2    0    0 -0.38333197900E+00  0.16781920817E+00  0.33094969957E+01  0.37904982598E+01  0.18000000000E+01 0. -1.
</event>
<event>
 5   0  0.7764500E-01  0.9118800E+02  0.7818608E-02  0.1180000E+00
       11   -1    0    0    0    0  0.00000000000E+00  0.00000000000E+00  0.39999999673E+01  0.40000000000E+01  0.51109989000E-03 0. -1.
     -623   -1    0    0    0    0  0.00000000000E+00  0.00000000000E+00  0.12525980253E-10  0.17130000000E+03  0.17130000000E+03 0.  1.
       11    1    1    2    0    0 -0.15429168256E+00 -0.40277034469E-01  0.13933519984E+00  0.21176100196E+00  0.51109989000E-03 0. -1.
     -623    1    1    2    0    0 -0.23423266094E+00 -0.15284287119E-01  0.55177277074E+00  0.17130104948E+03  0.17130000000E+03 0.  1.
      622    1    1    2    0    0  0.38852434350E+00  0.55561321588E-01  0.33088919968E+01  0.37871895216E+01  0.18000000000E+01 0. -1.
</event>
<event>
 5   0  0.7764500E-01  0.9118800E+02  0.7818608E-02  0.1180000E+00
       11   -1    0    0    0    0  0.00000000000E+00  0.00000000000E+00  0.39999999673E+01  0.40000000000E+01  0.51109989000E-03 0. -1.
     -623   -1    0    0    0    0  0.00000000000E+00  0.00000000000E+00  0.12525980253E-10  0.17130000000E+03  0.17130000000E+03 0. -1.
       11    1    1    2    0    0 -0.23556641674E+00  0.29954078730E+00  0.16629374146E+00  0.41577648999E+00  0.51109989000E-03 0. -1.
     -623    1    1    2    0    0 -0.88476097506E-02 -0.45372464707E+00  0.75035372267E+00  0.17130224451E+03  0.17130000000E+03 0. -1.
      622    1    1    2    0    0  0.24441402649E+00  0.15418385977E+00  0.30833525032E+01  0.35819789974E+01  0.18000000000E+01 0. -1.
</event>
<event>
 5   0  0.7764500E-01  0.9118800E+02  0.7818608E-02  0.1180000E+00
       11   -1    0    0    0    0  0.00000000000E+00  0.00000000000E+00  0.39999999673E+01  0.40000000000E+01  0.51109989000E-03 0. -1.
     -623   -1    0    0    0    0  0.00000000000E+00  0.00000000000E+00  0.12525980253E-10  0.17130000000E+03  0.17130000000E+03 0.  1.
       11    1    1    2    0    0 -0.83168385451E-01 -0.29565674856E+00  0.42550731858E+00  0.52477293442E+00  0.51109989000E-03 0. -1.
     -623    1    1    2    0    0 -0.15650744289E+00  0.19064474649E+00  0.61479156037E+00  0.17130128081E+03  0.17130000000E+03 0.  1.
      622    1    1    2    0    0  0.23967582834E+00  0.10501200207E+00  0.29597010884E+01  0.34739462512E+01  0.18000000000E+01 0. -1.
</event>
<event>
 5   0  0.7764500E-01  0.9118800E+02  0.7818608E-02  0.1180000E+00
       11   -1    0    0    0    0  0.00000000000E+00  0.00000000000E+00  0.39999999673E+01  0.40000000000E+01  0.51109989000E-03 0.  1.
     -623   -1    0    0    0    0  0.00000000000E+00  0.00000000000E+00  0.12525980253E-10  0.17130000000E+03  0.17130000000E+03 0. -1.
       11    1    1    2    0    0  0.42631769546E-02  0.44120648895E-01 -0.13134675937E-02  0.44348537255E-01  0.51109989000E-03 0.  1.
     -623    1    1    2    0    0  0.16461978227E+00 -0.37130488845E+00  0.49959443200E+00  0.17130121004E+03  0.17130000000E+03 0. -1.
      622    1    1    2    0    0 -0.16888295923E+00  0.32718423956E+00  0.35017190030E+01  0.39544414215E+01  0.18000000000E+01 0.  1.
</event>
<event>
 5   0  0.7764500E-01  0.9118800E+02  0.7818608E-02  0.1180000E+00
       11   -1    0    0    0    0  0.00000000000E+00  0.00000000000E+00  0.39999999673E+01  0.40000000000E+01  0.51109989000E-03 0.  1.
     -623   -1    0    0    0    0  0.00000000000E+00  0.00000000000E+00  0.12525980253E-10  0.17130000000E+03  0.17130000000E+03 0.  1.
       11    1    1    2    0    0  0.20241536691E-01  0.26750878481E+00  0.30222439438E+00  0.40411695775E+00  0.51109989000E-03 0.  1.
     -623    1    1    2    0    0  0.24099334753E+00 -0.39954429295E+00  0.60058997126E+00  0.17130168832E+03  0.17130000000E+03 0.  1.
      622    1    1    2    0    0 -0.26123488422E+00  0.13203550813E+00  0.30971856017E+01  0.35941947209E+01  0.18000000000E+01 0.  1.
</event>
<event>
 5   0  0.7764500E-01  0.9118800E+02  0.7818608E-02  0.1180000E+00
       11   -1    0    0    0    0  0.00000000000E+00  0.00000000000E+00  0.39999999673E+01  0.40000000000E+01  0.51109989000E-03 0.  1.
     -623   -1    0    0    0    0  0.00000000000E+00  0.00000000000E+00  0.12525980253E-10  0.17130000000E+03  0.17130000000E+03 0. -1.
       11    1    1    2    0    0 -0.89627564637E-01  0.29210515311E+00  0.61646123633E-01  0.31170342731E+00  0.51109989000E-03 0.  1.
     -623    1    1    2    0    0 -0.49106760992E+00 -0.30549157687E+00  0.77512524359E+00  0.17130272996E+03  0.17130000000E+03 0. -1.
      622    1    1    2    0    0  0.58069517456E+00  0.13386423765E-01  0.31632286001E+01  0.36855666130E+01  0.18000000000E+01 0.  1.
</event>
<event>
 5   0  0.7764500E-01  0.9118800E+02  0.7818608E-02  0.1180000E+00
       11   -1    0    0    0    0  0.00000000000E+00  0.00000000000E+00  0.39999999673E+01  0.40000000000E+01  0.51109989000E-03 0. -1.
     -623   -1    0    0    0    0  0.00000000000E+00  0.00000000000E+00  0.12525980253E-10  0.17130000000E+03  0.17130000000E+03 0.  1.
       11    1    1    2    0    0 -0.23512503581E+00  0.25813100796E+00  0.56068933988E+00  0.66052115546E+00  0.51109989000E-03 0. -1.
     -623    1    1    2    0    0  0.27777563484E+00 -0.24577605864E+00  0.62865887832E+00  0.17130155509E+03  0.17130000000E+03 0.  1.
      622    1    1    2    0    0 -0.42650599029E-01 -0.12354949326E-01  0.28106517492E+01  0.33379237519E+01  0.18000000000E+01 0. -1.
</event>
<event>
 5   0  0.7764500E-01  0.9118800E+02  0.7818608E-02  0.1180000E+00
       11   -1    0    0    0    0  0.00000000000E+00  0.00000000000E+00  0.39999999673E+01  0.40000000000E+01  0.51109989000E-03 0. -1.
     -623   -1    0    0    0    0  0.00000000000E+00  0.00000000000E+00  0.12525980253E-10  0.17130000000E+03  0.17130000000E+03 0.  1.
       11    1    1    2    0    0  0.81430714732E-01 -0.12512181587E+00  0.38613098776E+00  0.41398530292E+00  0.51109989000E-03 0. -1.
     -623    1    1    2    0    0 -0.19809706920E+00 -0.36520433907E-02  0.51824881926E+00  0.17130089853E+03  0.17130000000E+03 0.  1.
      622    1    1    2    0    0  0.11666635447E+00  0.12877385926E+00  0.30956201603E+01  0.35851161658E+01  0.18000000000E+01 0. -1.
</event>
<event>
 5   0  0.7764500E-01  0.9118800E+02  0.7818608E-02  0.1180000E+00
       11   -1    0    0    0    0  0.00000000000E+00  0.00000000000E+00  0.39999999673E+01  0.40000000000E+01  0.51109989000E-03 0.  1.
     -623   -1    0    0    0    0  0.00000000000E+00  0.00000000000E+00  0.12525980253E-10  0.17130000000E+03  0.17130000000E+03 0. -1.
       11    1    1    2    0    0  0.29759577601E+00  0.12186367628E+00  0.40949842816E-01  0.32417765553E+00  0.51109989000E-03 0.  1.
     -623    1    1    2    0    0 -0.93051924211E-03 -0.29131263970E+00  0.77467387145E+00  0.17130199936E+03  0.17130000000E+03 0. -1.
      622    1    1    2    0    0 -0.29666525677E+00  0.16944896342E+00  0.31843762531E+01  0.36738229880E+01  0.18000000000E+01 0.  1.
</event>
<event>
 5   0  0.7764500E-01  0.9118800E+02  0.7818608E-02  0.1180000E+00
       11   -1    0    0    0    0  0.00000000000E+00  0.00000000000E+00  0.39999999673E+01  0.40000000000E+01  0.51109989000E-03 0. -1.
     -623   -1    0    0    0    0  0.00000000000E+00  0.00000000000E+00  0.12525980253E-10  0.17130000000E+03  0.17130000000E+03 0. -1.
       11    1    1    2    0    0 -0.44345315703E-01 -0.33617168636E-01 -0.26932469051E-01  0.61824268407E-01  0.51109989000E-03 0. -1.
     -623    1    1    2    0    0  0.27591075028E+00  0.32637632832E-01  0.53303790935E+00  0.17130105464E+03  0.17130000000E+03 0. -1.
      622    1    1    2    0    0 -0.23156543457E+00  0.97953580357E-03  0.34938945271E+01  0.39371210899E+01  0.18000000000E+01 0. -1.
</event>
<event>
 5   0  0.7764500E-01  0.9118800E+02  0.7818608E-02  0.1180000E+00
       11   -1    0    0    0    0  0.00000000000E+00  0.00000000000E+00  0.39999999673E+01  0.40000000000E+01  0.51109989000E-03 0. -1.
     -623   -1    0    0    0    0  0.00000000000E+00  0.00000000000E+00  0.12525980253E-10  0.17130000000E+03  0.17130000000E+03 0. -1.
       11    1    1    2    0    0  0.13885448451E+00 -0.14263937197E+00  0.56544540474E+00  0.59946253033E+00  0.51109989000E-03 0. -1.
     -623    1    1    2    0    0 -0.11957084709E+00  0.20093073119E+00  0.55136774257E+00  0.17130104692E+03  0.17130000000E+03 0. -1.
      622    1    1    2    0    0 -0.19283637418E-01 -0.58291359220E-01  0.28831868200E+01  0.33994905472E+01  0.18000000000E+01 0. -1.
</event>
<event>
 5   0  0.7764500E-01  0.9118800E+02  0.7818608E-02  0.1180000E+00
       11   -1    0    0    0    0  0.00000000000E+00  0.00000000000E+00  0.39999999673E+01  0.40000000000E+01  0.51109989000E-03 0.  1.
     -623   -1    0    0    0    0  0.00000000000E+00  0.00000000000E+00  0.12525980253E-10  0.17130000000E+03  0.17130000000E+03 0. -1.
       11    1    1    2    0    0 -0.23470029346E+00 -0.77596261594E-01  0.10210645056E+01  0.10505609898E+01  0.51109989000E-03 0.  1.
     -623    1    1    2    0    0  0.89094588059E+00  0.30699746320E+00  0.75388493308E+00  0.17130425089E+03  0.17130000000E+03 0. -1.
      622    1    1    2    0    0 -0.65624558714E+00 -0.22940120160E+00  0.22250505287E+01  0.29451881158E+01  0.18000000000E+01 0.  0.
</event>
<event>
 5   0  0.7764500E-01  0.9118800E+02  0.7818608E-02  0.1180000E+00
       11   -1    0    0    0    0  0.00000000000E+00  0.00000000000E+00  0.39999999673E+01  0.40000000000E+01  0.51109989000E-03 0.  1.
     -623   -1    0    0    0    0  0.00000000000E+00  0.00000000000E+00  0.12525980253E-10  0.17130000000E+03  0.17130000000E+03 0. -1.
       11    1    1    2    0    0 -0.25560037217E-01  0.19155616903E+00  0.21347976201E+00  0.28795998230E+00  0.51109989000E-03 0.  1.
     -623    1    1    2    0    0 -0.13043083613E+00 -0.21589523106E+00  0.54514734390E+00  0.17130105314E+03  0.17130000000E+03 0. -1.
      622    1    1    2    0    0  0.15599087335E+00  0.24339062035E-01  0.32413728615E+01  0.37109868727E+01  0.18000000000E+01 0.  1.
</event>
<event>
 5   0  0.7764500E-01  0.9118800E+02  0.7818608E-02  0.1180000E+00
       11   -1    0    0    0    0  0.00000000000E+00  0.00000000000E+00  0.39999999673E+01  0.40000000000E+01  0.51109989000E-03 0.  1.
     -623   -1    0    0    0    0  0.00000000000E+00  0.00000000000E+00  0.12525980253E-10  0.17130000000E+03  0.17130000000E+03 0.  1.
       11    1    1    2    0    0 -0.46933128538E-02 -0.20734149925E+00  0.50932631297E+00  0.54993279480E+00  0.51109989000E-03 0.  1.
     -623    1    1    2    0    0  0.11953198237E+00  0.63918665601E+00  0.58414620757E+00  0.17130223021E+03  0.17130000000E+03 0.  1.
      622    1    1    2    0    0 -0.11483866952E+00 -0.43184515676E+00  0.29065274468E+01  0.34478369971E+01  0.18000000000E+01 0.  1.
</event>
<event>
 5   0  0.7764500E-01  0.9118800E+02  0.7818608E-02  0.1180000E+00
       11   -1    0    0    0    0  0.00000000000E+00  0.00000000000E+00  0.39999999673E+01  0.40000000000E+01  0.51109989000E-03 0.  1.
     -623   -1    0    0    0    0  0.00000000000E+00  0.00000000000E+00  0.12525980253E-10  0.17130000000E+03  0.17130000000E+03 0. -1.
       11    1    1    2    0    0 -0.14903842294E+00 -0.19304136948E+00  0.67040316374E+00  0.71338494869E+00  0.51109989000E-03 0.  1.
     -623    1    1    2    0    0 -0.16989469360E+00  0.15755875229E+00  0.59995828773E+00  0.17130120735E+03  0.17130000000E+03 0. -1.
      622    1    1    2    0    0  0.31893311653E+00  0.35482617183E-01  0.27296385159E+01  0.32854077032E+01  0.18000000000E+01 0.  1.
</event>
<event>
 5   0  0.7764500E-01  0.9118800E+02  0.7818608E-02  0.1180000E+00
       11   -1    0    0    0    0  0.00000000000E+00  0.00000000000E+00  0.39999999673E+01  0.40000000000E+01  0.51109989000E-03 0. -1.
     -623   -1    0    0    0    0  0.00000000000E+00  0.00000000000E+00  0.12525980253E-10  0.17130000000E+03  0.17130000000E+03 0. -1.
       11    1    1    2    0    0 -0.11011910431E-01  0.41737848733E-01 -0.54264841246E-01  0.69341505657E-01  0.51109989000E-03 0. -1.
     -623    1    1    2    0    0  0.26637129446E+00 -0.12703867253E+00  0.57172345273E+00  0.17130120829E+03  0.17130000000E+03 0. -1.
      622    1    1    2    0    0 -0.25535938403E+00  0.85300823797E-01  0.34825413559E+01  0.39294502085E+01  0.18000000000E+01 0. -1.
</event>
<event>
 5   0  0.7764500E-01  0.9118800E+02  0.7818608E-02  0.1180000E+00
       11   -1    0    0    0    0  0.00000000000E+00  0.00000000000E+00  0.39999999673E+01  0.40000000000E+01  0.51109989000E-03 0.  1.
     -623   -1    0    0    0    0  0.00000000000E+00  0.00000000000E+00  0.12525980253E-10  0.17130000000E+03  0.17130000000E+03 0.  1.
       11    1    1    2    0    0  0.14859451049E-01  0.15275967500E+00 -0.15869563410E-01  0.15429979214E+00  0.51109989000E-03 0.  1.
     -623    1    1    2    0    0 -0.21562709003E+00 -0.95846412300E-01  0.62531846922E+00  0.17130130386E+03  0.17130000000E+03 0.  1.
      622    1    1    2    0    0  0.20076763898E+00 -0.56913262700E-01  0.33905510616E+01  0.38443963460E+01  0.18000000000E+01 0.  1.
</event>
<event>
 5   0  0.7764500E-01  0.9118800E+02  0.7818608E-02  0.1180000E+00
       11   -1    0    0    0    0  0.00000000000E+00  0.00000000000E+00  0.39999999673E+01  0.40000000000E+01  0.51109989000E-03 0. -1.
     -623   -1    0    0    0    0  0.00000000000E+00  0.00000000000E+00  0.12525980253E-10  0.17130000000E+03  0.17130000000E+03 0.  1.
       11    1    1    2    0    0  0.43549306994E-02  0.11947528051E+00 -0.92707461182E-01  0.15128860715E+00  0.51109989000E-03 0. -1.
     -623    1    1    2    0    0  0.22559007318E+00 -0.23313458257E+00  0.70252512021E+00  0.17130174776E+03  0.17130000000E+03 0.  1.
      622    1    1    2    0    0 -0.22994500388E+00  0.11365930206E+00  0.33901823083E+01  0.38469636371E+01  0.18000000000E+01 0. -1.
</event>
<event>
 5   0  0.7764500E-01  0.9118800E+02  0.7818608E-02  0.1180000E+00
       11   -1    0    0    0    0  0.00000000000E+00  0.00000000000E+00  0.39999999673E+01  0.40000000000E+01  0.51109989000E-03 0.  1.
     -623   -1    0    0    0    0  0.00000000000E+00  0.00000000000E+00  0.12525980253E-10  0.17130000000E+03  0.17130000000E+03 0. -1.
       11    1    1    2    0    0 -0.13356839652E+00  0.13653282095E+00  0.43717047607E+00  0.47707443247E+00  0.51109989000E-03 0.  1.
     -623    1    1    2    0    0  0.18001862863E+00  0.44829139419E-01  0.54136950470E+00  0.17130095591E+03  0.17130000000E+03 0. -1.
      622    1    1    2    0    0 -0.46450232115E-01 -0.18136196037E+00  0.30214599866E+01  0.35219696528E+01  0.18000000000E+01 0.  1.
</event>
<event>
 5   0  0.7764500E-01  0.9118800E+02  0.7818608E-02  0.1180000E+00
       11   -1    0    0    0    0  0.00000000000E+00  0.00000000000E+00  0.39999999673E+01  0.40000000000E+01  0.51109989000E-03 0.  1.
     -623   -1    0    0    0    0  0.00000000000E+00  0.00000000000E+00  0.12525980253E-10  0.17130000000E+03  0.17130000000E+03 0. -1.
       11    1    1    2    0    0 -0.30855487130E+00 -0.29753842624E-01  0.13632275762E+00  0.33863779355E+00  0.51109989000E-03 0.  1.
     -623    1    1    2    0    0  0.38742411487E+00 -0.64845898923E-01  0.67977517054E+00  0.17130179916E+03  0.17130000000E+03 0. -1.
      622    1    1    2    0    0 -0.78869243573E-01  0.94599741547E-01  0.31839020392E+01  0.36595630428E+01  0.18000000000E+01 0.  1.
</event>
<event>
 5   0  0.7764500E-01  0.9118800E+02  0.7818608E-02  0.1180000E+00
       11   -1    0    0    0    0  0.00000000000E+00  0.00000000000E+00  0.39999999673E+01  0.40000000000E+01  0.51109989000E-03 0. -1.
     -623   -1    0    0    0    0  0.00000000000E+00  0.00000000000E+00  0.12525980253E-10  0.17130000000E+03  0.17130000000E+03 0. -1.
       11    1    1    2    0    0 -0.13136817145E+00  0.26938872486E+00  0.16028559838E+00  0.33988176742E+00  0.51109989000E-03 0. -1.
     -623    1    1    2    0    0  0.12537577696E-01 -0.43347380408E+00  0.66134042658E+00  0.17130182552E+03  0.17130000000E+03 0. -1.
      622    1    1    2    0    0  0.11883059376E+00  0.16408507922E+00  0.31783739424E+01  0.36582927085E+01  0.18000000000E+01 0. -1.
</event>
<event>
 5   0  0.7764500E-01  0.9118800E+02  0.7818608E-02  0.1180000E+00
       11   -1    0    0    0    0  0.00000000000E+00  0.00000000000E+00  0.39999999673E+01  0.40000000000E+01  0.51109989000E-03 0. -1.
     -623   -1    0    0    0    0  0.00000000000E+00  0.00000000000E+00  0.12525980253E-10  0.17130000000E+03  0.17130000000E+03 0. -1.
       11    1    1    2    0    0 -0.10401890857E+00 -0.32957771594E-01 -0.62366972089E-01  0.12568233161E+00  0.51109989000E-03 0. -1.
     -623    1    1    2    0    0 -0.38305242155E+00  0.25438229415E+00  0.67578119254E+00  0.17130195013E+03  0.17130000000E+03 0. -1.
      622    1    1    2    0    0  0.48707133011E+00 -0.22142452255E+00  0.33865857469E+01  0.38723675343E+01  0.18000000000E+01 0. -1.
</event>
<event>
 5   0  0.7764500E-01  0.9118800E+02  0.7818608E-02  0.1180000E+00
       11   -1    0    0    0    0  0.00000000000E+00  0.00000000000E+00  0.39999999673E+01  0.40000000000E+01  0.51109989000E-03 0.  1.
     -623   -1    0    0    0    0  0.00000000000E+00  0.00000000000E+00  0.12525980253E-10  0.17130000000E+03  0.17130000000E+03 0. -1.
       11    1    1    2    0    0 -0.49648473273E-01  0.24167391792E+00  0.41411017368E+00  0.48203604707E+00  0.51109989000E-03 0.  1.
     -623    1    1    2    0    0 -0.36589260477E-01 -0.21374393752E+00  0.56590438274E+00  0.17130107201E+03  0.17130000000E+03 0. -1.
      622    1    1    2    0    0  0.86237733750E-01 -0.27929980400E-01  0.30199854109E+01  0.35168919393E+01  0.18000000000E+01 0.  1.
</event>
<event>
 5   0  0.7764500E-01  0.9118800E+02  0.7818608E-02  0.1180000E+00
       11   -1    0    0    0    0  0.00000000000E+00  0.00000000000E+00  0.39999999673E+01  0.40000000000E+01  0.51109989000E-03 0.  1.
     -623   -1    0    0    0    0  0.00000000000E+00  0.00000000000E+00  0.12525980253E-10  0.17130000000E+03  0.17130000000E+03 0.  1.
       11    1    1    2    0    0  0.47482562512E-01 -0.12043255499E-01 -0.32109070999E-02  0.49093837630E-01  0.51109989000E-03 0.  1.
     -623    1    1    2    0    0 -0.24745609281E+00  0.54892596346E-01  0.49311905623E+00  0.17130089730E+03  0.17130000000E+03 0.  1.
      622    1    1    2    0    0  0.19997353030E+00 -0.42849340847E-01  0.35100918182E+01  0.39500088672E+01  0.18000000000E+01 0.  1.
</event>
<event>
 5   0  0.7764500E-01  0.9118800E+02  0.7818608E-02  0.1180000E+00
       11   -1    0    0    0    0  0.00000000000E+00  0.00000000000E+00  0.39999999673E+01  0.40000000000E+01  0.51109989000E-03 0.  1.
     -623   -1    0    0    0    0  0.00000000000E+00  0.00000000000E+00  0.12525980253E-10  0.17130000000E+03  0.17130000000E+03 0. -1.
       11    1    1    2    0    0  0.20878974032E-01  0.16638242248E+00  0.73894657226E+00  0.75773434655E+00  0.51109989000E-03 0.  1.
     -623    1    1    2    0    0 -0.40385941479E+00 -0.37097241732E+00  0.60187856272E+00  0.17130193513E+03  0.17130000000E+03 0. -1.
      622    1    1    2    0    0  0.38298044075E+00  0.20458999485E+00  0.26591748324E+01  0.32403305191E+01  0.18000000000E+01 0.  1.
</event>
<event>
 5   0  0.7764500E-01  0.9118800E+02  0.7818608E-02  0.1180000E+00
       11   -1    0    0    0    0  0.00000000000E+00  0.00000000000E+00  0.39999999673E+01  0.40000000000E+01  0.51109989000E-03 0.  1.
     -623   -1    0    0    0    0  0.00000000000E+00  0.00000000000E+00  0.12525980253E-10  0.17130000000E+03  0.17130000000E+03 0.  1.
       11    1    1    2    0    0 -0.23454612543E+00  0.16323368313E+00  0.50062567237E+00  0.57644032243E+00  0.51109989000E-03 0.  1.
     -623    1    1    2    0    0  0.34344046180E+00  0.11200024634E+00  0.60398962559E+00  0.17130144570E+03  0.17130000000E+03 0.  1.
      622    1    1    2    0    0 -0.10889433637E+00 -0.27523392947E+00  0.28953846694E+01  0.34221139777E+01  0.18000000000E+01 0.  1.
</event>
<event>
 5   0  0.7764500E-01  0.9118800E+02  0.7818608E-02  0.1180000E+00
       11   -1    0    0    0    0  0.00000000000E+00  0.00000000000E+00  0.39999999673E+01  0.40000000000E+01  0.51109989000E-03 0. -1.
     -623   -1    0    0    0    0  0.00000000000E+00  0.00000000000E+00  0.12525980253E-10  0.17130000000E+03  0.17130000000E+03 0. -1.
       11    1    1    2    0    0  0.90784324394E-01  0.12494800803E+00  0.20113064505E+00  0.25358942380E+00  0.51109989000E-03 0. -1.
     -623    1    1    2    0    0  0.25948827884E+00 -0.23255980689E+00  0.53506700878E+00  0.17130119006E+03  0.17130000000E+03 0. -1.
      622    1    1    2    0    0 -0.35027260323E+00  0.10761179886E+00  0.32638023135E+01  0.37452205192E+01  0.18000000000E+01 0. -1.
</event>
<event>
 5   0  0.7764500E-01  0.9118800E+02  0.7818608E-02  0.1180000E+00
       11   -1    0    0    0    0  0.00000000000E+00  0.00000000000E+00  0.39999999673E+01  0.40000000000E+01  0.51109989000E-03 0. -1.
     -623   -1    0    0    0    0  0.00000000000E+00  0.00000000000E+00  0.12525980253E-10  0.17130000000E+03  0.17130000000E+03 0. -1.
       11    1    1    2    0    0 -0.33312617763E-01 -0.57186522035E-01  0.14568235424E+00  0.16001136948E+00  0.51109989000E-03 0. -1.
     -623    1    1    2    0    0  0.30378430308E+00  0.14497776512E+00  0.47540578650E+00  0.17130099041E+03  0.17130000000E+03 0. -1.
      622    1    1    2    0    0 -0.27047168532E+00 -0.87791243082E-01  0.33789118266E+01  0.38389982244E+01  0.18000000000E+01 0. -1.
</event>
<event>
 5   0  0.7764500E-01  0.9118800E+02  0.7818608E-02  0.1180000E+00
       11   -1    0    0    0    0  0.00000000000E+00  0.00000000000E+00  0.39999999673E+01  0.40000000000E+01  0.51109989000E-03 0.  1.
     -623   -1    0    0    0    0  0.00000000000E+00  0.00000000000E+00  0.12525980253E-10  0.17130000000E+03  0.17130000000E+03 0.  1.
       11    1    1    2    0    0 -0.32180193991E+00 -0.10968015363E+00  0.26702235283E+00  0.43230477995E+00  0.51109989000E-03 0.  1.
     -623    1    1    2    0    0  0.50058724574E+00  0.28321096116E+00  0.66536170099E+00  0.17130225773E+03  0.17130000000E+03 0.  1.
      622    1    1    2    0    0 -0.17878530584E+00 -0.17353080753E+00  0.30676159135E+01  0.35654374934E+01  0.18000000000E+01 0.  1.
</event>
<event>
 5   0  0.7764500E-01  0.9118800E+02  0.7818608E-02  0.1180000E+00
       11   -1    0    0    0    0  0.00000000000E+00  0.00000000000E+00  0.39999999673E+01  0.40000000000E+01  0.51109989000E-03 0.  1.
     -623   -1    0    0    0    0  0.00000000000E+00  0.00000000000E+00  0.12525980253E-10  0.17130000000E+03  0.17130000000E+03 0. -1.
       11    1    1    2    0    0 -0.22987557656E+00 -0.37198493045E-01  0.55608102278E+00  0.60287052815E+00  0.51109989000E-03 0.  1.
     -623    1    1    2    0    0  0.50587752144E+00  0.45759983634E+00  0.61002184129E+00  0.17130244434E+03  0.17130000000E+03 0. -1.
      622    1    1    2    0    0 -0.27600194488E+00 -0.42040134330E+00  0.28338971033E+01  0.33946851334E+01  0.18000000000E+01 0.  1.
</event>
<event>
 5   0  0.7764500E-01  0.9118800E+02  0.7818608E-02  0.1180000E+00
       11   -1    0    0    0    0  0.00000000000E+00  0.00000000000E+00  0.39999999673E+01  0.40000000000E+01  0.51109989000E-03 0.  1.
     -623   -1    0    0    0    0  0.00000000000E+00  0.00000000000E+00  0.12525980253E-10  0.17130000000E+03  0.17130000000E+03 0.  1.
       11    1    1    2    0    0  0.11273362832E+00  0.53127328503E-02  0.62017131826E-01  0.12877686884E+00  0.51109989000E-03 0.  1.
     -623    1    1    2    0    0 -0.19936650989E+00  0.15993335841E+00  0.51686542679E+00  0.17130097045E+03  0.17130000000E+03 0.  1.
      622    1    1    2    0    0  0.86632881573E-01 -0.16524609126E+00  0.34211174087E+01  0.38702526857E+01  0.18000000000E+01 0.  1.
</event>
<event>
 5   0  0.7764500E-01  0.9118800E+02  0.7818608E-02  0.1180000E+00
       11   -1    0    0    0    0  0.00000000000E+00  0.00000000000E+00  0.39999999673E+01  0.40000000000E+01  0.51109989000E-03 0. -1.
     -623   -1    0    0    0    0  0.00000000000E+00  0.00000000000E+00  0.12525980253E-10  0.17130000000E+03  0.17130000000E+03 0. -1.
       11    1    1    2    0    0  0.29715355577E+00 -0.11505718485E+00 -0.22195418032E+00  0.38833273217E+00  0.51109989000E-03 0. -1.
     -623    1    1    2    0    0 -0.53109015197E+00  0.15851812749E+00  0.11050126310E+01  0.17130446065E+03  0.17130000000E+03 0. -1.
      622    1    1    2    0    0  0.23393659620E+00 -0.43460942644E-01  0.31169415167E+01  0.36072066205E+01  0.18000000000E+01 0. -1.
</event>
<event>
 5   0  0.7764500E-01  0.9118800E+02  0.7818608E-02  0.1180000E+00
       11   -1    0    0    0    0  0.00000000000E+00  0.00000000000E+00  0.39999999673E+01  0.40000000000E+01  0.51109989000E-03 0.  1.
     -623   -1    0    0    0    0  0.00000000000E+00  0.00000000000E+00  0.12525980253E-10  0.17130000000E+03  0.17130000000E+03 0.  1.
       11    1    1    2    0    0  0.21722356128E-01 -0.98598755658E-01 -0.49237008864E-01  0.11233040389E+00  0.51109989000E-03 0.  1.
     -623    1    1    2    0    0 -0.19731243641E+00  0.25640572652E+00  0.61305644155E+00  0.17130140255E+03  0.17130000000E+03 0.  1.
      622    1    1    2    0    0  0.17559008028E+00 -0.15780697086E+00  0.34361805347E+01  0.38862670499E+01  0.18000000000E+01 0.  1.
</event>
<event>
 5   0  0.7764500E-01  0.9118800E+02  0.7818608E-02  0.1180000E+00
       11   -1    0    0    0    0  0.00000000000E+00  0.00000000000E+00  0.39999999673E+01  0.40000000000E+01  0.51109989000E-03 0.  1.
     -623   -1    0    0    0    0  0.00000000000E+00  0.00000000000E+00  0.12525980253E-10  0.17130000000E+03  0.17130000000E+03 0. -1.
       11    1    1    2    0    0  0.93501026123E-01 -0.22894639443E+00  0.20500001374E+00  0.32122291367E+00  0.51109989000E-03 0.  1.
     -623    1    1    2    0    0 -0.71885067729E-01  0.64386411275E-01  0.59216933183E+00  0.17130105072E+03  0.17130000000E+03 0. -1.
      622    1    1    2    0    0 -0.21615958394E-01  0.16455998315E+00  0.32028306218E+01  0.36777263669E+01  0.18000000000E+01 0.  1.
</event>
<event>
 5   0  0.7764500E-01  0.9118800E+02  0.7818608E-02  0.1180000E+00
       11   -1    0    0    0    0  0.00000000000E+00  0.00000000000E+00  0.39999999673E+01  0.40000000000E+01  0.51109989000E-03 0.  1.
     -623   -1    0    0    0    0  0.00000000000E+00  0.00000000000E+00  0.12525980253E-10  0.17130000000E+03  0.17130000000E+03 0.  1.
       11    1    1    2    0    0  0.21987589633E+00  0.15135090988E+00 -0.15295906832E+00  0.30765117506E+00  0.51109989000E-03 0.  1.
     -623    1    1    2    0    0  0.30230523643E+00 -0.10685275578E+00  0.97552807121E+00  0.17130307779E+03  0.17130000000E+03 0.  1.
      622    1    1    2    0    0 -0.52218113277E+00 -0.44498154101E-01  0.31774309645E+01  0.36892710330E+01  0.18000000000E+01 0.  1.
</event>
<event>
 5   0  0.7764500E-01  0.9118800E+02  0.7818608E-02  0.1180000E+00
       11   -1    0    0    0    0  0.00000000000E+00  0.00000000000E+00  0.39999999673E+01  0.40000000000E+01  0.51109989000E-03 0. -1.
     -623   -1    0    0    0    0  0.00000000000E+00  0.00000000000E+00  0.12525980253E-10  0.17130000000E+03  0.17130000000E+03 0.  1.
       11    1    1    2    0    0  0.20706492427E-01  0.97720481807E-01  0.60047245792E-01  0.11655035110E+00  0.51109989000E-03 0. -1.
     -623    1    1    2    0    0  0.29782760305E-01 -0.10603548466E+00  0.50009535692E+00  0.17130076540E+03  0.17130000000E+03 0.  1.
      622    1    1    2    0    0 -0.50489252731E-01  0.83150028507E-02  0.34398573646E+01  0.38826842510E+01  0.18000000000E+01 0. -1.
</event>
<event>
 5   0  0.7764500E-01  0.9118800E+02  0.7818608E-02  0.1180000E+00
       11   -1    0    0    0    0  0.00000000000E+00  0.00000000000E+00  0.39999999673E+01  0.40000000000E+01  0.51109989000E-03 0. -1.
     -623   -1    0    0    0    0  0.00000000000E+00  0.00000000000E+00  0.12525980253E-10  0.17130000000E+03  0.17130000000E+03 0. -1.
       11    1    1    2    0    0 -0.16839209086E+00  0.10331957765E+00  0.23820589500E+00  0.30947235906E+00  0.51109989000E-03 0. -1.
     -623    1    1    2    0    0  0.15266865115E+00 -0.56813412527E+00  0.57602983765E+00  0.17130197866E+03  0.17130000000E+03 0. -1.
      622    1    1    2    0    0  0.15723439704E-01  0.46481454762E+00  0.31857642347E+01  0.36885489761E+01  0.18000000000E+01 0. -1.
</event>
<event>
 5   0  0.7764500E-01  0.9118800E+02  0.7818608E-02  0.1180000E+00
       11   -1    0    0    0    0  0.00000000000E+00  0.00000000000E+00  0.39999999673E+01  0.40000000000E+01  0.51109989000E-03 0.  1.
     -623   -1    0    0    0    0  0.00000000000E+00  0.00000000000E+00  0.12525980253E-10  0.17130000000E+03  0.17130000000E+03 0. -1.
       11    1    1    2    0    0 -0.10325585463E+00 -0.85508323965E-02 -0.48148790217E-01  0.11425171978E+00  0.51109989000E-03 0.  1.
     -623    1    1    2    0    0  0.27540543570E+00  0.32789997570E+00  0.62551992610E+00  0.17130167729E+03  0.17130000000E+03 0. -1.
      622    1    1    2    0    0 -0.17214958107E+00 -0.31934914330E+00  0.34226288315E+01  0.38840709921E+01  0.18000000000E+01 0.  1.
</event>
<event>
 5   0  0.7764500E-01  0.9118800E+02  0.7818608E-02  0.1180000E+00
       11   -1    0    0    0    0  0.00000000000E+00  0.00000000000E+00  0.39999999673E+01  0.40000000000E+01  0.51109989000E-03 0.  1.
     -623   -1    0    0    0    0  0.00000000000E+00  0.00000000000E+00  0.12525980253E-10  0.17130000000E+03  0.17130000000E+03 0.  1.
       11    1    1    2    0    0  0.39687130035E-01 -0.64862075823E-02 -0.64812368639E-01  0.76276100653E-01  0.51109989000E-03 0.  1.
     -623    1    1    2    0    0 -0.24706748499E+00 -0.95864337569E-01  0.58736825603E+00  0.17130121200E+03  0.17130000000E+03 0.  1.
      622    1    1    2    0    0  0.20738035496E+00  0.10235054515E+00  0.34774440800E+01  0.39225118961E+01  0.18000000000E+01 0.  1.
</event>
<event>
 5   0  0.7764500E-01  0.9118800E+02  0.7818608E-02  0.1180000E+00
       11   -1    0    0    0    0  0.00000000000E+00  0.00000000000E+00  0.39999999673E+01  0.40000000000E+01  0.51109989000E-03 0. -1.
     -623   -1    0    0    0    0  0.00000000000E+00  0.00000000000E+00  0.12525980253E-10  0.17130000000E+03  0.17130000000E+03 0.  1.
       11    1    1    2    0    0  0.59742922699E-01 -0.16387662780E+00  0.27763739796E+00  0.32788344258E+00  0.51109989000E-03 0. -1.
     -623    1    1    2    0    0  0.95580268153E-02  0.45426714637E+00  0.53728817175E+00  0.17130144520E+03  0.17130000000E+03 0.  1.
      622    1    1    2    0    0 -0.69300949514E-01 -0.29039051856E+00  0.31850743977E+01  0.36706713546E+01  0.18000000000E+01 0. -1.
</event>
<event>
 5   0  0.7764500E-01  0.9118800E+02  0.7818608E-02  0.1180000E+00
       11   -1    0    0    0    0  0.00000000000E+00  0.00000000000E+00  0.39999999673E+01  0.40000000000E+01  0.51109989000E-03 0. -1.
     -623   -1    0    0    0    0  0.00000000000E+00  0.00000000000E+00  0.12525980253E-10  0.17130000000E+03  0.17130000000E+03 0.  1.
       11    1    1    2    0    0  0.14433302627E+00 -0.14138796124E+00  0.46368187852E+00  0.50579019736E+00  0.51109989000E-03 0. -1.
     -623    1    1    2    0    0 -0.16341693610E+00 -0.39217665391E-01  0.54803800163E+00  0.17130095910E+03  0.17130000000E+03 0.  1.
      622    1    1    2    0    0  0.19083909833E-01  0.18060562663E+00  0.29882800872E+01  0.34932507021E+01  0.18000000000E+01 0. -1.
</event>
<event>
 5   0  0.7764500E-01  0.9118800E+02  0.7818608E-02  0.1180000E+00
       11   -1    0    0    0    0  0.00000000000E+00  0.00000000000E+00  0.39999999673E+01  0.40000000000E+01  0.51109989000E-03 0.  1.
     -623   -1    0    0    0    0  0.00000000000E+00  0.00000000000E+00  0.12525980253E-10  0.17130000000E+03  0.17130000000E+03 0.  1.
       11    1    1    2    0    0  0.60958261103E-01 -0.35414407025E-01  0.10134969554E+00  0.12345894796E+00  0.51109989000E-03 0.  1.
     -623    1    1    2    0    0 -0.26995363260E+00  0.16788347629E+00  0.47535598640E+00  0.17130095453E+03  0.17130000000E+03 0.  1.
      622    1    1    2    0    0  0.20899537150E+00 -0.13246906927E+00  0.34232942854E+01  0.38755865213E+01  0.18000000000E+01 0.  1.
</event>
<event>
 5   0  0.7764500E-01  0.9118800E+02  0.7818608E-02  0.1180000E+00
       11   -1    0    0    0    0  0.00000000000E+00  0.00000000000E+00  0.39999999673E+01  0.40000000000E+01  0.51109989000E-03 0. -1.
     -623   -1    0    0    0    0  0.00000000000E+00  0.00000000000E+00  0.12525980253E-10  0.17130000000E+03  0.17130000000E+03 0.  1.
       11    1    1    2    0    0 -0.90342197856E-01  0.58302545169E-01 -0.10428445033E+00  0.14978787431E+00  0.51109989000E-03 0. -1.
     -623    1    1    2    0    0 -0.93793404000E-01 -0.19702333822E+00  0.71038195802E+00  0.17130161195E+03  0.17130000000E+03 0.  1.
      622    1    1    2    0    0  0.18413560186E+00  0.13872079305E+00  0.33939024597E+01  0.38486001720E+01  0.18000000000E+01 0. -1.
</event>
<event>
 5   0  0.7764500E-01  0.9118800E+02  0.7818608E-02  0.1180000E+00
       11   -1    0    0    0    0  0.00000000000E+00  0.00000000000E+00  0.39999999673E+01  0.40000000000E+01  0.51109989000E-03 0. -1.
     -623   -1    0    0    0    0  0.00000000000E+00  0.00000000000E+00  0.12525980253E-10  0.17130000000E+03  0.17130000000E+03 0.  1.
       11    1    1    2    0    0  0.30781197365E-01  0.30015069634E+00  0.33107026117E+00  0.44793493018E+00  0.51109989000E-03 0. -1.
     -623    1    1    2    0    0 -0.33296368015E+00 -0.34516747905E+00  0.62410084830E+00  0.17130180824E+03  0.17130000000E+03 0.  1.
      622    1    1    2    0    0  0.30218248279E+00  0.45016782709E-01  0.30448288579E+01  0.35502568270E+01  0.18000000000E+01 0. -1.
</event>
<event>
 5   0  0.7764500E-01  0.9118800E+02  0.7818608E-02  0.1180000E+00
       11   -1    0    0    0    0  0.00000000000E+00  0.00000000000E+00  0.39999999673E+01  0.40000000000E+01  0.51109989000E-03 0. -1.
     -623   -1    0    0    0    0  0.00000000000E+00  0.00000000000E+00  0.12525980253E-10  0.17130000000E+03  0.17130000000E+03 0.  1.
       11    1    1    2    0    0  0.89183340659E-01  0.71744074430E-01 -0.10823263596E+00  0.15752918833E+00  0.51109989000E-03 0. -1.
     -623    1    1    2    0    0 -0.49574968845E+00  0.28213672097E+00  0.75952798856E+00  0.17130263352E+03  0.17130000000E+03 0.  1.
      622    1    1    2    0    0  0.40656634779E+00 -0.35388079540E+00  0.33487046148E+01  0.38398372895E+01  0.18000000000E+01 0. -1.
</event>
<event>
 5   0  0.7764500E-01  0.9118800E+02  0.7818608E-02  0.1180000E+00
       11   -1    0    0    0    0  0.00000000000E+00  0.00000000000E+00  0.39999999673E+01  0.40000000000E+01  0.51109989000E-03 0.  1.
     -623   -1    0    0    0    0  0.00000000000E+00  0.00000000000E+00  0.12525980253E-10  0.17130000000E+03  0.17130000000E+03 0.  1.
       11    1    1    2    0    0 -0.93514449360E-01 -0.13718828213E+00  0.85883954599E-01  0.18692750432E+00  0.51109989000E-03 0.  1.
     -623    1    1    2    0    0 -0.20946080493E+00  0.45328666045E+00  0.58324672399E+00  0.17130172071E+03  0.17130000000E+03 0.  1.
      622    1    1    2    0    0  0.30297525428E+00 -0.31609837832E+00  0.33308692888E+01  0.38113517823E+01  0.18000000000E+01 0.  1.
</event>
<event>
 5   0  0.7764500E-01  0.9118800E+02  0.7818608E-02  0.1180000E+00
       11   -1    0    0    0    0  0.00000000000E+00  0.00000000000E+00  0.39999999673E+01  0.40000000000E+01  0.51109989000E-03 0.  1.
     -623   -1    0    0    0    0  0.00000000000E+00  0.00000000000E+00  0.12525980253E-10  0.17130000000E+03  0.17130000000E+03 0. -1.
       11    1    1    2    0    0 -0.47536025947E+00  0.24051658799E+00  0.32475946268E+00  0.62392673865E+00  0.51109989000E-03 0.  1.
     -623    1    1    2    0    0  0.60414699759E+00 -0.20927912556E+00  0.82588626957E+00  0.17130318409E+03  0.17130000000E+03 0. -1.
      622    1    1    2    0    0 -0.12878673812E+00 -0.31237462426E-01  0.28493542351E+01  0.33728891710E+01  0.18000000000E+01 0.  1.
</event>
<event>
 5   0  0.7764500E-01  0.9118800E+02  0.7818608E-02  0.1180000E+00
       11   -1    0    0    0    0  0.00000000000E+00  0.00000000000E+00  0.39999999673E+01  0.40000000000E+01  0.51109989000E-03 0.  1.
     -623   -1    0    0    0    0  0.00000000000E+00  0.00000000000E+00  0.12525980253E-10  0.17130000000E+03  0.17130000000E+03 0. -1.
       11    1    1    2    0    0  0.16140142848E+00 -0.28151784601E-01  0.44707099640E+00  0.47614670127E+00  0.51109989000E-03 0.  1.
     -623    1    1    2    0    0 -0.21380169390E+00 -0.20290475528E-01  0.52541798854E+00  0.17130094041E+03  0.17130000000E+03 0. -1.
      622    1    1    2    0    0  0.52400265421E-01  0.48442260129E-01  0.30275109824E+01  0.35229128841E+01  0.18000000000E+01 0.  1.
</event>
<event>
 5   0  0.7764500E-01  0.9118800E+02  0.7818608E-02  0.1180000E+00
       11   -1    0    0    0    0  0.00000000000E+00  0.00000000000E+00  0.39999999673E+01  0.40000000000E+01  0.51109989000E-03 0.  1.
     -623   -1    0    0    0    0  0.00000000000E+00  0.00000000000E+00  0.12525980253E-10  0.17130000000E+03  0.17130000000E+03 0.  1.
       11    1    1    2    0    0 -0.35560019312E-01 -0.48031144806E+00  0.86474782723E+00  0.98982456427E+00  0.51109989000E-03 0.  1.
     -623    1    1    2    0    0  0.78904688776E+00 -0.11491180813E+00  0.92780042059E+00  0.17130436834E+03  0.17130000000E+03 0.  1.
      622    1    1    2    0    0 -0.75348686845E+00  0.59522325619E+00  0.22074517195E+01  0.30058070929E+01  0.18000000000E+01 0.  1.
</event>
<event>
 5   0  0.7764500E-01  0.9118800E+02  0.7818608E-02  0.1180000E+00
       11   -1    0    0    0    0  0.00000000000E+00  0.00000000000E+00  0.39999999673E+01  0.40000000000E+01  0.51109989000E-03 0.  1.
     -623   -1    0    0    0    0  0.00000000000E+00  0.00000000000E+00  0.12525980253E-10  0.17130000000E+03  0.17130000000E+03 0.  1.
       11    1    1    2    0    0 -0.12069980047E+00 -0.33921649392E-01 -0.31934954377E-01  0.12938014788E+00  0.51109989000E-03 0.  1.
     -623    1    1    2    0    0  0.18851971275E+00 -0.30591041846E-01  0.60793684447E+00  0.17130118523E+03  0.17130000000E+03 0.  1.
      622    1    1    2    0    0 -0.67819912278E-01  0.64512691238E-01  0.34239980773E+01  0.38694346177E+01  0.18000000000E+01 0.  1.
</event>
<event>
 5   0  0.7764500E-01  0.9118800E+02  0.7818608E-02  0.1180000E+00
       11   -1    0    0    0    0  0.00000000000E+00  0.00000000000E+00  0.39999999673E+01  0.40000000000E+01  0.51109989000E-03 0.  1.
     -623   -1    0    0    0    0  0.00000000000E+00  0.00000000000E+00  0.12525980253E-10  0.17130000000E+03  0.17130000000E+03 0.  1.
       11    1    1    2    0    0  0.34708544316E-01  0.18230135175E-01  0.27407324159E+00  0.27686354736E+00  0.51109989000E-03 0.  1.
     -623    1    1    2    0    0  0.11642020390E+00 -0.36134198463E+00  0.48975072729E+00  0.17130112077E+03  0.17130000000E+03 0.  1.
      622    1    1    2    0    0 -0.15112874821E+00  0.34311184945E+00  0.32361759985E+01  0.37220156814E+01  0.18000000000E+01 0.  1.
</event>
<event>
 5   0  0.7764500E-01  0.9118800E+02  0.7818608E-02  0.1180000E+00
       11   -1    0    0    0    0  0.00000000000E+00  0.00000000000E+00  0.39999999673E+01  0.40000000000E+01  0.51109989000E-03 0. -1.
     -623   -1    0    0    0    0  0.00000000000E+00  0.00000000000E+00  0.12525980253E-10  0.17130000000E+03  0.17130000000E+03 0. -1.
       11    1    1    2    0    0  0.91555636921E-01  0.18853081145E+00  0.84882345001E+00  0.87431562495E+00  0.51109989000E-03 0. -1.
     -623    1    1    2    0    0 -0.45656669790E+00 -0.30184590677E+00  0.62705431657E+00  0.17130202206E+03  0.17130000000E+03 0. -1.
      622    1    1    2    0    0  0.36501106098E+00  0.11331509532E+00  0.25241222008E+01  0.31236623169E+01  0.18000000000E+01 0. -1.
</event>
<event>
 5   0  0.7764500E-01  0.9118800E+02  0.7818608E-02  0.1180000E+00
       11   -1    0    0    0    0  0.00000000000E+00  0.00000000000E+00  0.39999999673E+01  0.40000000000E+01  0.51109989000E-03 0. -1.
     -623   -1    0    0    0    0  0.00000000000E+00  0.00000000000E+00  0.12525980253E-10  0.17130000000E+03  0.17130000000E+03 0.  1.
       11    1    1    2    0    0  0.56391764127E-02  0.10456632439E+00  0.57987284583E-01  0.11970256013E+00  0.51109989000E-03 0. -1.
     -623    1    1    2    0    0 -0.69518353250E-01 -0.16281177577E+00  0.50650477031E+00  0.17130084030E+03  0.17130000000E+03 0.  1.
      622    1    1    2    0    0  0.63879176838E-01  0.58245451378E-01  0.34355079125E+01  0.38794571397E+01  0.18000000000E+01 0. -1.
</event>
<event>
 5   0  0.7764500E-01  0.9118800E+02  0.7818608E-02  0.1180000E+00
       11   -1    0    0    0    0  0.00000000000E+00  0.00000000000E+00  0.39999999673E+01  0.40000000000E+01  0.51109989000E-03 0. -1.
     -623   -1    0    0    0    0  0.00000000000E+00  0.00000000000E+00  0.12525980253E-10  0.17130000000E+03  0.17130000000E+03 0. -1.
       11    1    1    2    0    0 -0.58725575898E-01  0.11394980149E+00 -0.70912801850E-01  0.14649961506E+00  0.51109989000E-03 0. -1.
     -623    1    1    2    0    0  0.24366668134E+00  0.77496895693E-01  0.67578857954E+00  0.17130152384E+03  0.17130000000E+03 0. -1.
      622    1    1    2    0    0 -0.18494110545E+00 -0.19144669718E+00  0.33951241897E+01  0.38519765463E+01  0.18000000000E+01 0. -1.
</event>
<event>
 5   0  0.7764500E-01  0.9118800E+02  0.7818608E-02  0.1180000E+00
       11   -1    0    0    0    0  0.00000000000E+00  0.00000000000E+00  0.39999999673E+01  0.40000000000E+01  0.51109989000E-03 0. -1.
     -623   -1    0    0    0    0  0.00000000000E+00  0.00000000000E+00  0.12525980253E-10  0.17130000000E+03  0.17130000000E+03 0.  1.
       11    1    1    2    0    0  0.14608335292E+00 -0.15377063223E+00  0.83844153925E-01  0.22806985050E+00  0.51109989000E-03 0. -1.
     -623    1    1    2    0    0 -0.21712640306E+00  0.41275139156E+00  0.61430130426E+00  0.17130173634E+03  0.17130000000E+03 0.  1.
      622    1    1    2    0    0  0.71043050140E-01 -0.25898075933E+00  0.33018545092E+01  0.37701938078E+01  0.18000000000E+01 0. -1.
</event>
<event>
 5   0  0.7764500E-01  0.9118800E+02  0.7818608E-02  0.1180000E+00
       11   -1    0    0    0    0  0.00000000000E+00  0.00000000000E+00  0.39999999673E+01  0.40000000000E+01  0.51109989000E-03 0. -1.
     -623   -1    0    0    0    0  0.00000000000E+00  0.00000000000E+00  0.12525980253E-10  0.17130000000E+03  0.17130000000E+03 0. -1.
       11    1    1    2    0    0 -0.11978073179E+00  0.15073406416E+00  0.79955024810E-01  0.20847361708E+00  0.51109989000E-03 0. -1.
     -623    1    1    2    0    0  0.19109252719E+00 -0.25164718856E+00  0.58679216732E+00  0.17130129646E+03  0.17130000000E+03 0. -1.
      622    1    1    2    0    0 -0.71311795402E-01  0.10091312439E+00  0.33332527752E+01  0.37902299263E+01  0.18000000000E+01 0. -1.
</event>
<event>
 5   0  0.7764500E-01  0.9118800E+02  0.7818608E-02  0.1180000E+00
       11   -1    0    0    0    0  0.00000000000E+00  0.00000000000E+00  0.39999999673E+01  0.40000000000E+01  0.51109989000E-03 0.  1.
     -623   -1    0    0    0    0  0.00000000000E+00  0.00000000000E+00  0.12525980253E-10  0.17130000000E+03  0.17130000000E+03 0.  1.
       11    1    1    2    0    0  0.10385089377E+00  0.75011043617E-01  0.41198750551E+00  0.43144597659E+00  0.51109989000E-03 0.  1.
     -623    1    1    2    0    0 -0.19002440185E-01 -0.31431352027E+00  0.51841154295E+00  0.17130107386E+03  0.17130000000E+03 0.  1.
      622    1    1    2    0    0 -0.84848453586E-01  0.23930247666E+00  0.30696009189E+01  0.35674801663E+01  0.18000000000E+01 0.  1.
</event>
<event>
 5   0  0.7764500E-01  0.9118800E+02  0.7818608E-02  0.1180000E+00
       11   -1    0    0    0    0  0.00000000000E+00  0.00000000000E+00  0.39999999673E+01  0.40000000000E+01  0.51109989000E-03 0. -1.
     -623   -1    0    0    0    0  0.00000000000E+00  0.00000000000E+00  0.12525980253E-10  0.17130000000E+03  0.17130000000E+03 0.  1.
       11    1    1    2    0    0  0.21183642158E+00 -0.28085810776E+00  0.10836524198E+00  0.36810220468E+00  0.51109989000E-03 0. -1.
     -623    1    1    2    0    0 -0.40826440158E+00  0.61026225438E+00  0.76437009749E+00  0.17130327890E+03  0.17130000000E+03 0.  1.
      622    1    1    2    0    0  0.19642798000E+00 -0.32940414662E+00  0.31272646279E+01  0.36286188965E+01  0.18000000000E+01 0. -1.
</event>
<event>
 5   0  0.7764500E-01  0.9118800E+02  0.7818608E-02  0.1180000E+00
       11   -1    0    0    0    0  0.00000000000E+00  0.00000000000E+00  0.39999999673E+01  0.40000000000E+01  0.51109989000E-03 0.  1.
     -623   -1    0    0    0    0  0.00000000000E+00  0.00000000000E+00  0.12525980253E-10  0.17130000000E+03  0.17130000000E+03 0. -1.
       11    1    1    2    0    0  0.75125616620E-01  0.70274857599E-01  0.58836711422E-01  0.11850921364E+00  0.51109989000E-03 0.  1.
     -623    1    1    2    0    0  0.47397997311E-01  0.65397029160E-02  0.50616666618E+00  0.17130075451E+03  0.17130000000E+03 0. -1.
      622    1    1    2    0    0 -0.12252361393E+00 -0.76814560515E-01  0.34349965898E+01  0.38807362812E+01  0.18000000000E+01 0.  1.
</event>
<event>
 5   0  0.7764500E-01  0.9118800E+02  0.7818608E-02  0.1180000E+00
       11   -1    0    0    0    0  0.00000000000E+00  0.00000000000E+00  0.39999999673E+01  0.40000000000E+01  0.51109989000E-03 0. -1.
     -623   -1    0    0    0    0  0.00000000000E+00  0.00000000000E+00  0.12525980253E-10  0.17130000000E+03  0.17130000000E+03 0.  1.
       11    1    1    2    0    0 -0.86552329264E-02  0.80959281791E-01  0.52132931906E+00  0.52764935184E+00  0.51109989000E-03 0. -1.
     -623    1    1    2    0    0 -0.80929752440E-03  0.45112672893E+00  0.55915817264E+00  0.17130150663E+03  0.17130000000E+03 0.  1.
      622    1    1    2    0    0  0.94645304508E-02 -0.53208601072E+00  0.29195124757E+01  0.34708440178E+01  0.18000000000E+01 0. -1.
</event>
<event>
 5   0  0.7764500E-01  0.9118800E+02  0.7818608E-02  0.1180000E+00
       11   -1    0    0    0    0  0.00000000000E+00  0.00000000000E+00  0.39999999673E+01  0.40000000000E+01  0.51109989000E-03 0.  1.
     -623   -1    0    0    0    0  0.00000000000E+00  0.00000000000E+00  0.12525980253E-10  0.17130000000E+03  0.17130000000E+03 0.  1.
       11    1    1    2    0    0 -0.71298500486E-01  0.32499961360E-01  0.13547657861E+00  0.15650523389E+00  0.51109989000E-03 0.  1.
     -623    1    1    2    0    0  0.15468134666E+00 -0.43138291866E+00  0.49462845443E+00  0.17130132713E+03  0.17130000000E+03 0.  1.
      622    1    1    2    0    0 -0.83382846173E-01  0.39888295730E+00  0.33698949343E+01  0.38421676409E+01  0.18000000000E+01 0.  1.
</event>
<event>
 5   0  0.7764500E-01  0.9118800E+02  0.7818608E-02  0.1180000E+00
       11   -1    0    0    0    0  0.00000000000E+00  0.00000000000E+00  0.39999999673E+01  0.40000000000E+01  0.51109989000E-03 0. -1.
     -623   -1    0    0    0    0  0.00000000000E+00  0.00000000000E+00  0.12525980253E-10  0.17130000000E+03  0.17130000000E+03 0. -1.
       11    1    1    2    0    0 -0.18179718349E-01  0.93976718171E-01  0.26704745721E-01  0.99375703178E-01  0.51109989000E-03 0. -1.
     -623    1    1    2    0    0  0.12320668433E+00  0.69918605095E-01  0.51925675813E+00  0.17130084558E+03  0.17130000000E+03 0. -1.
      622    1    1    2    0    0 -0.10502696598E+00 -0.16389532327E+00  0.34540384635E+01  0.38997787178E+01  0.18000000000E+01 0. -1.
</event>
<event>
 5   0  0.7764500E-01  0.9118800E+02  0.7818608E-02  0.1180000E+00
       11   -1    0    0    0    0  0.00000000000E+00  0.00000000000E+00  0.39999999673E+01  0.40000000000E+01  0.51109989000E-03 0.  1.
     -623   -1    0    0    0    0  0.00000000000E+00  0.00000000000E+00  0.12525980253E-10  0.17130000000E+03  0.17130000000E+03 0. -1.
       11    1    1    2    0    0 -0.44361247988E+00 -0.61488738539E+00  0.11809108137E+00  0.76734887355E+00  0.51109989000E-03 0.  1.
     -623    1    1    2    0    0  0.23535645078E+00  0.20436911376E+00  0.12423634483E+01  0.17130478868E+03  0.17130000000E+03 0. -1.
      622    1    1    2    0    0  0.20825602910E+00  0.41051827164E+00  0.26395454377E+01  0.32278624417E+01  0.18000000000E+01 0.  1.
</event>
<event>
 5   0  0.7764500E-01  0.9118800E+02  0.7818608E-02  0.1180000E+00
       11   -1    0    0    0    0  0.00000000000E+00  0.00000000000E+00  0.39999999673E+01  0.40000000000E+01  0.51109989000E-03 0.  1.
     -623   -1    0    0    0    0  0.00000000000E+00  0.00000000000E+00  0.12525980253E-10  0.17130000000E+03  0.17130000000E+03 0. -1.
       11    1    1    2    0    0 -0.14563962411E+00  0.86432690683E-01  0.85920011741E-01  0.18990529158E+00  0.51109989000E-03 0.  1.
     -623    1    1    2    0    0  0.62563699104E+00 -0.12988521887E+00  0.59329230317E+00  0.17130221916E+03  0.17130000000E+03 0. -1.
      622    1    1    2    0    0 -0.47999736693E+00  0.43452528182E-01  0.33207876525E+01  0.38078755530E+01  0.18000000000E+01 0.  1.
</event>
<event>
 5   0  0.7764500E-01  0.9118800E+02  0.7818608E-02  0.1180000E+00
       11   -1    0    0    0    0  0.00000000000E+00  0.00000000000E+00  0.39999999673E+01  0.40000000000E+01  0.51109989000E-03 0.  1.
     -623   -1    0    0    0    0  0.00000000000E+00  0.00000000000E+00  0.12525980253E-10  0.17130000000E+03  0.17130000000E+03 0. -1.
       11    1    1    2    0    0  0.17719440839E+00  0.37879672944E-01 -0.10132122752E-01  0.18148181485E+00  0.51109989000E-03 0.  1.
     -623    1    1    2    0    0 -0.55961001095E-01  0.23597317700E+00  0.65745497408E+00  0.17130143333E+03  0.17130000000E+03 0. -1.
      622    1    1    2    0    0 -0.12123340729E+00 -0.27385284995E+00  0.33526771160E+01  0.38170848519E+01  0.18000000000E+01 0.  1.
</event>
<event>
 5   0  0.7764500E-01  0.9118800E+02  0.7818608E-02  0.1180000E+00
       11   -1    0    0    0    0  0.00000000000E+00  0.00000000000E+00  0.39999999673E+01  0.40000000000E+01  0.51109989000E-03 0.  1.
     -623   -1    0    0    0    0  0.00000000000E+00  0.00000000000E+00  0.12525980253E-10  0.17130000000E+03  0.17130000000E+03 0.  1.
       11    1    1    2    0    0 -0.84003685223E-01  0.30626412974E+00  0.70024229495E+00  0.76889132468E+00  0.51109989000E-03 0.  1.
     -623    1    1    2    0    0  0.44700037179E+00 -0.28204760378E+00  0.64370243862E+00  0.17130202484E+03  0.17130000000E+03 0.  1.
      622    1    1    2    0    0 -0.36299668657E+00 -0.24216525961E-01  0.26560552338E+01  0.32290838390E+01  0.18000000000E+01 0.  1.
</event>
<event>
 5   0  0.7764500E-01  0.9118800E+02  0.7818608E-02  0.1180000E+00
       11   -1    0    0    0    0  0.00000000000E+00  0.00000000000E+00  0.39999999673E+01  0.40000000000E+01  0.51109989000E-03 0.  1.
     -623   -1    0    0    0    0  0.00000000000E+00  0.00000000000E+00  0.12525980253E-10  0.17130000000E+03  0.17130000000E+03 0. -1.
       11    1    1    2    0    0  0.22396461355E-01  0.25156963015E+00  0.31866642092E+00  0.40661705490E+00  0.51109989000E-03 0.  1.
     -623    1    1    2    0    0  0.91887611699E-01 -0.13133729853E+00  0.57692306296E+00  0.17130104650E+03  0.17130000000E+03 0. -1.
      622    1    1    2    0    0 -0.11428407305E+00 -0.12023233161E+00  0.31044104835E+01  0.35923364421E+01  0.18000000000E+01 0.  1.
</event>
<event>
 5   0  0.7764500E-01  0.9118800E+02  0.7818608E-02  0.1180000E+00
       11   -1    0    0    0    0  0.00000000000E+00  0.00000000000E+00  0.39999999673E+01  0.40000000000E+01  0.51109989000E-03 0.  1.
     -623   -1    0    0    0    0  0.00000000000E+00  0.00000000000E+00  0.12525980253E-10  0.17130000000E+03  0.17130000000E+03 0.  1.
       11    1    1    2    0    0  0.16974420112E+00 -0.74131680282E-02  0.56529580411E-01  0.17906396499E+00  0.51109989000E-03 0.  1.
     -623    1    1    2    0    0  0.27887224600E+00 -0.32638836068E+00  0.62170239945E+00  0.17130166611E+03  0.17130000000E+03 0.  1.
      622    1    1    2    0    0 -0.44861644713E+00  0.33380152871E+00  0.33217679875E+01  0.38192699224E+01  0.18000000000E+01 0.  1.
</event>
<event>
 5   0  0.7764500E-01  0.9118800E+02  0.7818608E-02  0.1180000E+00
       11   -1    0    0    0    0  0.00000000000E+00  0.00000000000E+00  0.39999999673E+01  0.40000000000E+01  0.51109989000E-03 0.  1.
     -623   -1    0    0    0    0  0.00000000000E+00  0.00000000000E+00  0.12525980253E-10  0.17130000000E+03  0.17130000000E+03 0.  1.
       11    1    1    2    0    0 -0.12612905480E+00  0.16566051981E+00  0.36335801734E+00  0.41878545376E+00  0.51109989000E-03 0.  1.
     -623    1    1    2    0    0  0.31584645064E+00 -0.34419544470E+00  0.55341842081E+00  0.17130153094E+03  0.17130000000E+03 0.  1.
      622    1    1    2    0    0 -0.18971739584E+00  0.17853492489E+00  0.30832235292E+01  0.35796836090E+01  0.18000000000E+01 0.  1.
</event>
<event>
 5   0  0.7764500E-01  0.9118800E+02  0.7818608E-02  0.1180000E+00
       11   -1    0    0    0    0  0.00000000000E+00  0.00000000000E+00  0.39999999673E+01  0.40000000000E+01  0.51109989000E-03 0.  1.
     -623   -1    0    0    0    0  0.00000000000E+00  0.00000000000E+00  0.12525980253E-10  0.17130000000E+03  0.17130000000E+03 0.  1.
       11    1    1    2    0    0 -0.35766554213E-01 -0.64289937533E-01 -0.10176277112E+00  0.12557215167E+00  0.51109989000E-03 0.  1.
     -623    1    1    2    0    0  0.35541295218E+00 -0.22510904698E-01  0.68886298585E+00  0.17130175527E+03  0.17130000000E+03 0.  1.
      622    1    1    2    0    0 -0.31964639797E+00  0.86800842232E-01  0.34128997526E+01  0.38726725820E+01  0.18000000000E+01 0.  1.
</event>
<event>
 5   0  0.7764500E-01  0.9118800E+02  0.7818608E-02  0.1180000E+00
       11   -1    0    0    0    0  0.00000000000E+00  0.00000000000E+00  0.39999999673E+01  0.40000000000E+01  0.51109989000E-03 0.  1.
     -623   -1    0    0    0    0  0.00000000000E+00  0.00000000000E+00  0.12525980253E-10  0.17130000000E+03  0.17130000000E+03 0. -1.
       11    1    1    2    0    0 -0.18869114027E-01 -0.12182497750E+00  0.27653223399E+00  0.30276675224E+00  0.51109989000E-03 0.  1.
     -623    1    1    2    0    0  0.13402609159E+00 -0.15102157510E+00  0.50860147778E+00  0.17130087404E+03  0.17130000000E+03 0. -1.
      622    1    1    2    0    0 -0.11515697756E+00  0.27284655260E+00  0.32148662556E+01  0.36963592104E+01  0.18000000000E+01 0.  1.
</event>
<event>
 5   0  0.7764500E-01  0.9118800E+02  0.7818608E-02  0.1180000E+00
       11   -1    0    0    0    0  0.00000000000E+00  0.00000000000E+00  0.39999999673E+01  0.40000000000E+01  0.51109989000E-03 0.  1.
     -623   -1    0    0    0    0  0.00000000000E+00  0.00000000000E+00  0.12525980253E-10  0.17130000000E+03  0.17130000000E+03 0. -1.
       11    1    1    2    0    0  0.57471928357E-01  0.12170288426E+00  0.32064198400E-01  0.13835818959E+00  0.51109989000E-03 0.  1.
     -623    1    1    2    0    0  0.33485752413E-01 -0.25065314273E+00  0.55634404437E+00  0.17130109009E+03  0.17130000000E+03 0. -1.
      622    1    1    2    0    0 -0.90957680770E-01  0.12895025847E+00  0.34115917246E+01  0.38605517176E+01  0.18000000000E+01 0.  1.
</event>
<event>
 5   0  0.7764500E-01  0.9118800E+02  0.7818608E-02  0.1180000E+00
       11   -1    0    0    0    0  0.00000000000E+00  0.00000000000E+00  0.39999999673E+01  0.40000000000E+01  0.51109989000E-03 0. -1.
     -623   -1    0    0    0    0  0.00000000000E+00  0.00000000000E+00  0.12525980253E-10  0.17130000000E+03  0.17130000000E+03 0.  1.
       11    1    1    2    0    0  0.86013864862E-02 -0.13095080125E+00  0.12003242091E+00  0.17784864208E+00  0.51109989000E-03 0. -1.
     -623    1    1    2    0    0  0.16219726148E+00  0.26892800851E+00  0.51656485008E+00  0.17130106675E+03  0.17130000000E+03 0.  1.
      622    1    1    2    0    0 -0.17079864797E+00 -0.13797720726E+00  0.33634026964E+01  0.38210846086E+01  0.18000000000E+01 0. -1.
</event>
<event>
 5   0  0.7764500E-01  0.9118800E+02  0.7818608E-02  0.1180000E+00
       11   -1    0    0    0    0  0.00000000000E+00  0.00000000000E+00  0.39999999673E+01  0.40000000000E+01  0.51109989000E-03 0.  1.
     -623   -1    0    0    0    0  0.00000000000E+00  0.00000000000E+00  0.12525980253E-10  0.17130000000E+03  0.17130000000E+03 0. -1.
       11    1    1    2    0    0  0.12722924293E+00 -0.11765972894E+00  0.85576104147E-01  0.19327344074E+00  0.51109989000E-03 0.  1.
     -623    1    1    2    0    0 -0.58960099053E+00 -0.29288571190E+00  0.62039091114E+00  0.17130238847E+03  0.17130000000E+03 0. -1.
      622    1    1    2    0    0  0.46237174760E+00  0.41054544084E+00  0.32940329521E+01  0.38043380871E+01  0.18000000000E+01 0.  0.
</event>
<event>
 5   0  0.7764500E-01  0.9118800E+02  0.7818608E-02  0.1180000E+00
       11   -1    0    0    0    0  0.00000000000E+00  0.00000000000E+00  0.39999999673E+01  0.40000000000E+01  0.51109989000E-03 0.  1.
     -623   -1    0    0    0    0  0.00000000000E+00  0.00000000000E+00  0.12525980253E-10  0.17130000000E+03  0.17130000000E+03 0.  1.
       11    1    1    2    0    0 -0.32199419050E-01  0.69586299448E-01  0.24131549284E-01  0.80384380025E-01  0.51109989000E-03 0.  1.
     -623    1    1    2    0    0  0.53111154421E-01 -0.24357163301E+00  0.49944071021E+00  0.17130090948E+03  0.17130000000E+03 0.  1.
      622    1    1    2    0    0 -0.20911735371E-01  0.17398533356E+00  0.34764277079E+01  0.39187061391E+01  0.18000000000E+01 0.  1.
</event>
<event>
 5   0  0.7764500E-01  0.9118800E+02  0.7818608E-02  0.1180000E+00
       11   -1    0    0    0    0  0.00000000000E+00  0.00000000000E+00  0.39999999673E+01  0.40000000000E+01  0.51109989000E-03 0.  1.
     -623   -1    0    0    0    0  0.00000000000E+00  0.00000000000E+00  0.12525980253E-10  0.17130000000E+03  0.17130000000E+03 0.  1.
       11    1    1    2    0    0  0.23693530810E-01 -0.21808336536E-01  0.72644800910E-01  0.79463924312E-01  0.51109989000E-03 0.  1.
     -623    1    1    2    0    0  0.19460627055E+00  0.28075646281E+00  0.46205024813E+00  0.17130096376E+03  0.17130000000E+03 0.  1.
      622    1    1    2    0    0 -0.21829980136E+00 -0.25894812628E+00  0.34653049183E+01  0.39195723124E+01  0.18000000000E+01 0.  1.
</event>
<event>
 5   0  0.7764500E-01  0.9118800E+02  0.7818608E-02  0.1180000E+00
       11   -1    0    0    0    0  0.00000000000E+00  0.00000000000E+00  0.39999999673E+01  0.40000000000E+01  0.51109989000E-03 0.  1.
     -623   -1    0    0    0    0  0.00000000000E+00  0.00000000000E+00  0.12525980253E-10  0.17130000000E+03  0.17130000000E+03 0. -1.
       11    1    1    2    0    0  0.37268841719E+00  0.13753984389E+00  0.46234302846E-01  0.39993966664E+00  0.51109989000E-03 0.  1.
     -623    1    1    2    0    0 -0.60400820281E+00  0.20521834414E+00  0.86749181689E+00  0.17130338433E+03  0.17130000000E+03 0. -1.
      622    1    1    2    0    0  0.23131978562E+00 -0.34275818803E+00  0.30862738476E+01  0.35966760045E+01  0.18000000000E+01 0.  1.
</event>
<event>
 5   0  0.7764500E-01  0.9118800E+02  0.7818608E-02  0.1180000E+00
       11   -1    0    0    0    0  0.00000000000E+00  0.00000000000E+00  0.39999999673E+01  0.40000000000E+01  0.51109989000E-03 0. -1.
     -623   -1    0    0    0    0  0.00000000000E+00  0.00000000000E+00  0.12525980253E-10  0.17130000000E+03  0.17130000000E+03 0. -1.
       11    1    1    2    0    0 -0.25976879777E+00 -0.54017791991E-01  0.10567631568E+00  0.28559673504E+00  0.51109989000E-03 0. -1.
     -623    1    1    2    0    0  0.14098197506E+00  0.47588598674E+00  0.67727142282E+00  0.17130205790E+03  0.17130000000E+03 0. -1.
      622    1    1    2    0    0  0.11878682271E+00 -0.42186819474E+00  0.32170522289E+01  0.37123453673E+01  0.18000000000E+01 0. -1.
</event>
<event>
 5   0  0.7764500E-01  0.9118800E+02  0.7818608E-02  0.1180000E+00
       11   -1    0    0    0    0  0.00000000000E+00  0.00000000000E+00  0.39999999673E+01  0.40000000000E+01  0.51109989000E-03 0. -1.
     -623   -1    0    0    0    0  0.00000000000E+00  0.00000000000E+00  0.12525980253E-10  0.17130000000E+03  0.17130000000E+03 0. -1.
       11    1    1    2    0    0 -0.80518627825E-01 -0.66824849584E-01  0.17623837539E+00  0.20496106004E+00  0.51109989000E-03 0. -1.
     -623    1    1    2    0    0  0.18341820207E+00  0.67339301879E-01  0.48524841339E+00  0.17130079872E+03  0.17130000000E+03 0. -1.
      622    1    1    2    0    0 -0.10289957425E+00 -0.51445229504E-03  0.33385131786E+01  0.37942402178E+01  0.18000000000E+01 0. -1.
</event>
<event>
 5   0  0.7764500E-01  0.9118800E+02  0.7818608E-02  0.1180000E+00
       11   -1    0    0    0    0  0.00000000000E+00  0.00000000000E+00  0.39999999673E+01  0.40000000000E+01  0.51109989000E-03 0.  1.
     -623   -1    0    0    0    0  0.00000000000E+00  0.00000000000E+00  0.12525980253E-10  0.17130000000E+03  0.17130000000E+03 0.  1.
       11    1    1    2    0    0 -0.68714719466E-02  0.12278017889E+00  0.21172576803E+00  0.24484740458E+00  0.51109989000E-03 0.  1.
     -623    1    1    2    0    0  0.77607150617E-01  0.24513102967E-01  0.49754466845E+00  0.17130074190E+03  0.17130000000E+03 0.  1.
      622    1    1    2    0    0 -0.70735678671E-01 -0.14729328186E+00  0.32907295309E+01  0.37544106984E+01  0.18000000000E+01 0.  1.
</event>
<event>
 5   0  0.7764500E-01  0.9118800E+02  0.7818608E-02  0.1180000E+00
       11   -1    0    0    0    0  0.00000000000E+00  0.00000000000E+00  0.39999999673E+01  0.40000000000E+01  0.51109989000E-03 0. -1.
     -623   -1    0    0    0    0  0.00000000000E+00  0.00000000000E+00  0.12525980253E-10  0.17130000000E+03  0.17130000000E+03 0.  1.
       11    1    1    2    0    0  0.13292731386E+00 -0.36602983484E-01 -0.83889682673E-01  0.16139141628E+00  0.51109989000E-03 0. -1.
     -623    1    1    2    0    0 -0.42847973921E-01  0.18574792057E+00  0.69969479885E+00  0.17130153505E+03  0.17130000000E+03 0.  1.
      622    1    1    2    0    0 -0.90079339939E-01 -0.14914493709E+00  0.33841948512E+01  0.38370735321E+01  0.18000000000E+01 0. -1.
</event>
<event>
 5   0  0.7764500E-01  0.9118800E+02  0.7818608E-02  0.1180000E+00
       11   -1    0    0    0    0  0.00000000000E+00  0.00000000000E+00  0.39999999673E+01  0.40000000000E+01  0.51109989000E-03 0. -1.
     -623   -1    0    0    0    0  0.00000000000E+00  0.00000000000E+00  0.12525980253E-10  0.17130000000E+03  0.17130000000E+03 0. -1.
       11    1    1    2    0    0 -0.17407172522E+00  0.21704823839E+00  0.21380736394E+00  0.35089136981E+00  0.51109989000E-03 0. -1.
     -623    1    1    2    0    0  0.47492737509E+00 -0.26549317133E+00  0.62891455728E+00  0.17130201860E+03  0.17130000000E+03 0. -1.
      622    1    1    2    0    0 -0.30085564987E+00  0.48444932934E-01  0.31572780461E+01  0.36470900310E+01  0.18000000000E+01 0. -1.
</event>
<event>
 5   0  0.7764500E-01  0.9118800E+02  0.7818608E-02  0.1180000E+00
       11   -1    0    0    0    0  0.00000000000E+00  0.00000000000E+00  0.39999999673E+01  0.40000000000E+01  0.51109989000E-03 0. -1.
     -623   -1    0    0    0    0  0.00000000000E+00  0.00000000000E+00  0.12525980253E-10  0.17130000000E+03  0.17130000000E+03 0. -1.
       11    1    1    2    0    0 -0.31988649507E+00 -0.25771260694E+00  0.41219297457E+00  0.58193338709E+00  0.51109989000E-03 0. -1.
     -623    1    1    2    0    0  0.21741011501E+00  0.22428714087E+00  0.68604455561E+00  0.17130165857E+03  0.17130000000E+03 0. -1.
      622    1    1    2    0    0  0.10247638006E+00  0.33425466072E-01  0.29017624372E+01  0.34164080424E+01  0.18000000000E+01 0. -1.
</event>
<event>
 5   0  0.7764500E-01  0.9118800E+02  0.7818608E-02  0.1180000E+00
       11   -1    0    0    0    0  0.00000000000E+00  0.00000000000E+00  0.39999999673E+01  0.40000000000E+01  0.51109989000E-03 0. -1.
     -623   -1    0    0    0    0  0.00000000000E+00  0.00000000000E+00  0.12525980253E-10  0.17130000000E+03  0.17130000000E+03 0.  1.
       11    1    1    2    0    0  0.33791334177E+00 -0.31609347413E+00  0.46900495612E+00  0.65883717337E+00  0.51109989000E-03 0. -1.
     -623    1    1    2    0    0 -0.43791585989E-01 -0.74983014382E-01  0.76107103896E+00  0.17130171269E+03  0.17130000000E+03 0.  1.
      622    1    1    2    0    0 -0.29412175578E+00  0.39107648851E+00  0.27699239723E+01  0.33394501403E+01  0.18000000000E+01 0. -1.
</event>
<event>
 5   0  0.7764500E-01  0.9118800E+02  0.7818608E-02  0.1180000E+00
       11   -1    0    0    0    0  0.00000000000E+00  0.00000000000E+00  0.39999999673E+01  0.40000000000E+01  0.51109989000E-03 0.  1.
     -623   -1    0    0    0    0  0.00000000000E+00  0.00000000000E+00  0.12525980253E-10  0.17130000000E+03  0.17130000000E+03 0. -1.
       11    1    1    2    0    0 -0.23034446292E+00 -0.13590652610E-01 -0.79606370699E-01  0.24409160763E+00  0.51109989000E-03 0.  1.
     -623    1    1    2    0    0  0.79691647511E-01 -0.44117975832E+00  0.82105539179E+00  0.17130255434E+03  0.17130000000E+03 0. -1.
      622    1    1    2    0    0  0.15065281541E+00  0.45477041093E+00  0.32585509463E+01  0.37533540556E+01  0.18000000000E+01 0.  1.
</event>
<event>
 5   0  0.7764500E-01  0.9118800E+02  0.7818608E-02  0.1180000E+00
       11   -1    0    0    0    0  0.00000000000E+00  0.00000000000E+00  0.39999999673E+01  0.40000000000E+01  0.51109989000E-03 0.  1.
     -623   -1    0    0    0    0  0.00000000000E+00  0.00000000000E+00  0.12525980253E-10  0.17130000000E+03  0.17130000000E+03 0. -1.
       11    1    1    2    0    0  0.63344096418E-01  0.89753936065E-01  0.26556844436E-01  0.11302110776E+00  0.51109989000E-03 0.  1.
     -623    1    1    2    0    0  0.35859962108E+00 -0.28561580651E+00  0.56165739395E+00  0.17130153423E+03  0.17130000000E+03 0. -1.
      622    1    1    2    0    0 -0.42194371750E+00  0.19586187044E+00  0.34117857290E+01  0.38854446635E+01  0.18000000000E+01 0.  1.
</event>
<event>
 5   0  0.7764500E-01  0.9118800E+02  0.7818608E-02  0.1180000E+00
       11   -1    0    0    0    0  0.00000000000E+00  0.00000000000E+00  0.39999999673E+01  0.40000000000E+01  0.51109989000E-03 0. -1.
     -623   -1    0    0    0    0  0.00000000000E+00  0.00000000000E+00  0.12525980253E-10  0.17130000000E+03  0.17130000000E+03 0.  1.
       11    1    1    2    0    0  0.10772465904E+00 -0.31239686168E-01  0.11787512257E+00  0.16271240242E+00  0.51109989000E-03 0. -1.
     -623    1    1    2    0    0 -0.22282665555E+00  0.49964497652E+00  0.52964239721E+00  0.17130169240E+03  0.17130000000E+03 0.  1.
      622    1    1    2    0    0  0.11510199651E+00 -0.46840529035E+00  0.33524824476E+01  0.38355952011E+01  0.18000000000E+01 0. -1.
</event>
<event>
 5   0  0.7764500E-01  0.9118800E+02  0.7818608E-02  0.1180000E+00
       11   -1    0    0    0    0  0.00000000000E+00  0.00000000000E+00  0.39999999673E+01  0.40000000000E+01  0.51109989000E-03 0. -1.
     -623   -1    0    0    0    0  0.00000000000E+00  0.00000000000E+00  0.12525980253E-10  0.17130000000E+03  0.17130000000E+03 0.  1.
       11    1    1    2    0    0 -0.12180388583E+00 -0.29816835719E+00  0.45141749402E+00  0.55454356995E+00  0.51109989000E-03 0. -1.
     -623    1    1    2    0    0  0.13285466981E-01  0.33269773251E+00  0.61457895648E+00  0.17130142606E+03  0.17130000000E+03 0.  1.
      622    1    1    2    0    0  0.10851841885E+00 -0.34529375318E-01  0.29340035169E+01  0.34440303660E+01  0.18000000000E+01 0. -1.
</event>
<event>
 5   0  0.7764500E-01  0.9118800E+02  0.7818608E-02  0.1180000E+00
       11   -1    0    0    0    0  0.00000000000E+00  0.00000000000E+00  0.39999999673E+01  0.40000000000E+01  0.51109989000E-03 0. -1.
     -623   -1    0    0    0    0  0.00000000000E+00  0.00000000000E+00  0.12525980253E-10  0.17130000000E+03  0.17130000000E+03 0.  1.
       11    1    1    2    0    0  0.55701651127E-01  0.37059751635E-03 -0.90535232872E-01  0.10630005125E+00  0.51109989000E-03 0. -1.
     -623    1    1    2    0    0 -0.11770540956E+00  0.28375338450E+00  0.65185416699E+00  0.17130151571E+03  0.17130000000E+03 0.  1.
      622    1    1    2    0    0  0.62003758430E-01 -0.28412398201E+00  0.34386810332E+01  0.38921842392E+01  0.18000000000E+01 0. -1.
</event>
<event>
 5   0  0.7764500E-01  0.9118800E+02  0.7818608E-02  0.1180000E+00
       11   -1    0    0    0    0  0.00000000000E+00  0.00000000000E+00  0.39999999673E+01  0.40000000000E+01  0.51109989000E-03 0. -1.
     -623   -1    0    0    0    0  0.00000000000E+00  0.00000000000E+00  0.12525980253E-10  0.17130000000E+03  0.17130000000E+03 0.  1.
       11    1    1    2    0    0  0.80338342259E-01  0.87321133666E-01  0.31792773835E+00  0.33934869626E+00  0.51109989000E-03 0. -1.
     -623    1    1    2    0    0 -0.18634108144E-02 -0.30050458965E+00  0.50380073700E+00  0.17130100444E+03  0.17130000000E+03 0.  1.
      622    1    1    2    0    0 -0.78474931445E-01  0.21318345598E+00  0.31782714920E+01  0.36596468652E+01  0.18000000000E+01 0. -1.
</event>
<event>
 5   0  0.7764500E-01  0.9118800E+02  0.7818608E-02  0.1180000E+00
       11   -1    0    0    0    0  0.00000000000E+00  0.00000000000E+00  0.39999999673E+01  0.40000000000E+01  0.51109989000E-03 0. -1.
     -623   -1    0    0    0    0  0.00000000000E+00  0.00000000000E+00  0.12525980253E-10  0.17130000000E+03  0.17130000000E+03 0. -1.
       11    1    1    2    0    0 -0.34689423732E-01  0.14344809149E-01 -0.42939775122E-01  0.57036963270E-01  0.51109989000E-03 0. -1.
     -623    1    1    2    0    0 -0.13014274129E+00 -0.29652777132E+00  0.55141435321E+00  0.17130119358E+03  0.17130000000E+03 0. -1.
      622    1    1    2    0    0  0.16483216502E+00  0.28218296217E+00  0.34915253893E+01  0.39417694517E+01  0.18000000000E+01 0. -1.
</event>
<event>
 5   0  0.7764500E-01  0.9118800E+02  0.7818608E-02  0.1180000E+00
       11   -1    0    0    0    0  0.00000000000E+00  0.00000000000E+00  0.39999999673E+01  0.40000000000E+01  0.51109989000E-03 0. -1.
     -623   -1    0    0    0    0  0.00000000000E+00  0.00000000000E+00  0.12525980253E-10  0.17130000000E+03  0.17130000000E+03 0. -1.
       11    1    1    2    0    0  0.48066504670E-01 -0.74436039024E-01 -0.51325120314E-01  0.10239942370E+00  0.51109989000E-03 0. -1.
     -623    1    1    2    0    0  0.34188002582E+00 -0.40762131897E+00  0.65268945105E+00  0.17130206957E+03  0.17130000000E+03 0. -1.
      622    1    1    2    0    0 -0.38994653049E+00  0.48205735799E+00  0.33986356366E+01  0.38955310015E+01  0.18000000000E+01 0. -1.
</event>
<event>
 5   0  0.7764500E-01  0.9118800E+02  0.7818608E-02  0.1180000E+00
       11   -1    0    0    0    0  0.00000000000E+00  0.00000000000E+00  0.39999999673E+01  0.40000000000E+01  0.51109989000E-03 0. -1.
     -623   -1    0    0    0    0  0.00000000000E+00  0.00000000000E+00  0.12525980253E-10  0.17130000000E+03  0.17130000000E+03 0. -1.
       11    1    1    2    0    0 -0.11748637914E-01 -0.25966785707E-01  0.16200585722E-01  0.32787568552E-01  0.51109989000E-03 0. -1.
     -623    1    1    2    0    0  0.25066736921E-01  0.18232796874E+00  0.45270635499E+00  0.17130069706E+03  0.17130000000E+03 0. -1.
      622    1    1    2    0    0 -0.13318099007E-01 -0.15636118303E+00  0.35310930266E+01  0.39665153667E+01  0.18000000000E+01 0. -1.
</event>
<event>
 5   0  0.7764500E-01  0.9118800E+02  0.7818608E-02  0.1180000E+00
       11   -1    0    0    0    0  0.00000000000E+00  0.00000000000E+00  0.39999999673E+01  0.40000000000E+01  0.51109989000E-03 0.  1.
     -623   -1    0    0    0    0  0.00000000000E+00  0.00000000000E+00  0.12525980253E-10  0.17130000000E+03  0.17130000000E+03 0.  1.
       11    1    1    2    0    0 -0.22895873504E+00  0.90022396351E-01  0.31173637312E-01  0.24798828820E+00  0.51109989000E-03 0.  1.
     -623    1    1    2    0    0  0.19996839820E+00 -0.78871868941E-01  0.67860891837E+00  0.17130147903E+03  0.17130000000E+03 0.  1.
      622    1    1    2    0    0  0.28990336847E-01 -0.11150527410E-01  0.32902174117E+01  0.37505326808E+01  0.18000000000E+01 0.  1.
</event>
<event>
 5   0  0.7764500E-01  0.9118800E+02  0.7818608E-02  0.1180000E+00
       11   -1    0    0    0    0  0.00000000000E+00  0.00000000000E+00  0.39999999673E+01  0.40000000000E+01  0.51109989000E-03 0.  1.
     -623   -1    0    0    0    0  0.00000000000E+00  0.00000000000E+00  0.12525980253E-10  0.17130000000E+03  0.17130000000E+03 0.  1.
       11    1    1    2    0    0 -0.10780041756E+00 -0.40087687004E-01 -0.12029977279E+00  0.16643391851E+00  0.51109989000E-03 0.  1.
     -623    1    1    2    0    0  0.13550653476E+00 -0.51181635978E+00  0.78400823108E+00  0.17130261232E+03  0.17130000000E+03 0.  1.
      622    1    1    2    0    0 -0.27706117200E-01  0.55190404679E+00  0.33362915091E+01  0.38309537637E+01  0.18000000000E+01 0.  1.
</event>
<event>
 5   0  0.7764500E-01  0.9118800E+02  0.7818608E-02  0.1180000E+00
       11   -1    0    0    0    0  0.00000000000E+00  0.00000000000E+00  0.39999999673E+01  0.40000000000E+01  0.51109989000E-03 0.  1.
     -623   -1    0    0    0    0  0.00000000000E+00  0.00000000000E+00  0.12525980253E-10  0.17130000000E+03  0.17130000000E+03 0. -1.
       11    1    1    2    0    0  0.86065414772E-01  0.13900373743E+00  0.11093418769E+00  0.19757517522E+00  0.51109989000E-03 0.  1.
     -623    1    1    2    0    0  0.75266731545E-01  0.13776182770E+00  0.55613977171E+00  0.17130097470E+03  0.17130000000E+03 0. -1.
      622    1    1    2    0    0 -0.16133214632E+00 -0.27676556512E+00  0.33329260080E+01  0.38014501199E+01  0.18000000000E+01 0.  1.
</event>
<event>
 5   0  0.7764500E-01  0.9118800E+02  0.7818608E-02  0.1180000E+00
       11   -1    0    0    0    0  0.00000000000E+00  0.00000000000E+00  0.39999999673E+01  0.40000000000E+01  0.51109989000E-03 0. -1.
     -623   -1    0    0    0    0  0.00000000000E+00  0.00000000000E+00  0.12525980253E-10  0.17130000000E+03  0.17130000000E+03 0.  1.
       11    1    1    2    0    0  0.43463136986E-01 -0.34059884006E-01  0.39173834321E-01  0.67705025593E-01  0.51109989000E-03 0. -1.
     -623    1    1    2    0    0 -0.30938349760E+00 -0.37324848649E+00  0.50030727019E+00  0.17130141663E+03  0.17130000000E+03 0.  1.
      622    1    1    2    0    0  0.26592036062E+00  0.40730837050E+00  0.34605188629E+01  0.39308783429E+01  0.18000000000E+01 0. -1.
</event>
<event>
 5   0  0.7764500E-01  0.9118800E+02  0.7818608E-02  0.1180000E+00
       11   -1    0    0    0    0  0.00000000000E+00  0.00000000000E+00  0.39999999673E+01  0.40000000000E+01  0.51109989000E-03 0.  1.
     -623   -1    0    0    0    0  0.00000000000E+00  0.00000000000E+00  0.12525980253E-10  0.17130000000E+03  0.17130000000E+03 0.  1.
       11    1    1    2    0    0 -0.27002308521E+00 -0.14545821848E+00  0.39202603903E-01  0.30920489201E+00  0.51109989000E-03 0.  1.
     -623    1    1    2    0    0 -0.17976781105E-01 -0.17051875135E+00  0.76927694941E+00  0.17130181315E+03  0.17130000000E+03 0.  1.
      622    1    1    2    0    0  0.28799986632E+00  0.31597696983E+00  0.31915204140E+01  0.36889819628E+01  0.18000000000E+01 0.  1.
</event>
<event>
 5   0  0.7764500E-01  0.9118800E+02  0.7818608E-02  0.1180000E+00
       11   -1    0    0    0    0  0.00000000000E+00  0.00000000000E+00  0.39999999673E+01  0.40000000000E+01  0.51109989000E-03 0.  1.
     -623   -1    0    0    0    0  0.00000000000E+00  0.00000000000E+00  0.12525980253E-10  0.17130000000E+03  0.17130000000E+03 0.  1.
       11    1    1    2    0    0  0.58304588713E-01  0.21253053900E+00  0.74517418107E+00  0.77708009653E+00  0.51109989000E-03 0.  1.
     -623    1    1    2    0    0 -0.31579952197E-01 -0.16775784768E+00  0.58320690245E+00  0.17130107784E+03  0.17130000000E+03 0.  1.
      622    1    1    2    0    0 -0.26724636516E-01 -0.44772691323E-01  0.26716188838E+01  0.32218420602E+01  0.18000000000E+01 0.  1.
</event>
<event>
 5   0  0.7764500E-01  0.9118800E+02  0.7818608E-02  0.1180000E+00
       11   -1    0    0    0    0  0.00000000000E+00  0.00000000000E+00  0.39999999673E+01  0.40000000000E+01  0.51109989000E-03 0. -1.
     -623   -1    0    0    0    0  0.00000000000E+00  0.00000000000E+00  0.12525980253E-10  0.17130000000E+03  0.17130000000E+03 0. -1.
       11    1    1    2    0    0 -0.25294614083E+00  0.17367772326E+00  0.11088984193E+00  0.32625529878E+00  0.51109989000E-03 0. -1.
     -623    1    1    2    0    0  0.10939056232E+00 -0.17914406200E+00  0.69152293629E+00  0.17130152440E+03  0.17130000000E+03 0. -1.
      622    1    1    2    0    0  0.14355557851E+00  0.54663387399E-02  0.31975871891E+01  0.36722202980E+01  0.18000000000E+01 0. -1.
</event>
<event>
 5   0  0.7764500E-01  0.9118800E+02  0.7818608E-02  0.1180000E+00
       11   -1    0    0    0    0  0.00000000000E+00  0.00000000000E+00  0.39999999673E+01  0.40000000000E+01  0.51109989000E-03 0. -1.
     -623   -1    0    0    0    0  0.00000000000E+00  0.00000000000E+00  0.12525980253E-10  0.17130000000E+03  0.17130000000E+03 0. -1.
       11    1    1    2    0    0 -0.13244212805E+00 -0.22178467643E+00  0.32014562073E+00  0.41136703767E+00  0.51109989000E-03 0. -1.
     -623    1    1    2    0    0 -0.98076271080E-01 -0.49725676330E-01  0.59704554482E+00  0.17130107576E+03  0.17130000000E+03 0. -1.
      622    1    1    2    0    0  0.23051839913E+00  0.27151035276E+00  0.30828088018E+01  0.35875572069E+01  0.18000000000E+01 0. -1.
</event>
<event>
 5   0  0.7764500E-01  0.9118800E+02  0.7818608E-02  0.1180000E+00
       11   -1    0    0    0    0  0.00000000000E+00  0.00000000000E+00  0.39999999673E+01  0.40000000000E+01  0.51109989000E-03 0. -1.
     -623   -1    0    0    0    0  0.00000000000E+00  0.00000000000E+00  0.12525980253E-10  0.17130000000E+03  0.17130000000E+03 0.  1.
       11    1    1    2    0    0  0.24467036467E-01  0.24985045028E+00  0.26108087261E+00  0.36219796609E+00  0.51109989000E-03 0. -1.
     -623    1    1    2    0    0 -0.41552921526E-01 -0.29732998643E+00  0.57948661281E+00  0.17130124324E+03  0.17130000000E+03 0.  1.
      622    1    1    2    0    0  0.17085885059E-01  0.47479536150E-01  0.31594324819E+01  0.36365587912E+01  0.18000000000E+01 0. -1.
</event>
<event>
 5   0  0.7764500E-01  0.9118800E+02  0.7818608E-02  0.1180000E+00
       11   -1    0    0    0    0  0.00000000000E+00  0.00000000000E+00  0.39999999673E+01  0.40000000000E+01  0.51109989000E-03 0. -1.
     -623   -1    0    0    0    0  0.00000000000E+00  0.00000000000E+00  0.12525980253E-10  0.17130000000E+03  0.17130000000E+03 0.  1.
       11    1    1    2    0    0 -0.91010963815E-01  0.44289262793E+00  0.80001733948E-01  0.45917035408E+00  0.51109989000E-03 0. -1.
     -623    1    1    2    0    0  0.41843004083E+00 -0.19179434028E+00  0.90238011884E+00  0.17130299518E+03  0.17130000000E+03 0.  1.
      622    1    1    2    0    0 -0.32741907702E+00 -0.25109828765E+00  0.30176181146E+01  0.35378344630E+01  0.18000000000E+01 0. -1.
</event>
<event>
 5   0  0.7764500E-01  0.9118800E+02  0.7818608E-02  0.1180000E+00
       11   -1    0    0    0    0  0.00000000000E+00  0.00000000000E+00  0.39999999673E+01  0.40000000000E+01  0.51109989000E-03 0.  1.
     -623   -1    0    0    0    0  0.00000000000E+00  0.00000000000E+00  0.12525980253E-10  0.17130000000E+03  0.17130000000E+03 0. -1.
       11    1    1    2    0    0  0.25477806857E-01  0.10353445408E+00  0.52820366215E-01  0.11899056321E+00  0.51109989000E-03 0.  1.
     -623    1    1    2    0    0 -0.43089631673E+00 -0.26772990580E+00  0.53858605731E+00  0.17130159785E+03  0.17130000000E+03 0. -1.
      622    1    1    2    0    0  0.40541850988E+00  0.16419545172E+00  0.34085935438E+01  0.38794115870E+01  0.18000000000E+01 0.  1.
</event>
<event>
 5   0  0.7764500E-01  0.9118800E+02  0.7818608E-02  0.1180000E+00
       11   -1    0    0    0    0  0.00000000000E+00  0.00000000000E+00  0.39999999673E+01  0.40000000000E+01  0.51109989000E-03 0.  1.
     -623   -1    0    0    0    0  0.00000000000E+00  0.00000000000E+00  0.12525980253E-10  0.17130000000E+03  0.17130000000E+03 0. -1.
       11    1    1    2    0    0 -0.50518988924E-01  0.16758759475E-01 -0.17244799118E-01  0.55952377774E-01  0.51109989000E-03 0.  1.
     -623    1    1    2    0    0  0.22937982822E+00  0.16774302405E-01  0.51366030374E+00  0.17130092453E+03  0.17130000000E+03 0. -1.
      622    1    1    2    0    0 -0.17886083930E+00 -0.33533061880E-01  0.35035844627E+01  0.39431230964E+01  0.18000000000E+01 0.  1.
</event>
<event>
 5   0  0.7764500E-01  0.9118800E+02  0.7818608E-02  0.1180000E+00
       11   -1    0    0    0    0  0.00000000000E+00  0.00000000000E+00  0.39999999673E+01  0.40000000000E+01  0.51109989000E-03 0.  1.
     -623   -1    0    0    0    0  0.00000000000E+00  0.00000000000E+00  0.12525980253E-10  0.17130000000E+03  0.17130000000E+03 0.  1.
       11    1    1    2    0    0  0.18229329490E+00 -0.37591738512E+00  0.36803292230E+00  0.55677034667E+00  0.51109989000E-03 0.  1.
     -623    1    1    2    0    0 -0.47741163919E+00  0.38107243822E+00  0.71461367055E+00  0.17130257970E+03  0.17130000000E+03 0.  1.
      622    1    1    2    0    0  0.29511834429E+00 -0.51550530999E-02  0.29173533745E+01  0.34406499565E+01  0.18000000000E+01 0.  1.
</event>
<event>
 5   0  0.7764500E-01  0.9118800E+02  0.7818608E-02  0.1180000E+00
       11   -1    0    0    0    0  0.00000000000E+00  0.00000000000E+00  0.39999999673E+01  0.40000000000E+01  0.51109989000E-03 0.  1.
     -623   -1    0    0    0    0  0.00000000000E+00  0.00000000000E+00  0.12525980253E-10  0.17130000000E+03  0.17130000000E+03 0. -1.
       11    1    1    2    0    0  0.68218253499E-02 -0.21126539394E+00  0.19976479409E+00  0.29083644572E+00  0.51109989000E-03 0.  1.
     -623    1    1    2    0    0  0.30991619783E+00  0.18974686509E+00  0.57422976146E+00  0.17130134790E+03  0.17130000000E+03 0. -1.
      622    1    1    2    0    0 -0.31673802318E+00  0.21518528853E-01  0.32260054118E+01  0.37078156561E+01  0.18000000000E+01 0.  1.
</event>
<event>
 5   0  0.7764500E-01  0.9118800E+02  0.7818608E-02  0.1180000E+00
       11   -1    0    0    0    0  0.00000000000E+00  0.00000000000E+00  0.39999999673E+01  0.40000000000E+01  0.51109989000E-03 0. -1.
     -623   -1    0    0    0    0  0.00000000000E+00  0.00000000000E+00  0.12525980253E-10  0.17130000000E+03  0.17130000000E+03 0.  1.
       11    1    1    2    0    0 -0.32375709997E-01  0.20221677326E+00  0.16616955962E+00  0.26372787822E+00  0.51109989000E-03 0. -1.
     -623    1    1    2    0    0  0.27214218997E+00  0.33559633601E-01  0.57841720972E+00  0.17130119601E+03  0.17130000000E+03 0.  1.
      622    1    1    2    0    0 -0.23976647997E+00 -0.23577640686E+00  0.32554131980E+01  0.37350761129E+01  0.18000000000E+01 0. -1.
</event>
<event>
 5   0  0.7764500E-01  0.9118800E+02  0.7818608E-02  0.1180000E+00
       11   -1    0    0    0    0  0.00000000000E+00  0.00000000000E+00  0.39999999673E+01  0.40000000000E+01  0.51109989000E-03 0. -1.
     -623   -1    0    0    0    0  0.00000000000E+00  0.00000000000E+00  0.12525980253E-10  0.17130000000E+03  0.17130000000E+03 0. -1.
       11    1    1    2    0    0 -0.17226116977E+00 -0.23589904064E+00  0.16599104214E+00  0.33596957493E+00  0.51109989000E-03 0. -1.
     -623    1    1    2    0    0  0.27703288305E+00  0.46015252791E+00  0.65461903253E+00  0.17130209285E+03  0.17130000000E+03 0. -1.
      622    1    1    2    0    0 -0.10477171328E+00 -0.22425348727E+00  0.31793898927E+01  0.36619375784E+01  0.18000000000E+01 0. -1.
</event>
<event>
 5   0  0.7764500E-01  0.9118800E+02  0.7818608E-02  0.1180000E+00
       11   -1    0    0    0    0  0.00000000000E+00  0.00000000000E+00  0.39999999673E+01  0.40000000000E+01  0.51109989000E-03 0.  1.
     -623   -1    0    0    0    0  0.00000000000E+00  0.00000000000E+00  0.12525980253E-10  0.17130000000E+03  0.17130000000E+03 0.  1.
       11    1    1    2    0    0 -0.79487309910E-01  0.41862396912E-01  0.41043128568E+00  0.42014853826E+00  0.51109989000E-03 0.  1.
     -623    1    1    2    0    0  0.56387870798E-01  0.11439892762E+00  0.50009957527E+00  0.17130077748E+03  0.17130000000E+03 0.  1.
      622    1    1    2    0    0  0.23099439112E-01 -0.15626132453E+00  0.30894691064E+01  0.35790739787E+01  0.18000000000E+01 0.  1.
</event>
<event>
 5   0  0.7764500E-01  0.9118800E+02  0.7818608E-02  0.1180000E+00
       11   -1    0    0    0    0  0.00000000000E+00  0.00000000000E+00  0.39999999673E+01  0.40000000000E+01  0.51109989000E-03 0.  1.
     -623   -1    0    0    0    0  0.00000000000E+00  0.00000000000E+00  0.12525980253E-10  0.17130000000E+03  0.17130000000E+03 0. -1.
       11    1    1    2    0    0 -0.19608972183E-01  0.21159010483E-01  0.23698598603E+00  0.23873590913E+00  0.51109989000E-03 0.  1.
     -623    1    1    2    0    0  0.34041683089E+00 -0.19739060601E+00  0.48206425985E+00  0.17130113027E+03  0.17130000000E+03 0. -1.
      622    1    1    2    0    0 -0.32080785871E+00  0.17623159553E+00  0.32809497215E+01  0.37601338184E+01  0.18000000000E+01 0.  1.
</event>
<event>
 5   0  0.7764500E-01  0.9118800E+02  0.7818608E-02  0.1180000E+00
       11   -1    0    0    0    0  0.00000000000E+00  0.00000000000E+00  0.39999999673E+01  0.40000000000E+01  0.51109989000E-03 0. -1.
     -623   -1    0    0    0    0  0.00000000000E+00  0.00000000000E+00  0.12525980253E-10  0.17130000000E+03  0.17130000000E+03 0.  1.
       11    1    1    2    0    0 -0.13319029337E+00 -0.46739357869E-01 -0.10707063947E+00  0.17716829536E+00  0.51109989000E-03 0. -1.
     -623    1    1    2    0    0  0.46557140708E-01 -0.15564256827E+00  0.74364210578E+00  0.17130169116E+03  0.17130000000E+03 0.  1.
      622    1    1    2    0    0  0.86633152666E-01  0.20238192614E+00  0.33634285010E+01  0.38211405403E+01  0.18000000000E+01 0. -1.
</event>
<event>
 5   0  0.7764500E-01  0.9118800E+02  0.7818608E-02  0.1180000E+00
       11   -1    0    0    0    0  0.00000000000E+00  0.00000000000E+00  0.39999999673E+01  0.40000000000E+01  0.51109989000E-03 0.  1.
     -623   -1    0    0    0    0  0.00000000000E+00  0.00000000000E+00  0.12525980253E-10  0.17130000000E+03  0.17130000000E+03 0.  1.
       11    1    1    2    0    0 -0.53166974372E-01  0.49044366844E+00  0.10415414130E+01  0.11524627956E+01  0.51109989000E-03 0.  1.
     -623    1    1    2    0    0 -0.34987342678E+00 -0.37589121799E+00  0.79558872974E+00  0.17130261722E+03  0.17130000000E+03 0.  1.
      622    1    1    2    0    0  0.40304040115E+00 -0.11455245046E+00  0.21628698246E+01  0.28449199826E+01  0.18000000000E+01 0.  1.
</event>
<event>
 5   0  0.7764500E-01  0.9118800E+02  0.7818608E-02  0.1180000E+00
       11   -1    0    0    0    0  0.00000000000E+00  0.00000000000E+00  0.39999999673E+01  0.40000000000E+01  0.51109989000E-03 0. -1.
     -623   -1    0    0    0    0  0.00000000000E+00  0.00000000000E+00  0.12525980253E-10  0.17130000000E+03  0.17130000000E+03 0. -1.
       11    1    1    2    0    0  0.82676970676E-01  0.89752929372E-01  0.78722655254E-01  0.14521910165E+00  0.51109989000E-03 0. -1.
     -623    1    1    2    0    0 -0.89195986407E-01  0.93709085535E-01  0.51845343520E+00  0.17130083342E+03  0.17130000000E+03 0. -1.
      622    1    1    2    0    0  0.65190157314E-02 -0.18346201491E+00  0.34028238769E+01  0.38539474757E+01  0.18000000000E+01 0. -1.
</event>
<event>
 5   0  0.7764500E-01  0.9118800E+02  0.7818608E-02  0.1180000E+00
       11   -1    0    0    0    0  0.00000000000E+00  0.00000000000E+00  0.39999999673E+01  0.40000000000E+01  0.51109989000E-03 0. -1.
     -623   -1    0    0    0    0  0.00000000000E+00  0.00000000000E+00  0.12525980253E-10  0.17130000000E+03  0.17130000000E+03 0. -1.
       11    1    1    2    0    0  0.12427358765E+00 -0.21941164348E+00  0.26496598620E+00  0.36577674741E+00  0.51109989000E-03 0. -1.
     -623    1    1    2    0    0 -0.30731185575E+00  0.73908678510E+00  0.62987487720E+00  0.17130302809E+03  0.17130000000E+03 0. -1.
      622    1    1    2    0    0  0.18303826810E+00 -0.51967514162E+00  0.31051591040E+01  0.36311951643E+01  0.18000000000E+01 0. -1.
</event>
<event>
 5   0  0.7764500E-01  0.9118800E+02  0.7818608E-02  0.1180000E+00
       11   -1    0    0    0    0  0.00000000000E+00  0.00000000000E+00  0.39999999673E+01  0.40000000000E+01  0.51109989000E-03 0.  1.
     -623   -1    0    0    0    0  0.00000000000E+00  0.00000000000E+00  0.12525980253E-10  0.17130000000E+03  0.17130000000E+03 0.  1.
       11    1    1    2    0    0  0.76126049179E-01  0.13691383614E+00 -0.59587069420E-01  0.16760505349E+00  0.51109989000E-03 0.  1.
     -623    1    1    2    0    0  0.30355274984E+00 -0.29081128203E+00  0.70334007978E+00  0.17130195972E+03  0.17130000000E+03 0.  1.
      622    1    1    2    0    0 -0.37967879902E+00  0.15389744589E+00  0.33562469570E+01  0.38304352299E+01  0.18000000000E+01 0.  1.
</event>
<event>
 5   0  0.7764500E-01  0.9118800E+02  0.7818608E-02  0.1180000E+00
       11   -1    0    0    0    0  0.00000000000E+00  0.00000000000E+00  0.39999999673E+01  0.40000000000E+01  0.51109989000E-03 0. -1.
     -623   -1    0    0    0    0  0.00000000000E+00  0.00000000000E+00  0.12525980253E-10  0.17130000000E+03  0.17130000000E+03 0.  1.
       11    1    1    2    0    0  0.16305731222E+00 -0.23657712431E+00  0.44648270137E+00  0.53094584156E+00  0.51109989000E-03 0. -1.
     -623    1    1    2    0    0 -0.23082729468E-01  0.27543830264E-01  0.59992024052E+00  0.17130105428E+03  0.17130000000E+03 0.  1.
      622    1    1    2    0    0 -0.13997458275E+00  0.20903329405E+00  0.29535970255E+01  0.34679998833E+01  0.18000000000E+01 0. -1.
</event>
<event>
 5   0  0.7764500E-01  0.9118800E+02  0.7818608E-02  0.1180000E+00
       11   -1    0    0    0    0  0.00000000000E+00  0.00000000000E+00  0.39999999673E+01  0.40000000000E+01  0.51109989000E-03 0.  1.
     -623   -1    0    0    0    0  0.00000000000E+00  0.00000000000E+00  0.12525980253E-10  0.17130000000E+03  0.17130000000E+03 0.  1.
       11    1    1    2    0    0  0.36577305153E-01  0.37086394732E+00  0.30130917101E+00  0.47923422711E+00  0.51109989000E-03 0.  1.
     -623    1    1    2    0    0  0.34868441623E+00  0.17585571251E-01  0.72494420395E+00  0.17130188976E+03  0.17130000000E+03 0.  1.
      622    1    1    2    0    0 -0.38526172139E+00 -0.38844951857E+00  0.29737465924E+01  0.35188760163E+01  0.18000000000E+01 0.  1.
</event>
<event>
 5   0  0.7764500E-01  0.9118800E+02  0.7818608E-02  0.1180000E+00
       11   -1    0    0    0    0  0.00000000000E+00  0.00000000000E+00  0.39999999673E+01  0.40000000000E+01  0.51109989000E-03 0.  1.
     -623   -1    0    0    0    0  0.00000000000E+00  0.00000000000E+00  0.12525980253E-10  0.17130000000E+03  0.17130000000E+03 0. -1.
       11    1    1    2    0    0 -0.23153977937E-01 -0.59819849564E-01  0.26732473884E-01  0.69493938435E-01  0.51109989000E-03 0.  1.
     -623    1    1    2    0    0  0.27010106621E+00 -0.33919829056E-03  0.48943247452E+00  0.17130091214E+03  0.17130000000E+03 0. -1.
      622    1    1    2    0    0 -0.24694708827E+00  0.60159047855E-01  0.34838350190E+01  0.39295939249E+01  0.18000000000E+01 0.  1.
</event>
<event>
 5   0  0.7764500E-01  0.9118800E+02  0.7818608E-02  0.1180000E+00
       11   -1    0    0    0    0  0.00000000000E+00  0.00000000000E+00  0.39999999673E+01  0.40000000000E+01  0.51109989000E-03 0. -1.
     -623   -1    0    0    0    0  0.00000000000E+00  0.00000000000E+00  0.12525980253E-10  0.17130000000E+03  0.17130000000E+03 0. -1.
       11    1    1    2    0    0 -0.63619710918E+00 -0.12543425725E+00  0.84494509850E+00  0.10650882571E+01  0.51109989000E-03 0. -1.
     -623    1    1    2    0    0  0.12398153818E+00  0.39632587302E-01  0.89898544341E+00  0.17130240838E+03  0.17130000000E+03 0. -1.
      622    1    1    2    0    0  0.51221557100E+00  0.85801669948E-01  0.22560694255E+01  0.29325033624E+01  0.18000000000E+01 0. -1.
</event>
<event>
 5   0  0.7764500E-01  0.9118800E+02  0.7818608E-02  0.1180000E+00
       11   -1    0    0    0    0  0.00000000000E+00  0.00000000000E+00  0.39999999673E+01  0.40000000000E+01  0.51109989000E-03 0.  1.
     -623   -1    0    0    0    0  0.00000000000E+00  0.00000000000E+00  0.12525980253E-10  0.17130000000E+03  0.17130000000E+03 0.  1.
       11    1    1    2    0    0  0.11257420446E+00 -0.16237259755E+00 -0.74561159677E-01  0.21118105905E+00  0.51109989000E-03 0.  1.
     -623    1    1    2    0    0 -0.15818509977E+00  0.51292863342E+00  0.76231722738E+00  0.17130253718E+03  0.17130000000E+03 0.  1.
      622    1    1    2    0    0  0.45610895309E-01 -0.35055603587E+00  0.33122438997E+01  0.37862817564E+01  0.18000000000E+01 0.  1.
</event>
<event>
 5   0  0.7764500E-01  0.9118800E+02  0.7818608E-02  0.1180000E+00
       11   -1    0    0    0    0  0.00000000000E+00  0.00000000000E+00  0.39999999673E+01  0.40000000000E+01  0.51109989000E-03 0. -1.
     -623   -1    0    0    0    0  0.00000000000E+00  0.00000000000E+00  0.12525980253E-10  0.17130000000E+03  0.17130000000E+03 0. -1.
       11    1    1    2    0    0  0.90615949563E-01 -0.11997931032E+00  0.42297787931E+00  0.44890626286E+00  0.51109989000E-03 0. -1.
     -623    1    1    2    0    0 -0.31633910477E+00 -0.10483620983E+00  0.53390467975E+00  0.17130115620E+03  0.17130000000E+03 0. -1.
      622    1    1    2    0    0  0.22572315520E+00  0.22481552015E+00  0.30431174083E+01  0.35499375377E+01  0.18000000000E+01 0. -1.
</event>
<event>
 5   0  0.7764500E-01  0.9118800E+02  0.7818608E-02  0.1180000E+00
       11   -1    0    0    0    0  0.00000000000E+00  0.00000000000E+00  0.39999999673E+01  0.40000000000E+01  0.51109989000E-03 0.  1.
     -623   -1    0    0    0    0  0.00000000000E+00  0.00000000000E+00  0.12525980253E-10  0.17130000000E+03  0.17130000000E+03 0. -1.
       11    1    1    2    0    0  0.12812425191E+00 -0.56549802660E-01 -0.16618963628E+00  0.21733145317E+00  0.51109989000E-03 0.  1.
     -623    1    1    2    0    0 -0.14716287438E+00 -0.20979636506E+00  0.85261430463E+00  0.17130231354E+03  0.17130000000E+03 0. -1.
      622    1    1    2    0    0  0.19038622472E-01  0.26634616772E+00  0.33135752990E+01  0.37803550114E+01  0.18000000000E+01 0.  1.
</event>
<event>
 5   0  0.7764500E-01  0.9118800E+02  0.7818608E-02  0.1180000E+00
       11   -1    0    0    0    0  0.00000000000E+00  0.00000000000E+00  0.39999999673E+01  0.40000000000E+01  0.51109989000E-03 0. -1.
     -623   -1    0    0    0    0  0.00000000000E+00  0.00000000000E+00  0.12525980253E-10  0.17130000000E+03  0.17130000000E+03 0. -1.
       11    1    1    2    0    0 -0.43429328873E-01 -0.58967963930E-01  0.40602796571E-01  0.83738734699E-01  0.51109989000E-03 0. -1.
     -623    1    1    2    0    0 -0.12794818701E+00 -0.75166092413E-01  0.48898352967E+00  0.17130076219E+03  0.17130000000E+03 0. -1.
      622    1    1    2    0    0  0.17137751588E+00  0.13413405634E+00  0.34704136411E+01  0.39154990791E+01  0.18000000000E+01 0. -1.
</event>
<event>
 5   0  0.7764500E-01  0.9118800E+02  0.7818608E-02  0.1180000E+00
       11   -1    0    0    0    0  0.00000000000E+00  0.00000000000E+00  0.39999999673E+01  0.40000000000E+01  0.51109989000E-03 0. -1.
     -623   -1    0    0    0    0  0.00000000000E+00  0.00000000000E+00  0.12525980253E-10  0.17130000000E+03  0.17130000000E+03 0. -1.
       11    1    1    2    0    0 -0.43823605514E-01 -0.11595927110E+00  0.10740029463E+00  0.16401873510E+00  0.51109989000E-03 0. -1.
     -623    1    1    2    0    0 -0.35744121635E+00  0.96317897916E-01  0.53045980030E+00  0.17130122133E+03  0.17130000000E+03 0. -1.
      622    1    1    2    0    0  0.40126482187E+00  0.19641373180E-01  0.33621398724E+01  0.38347599355E+01  0.18000000000E+01 0. -1.
</event>
<event>
 5   0  0.7764500E-01  0.9118800E+02  0.7818608E-02  0.1180000E+00
       11   -1    0    0    0    0  0.00000000000E+00  0.00000000000E+00  0.39999999673E+01  0.40000000000E+01  0.51109989000E-03 0.  1.
     -623   -1    0    0    0    0  0.00000000000E+00  0.00000000000E+00  0.12525980253E-10  0.17130000000E+03  0.17130000000E+03 0.  1.
       11    1    1    2    0    0 -0.80319807941E-01  0.86631699482E-01  0.68658308979E-01  0.13664021193E+00  0.51109989000E-03 0.  1.
     -623    1    1    2    0    0 -0.12684594756E+00 -0.13124922664E+00  0.52050897808E+00  0.17130088805E+03  0.17130000000E+03 0.  1.
      622    1    1    2    0    0  0.20716575551E+00  0.44617527163E-01  0.34108326803E+01  0.38624717406E+01  0.18000000000E+01 0.  0.
</event>
<event>
 5   0  0.7764500E-01  0.9118800E+02  0.7818608E-02  0.1180000E+00
       11   -1    0    0    0    0  0.00000000000E+00  0.00000000000E+00  0.39999999673E+01  0.40000000000E+01  0.51109989000E-03 0. -1.
     -623   -1    0    0    0    0  0.00000000000E+00  0.00000000000E+00  0.12525980253E-10  0.17130000000E+03  0.17130000000E+03 0.  1.
       11    1    1    2    0    0  0.99149318013E-01  0.58440991107E-01  0.81523996074E-01  0.14104027745E+00  0.51109989000E-03 0. -1.
     -623    1    1    2    0    0 -0.30759974131E-01 -0.17369777940E+00  0.50862541830E+00  0.17130084593E+03  0.17130000000E+03 0.  1.
      622    1    1    2    0    0 -0.68389343881E-01  0.11525678830E+00  0.34098505530E+01  0.38581137909E+01  0.18000000000E+01 0. -1.
</event>
<event>
 5   0  0.7764500E-01  0.9118800E+02  0.7818608E-02  0.1180000E+00
       11   -1    0    0    0    0  0.00000000000E+00  0.00000000000E+00  0.39999999673E+01  0.40000000000E+01  0.51109989000E-03 0.  1.
     -623   -1    0    0    0    0  0.00000000000E+00  0.00000000000E+00  0.12525980253E-10  0.17130000000E+03  0.17130000000E+03 0. -1.
       11    1    1    2    0    0  0.18103724750E-01  0.12014887066E-01 -0.12934500078E+00  0.13115827389E+00  0.51109989000E-03 0.  1.
     -623    1    1    2    0    0  0.12424076514E+00 -0.55791519123E-01  0.70970086222E+00  0.17130152429E+03  0.17130000000E+03 0. -1.
      622    1    1    2    0    0 -0.14234448989E+00  0.43776632058E-01  0.34196441059E+01  0.38673174370E+01  0.18000000000E+01 0.  1.
</event>
<event>
 5   0  0.7764500E-01  0.9118800E+02  0.7818608E-02  0.1180000E+00
       11   -1    0    0    0    0  0.00000000000E+00  0.00000000000E+00  0.39999999673E+01  0.40000000000E+01  0.51109989000E-03 0. -1.
     -623   -1    0    0    0    0  0.00000000000E+00  0.00000000000E+00  0.12525980253E-10  0.17130000000E+03  0.17130000000E+03 0.  1.
       11    1    1    2    0    0 -0.44572305124E-01 -0.64432256962E-01  0.37310648288E-01  0.86778752123E-01  0.51109989000E-03 0. -1.
     -623    1    1    2    0    0 -0.14641841527E+00  0.21631632004E+00  0.49764399155E+00  0.17130092201E+03  0.17130000000E+03 0.  1.
      622    1    1    2    0    0  0.19099072039E+00 -0.15188406307E+00  0.34650453275E+01  0.39122992403E+01  0.18000000000E+01 0. -1.
</event>
<event>
 5   0  0.7764500E-01  0.9118800E+02  0.7818608E-02  0.1180000E+00
       11   -1    0    0    0    0  0.00000000000E+00  0.00000000000E+00  0.39999999673E+01  0.40000000000E+01  0.51109989000E-03 0. -1.
     -623   -1    0    0    0    0  0.00000000000E+00  0.00000000000E+00  0.12525980253E-10  0.17130000000E+03  0.17130000000E+03 0. -1.
       11    1    1    2    0    0  0.42754536640E-01 -0.25621635973E+00  0.45264943523E-01  0.26367394587E+00  0.51109989000E-03 0. -1.
     -623    1    1    2    0    0 -0.72480542346E-01  0.30854336381E+00  0.68301574112E+00  0.17130165488E+03  0.17130000000E+03 0. -1.
      622    1    1    2    0    0  0.29726005706E-01 -0.52327004083E-01  0.32717192827E+01  0.37346711791E+01  0.18000000000E+01 0. -1.
</event>
<event>
 5   0  0.7764500E-01  0.9118800E+02  0.7818608E-02  0.1180000E+00
       11   -1    0    0    0    0  0.00000000000E+00  0.00000000000E+00  0.39999999673E+01  0.40000000000E+01  0.51109989000E-03 0. -1.
     -623   -1    0    0    0    0  0.00000000000E+00  0.00000000000E+00  0.12525980253E-10  0.17130000000E+03  0.17130000000E+03 0.  1.
       11    1    1    2    0    0  0.12680620891E-01 -0.42386213741E-01  0.19136470098E-01  0.48206378959E-01  0.51109989000E-03 0. -1.
     -623    1    1    2    0    0 -0.44687335152E+00 -0.40752939049E+00  0.52094586081E+00  0.17130185977E+03  0.17130000000E+03 0.  1.
      622    1    1    2    0    0  0.43419273063E+00  0.44991560423E+00  0.34599176365E+01  0.39499338513E+01  0.18000000000E+01 0. -1.
</event>
<event>
 5   0  0.7764500E-01  0.9118800E+02  0.7818608E-02  0.1180000E+00
       11   -1    0    0    0    0  0.00000000000E+00  0.00000000000E+00  0.39999999673E+01  0.40000000000E+01  0.51109989000E-03 0.  1.
     -623   -1    0    0    0    0  0.00000000000E+00  0.00000000000E+00  0.12525980253E-10  0.17130000000E+03  0.17130000000E+03 0.  1.
       11    1    1    2    0    0  0.53667774817E-01  0.45533499654E+00  0.78376921577E+00  0.90802237525E+00  0.51109989000E-03 0.  1.
     -623    1    1    2    0    0  0.24210807230E+00 -0.44009474899E+00  0.72251090940E+00  0.17130226012E+03  0.17130000000E+03 0. -1.
      622    1    1    2    0    0 -0.29577584712E+00 -0.15240247553E-01  0.24937198422E+01  0.30897175062E+01  0.18000000000E+01 0.  1.
</event>
<event>
 5   0  0.7764500E-01  0.9118800E+02  0.7818608E-02  0.1180000E+00
       11   -1    0    0    0    0  0.00000000000E+00  0.00000000000E+00  0.39999999673E+01  0.40000000000E+01  0.51109989000E-03 0.  1.
     -623   -1    0    0    0    0  0.00000000000E+00  0.00000000000E+00  0.12525980253E-10  0.17130000000E+03  0.17130000000E+03 0.  1.
       11    1    1    2    0    0  0.11032667235E+00 -0.13188366628E+00  0.26608984550E+00  0.31681121060E+00  0.51109989000E-03 0.  1.
     -623    1    1    2    0    0 -0.68100720080E-01  0.37010702643E-01  0.52313404914E+00  0.17130081633E+03  0.17130000000E+03 0.  1.
      622    1    1    2    0    0 -0.42225952273E-01  0.94872963641E-01  0.32107760727E+01  0.36823724553E+01  0.18000000000E+01 0.  1.
</event>
<event>
 5   0  0.7764500E-01  0.9118800E+02  0.7818608E-02  0.1180000E+00
       11   -1    0    0    0    0  0.00000000000E+00  0.00000000000E+00  0.39999999673E+01  0.40000000000E+01  0.51109989000E-03 0.  1.
     -623   -1    0    0    0    0  0.00000000000E+00  0.00000000000E+00  0.12525980253E-10  0.17130000000E+03  0.17130000000E+03 0. -1.
       11    1    1    2    0    0  0.19786856025E+00 -0.43222568115E+00  0.38380534813E+00  0.61096465778E+00  0.51109989000E-03 0.  1.
     -623    1    1    2    0    0 -0.39633992743E-01  0.42673205384E+00  0.75163776003E+00  0.17130218513E+03  0.17130000000E+03 0. -1.
      622    1    1    2    0    0 -0.15823456751E+00  0.54936273136E-02  0.28645568592E+01  0.33868502119E+01  0.18000000000E+01 0.  1.
</event>
<event>
 5   0  0.7764500E-01  0.9118800E+02  0.7818608E-02  0.1180000E+00
       11   -1    0    0    0    0  0.00000000000E+00  0.00000000000E+00  0.39999999673E+01  0.40000000000E+01  0.51109989000E-03 0. -1.
     -623   -1    0    0    0    0  0.00000000000E+00  0.00000000000E+00  0.12525980253E-10  0.17130000000E+03  0.17130000000E+03 0. -1.
       11    1    1    2    0    0 -0.39830053261E+00  0.16723848830E+00  0.44139160093E+00  0.61760734520E+00  0.51109989000E-03 0. -1.
     -623    1    1    2    0    0  0.99817532915E+00  0.25746687871E+00  0.79693169906E+00  0.17130495540E+03  0.17130000000E+03 0. -1.
      622    1    1    2    0    0 -0.59987479654E+00 -0.42470536701E+00  0.27616766674E+01  0.33774372585E+01  0.18000000000E+01 0. -1.
</event>
<event>
 5   0  0.7764500E-01  0.9118800E+02  0.7818608E-02  0.1180000E+00
       11   -1    0    0    0    0  0.00000000000E+00  0.00000000000E+00  0.39999999673E+01  0.40000000000E+01  0.51109989000E-03 0. -1.
     -623   -1    0    0    0    0  0.00000000000E+00  0.00000000000E+00  0.12525980253E-10  0.17130000000E+03  0.17130000000E+03 0.  1.
       11    1    1    2    0    0 -0.21288866510E+00 -0.43751891787E-01  0.25984856995E+00  0.33875854570E+00  0.51109989000E-03 0. -1.
     -623    1    1    2    0    0  0.26674482486E+00  0.32445713041E-01  0.55368528227E+00  0.17130110558E+03  0.17130000000E+03 0.  1.
      622    1    1    2    0    0 -0.53856159759E-01  0.11306178746E-01  0.31864661151E+01  0.36601358743E+01  0.18000000000E+01 0. -1.
</event>
<event>
 5   0  0.7764500E-01  0.9118800E+02  0.7818608E-02  0.1180000E+00
       11   -1    0    0    0    0  0.00000000000E+00  0.00000000000E+00  0.39999999673E+01  0.40000000000E+01  0.51109989000E-03 0.  1.
     -623   -1    0    0    0    0  0.00000000000E+00  0.00000000000E+00  0.12525980253E-10  0.17130000000E+03  0.17130000000E+03 0. -1.
       11    1    1    2    0    0 -0.15989489575E+00  0.29906758754E+00  0.75221390330E+00  0.82512654614E+00  0.51109989000E-03 0.  1.
     -623    1    1    2    0    0  0.22237982113E+00 -0.60785816567E-01  0.64578174984E+00  0.17130137239E+03  0.17130000000E+03 0. -1.
      622    1    1    2    0    0 -0.62484925379E-01 -0.23828177098E+00  0.26020043142E+01  0.31735010666E+01  0.18000000000E+01 0.  1.
</event>
<event>
 5   0  0.7764500E-01  0.9118800E+02  0.7818608E-02  0.1180000E+00
       11   -1    0    0    0    0  0.00000000000E+00  0.00000000000E+00  0.39999999673E+01  0.40000000000E+01  0.51109989000E-03 0. -1.
     -623   -1    0    0    0    0  0.00000000000E+00  0.00000000000E+00  0.12525980253E-10  0.17130000000E+03  0.17130000000E+03 0. -1.
       11    1    1    2    0    0  0.21683357377E+00 -0.82105788754E-01  0.11984627654E+00  0.26100105457E+00  0.51109989000E-03 0. -1.
     -623    1    1    2    0    0 -0.28045202175E+00  0.14294615662E-01  0.60574704265E+00  0.17130130118E+03  0.17130000000E+03 0. -1.
      622    1    1    2    0    0  0.63618447974E-01  0.67811173091E-01  0.32744066482E+01  0.37376977620E+01  0.18000000000E+01 0. -1.
</event>
<event>
 5   0  0.7764500E-01  0.9118800E+02  0.7818608E-02  0.1180000E+00
       11   -1    0    0    0    0  0.00000000000E+00  0.00000000000E+00  0.39999999673E+01  0.40000000000E+01  0.51109989000E-03 0.  1.
     -623   -1    0    0    0    0  0.00000000000E+00  0.00000000000E+00  0.12525980253E-10  0.17130000000E+03  0.17130000000E+03 0. -1.
       11    1    1    2    0    0  0.72080140250E-01 -0.11209750874E+00  0.20802026898E-01  0.13488655838E+00  0.51109989000E-03 0.  1.
     -623    1    1    2    0    0  0.16333059305E+00  0.21209370725E+00  0.56968975802E+00  0.17130115647E+03  0.17130000000E+03 0. -1.
      622    1    1    2    0    0 -0.23541073330E+00 -0.99996198506E-01  0.34095081824E+01  0.38639569743E+01  0.18000000000E+01 0.  1.
</event>
<event>
 5   0  0.7764500E-01  0.9118800E+02  0.7818608E-02  0.1180000E+00
       11   -1    0    0    0    0  0.00000000000E+00  0.00000000000E+00  0.39999999673E+01  0.40000000000E+01  0.51109989000E-03 0.  1.
     -623   -1    0    0    0    0  0.00000000000E+00  0.00000000000E+00  0.12525980253E-10  0.17130000000E+03  0.17130000000E+03 0.  1.
       11    1    1    2    0    0  0.90349279675E-01 -0.25286299520E+00  0.10737255098E+01  0.11067924007E+01  0.51109989000E-03 0.  1.
     -623    1    1    2    0    0 -0.79423864694E-01  0.15681452733E+00  0.66501013769E+00  0.17130138101E+03  0.17130000000E+03 0.  1.
      622    1    1    2    0    0 -0.10925414980E-01  0.96048467874E-01  0.22612643199E+01  0.28918265849E+01  0.18000000000E+01 0.  1.
</event>
<event>
 5   0  0.7764500E-01  0.9118800E+02  0.7818608E-02  0.1180000E+00
       11   -1    0    0    0    0  0.00000000000E+00  0.00000000000E+00  0.39999999673E+01  0.40000000000E+01  0.51109989000E-03 0.  1.
     -623   -1    0    0    0    0  0.00000000000E+00  0.00000000000E+00  0.12525980253E-10  0.17130000000E+03  0.17130000000E+03 0.  1.
       11    1    1    2    0    0  0.18060910522E+00  0.32375447344E+00  0.87200421446E+00  0.94753797772E+00  0.51109989000E-03 0.  1.
     -623    1    1    2    0    0  0.98170126120E+00 -0.47316456605E+00  0.96780558399E+00  0.17130620032E+03  0.17130000000E+03 0.  1.
      622    1    1    2    0    0 -0.11623103664E+01  0.14941009261E+00  0.21601901689E+01  0.30462616975E+01  0.18000000000E+01 0.  1.
</event>
<event>
 5   0  0.7764500E-01  0.9118800E+02  0.7818608E-02  0.1180000E+00
       11   -1    0    0    0    0  0.00000000000E+00  0.00000000000E+00  0.39999999673E+01  0.40000000000E+01  0.51109989000E-03 0. -1.
     -623   -1    0    0    0    0  0.00000000000E+00  0.00000000000E+00  0.12525980253E-10  0.17130000000E+03  0.17130000000E+03 0. -1.
       11    1    1    2    0    0  0.51655325751E-01 -0.61957152438E-01  0.16932648907E+00  0.18755981057E+00  0.51109989000E-03 0. -1.
     -623    1    1    2    0    0 -0.30322122123E+00 -0.16038080417E+00  0.48791042694E+00  0.17130103830E+03  0.17130000000E+03 0. -1.
      622    1    1    2    0    0  0.25156589548E+00  0.22233795661E+00  0.33427630513E+01  0.38114018922E+01  0.18000000000E+01 0. -1.
</event>
<event>
 5   0  0.7764500E-01  0.9118800E+02  0.7818608E-02  0.1180000E+00
       11   -1    0    0    0    0  0.00000000000E+00  0.00000000000E+00  0.39999999673E+01  0.40000000000E+01  0.51109989000E-03 0. -1.
     -623   -1    0    0    0    0  0.00000000000E+00  0.00000000000E+00  0.12525980253E-10  0.17130000000E+03  0.17130000000E+03 0.  1.
       11    1    1    2    0    0  0.96071667521E-01 -0.48926710098E-01  0.95572450961E-01  0.14407617036E+00  0.51109989000E-03 0. -1.
     -623    1    1    2    0    0 -0.14344893762E+00  0.12987468347E+00  0.49664862584E+00  0.17130082926E+03  0.17130000000E+03 0.  1.
      622    1    1    2    0    0  0.47377270102E-01 -0.80947973368E-01  0.34077788906E+01  0.38550945704E+01  0.18000000000E+01 0. -1.
</event>
<event>
 5   0  0.7764500E-01  0.9118800E+02  0.7818608E-02  0.1180000E+00
       11   -1    0    0    0    0  0.00000000000E+00  0.00000000000E+00  0.39999999673E+01  0.40000000000E+01  0.51109989000E-03 0.  1.
     -623   -1    0    0    0    0  0.00000000000E+00  0.00000000000E+00  0.12525980253E-10  0.17130000000E+03  0.17130000000E+03 0. -1.
       11    1    1    2    0    0  0.11032294000E+00 -0.63145156372E-01  0.77951520377E-01  0.14911459558E+00  0.51109989000E-03 0.  1.
     -623    1    1    2    0    0  0.38898715233E+00  0.21374000402E+00  0.55962934137E+00  0.17130148914E+03  0.17130000000E+03 0. -1.
      622    1    1    2    0    0 -0.49931009233E+00 -0.15059484765E+00  0.33624191056E+01  0.38493962667E+01  0.18000000000E+01 0.  1.
</event>
<event>
 5   0  0.7764500E-01  0.9118800E+02  0.7818608E-02  0.1180000E+00
       11   -1    0    0    0    0  0.00000000000E+00  0.00000000000E+00  0.39999999673E+01  0.40000000000E+01  0.51109989000E-03 0.  1.
     -623   -1    0    0    0    0  0.00000000000E+00  0.00000000000E+00  0.12525980253E-10  0.17130000000E+03  0.17130000000E+03 0.  1.
       11    1    1    2    0    0 -0.10807176587E+00  0.16639456421E-02  0.98686594792E-01  0.14636113045E+00  0.51109989000E-03 0.  1.
     -623    1    1    2    0    0  0.10048490008E+00 -0.17642275754E+00  0.49934359523E+00  0.17130084812E+03  0.17130000000E+03 0.  1.
      622    1    1    2    0    0  0.75868657887E-02  0.17475881190E+00  0.34019697773E+01  0.38527907507E+01  0.18000000000E+01 0.  1.
</event>
<event>
 5   0  0.7764500E-01  0.9118800E+02  0.7818608E-02  0.1180000E+00
       11   -1    0    0    0    0  0.00000000000E+00  0.00000000000E+00  0.39999999673E+01  0.40000000000E+01  0.51109989000E-03 0. -1.
     -623   -1    0    0    0    0  0.00000000000E+00  0.00000000000E+00  0.12525980253E-10  0.17130000000E+03  0.17130000000E+03 0.  1.
       11    1    1    2    0    0 -0.34970826696E+00 -0.13257761625E+00  0.73619772548E+00  0.82574817501E+00  0.51109989000E-03 0. -1.
     -623    1    1    2    0    0  0.43495977304E+00  0.14746810237E+00  0.65294419810E+00  0.17130186010E+03  0.17130000000E+03 0.  1.
      622    1    1    2    0    0 -0.85251506087E-01 -0.14890486112E-01  0.26108580438E+01  0.31723917272E+01  0.18000000000E+01 0. -1.
</event>
<event>
 5   0  0.7764500E-01  0.9118800E+02  0.7818608E-02  0.1180000E+00
       11   -1    0    0    0    0  0.00000000000E+00  0.00000000000E+00  0.39999999673E+01  0.40000000000E+01  0.51109989000E-03 0. -1.
     -623   -1    0    0    0    0  0.00000000000E+00  0.00000000000E+00  0.12525980253E-10  0.17130000000E+03  0.17130000000E+03 0. -1.
       11    1    1    2    0    0 -0.20510020077E-01  0.19122064259E+00  0.97931986001E-01  0.21581689040E+00  0.51109989000E-03 0. -1.
     -623    1    1    2    0    0  0.28381869454E+00  0.23226652735E-01  0.59220613601E+00  0.17130126036E+03  0.17130000000E+03 0. -1.
      622    1    1    2    0    0 -0.26330867447E+00 -0.21444729533E+00  0.33098618453E+01  0.37829227504E+01  0.18000000000E+01 0. -1.
</event>
<event>
 5   0  0.7764500E-01  0.9118800E+02  0.7818608E-02  0.1180000E+00
       11   -1    0    0    0    0  0.00000000000E+00  0.00000000000E+00  0.39999999673E+01  0.40000000000E+01  0.51109989000E-03 0.  1.
     -623   -1    0    0    0    0  0.00000000000E+00  0.00000000000E+00  0.12525980253E-10  0.17130000000E+03  0.17130000000E+03 0.  1.
       11    1    1    2    0    0 -0.59636481024E-03 -0.44870215290E-01 -0.70070090672E-01  0.83209198416E-01  0.51109989000E-03 0.  1.
     -623    1    1    2    0    0  0.23159768498E-01  0.28630566183E+00  0.60130979380E+00  0.17130129620E+03  0.17130000000E+03 0.  1.
      622    1    1    2    0    0 -0.22563403688E-01 -0.24143544654E+00  0.34687602642E+01  0.39154945987E+01  0.18000000000E+01 0.  1.
</event>
<event>
 5   0  0.7764500E-01  0.9118800E+02  0.7818608E-02  0.1180000E+00
       11   -1    0    0    0    0  0.00000000000E+00  0.00000000000E+00  0.39999999673E+01  0.40000000000E+01  0.51109989000E-03 0.  1.
     -623   -1    0    0    0    0  0.00000000000E+00  0.00000000000E+00  0.12525980253E-10  0.17130000000E+03  0.17130000000E+03 0. -1.
       11    1    1    2    0    0 -0.36956464751E+00 -0.55427069904E-01  0.59148483760E-01  0.37835035763E+00  0.51109989000E-03 0.  1.
     -623    1    1    2    0    0 -0.16221461724E+00 -0.96403197494E+00  0.10233268222E+01  0.17130584599E+03  0.17130000000E+03 0. -1.
      622    1    1    2    0    0  0.53177926475E+00  0.10194590448E+01  0.29175246614E+01  0.36158036563E+01  0.18000000000E+01 0.  1.
</event>
<event>
 5   0  0.7764500E-01  0.9118800E+02  0.7818608E-02  0.1180000E+00
       11   -1    0    0    0    0  0.00000000000E+00  0.00000000000E+00  0.39999999673E+01  0.40000000000E+01  0.51109989000E-03 0.  1.
     -623   -1    0    0    0    0  0.00000000000E+00  0.00000000000E+00  0.12525980253E-10  0.17130000000E+03  0.17130000000E+03 0. -1.
       11    1    1    2    0    0  0.11522563087E+00  0.10838060887E+00  0.82689889612E-01  0.17849700685E+00  0.51109989000E-03 0.  1.
     -623    1    1    2    0    0 -0.14522380540E+00  0.96252376231E-01  0.55374146015E+00  0.17130098361E+03  0.17130000000E+03 0. -1.
      622    1    1    2    0    0  0.29998174526E-01 -0.20463298510E+00  0.33635686176E+01  0.38205193880E+01  0.18000000000E+01 0.  1.
</event>
<event>
 5   0  0.7764500E-01  0.9118800E+02  0.7818608E-02  0.1180000E+00
       11   -1    0    0    0    0  0.00000000000E+00  0.00000000000E+00  0.39999999673E+01  0.40000000000E+01  0.51109989000E-03 0. -1.
     -623   -1    0    0    0    0  0.00000000000E+00  0.00000000000E+00  0.12525980253E-10  0.17130000000E+03  0.17130000000E+03 0. -1.
       11    1    1    2    0    0  0.19596171079E+00  0.28939339031E-01  0.14395484288E-01  0.19861009196E+00  0.51109989000E-03 0. -1.
     -623    1    1    2    0    0 -0.36452925342E+00 -0.10608863490E+00  0.64437897111E+00  0.17130163269E+03  0.17130000000E+03 0. -1.
      622    1    1    2    0    0  0.16856754262E+00  0.77149295867E-01  0.33412255120E+01  0.37997572228E+01  0.18000000000E+01 0. -1.
</event>
<event>
 5   0  0.7764500E-01  0.9118800E+02  0.7818608E-02  0.1180000E+00
       11   -1    0    0    0    0  0.00000000000E+00  0.00000000000E+00  0.39999999673E+01  0.40000000000E+01  0.51109989000E-03 0. -1.
     -623   -1    0    0    0    0  0.00000000000E+00  0.00000000000E+00  0.12525980253E-10  0.17130000000E+03  0.17130000000E+03 0.  1.
       11    1    1    2    0    0  0.12815390379E+00  0.78296610555E-02 -0.47003805433E-01  0.13672726721E+00  0.51109989000E-03 0. -1.
     -623    1    1    2    0    0  0.17918744556E+00  0.65095736172E-01  0.64481264730E+00  0.17130131969E+03  0.17130000000E+03 0.  1.
      622    1    1    2    0    0 -0.30734134936E+00 -0.72925397227E-01  0.34021911255E+01  0.38619530387E+01  0.18000000000E+01 0. -1.
</event>
<event>
 5   0  0.7764500E-01  0.9118800E+02  0.7818608E-02  0.1180000E+00
       11   -1    0    0    0    0  0.00000000000E+00  0.00000000000E+00  0.39999999673E+01  0.40000000000E+01  0.51109989000E-03 0. -1.
     -623   -1    0    0    0    0  0.00000000000E+00  0.00000000000E+00  0.12525980253E-10  0.17130000000E+03  0.17130000000E+03 0.  1.
       11    1    1    2    0    0 -0.16243729167E+00 -0.30616752268E+00  0.54555976175E+00  0.64634367061E+00  0.51109989000E-03 0. -1.
     -623    1    1    2    0    0  0.55764036703E-01  0.24453834952E+00  0.62904522203E+00  0.17130133860E+03  0.17130000000E+03 0.  1.
      622    1    1    2    0    0  0.10667325497E+00  0.61629173163E-01  0.28253949836E+01  0.33523177283E+01  0.18000000000E+01 0. -1.
</event>
<event>
 5   0  0.7764500E-01  0.9118800E+02  0.7818608E-02  0.1180000E+00
       11   -1    0    0    0    0  0.00000000000E+00  0.00000000000E+00  0.39999999673E+01  0.40000000000E+01  0.51109989000E-03 0.  1.
     -623   -1    0    0    0    0  0.00000000000E+00  0.00000000000E+00  0.12525980253E-10  0.17130000000E+03  0.17130000000E+03 0.  1.
       11    1    1    2    0    0 -0.10873210541E-01 -0.28779691350E-01 -0.50920083126E-03  0.30773655133E-01  0.51109989000E-03 0.  1.
     -623    1    1    2    0    0  0.13474955513E+00  0.18863591163E+00  0.46957379760E+00  0.17130080047E+03  0.17130000000E+03 0.  1.
      622    1    1    2    0    0 -0.12387634459E+00 -0.15985622028E+00  0.35309353706E+01  0.39684258783E+01  0.18000000000E+01 0.  1.
</event>
<event>
 5   0  0.7764500E-01  0.9118800E+02  0.7818608E-02  0.1180000E+00
       11   -1    0    0    0    0  0.00000000000E+00  0.00000000000E+00  0.39999999673E+01  0.40000000000E+01  0.51109989000E-03 0.  1.
     -623   -1    0    0    0    0  0.00000000000E+00  0.00000000000E+00  0.12525980253E-10  0.17130000000E+03  0.17130000000E+03 0.  1.
       11    1    1    2    0    0  0.49723246368E-01 -0.18930528902E+00  0.36320009144E-01  0.19906857604E+00  0.51109989000E-03 0.  1.
     -623    1    1    2    0    0  0.31806042261E-01  0.18444152026E-01  0.62263093642E+00  0.17130113549E+03  0.17130000000E+03 0.  1.
      622    1    1    2    0    0 -0.81529288629E-01  0.17086113699E+00  0.33410490218E+01  0.37997959312E+01  0.18000000000E+01 0.  1.
</event>
<event>
 5   0  0.7764500E-01  0.9118800E+02  0.7818608E-02  0.1180000E+00
       11   -1    0    0    0    0  0.00000000000E+00  0.00000000000E+00  0.39999999673E+01  0.40000000000E+01  0.51109989000E-03 0.  1.
     -623   -1    0    0    0    0  0.00000000000E+00  0.00000000000E+00  0.12525980253E-10  0.17130000000E+03  0.17130000000E+03 0.  1.
       11    1    1    2    0    0  0.13375889566E+00  0.23800557042E+00  0.53020419960E+00  0.59636804762E+00  0.51109989000E-03 0.  1.
     -623    1    1    2    0    0 -0.69686938872E+00  0.37662342022E+00  0.70801526414E+00  0.17130329465E+03  0.17130000000E+03 0.  1.
      622    1    1    2    0    0  0.56311049305E+00 -0.61462899063E+00  0.27617805036E+01  0.34003373029E+01  0.18000000000E+01 0.  1.
</event>
<event>
 5   0  0.7764500E-01  0.9118800E+02  0.7818608E-02  0.1180000E+00
       11   -1    0    0    0    0  0.00000000000E+00  0.00000000000E+00  0.39999999673E+01  0.40000000000E+01  0.51109989000E-03 0.  1.
     -623   -1    0    0    0    0  0.00000000000E+00  0.00000000000E+00  0.12525980253E-10  0.17130000000E+03  0.17130000000E+03 0. -1.
       11    1    1    2    0    0  0.11036491656E+00 -0.44730158933E-01 -0.61852270878E-01  0.13419078419E+00  0.51109989000E-03 0.  1.
     -623    1    1    2    0    0 -0.24698796187E+00 -0.66433600975E+00  0.72119740458E+00  0.17130298442E+03  0.17130000000E+03 0. -1.
      622    1    1    2    0    0  0.13662304531E+00  0.70906616868E+00  0.33406548337E+01  0.38628247961E+01  0.18000000000E+01 0.  1.
</event>
<event>
 5   0  0.7764500E-01  0.9118800E+02  0.7818608E-02  0.1180000E+00
       11   -1    0    0    0    0  0.00000000000E+00  0.00000000000E+00  0.39999999673E+01  0.40000000000E+01  0.51109989000E-03 0. -1.
     -623   -1    0    0    0    0  0.00000000000E+00  0.00000000000E+00  0.12525980253E-10  0.17130000000E+03  0.17130000000E+03 0.  1.
       11    1    1    2    0    0 -0.74965603432E-01  0.97306197387E-01 -0.73708748330E-01  0.14325354638E+00  0.51109989000E-03 0. -1.
     -623    1    1    2    0    0  0.51826390621E-01 -0.17748727491E+00  0.66536695758E+00  0.17130139200E+03  0.17130000000E+03 0.  1.
      622    1    1    2    0    0  0.23139212810E-01  0.80181077519E-01  0.34083417581E+01  0.38553544543E+01  0.18000000000E+01 0. -1.
</event>
<event>
 5   0  0.7764500E-01  0.9118800E+02  0.7818608E-02  0.1180000E+00
       11   -1    0    0    0    0  0.00000000000E+00  0.00000000000E+00  0.39999999673E+01  0.40000000000E+01  0.51109989000E-03 0.  1.
     -623   -1    0    0    0    0  0.00000000000E+00  0.00000000000E+00  0.12525980253E-10  0.17130000000E+03  0.17130000000E+03 0. -1.
       11    1    1    2    0    0 -0.15167633023E+00 -0.15189985025E+00  0.70109324735E+00  0.73321980085E+00  0.51109989000E-03 0.  1.
     -623    1    1    2    0    0 -0.18699943505E+00  0.19041946302E+00  0.59565966709E+00  0.17130124354E+03  0.17130000000E+03 0. -1.
      622    1    1    2    0    0  0.33867576528E+00 -0.38519612762E-01  0.27032470529E+01  0.32655366578E+01  0.18000000000E+01 0.  1.
</event>
<event>
 5   0  0.7764500E-01  0.9118800E+02  0.7818608E-02  0.1180000E+00
       11   -1    0    0    0    0  0.00000000000E+00  0.00000000000E+00  0.39999999673E+01  0.40000000000E+01  0.51109989000E-03 0.  1.
     -623   -1    0    0    0    0  0.00000000000E+00  0.00000000000E+00  0.12525980253E-10  0.17130000000E+03  0.17130000000E+03 0.  1.
       11    1    1    2    0    0  0.42293662509E-01  0.36244614249E-01  0.74233013193E+00  0.74441702825E+00  0.51109989000E-03 0.  1.
     -623    1    1    2    0    0 -0.17864523652E-01  0.60475667565E-01  0.54785622734E+00  0.17130088769E+03  0.17130000000E+03 0.  1.
      622    1    1    2    0    0 -0.24429138857E-01 -0.96720281814E-01  0.27098136081E+01  0.32546952832E+01  0.18000000000E+01 0. -1.
</event>
<event>
 5   0  0.7764500E-01  0.9118800E+02  0.7818608E-02  0.1180000E+00
       11   -1    0    0    0    0  0.00000000000E+00  0.00000000000E+00  0.39999999673E+01  0.40000000000E+01  0.51109989000E-03 0.  1.
     -623   -1    0    0    0    0  0.00000000000E+00  0.00000000000E+00  0.12525980253E-10  0.17130000000E+03  0.17130000000E+03 0.  1.
       11    1    1    2    0    0  0.23277427174E-01 -0.57423275226E-02 -0.25322796471E-01  0.34875753546E-01  0.51109989000E-03 0.  1.
     -623    1    1    2    0    0  0.27152229996E+00  0.23783469936E+00  0.51358294499E+00  0.17130115019E+03  0.17130000000E+03 0.  1.
      622    1    1    2    0    0 -0.29479972713E+00 -0.23209237184E+00  0.35117398188E+01  0.39639740543E+01  0.18000000000E+01 0.  1.
</event>
<event>
 5   0  0.7764500E-01  0.9118800E+02  0.7818608E-02  0.1180000E+00
       11   -1    0    0    0    0  0.00000000000E+00  0.00000000000E+00  0.39999999673E+01  0.40000000000E+01  0.51109989000E-03 0. -1.
     -623   -1    0    0    0    0  0.00000000000E+00  0.00000000000E+00  0.12525980253E-10  0.17130000000E+03  0.17130000000E+03 0. -1.
       11    1    1    2    0    0 -0.59668124380E-02  0.10210805741E-01 -0.38977667666E-02  0.12462632666E-01  0.51109989000E-03 0. -1.
     -623    1    1    2    0    0  0.22563875816E+00 -0.24180432205E+00  0.46114917614E+00  0.17130093999E+03  0.17130000000E+03 0. -1.
      622    1    1    2    0    0 -0.21967194573E+00  0.23159351631E+00  0.35427485580E+01  0.39865973794E+01  0.18000000000E+01 0. -1.
</event>
<event>
 5   0  0.7764500E-01  0.9118800E+02  0.7818608E-02  0.1180000E+00
       11   -1    0    0    0    0  0.00000000000E+00  0.00000000000E+00  0.39999999673E+01  0.40000000000E+01  0.51109989000E-03 0.  1.
     -623   -1    0    0    0    0  0.00000000000E+00  0.00000000000E+00  0.12525980253E-10  0.17130000000E+03  0.17130000000E+03 0. -1.
       11    1    1    2    0    0  0.13134729578E+00  0.14511135557E-01 -0.78590587324E-01  0.15375118472E+00  0.51109989000E-03 0.  1.
     -623    1    1    2    0    0 -0.42739077561E-01  0.12872152208E+00  0.68531682981E+00  0.17130142456E+03  0.17130000000E+03 0. -1.
      622    1    1    2    0    0 -0.88608218219E-01 -0.14323265764E+00  0.33932737249E+01  0.38448242590E+01  0.18000000000E+01 0.  1.
</event>
<event>
 5   0  0.7764500E-01  0.9118800E+02  0.7818608E-02  0.1180000E+00
       11   -1    0    0    0    0  0.00000000000E+00  0.00000000000E+00  0.39999999673E+01  0.40000000000E+01  0.51109989000E-03 0.  1.
     -623   -1    0    0    0    0  0.00000000000E+00  0.00000000000E+00  0.12525980253E-10  0.17130000000E+03  0.17130000000E+03 0. -1.
       11    1    1    2    0    0 -0.45717596872E-01 -0.11279672139E+00  0.26688218082E-01  0.12460225209E+00  0.51109989000E-03 0.  1.
     -623    1    1    2    0    0  0.17533006276E+00  0.86224740421E-01  0.54495632589E+00  0.17130097826E+03  0.17130000000E+03 0. -1.
      622    1    1    2    0    0 -0.12961246589E+00  0.26571980965E-01  0.34283554234E+01  0.38744194882E+01  0.18000000000E+01 0.  1.
</event>
<event>
 5   0  0.7764500E-01  0.9118800E+02  0.7818608E-02  0.1180000E+00
       11   -1    0    0    0    0  0.00000000000E+00  0.00000000000E+00  0.39999999673E+01  0.40000000000E+01  0.51109989000E-03 0. -1.
     -623   -1    0    0    0    0  0.00000000000E+00  0.00000000000E+00  0.12525980253E-10  0.17130000000E+03  0.17130000000E+03 0. -1.
       11    1    1    2    0    0 -0.35467863947E-01  0.61385940104E-01  0.39348553683E+00  0.39982162514E+00  0.51109989000E-03 0. -1.
     -623    1    1    2    0    0  0.90846832104E-01 -0.31524218560E+00  0.50067393320E+00  0.17130104584E+03  0.17130000000E+03 0. -1.
      622    1    1    2    0    0 -0.55378968157E-01  0.25385624549E+00  0.31058404973E+01  0.35991325369E+01  0.18000000000E+01 0. -1.
</event>
<event>
 5   0  0.7764500E-01  0.9118800E+02  0.7818608E-02  0.1180000E+00
       11   -1    0    0    0    0  0.00000000000E+00  0.00000000000E+00  0.39999999673E+01  0.40000000000E+01  0.51109989000E-03 0.  1.
     -623   -1    0    0    0    0  0.00000000000E+00  0.00000000000E+00  0.12525980253E-10  0.17130000000E+03  0.17130000000E+03 0.  1.
       11    1    1    2    0    0  0.19659293287E+00  0.29249253696E-01 -0.12426002083E+00  0.23440374164E+00  0.51109989000E-03 0.  1.
     -623    1    1    2    0    0  0.52327223913E+00 -0.64489304737E+00  0.96086659997E+00  0.17130470795E+03  0.17130000000E+03 0.  1.
      622    1    1    2    0    0 -0.71986517200E+00  0.61564379367E+00  0.31633933882E+01  0.37608883093E+01  0.18000000000E+01 0.  1.
</event>
<event>
 5   0  0.7764500E-01  0.9118800E+02  0.7818608E-02  0.1180000E+00
       11   -1    0    0    0    0  0.00000000000E+00  0.00000000000E+00  0.39999999673E+01  0.40000000000E+01  0.51109989000E-03 0. -1.
     -623   -1    0    0    0    0  0.00000000000E+00  0.00000000000E+00  0.12525980253E-10  0.17130000000E+03  0.17130000000E+03 0. -1.
       11    1    1    2    0    0  0.16862652487E+00  0.19315830471E-01  0.37583095043E+00  0.41237988642E+00  0.51109989000E-03 0. -1.
     -623    1    1    2    0    0 -0.27550432036E+00 -0.26227386983E-01  0.52381453149E+00  0.17130102443E+03  0.17130000000E+03 0. -1.
      622    1    1    2    0    0  0.10687779549E+00  0.69115565118E-02  0.31003544854E+01  0.35865956795E+01  0.18000000000E+01 0. -1.
</event>
<event>
 5   0  0.7764500E-01  0.9118800E+02  0.7818608E-02  0.1180000E+00
       11   -1    0    0    0    0  0.00000000000E+00  0.00000000000E+00  0.39999999673E+01  0.40000000000E+01  0.51109989000E-03 0. -1.
     -623   -1    0    0    0    0  0.00000000000E+00  0.00000000000E+00  0.12525980253E-10  0.17130000000E+03  0.17130000000E+03 0. -1.
       11    1    1    2    0    0 -0.64318668694E-01 -0.16296713594E+00  0.57088163235E+00  0.59716101506E+00  0.51109989000E-03 0. -1.
     -623    1    1    2    0    0 -0.13148137938E+00 -0.32408704374E+00  0.59109345633E+00  0.17130137685E+03  0.17130000000E+03 0. -1.
      622    1    1    2    0    0  0.19580004808E+00  0.48705417968E+00  0.28380248787E+01  0.34014621334E+01  0.18000000000E+01 0.  0.
</event>
<event>
 5   0  0.7764500E-01  0.9118800E+02  0.7818608E-02  0.1180000E+00
       11   -1    0    0    0    0  0.00000000000E+00  0.00000000000E+00  0.39999999673E+01  0.40000000000E+01  0.51109989000E-03 0. -1.
     -623   -1    0    0    0    0  0.00000000000E+00  0.00000000000E+00  0.12525980253E-10  0.17130000000E+03  0.17130000000E+03 0. -1.
       11    1    1    2    0    0  0.31058866004E-03  0.76258069972E-01 -0.79664769776E-01  0.11028203148E+00  0.51109989000E-03 0. -1.
     -623    1    1    2    0    0  0.11328357184E+00 -0.21923083618E+00  0.63787143449E+00  0.17130136536E+03  0.17130000000E+03 0. -1.
      622    1    1    2    0    0 -0.11359416050E+00  0.14297276621E+00  0.34417933026E+01  0.38883526053E+01  0.18000000000E+01 0. -1.
</event>
<event>
 5   0  0.7764500E-01  0.9118800E+02  0.7818608E-02  0.1180000E+00
       11   -1    0    0    0    0  0.00000000000E+00  0.00000000000E+00  0.39999999673E+01  0.40000000000E+01  0.51109989000E-03 0. -1.
     -623   -1    0    0    0    0  0.00000000000E+00  0.00000000000E+00  0.12525980253E-10  0.17130000000E+03  0.17130000000E+03 0.  1.
       11    1    1    2    0    0  0.10820164072E+00 -0.34398300635E+00  0.58862508460E+00  0.69029823638E+00  0.51109989000E-03 0. -1.
     -623    1    1    2    0    0 -0.40452321946E+00  0.88831808986E-01  0.66375885140E+00  0.17130178664E+03  0.17130000000E+03 0.  1.
      622    1    1    2    0    0  0.29632157875E+00  0.25515119736E+00  0.27476160314E+01  0.33079151240E+01  0.18000000000E+01 0.  1.
</event>
<event>
 5   0  0.7764500E-01  0.9118800E+02  0.7818608E-02  0.1180000E+00
       11   -1    0    0    0    0  0.00000000000E+00  0.00000000000E+00  0.39999999673E+01  0.40000000000E+01  0.51109989000E-03 0. -1.
     -623   -1    0    0    0    0  0.00000000000E+00  0.00000000000E+00  0.12525980253E-10  0.17130000000E+03  0.17130000000E+03 0. -1.
       11    1    1    2    0    0 -0.33154972635E-02  0.81993883688E-02 -0.30604258452E-02  0.93728288781E-02  0.51109989000E-03 0. -1.
     -623    1    1    2    0    0 -0.16087231611E+00 -0.13278582372E+00  0.44821404412E+00  0.17130071339E+03  0.17130000000E+03 0. -1.
      622    1    1    2    0    0  0.16418781337E+00  0.12458643535E+00  0.35548463491E+01  0.39899137815E+01  0.18000000000E+01 0. -1.
</event>
<event>
 5   0  0.7764500E-01  0.9118800E+02  0.7818608E-02  0.1180000E+00
       11   -1    0    0    0    0  0.00000000000E+00  0.00000000000E+00  0.39999999673E+01  0.40000000000E+01  0.51109989000E-03 0.  1.
     -623   -1    0    0    0    0  0.00000000000E+00  0.00000000000E+00  0.12525980253E-10  0.17130000000E+03  0.17130000000E+03 0. -1.
       11    1    1    2    0    0  0.39481318423E-01 -0.18372079355E+00  0.28982993632E+00  0.34541823591E+00  0.51109989000E-03 0.  1.
     -623    1    1    2    0    0 -0.30797323460E+00  0.28374044291E+00  0.54412829822E+00  0.17130137604E+03  0.17130000000E+03 0. -1.
      622    1    1    2    0    0  0.26849191617E+00 -0.10001964935E+00  0.31660417328E+01  0.36532057283E+01  0.18000000000E+01 0.  1.
</event>
<event>
 5   0  0.7764500E-01  0.9118800E+02  0.7818608E-02  0.1180000E+00
       11   -1    0    0    0    0  0.00000000000E+00  0.00000000000E+00  0.39999999673E+01  0.40000000000E+01  0.51109989000E-03 0. -1.
     -623   -1    0    0    0    0  0.00000000000E+00  0.00000000000E+00  0.12525980253E-10  0.17130000000E+03  0.17130000000E+03 0.  1.
       11    1    1    2    0    0  0.81300047792E-01  0.28892886994E-01  0.15903225837E+00  0.18093097334E+00  0.51109989000E-03 0. -1.
     -623    1    1    2    0    0  0.13559845322E+00 -0.18050191664E+00  0.48404968046E+00  0.17130083267E+03  0.17130000000E+03 0.  1.
      622    1    1    2    0    0 -0.21689850101E+00  0.15160902965E+00  0.33569180285E+01  0.38182363609E+01  0.18000000000E+01 0. -1.
</event>
<event>
 5   0  0.7764500E-01  0.9118800E+02  0.7818608E-02  0.1180000E+00
       11   -1    0    0    0    0  0.00000000000E+00  0.00000000000E+00  0.39999999673E+01  0.40000000000E+01  0.51109989000E-03 0.  1.
     -623   -1    0    0    0    0  0.00000000000E+00  0.00000000000E+00  0.12525980253E-10  0.17130000000E+03  0.17130000000E+03 0.  1.
       11    1    1    2    0    0  0.12078484382E+00  0.61689787647E-01  0.29314372702E+00  0.32299862896E+00  0.51109989000E-03 0.  1.
     -623    1    1    2    0    0 -0.22190805662E+00 -0.23719223185E+00  0.50818383767E+00  0.17130106174E+03  0.17130000000E+03 0.  1.
      622    1    1    2    0    0  0.10112321280E+00  0.17550244420E+00  0.31986724027E+01  0.36759396284E+01  0.18000000000E+01 0.  1.
</event>
<event>
 5   0  0.7764500E-01  0.9118800E+02  0.7818608E-02  0.1180000E+00
       11   -1    0    0    0    0  0.00000000000E+00  0.00000000000E+00  0.39999999673E+01  0.40000000000E+01  0.51109989000E-03 0.  1.
     -623   -1    0    0    0    0  0.00000000000E+00  0.00000000000E+00  0.12525980253E-10  0.17130000000E+03  0.17130000000E+03 0.  1.
       11    1    1    2    0    0 -0.38180282875E+00 -0.14822487950E+00  0.70115560783E+00  0.81201198424E+00  0.51109989000E-03 0.  1.
     -623    1    1    2    0    0  0.27171771292E+00  0.21304144900E+00  0.67276200958E+00  0.17130166907E+03  0.17130000000E+03 0.  1.
      622    1    1    2    0    0  0.11008511583E+00 -0.64816569491E-01  0.26260823500E+01  0.31863189466E+01  0.18000000000E+01 0.  1.
</event>
<event>
 5   0  0.7764500E-01  0.9118800E+02  0.7818608E-02  0.1180000E+00
       11   -1    0    0    0    0  0.00000000000E+00  0.00000000000E+00  0.39999999673E+01  0.40000000000E+01  0.51109989000E-03 0. -1.
     -623   -1    0    0    0    0  0.00000000000E+00  0.00000000000E+00  0.12525980253E-10  0.17130000000E+03  0.17130000000E+03 0.  1.
       11    1    1    2    0    0 -0.34273782986E+00  0.31582629685E+00  0.33676605319E+00  0.57500183096E+00  0.51109989000E-03 0. -1.
     -623    1    1    2    0    0  0.47589508478E+00 -0.36747074899E+00  0.75607650057E+00  0.17130272375E+03  0.17130000000E+03 0.  1.
      622    1    1    2    0    0 -0.13315725492E+00  0.51644452138E-01  0.29071574136E+01  0.34222744237E+01  0.18000000000E+01 0. -1.
</event>
<event>
 5   0  0.7764500E-01  0.9118800E+02  0.7818608E-02  0.1180000E+00
       11   -1    0    0    0    0  0.00000000000E+00  0.00000000000E+00  0.39999999673E+01  0.40000000000E+01  0.51109989000E-03 0.  1.
     -623   -1    0    0    0    0  0.00000000000E+00  0.00000000000E+00  0.12525980253E-10  0.17130000000E+03  0.17130000000E+03 0.  1.
       11    1    1    2    0    0 -0.24457137990E+00 -0.26202424785E+00  0.30738845740E+00  0.47218618287E+00  0.51109989000E-03 0.  1.
     -623    1    1    2    0    0  0.70506988515E+00 -0.10650171519E+00  0.71999283286E+00  0.17130299722E+03  0.17130000000E+03 0.  1.
      622    1    1    2    0    0 -0.46049850525E+00  0.36852596304E+00  0.29726186771E+01  0.35248165992E+01  0.18000000000E+01 0.  1.
</event>
<event>
 5   0  0.7764500E-01  0.9118800E+02  0.7818608E-02  0.1180000E+00
       11   -1    0    0    0    0  0.00000000000E+00  0.00000000000E+00  0.39999999673E+01  0.40000000000E+01  0.51109989000E-03 0. -1.
     -623   -1    0    0    0    0  0.00000000000E+00  0.00000000000E+00  0.12525980253E-10  0.17130000000E+03  0.17130000000E+03 0.  1.
       11    1    1    2    0    0 -0.41312223506E+00  0.18196215656E+00  0.36695764686E-02  0.45143541568E+00  0.51109989000E-03 0. -1.
     -623    1    1    2    0    0  0.49046697461E+00  0.60458895016E-02  0.94881343475E+00  0.17130332992E+03  0.17130000000E+03 0.  1.
      622    1    1    2    0    0 -0.77344739551E-01 -0.18800804606E+00  0.30475169561E+01  0.35452346653E+01  0.18000000000E+01 0. -1.
</event>
<event>
 5   0  0.7764500E-01  0.9118800E+02  0.7818608E-02  0.1180000E+00
       11   -1    0    0    0    0  0.00000000000E+00  0.00000000000E+00  0.39999999673E+01  0.40000000000E+01  0.51109989000E-03 0. -1.
     -623   -1    0    0    0    0  0.00000000000E+00  0.00000000000E+00  0.12525980253E-10  0.17130000000E+03  0.17130000000E+03 0. -1.
       11    1    1    2    0    0  0.39353169688E+00 -0.42655266904E+00  0.65599355284E+00  0.87586653008E+00  0.51109989000E-03 0. -1.
     -623    1    1    2    0    0 -0.13125452764E+00  0.41276798008E+00  0.80709191827E+00  0.17130244891E+03  0.17130000000E+03 0. -1.
      622    1    1    2    0    0 -0.26227716925E+00  0.13784688967E-01  0.25369144962E+01  0.31216845600E+01  0.18000000000E+01 0. -1.
</event>
<event>
 5   0  0.7764500E-01  0.9118800E+02  0.7818608E-02  0.1180000E+00
       11   -1    0    0    0    0  0.00000000000E+00  0.00000000000E+00  0.39999999673E+01  0.40000000000E+01  0.51109989000E-03 0. -1.
     -623   -1    0    0    0    0  0.00000000000E+00  0.00000000000E+00  0.12525980253E-10  0.17130000000E+03  0.17130000000E+03 0. -1.
       11    1    1    2    0    0 -0.41270937389E-01 -0.54019214652E-01  0.37318510270E+00  0.37932670342E+00  0.51109989000E-03 0. -1.
     -623    1    1    2    0    0  0.14621240444E+00  0.38894305363E-01  0.48794276300E+00  0.17130076176E+03  0.17130000000E+03 0. -1.
      622    1    1    2    0    0 -0.10494146705E+00  0.15124909289E-01  0.31388721017E+01  0.36199115383E+01  0.18000000000E+01 0. -1.
</event>
<event>
 5   0  0.7764500E-01  0.9118800E+02  0.7818608E-02  0.1180000E+00
       11   -1    0    0    0    0  0.00000000000E+00  0.00000000000E+00  0.39999999673E+01  0.40000000000E+01  0.51109989000E-03 0.  1.
     -623   -1    0    0    0    0  0.00000000000E+00  0.00000000000E+00  0.12525980253E-10  0.17130000000E+03  0.17130000000E+03 0.  1.
       11    1    1    2    0    0  0.15194664944E+00  0.26101665705E+00  0.43502963340E-01  0.30513971977E+00  0.51109989000E-03 0.  1.
     -623    1    1    2    0    0  0.23947742685E+00 -0.11177619191E+00  0.75922143470E+00  0.17130188633E+03  0.17130000000E+03 0.  1.
      622    1    1    2    0    0 -0.39142407629E+00 -0.14924046514E+00  0.31972755693E+01  0.36929739493E+01  0.18000000000E+01 0.  1.
</event>
<event>
 5   0  0.7764500E-01  0.9118800E+02  0.7818608E-02  0.1180000E+00
       11   -1    0    0    0    0  0.00000000000E+00  0.00000000000E+00  0.39999999673E+01  0.40000000000E+01  0.51109989000E-03 0.  1.
     -623   -1    0    0    0    0  0.00000000000E+00  0.00000000000E+00  0.12525980253E-10  0.17130000000E+03  0.17130000000E+03 0. -1.
       11    1    1    2    0    0 -0.25983031575E+00  0.16260510148E+00  0.99577915543E+00  0.10418870378E+01  0.51109989000E-03 0.  1.
     -623    1    1    2    0    0  0.19624189909E+00  0.11842126094E+00  0.67643073306E+00  0.17130148888E+03  0.17130000000E+03 0. -1.
      622    1    1    2    0    0  0.63588416657E-01 -0.28102636242E+00  0.23277900789E+01  0.29566240807E+01  0.18000000000E+01 0.  1.
</event>
<event>
 5   0  0.7764500E-01  0.9118800E+02  0.7818608E-02  0.1180000E+00
       11   -1    0    0    0    0  0.00000000000E+00  0.00000000000E+00  0.39999999673E+01  0.40000000000E+01  0.51109989000E-03 0. -1.
     -623   -1    0    0    0    0  0.00000000000E+00  0.00000000000E+00  0.12525980253E-10  0.17130000000E+03  0.17130000000E+03 0. -1.
       11    1    1    2    0    0  0.72167557152E-01  0.14338678958E+00  0.75093322239E-01  0.17722075499E+00  0.51109989000E-03 0. -1.
     -623    1    1    2    0    0 -0.28198511028E+00  0.63985715209E-01  0.56669533091E+00  0.17130118141E+03  0.17130000000E+03 0. -1.
      622    1    1    2    0    0  0.20981755313E+00 -0.20737250479E+00  0.33582113142E+01  0.38215978324E+01  0.18000000000E+01 0. -1.
</event>
<event>
 5   0  0.7764500E-01  0.9118800E+02  0.7818608E-02  0.1180000E+00
       11   -1    0    0    0    0  0.00000000000E+00  0.00000000000E+00  0.39999999673E+01  0.40000000000E+01  0.51109989000E-03 0.  1.
     -623   -1    0    0    0    0  0.00000000000E+00  0.00000000000E+00  0.12525980253E-10  0.17130000000E+03  0.17130000000E+03 0. -1.
       11    1    1    2    0    0 -0.44010623145E-01  0.53288080232E+00  0.89578820456E+00  0.10432332688E+01  0.51109989000E-03 0.  1.
     -623    1    1    2    0    0  0.22436720688E+00 -0.10430742084E+01  0.82865215359E+00  0.17130532685E+03  0.17130000000E+03 0. -1.
      622    1    1    2    0    0 -0.18035658374E+00  0.51019340607E+00  0.22755596092E+01  0.29514398764E+01  0.18000000000E+01 0.  1.
</event>
<event>
 5   0  0.7764500E-01  0.9118800E+02  0.7818608E-02  0.1180000E+00
       11   -1    0    0    0    0  0.00000000000E+00  0.00000000000E+00  0.39999999673E+01  0.40000000000E+01  0.51109989000E-03 0.  1.
     -623   -1    0    0    0    0  0.00000000000E+00  0.00000000000E+00  0.12525980253E-10  0.17130000000E+03  0.17130000000E+03 0.  1.
       11    1    1    2    0    0 -0.15053092799E+00 -0.21144239658E+00  0.65542573225E+00  0.70494723141E+00  0.51109989000E-03 0.  1.
     -623    1    1    2    0    0  0.22201660247E+00  0.72882210992E+00  0.63799077591E+00  0.17130288236E+03  0.17130000000E+03 0.  1.
      622    1    1    2    0    0 -0.71485674472E-01 -0.51737971334E+00  0.27065834592E+01  0.32921704073E+01  0.18000000000E+01 0.  1.
</event>
<event>
 5   0  0.7764500E-01  0.9118800E+02  0.7818608E-02  0.1180000E+00
       11   -1    0    0    0    0  0.00000000000E+00  0.00000000000E+00  0.39999999673E+01  0.40000000000E+01  0.51109989000E-03 0. -1.
     -623   -1    0    0    0    0  0.00000000000E+00  0.00000000000E+00  0.12525980253E-10  0.17130000000E+03  0.17130000000E+03 0.  1.
       11    1    1    2    0    0  0.76555113092E-01 -0.32012322563E-01  0.17241011887E-01  0.84752509403E-01  0.51109989000E-03 0. -1.
     -623    1    1    2    0    0 -0.20980058863E+00  0.20787851570E+00  0.51397688683E+00  0.17130102569E+03  0.17130000000E+03 0.  1.
      622    1    1    2    0    0  0.13324547553E+00 -0.17586619314E+00  0.34687820686E+01  0.39142218019E+01  0.18000000000E+01 0. -1.
</event>
<event>
 5   0  0.7764500E-01  0.9118800E+02  0.7818608E-02  0.1180000E+00
       11   -1    0    0    0    0  0.00000000000E+00  0.00000000000E+00  0.39999999673E+01  0.40000000000E+01  0.51109989000E-03 0. -1.
     -623   -1    0    0    0    0  0.00000000000E+00  0.00000000000E+00  0.12525980253E-10  0.17130000000E+03  0.17130000000E+03 0. -1.
       11    1    1    2    0    0 -0.10244642274E+00  0.66375211431E-01  0.63203143107E-01  0.13746212840E+00  0.51109989000E-03 0. -1.
     -623    1    1    2    0    0  0.13592849425E+00 -0.22364148213E-01  0.52071724201E+00  0.17130084683E+03  0.17130000000E+03 0. -1.
      622    1    1    2    0    0 -0.33482071508E-01 -0.44011063218E-01  0.34160795822E+01  0.38616910460E+01  0.18000000000E+01 0. -1.
</event>
<event>
 5   0  0.7764500E-01  0.9118800E+02  0.7818608E-02  0.1180000E+00
       11   -1    0    0    0    0  0.00000000000E+00  0.00000000000E+00  0.39999999673E+01  0.40000000000E+01  0.51109989000E-03 0.  1.
     -623   -1    0    0    0    0  0.00000000000E+00  0.00000000000E+00  0.12525980253E-10  0.17130000000E+03  0.17130000000E+03 0.  1.
       11    1    1    2    0    0 -0.17668313883E-01 -0.80618810438E-01  0.15666558987E+00  0.17707605763E+00  0.51109989000E-03 0.  1.
     -623    1    1    2    0    0 -0.28922969051E+00  0.31869808006E+00  0.49456015628E+00  0.17130125455E+03  0.17130000000E+03 0.  1.
      622    1    1    2    0    0  0.30689800440E+00 -0.23807926962E+00  0.33487742212E+01  0.38216693876E+01  0.18000000000E+01 0.  1.
</event>
<event>
 5   0  0.7764500E-01  0.9118800E+02  0.7818608E-02  0.1180000E+00
       11   -1    0    0    0    0  0.00000000000E+00  0.00000000000E+00  0.39999999673E+01  0.40000000000E+01  0.51109989000E-03 0. -1.
     -623   -1    0    0    0    0  0.00000000000E+00  0.00000000000E+00  0.12525980253E-10  0.17130000000E+03  0.17130000000E+03 0.  1.
       11    1    1    2    0    0 -0.20063428391E+00  0.14860439433E+00  0.65242806354E-01  0.25805865012E+00  0.51109989000E-03 0. -1.
     -623    1    1    2    0    0  0.41909008432E+00 -0.63633940736E-01  0.66464852825E+00  0.17130181389E+03  0.17130000000E+03 0.  1.
      622    1    1    2    0    0 -0.21845580041E+00 -0.84970453597E-01  0.32701086328E+01  0.37401274557E+01  0.18000000000E+01 0. -1.
</event>
<event>
 5   0  0.7764500E-01  0.9118800E+02  0.7818608E-02  0.1180000E+00
       11   -1    0    0    0    0  0.00000000000E+00  0.00000000000E+00  0.39999999673E+01  0.40000000000E+01  0.51109989000E-03 0. -1.
     -623   -1    0    0    0    0  0.00000000000E+00  0.00000000000E+00  0.12525980253E-10  0.17130000000E+03  0.17130000000E+03 0. -1.
       11    1    1    2    0    0  0.31520452744E-01  0.10235163770E+00  0.15819252169E+00  0.19103542033E+00  0.51109989000E-03 0. -1.
     -623    1    1    2    0    0  0.37390068263E+00  0.20430815706E+00  0.52523760890E+00  0.17130133513E+03  0.17130000000E+03 0. -1.
      622    1    1    2    0    0 -0.40542113538E+00 -0.30665979476E+00  0.33165698368E+01  0.38076294474E+01  0.18000000000E+01 0.  1.
</event>
<event>
 5   0  0.7764500E-01  0.9118800E+02  0.7818608E-02  0.1180000E+00
       11   -1    0    0    0    0  0.00000000000E+00  0.00000000000E+00  0.39999999673E+01  0.40000000000E+01  0.51109989000E-03 0.  1.
     -623   -1    0    0    0    0  0.00000000000E+00  0.00000000000E+00  0.12525980253E-10  0.17130000000E+03  0.17130000000E+03 0.  1.
       11    1    1    2    0    0 -0.25684029605E+00  0.47411219485E-01  0.21603657810E+00  0.33894959169E+00  0.51109989000E-03 0.  1.
     -623    1    1    2    0    0  0.32001740020E-01 -0.48036196524E-02  0.60543114838E+00  0.17130107295E+03  0.17130000000E+03 0.  1.
      622    1    1    2    0    0  0.22483855603E+00 -0.42607599833E-01  0.31785322409E+01  0.36599774576E+01  0.18000000000E+01 0.  1.
</event>
<event>
 5   0  0.7764500E-01  0.9118800E+02  0.7818608E-02  0.1180000E+00
       11   -1    0    0    0    0  0.00000000000E+00  0.00000000000E+00  0.39999999673E+01  0.40000000000E+01  0.51109989000E-03 0. -1.
     -623   -1    0    0    0    0  0.00000000000E+00  0.00000000000E+00  0.12525980253E-10  0.17130000000E+03  0.17130000000E+03 0. -1.
       11    1    1    2    0    0 -0.37291268366E+00  0.21520289227E-01  0.10450756887E-01  0.37367963823E+00  0.51109989000E-03 0. -1.
     -623    1    1    2    0    0  0.48781166010E+00 -0.35023063605E+00  0.86456922321E+00  0.17130323436E+03  0.17130000000E+03 0. -1.
      622    1    1    2    0    0 -0.11489897644E+00  0.32871034682E+00  0.31249799873E+01  0.36230860034E+01  0.18000000000E+01 0. -1.
</event>
<event>
 5   0  0.7764500E-01  0.9118800E+02  0.7818608E-02  0.1180000E+00
       11   -1    0    0    0    0  0.00000000000E+00  0.00000000000E+00  0.39999999673E+01  0.40000000000E+01  0.51109989000E-03 0.  1.
     -623   -1    0    0    0    0  0.00000000000E+00  0.00000000000E+00  0.12525980253E-10  0.17130000000E+03  0.17130000000E+03 0. -1.
       11    1    1    2    0    0  0.19424291563E+00 -0.46626012159E-01  0.23407446553E+00  0.30772619635E+00  0.51109989000E-03 0.  1.
     -623    1    1    2    0    0 -0.21457149366E+00  0.17446686939E+00  0.54597878942E+00  0.17130109332E+03  0.17130000000E+03 0. -1.
      622    1    1    2    0    0  0.20328578025E-01 -0.12784085723E+00  0.32199467124E+01  0.36911804842E+01  0.18000000000E+01 0.  1.
</event>
<event>
 5   0  0.7764500E-01  0.9118800E+02  0.7818608E-02  0.1180000E+00
       11   -1    0    0    0    0  0.00000000000E+00  0.00000000000E+00  0.39999999673E+01  0.40000000000E+01  0.51109989000E-03 0. -1.
     -623   -1    0    0    0    0  0.00000000000E+00  0.00000000000E+00  0.12525980253E-10  0.17130000000E+03  0.17130000000E+03 0.  1.
       11    1    1    2    0    0  0.15998388148E-02 -0.20654154244E-01  0.12488133540E+00  0.12658895182E+00  0.51109989000E-03 0. -1.
     -623    1    1    2    0    0  0.12746729228E+00 -0.16410990828E+00  0.45358548631E+00  0.17130072656E+03  0.17130000000E+03 0.  1.
      622    1    1    2    0    0 -0.12906713109E+00  0.18476406252E+00  0.34215331457E+01  0.38726844888E+01  0.18000000000E+01 0. -1.
</event>
<event>
 5   0  0.7764500E-01  0.9118800E+02  0.7818608E-02  0.1180000E+00
       11   -1    0    0    0    0  0.00000000000E+00  0.00000000000E+00  0.39999999673E+01  0.40000000000E+01  0.51109989000E-03 0.  1.
     -623   -1    0    0    0    0  0.00000000000E+00  0.00000000000E+00  0.12525980253E-10  0.17130000000E+03  0.17130000000E+03 0. -1.
       11    1    1    2    0    0  0.18391429269E+00  0.32460768247E+00  0.23989777866E+00  0.44356039048E+00  0.51109989000E-03 0.  1.
     -623    1    1    2    0    0 -0.11092956098E+00 -0.46031448332E+00  0.69910196618E+00  0.17130208095E+03  0.17130000000E+03 0. -1.
      622    1    1    2    0    0 -0.72984731703E-01  0.13570680086E+00  0.30610002225E+01  0.35543586579E+01  0.18000000000E+01 0.  1.
</event>
<event>
 5   0  0.7764500E-01  0.9118800E+02  0.7818608E-02  0.1180000E+00
       11   -1    0    0    0    0  0.00000000000E+00  0.00000000000E+00  0.39999999673E+01  0.40000000000E+01  0.51109989000E-03 0. -1.
     -623   -1    0    0    0    0  0.00000000000E+00  0.00000000000E+00  0.12525980253E-10  0.17130000000E+03  0.17130000000E+03 0.  1.
       11    1    1    2    0    0  0.16989690551E+00  0.97296391036E-01  0.14284583262E+00  0.24235663665E+00  0.51109989000E-03 0. -1.
     -623    1    1    2    0    0 -0.31294118607E+00 -0.14196564721E+00  0.56354343094E+00  0.17130127165E+03  0.17130000000E+03 0.  1.
      622    1    1    2    0    0  0.14304428056E+00  0.44669256175E-01  0.32936107038E+01  0.37563717171E+01  0.18000000000E+01 0. -1.
</event>
<event>
 5   0  0.7764500E-01  0.9118800E+02  0.7818608E-02  0.1180000E+00
       11   -1    0    0    0    0  0.00000000000E+00  0.00000000000E+00  0.39999999673E+01  0.40000000000E+01  0.51109989000E-03 0.  1.
     -623   -1    0    0    0    0  0.00000000000E+00  0.00000000000E+00  0.12525980253E-10  0.17130000000E+03  0.17130000000E+03 0.  1.
       11    1    1    2    0    0 -0.24445092398E-01  0.84657807641E-01  0.24931105276E+00  0.26442535655E+00  0.51109989000E-03 0.  1.
     -623    1    1    2    0    0  0.39862966083E+00 -0.57630244639E-01  0.50033848461E+00  0.17130120421E+03  0.17130000000E+03 0.  1.
      622    1    1    2    0    0 -0.37418456843E+00 -0.27027563002E-01  0.32503504300E+01  0.37343704286E+01  0.18000000000E+01 0.  0.
</event>
<event>
 5   0  0.7764500E-01  0.9118800E+02  0.7818608E-02  0.1180000E+00
       11   -1    0    0    0    0  0.00000000000E+00  0.00000000000E+00  0.39999999673E+01  0.40000000000E+01  0.51109989000E-03 0.  1.
     -623   -1    0    0    0    0  0.00000000000E+00  0.00000000000E+00  0.12525980253E-10  0.17130000000E+03  0.17130000000E+03 0.  1.
       11    1    1    2    0    0 -0.30478892724E+00  0.69811490723E-01  0.35487022939E+00  0.47297259470E+00  0.51109989000E-03 0.  1.
     -623    1    1    2    0    0  0.22584187829E+00  0.54536420526E-01  0.61704816897E+00  0.17130126890E+03  0.17130000000E+03 0.  1.
      622    1    1    2    0    0  0.78947048950E-01 -0.12434791125E+00  0.30280815690E+01  0.35257585039E+01  0.18000000000E+01 0.  1.
</event>
<event>
 5   0  0.7764500E-01  0.9118800E+02  0.7818608E-02  0.1180000E+00
       11   -1    0    0    0    0  0.00000000000E+00  0.00000000000E+00  0.39999999673E+01  0.40000000000E+01  0.51109989000E-03 0.  1.
     -623   -1    0    0    0    0  0.00000000000E+00  0.00000000000E+00  0.12525980253E-10  0.17130000000E+03  0.17130000000E+03 0.  1.
       11    1    1    2    0    0  0.23786254078E+00 -0.80496404725E-01  0.57585347945E+00  0.62822428360E+00  0.51109989000E-03 0.  1.
     -623    1    1    2    0    0 -0.36287930679E+00  0.29417272506E+00  0.58574220378E+00  0.17130163838E+03  0.17130000000E+03 0.  1.
      622    1    1    2    0    0  0.12501676601E+00 -0.21367632033E+00  0.28384042841E+01  0.33701373328E+01  0.18000000000E+01 0.  1.
</event>
<event>
 5   0  0.7764500E-01  0.9118800E+02  0.7818608E-02  0.1180000E+00
       11   -1    0    0    0    0  0.00000000000E+00  0.00000000000E+00  0.39999999673E+01  0.40000000000E+01  0.51109989000E-03 0.  1.
     -623   -1    0    0    0    0  0.00000000000E+00  0.00000000000E+00  0.12525980253E-10  0.17130000000E+03  0.17130000000E+03 0.  1.
       11    1    1    2    0    0  0.10511229898E+00  0.11813047031E+00  0.14216831378E+00  0.21263935214E+00  0.51109989000E-03 0.  1.
     -623    1    1    2    0    0 -0.23511726177E+00 -0.96388740965E-02  0.53097544476E+00  0.17130098455E+03  0.17130000000E+03 0.  1.
      622    1    1    2    0    0  0.13000496278E+00 -0.10849159621E+00  0.33268562088E+01  0.37863760974E+01  0.18000000000E+01 0.  1.
</event>
<event>
 5   0  0.7764500E-01  0.9118800E+02  0.7818608E-02  0.1180000E+00
       11   -1    0    0    0    0  0.00000000000E+00  0.00000000000E+00  0.39999999673E+01  0.40000000000E+01  0.51109989000E-03 0.  1.
     -623   -1    0    0    0    0  0.00000000000E+00  0.00000000000E+00  0.12525980253E-10  0.17130000000E+03  0.17130000000E+03 0. -1.
       11    1    1    2    0    0  0.39076371230E-01 -0.18326831182E+00  0.11983079541E+00  0.22242733118E+00  0.51109989000E-03 0.  1.
     -623    1    1    2    0    0  0.96876387433E-01  0.11691477129E+00  0.56359606000E+00  0.17130099444E+03  0.17130000000E+03 0. -1.
      622    1    1    2    0    0 -0.13595275866E+00  0.66353540526E-01  0.33165731119E+01  0.37765782332E+01  0.18000000000E+01 0.  1.
</event>
<event>
 5   0  0.7764500E-01  0.9118800E+02  0.7818608E-02  0.1180000E+00
       11   -1    0    0    0    0  0.00000000000E+00  0.00000000000E+00  0.39999999673E+01  0.40000000000E+01  0.51109989000E-03 0. -1.
     -623   -1    0    0    0    0  0.00000000000E+00  0.00000000000E+00  0.12525980253E-10  0.17130000000E+03  0.17130000000E+03 0.  1.
       11    1    1    2    0    0  0.15887787998E+00 -0.15413470301E+00  0.18740871433E+00  0.29003788519E+00  0.51109989000E-03 0. -1.
     -623    1    1    2    0    0  0.52065621529E-01  0.20128012351E+00  0.57701506306E+00  0.17130109799E+03  0.17130000000E+03 0.  1.
      622    1    1    2    0    0 -0.21094350151E+00 -0.47145420501E-01  0.32355761900E+01  0.37088641297E+01  0.18000000000E+01 0. -1.
</event>
<event>
 5   0  0.7764500E-01  0.9118800E+02  0.7818608E-02  0.1180000E+00
       11   -1    0    0    0    0  0.00000000000E+00  0.00000000000E+00  0.39999999673E+01  0.40000000000E+01  0.51109989000E-03 0.  1.
     -623   -1    0    0    0    0  0.00000000000E+00  0.00000000000E+00  0.12525980253E-10  0.17130000000E+03  0.17130000000E+03 0.  1.
       11    1    1    2    0    0 -0.59748990546E-01 -0.41855785197E-02 -0.31794942400E-01  0.67813276902E-01  0.51109989000E-03 0.  1.
     -623    1    1    2    0    0 -0.72774862648E-01 -0.55730076924E-01  0.53979558562E+00  0.17130087502E+03  0.17130000000E+03 0.  1.
      622    1    1    2    0    0  0.13252385319E+00  0.59915655444E-01  0.34919993241E+01  0.39313117070E+01  0.18000000000E+01 0.  1.
</event>
<event>
 5   0  0.7764500E-01  0.9118800E+02  0.7818608E-02  0.1180000E+00
       11   -1    0    0    0    0  0.00000000000E+00  0.00000000000E+00  0.39999999673E+01  0.40000000000E+01  0.51109989000E-03 0.  1.
     -623   -1    0    0    0    0  0.00000000000E+00  0.00000000000E+00  0.12525980253E-10  0.17130000000E+03  0.17130000000E+03 0.  1.
       11    1    1    2    0    0 -0.16639067311E-01 -0.40920956311E-01  0.99654338115E-02  0.45287463172E-01  0.51109989000E-03 0.  1.
     -623    1    1    2    0    0  0.10171768052E+00 -0.61498185392E-01  0.47200182001E+00  0.17130069152E+03  0.17130000000E+03 0.  1.
      622    1    1    2    0    0 -0.85078613208E-01  0.10241914170E+00  0.35180327135E+01  0.39540210197E+01  0.18000000000E+01 0.  1.
</event>
<event>
 5   0  0.7764500E-01  0.9118800E+02  0.7818608E-02  0.1180000E+00
       11   -1    0    0    0    0  0.00000000000E+00  0.00000000000E+00  0.39999999673E+01  0.40000000000E+01  0.51109989000E-03 0. -1.
     -623   -1    0    0    0    0  0.00000000000E+00  0.00000000000E+00  0.12525980253E-10  0.17130000000E+03  0.17130000000E+03 0. -1.
       11    1    1    2    0    0 -0.91932179293E-01 -0.22979058061E-01 -0.10807203511E+00  0.14373374236E+00  0.51109989000E-03 0. -1.
     -623    1    1    2    0    0  0.18012361454E+00 -0.21753639027E+00  0.70924171032E+00  0.17130170107E+03  0.17130000000E+03 0. -1.
      622    1    1    2    0    0 -0.88191435250E-01  0.24051544834E+00  0.33988302921E+01  0.38545651849E+01  0.18000000000E+01 0. -1.
</event>
<event>
 5   0  0.7764500E-01  0.9118800E+02  0.7818608E-02  0.1180000E+00
       11   -1    0    0    0    0  0.00000000000E+00  0.00000000000E+00  0.39999999673E+01  0.40000000000E+01  0.51109989000E-03 0.  1.
     -623   -1    0    0    0    0  0.00000000000E+00  0.00000000000E+00  0.12525980253E-10  0.17130000000E+03  0.17130000000E+03 0. -1.
       11    1    1    2    0    0 -0.56998251910E-01  0.25557447355E-01 -0.67196901936E-01  0.91747853866E-01  0.51109989000E-03 0.  1.
     -623    1    1    2    0    0 -0.45240231446E+00 -0.34842537735E+00  0.65347087638E+00  0.17130219815E+03  0.17130000000E+03 0. -1.
      622    1    1    2    0    0  0.50940056637E+00  0.32286792999E+00  0.34137259929E+01  0.39060539925E+01  0.18000000000E+01 0.  1.
</event>
<event>
 5   0  0.7764500E-01  0.9118800E+02  0.7818608E-02  0.1180000E+00
       11   -1    0    0    0    0  0.00000000000E+00  0.00000000000E+00  0.39999999673E+01  0.40000000000E+01  0.51109989000E-03 0.  1.
     -623   -1    0    0    0    0  0.00000000000E+00  0.00000000000E+00  0.12525980253E-10  0.17130000000E+03  0.17130000000E+03 0.  1.
       11    1    1    2    0    0  0.35742056687E+00  0.16998829678E+00  0.73702651056E-01  0.40258890280E+00  0.51109989000E-03 0.  1.
     -623    1    1    2    0    0 -0.13843579827E+00 -0.23758865186E+00  0.82258187015E+00  0.17130219571E+03  0.17130000000E+03 0.  1.
      622    1    1    2    0    0 -0.21898476860E+00  0.67600355085E-01  0.31037154462E+01  0.35952153910E+01  0.18000000000E+01 0.  1.
</event>
<event>
 5   0  0.7764500E-01  0.9118800E+02  0.7818608E-02  0.1180000E+00
       11   -1    0    0    0    0  0.00000000000E+00  0.00000000000E+00  0.39999999673E+01  0.40000000000E+01  0.51109989000E-03 0. -1.
     -623   -1    0    0    0    0  0.00000000000E+00  0.00000000000E+00  0.12525980253E-10  0.17130000000E+03  0.17130000000E+03 0. -1.
       11    1    1    2    0    0 -0.13445540816E+00 -0.50094668839E-01  0.28775564165E+00  0.32154518058E+00  0.51109989000E-03 0. -1.
     -623    1    1    2    0    0  0.29306985377E+00 -0.15176734909E-01  0.51002998308E+00  0.17130101065E+03  0.17130000000E+03 0. -1.
      622    1    1    2    0    0 -0.15861444561E+00  0.65271403748E-01  0.32022143426E+01  0.36774441661E+01  0.18000000000E+01 0. -1.
</event>
<event>
 5   0  0.7764500E-01  0.9118800E+02  0.7818608E-02  0.1180000E+00
       11   -1    0    0    0    0  0.00000000000E+00  0.00000000000E+00  0.39999999673E+01  0.40000000000E+01  0.51109989000E-03 0.  1.
     -623   -1    0    0    0    0  0.00000000000E+00  0.00000000000E+00  0.12525980253E-10  0.17130000000E+03  0.17130000000E+03 0.  1.
       11    1    1    2    0    0 -0.58973059305E-01 -0.16304541215E+00 -0.39765114767E-01  0.17788522626E+00  0.51109989000E-03 0.  1.
     -623    1    1    2    0    0  0.24698585225E+00  0.16500247469E-01  0.67820153452E+00  0.17130152139E+03  0.17130000000E+03 0.  1.
      622    1    1    2    0    0 -0.18801279294E+00  0.14654516468E+00  0.33615635476E+01  0.38205933806E+01  0.18000000000E+01 0.  1.
</event>
<event>
 5   0  0.7764500E-01  0.9118800E+02  0.7818608E-02  0.1180000E+00
       11   -1    0    0    0    0  0.00000000000E+00  0.00000000000E+00  0.39999999673E+01  0.40000000000E+01  0.51109989000E-03 0.  1.
     -623   -1    0    0    0    0  0.00000000000E+00  0.00000000000E+00  0.12525980253E-10  0.17130000000E+03  0.17130000000E+03 0.  1.
       11    1    1    2    0    0 -0.83833234604E-01 -0.71587570568E-02  0.20272533798E-01  0.86547650885E-01  0.51109989000E-03 0.  1.
     -623    1    1    2    0    0  0.64916778492E-01 -0.23545906477E-02  0.50572077041E+00  0.17130075882E+03  0.17130000000E+03 0.  1.
      622    1    1    2    0    0  0.18916456112E-01  0.95133477045E-02  0.34740066632E+01  0.39126935264E+01  0.18000000000E+01 0.  1.
</event>
<event>
 5   0  0.7764500E-01  0.9118800E+02  0.7818608E-02  0.1180000E+00
       11   -1    0    0    0    0  0.00000000000E+00  0.00000000000E+00  0.39999999673E+01  0.40000000000E+01  0.51109989000E-03 0. -1.
     -623   -1    0    0    0    0  0.00000000000E+00  0.00000000000E+00  0.12525980253E-10  0.17130000000E+03  0.17130000000E+03 0.  1.
       11    1    1    2    0    0 -0.40410361519E-01 -0.49532890838E-01 -0.21171056373E-01  0.67342255990E-01  0.51109989000E-03 0. -1.
     -623    1    1    2    0    0 -0.15583811432E+00  0.72178923794E-01  0.53124046861E+00  0.17130090984E+03  0.17130000000E+03 0.  1.
      622    1    1    2    0    0  0.19624847584E+00 -0.22646032956E-01  0.34899305551E+01  0.39317479048E+01  0.18000000000E+01 0. -1.
</event>
<event>
 5   0  0.7764500E-01  0.9118800E+02  0.7818608E-02  0.1180000E+00
       11   -1    0    0    0    0  0.00000000000E+00  0.00000000000E+00  0.39999999673E+01  0.40000000000E+01  0.51109989000E-03 0. -1.
     -623   -1    0    0    0    0  0.00000000000E+00  0.00000000000E+00  0.12525980253E-10  0.17130000000E+03  0.17130000000E+03 0. -1.
       11    1    1    2    0    0  0.88402144336E-02 -0.42572798126E-01  0.92357166405E-01  0.10208182963E+00  0.51109989000E-03 0. -1.
     -623    1    1    2    0    0  0.11721395847E+00  0.60804959989E-01  0.45330177429E+00  0.17130065067E+03  0.17130000000E+03 0. -1.
      622    1    1    2    0    0 -0.12605417290E+00 -0.18232161862E-01  0.34543410267E+01  0.38972675036E+01  0.18000000000E+01 0. -1.
</event>
<event>
 5   0  0.7764500E-01  0.9118800E+02  0.7818608E-02  0.1180000E+00
       11   -1    0    0    0    0  0.00000000000E+00  0.00000000000E+00  0.39999999673E+01  0.40000000000E+01  0.51109989000E-03 0. -1.
     -623   -1    0    0    0    0  0.00000000000E+00  0.00000000000E+00  0.12525980253E-10  0.17130000000E+03  0.17130000000E+03 0. -1.
       11    1    1    2    0    0  0.11054933703E+00  0.28642620388E-01  0.14523236945E+00  0.18475458852E+00  0.51109989000E-03 0. -1.
     -623    1    1    2    0    0 -0.24424595661E+00  0.95956795160E-01  0.49684161466E+00  0.17130092153E+03  0.17130000000E+03 0. -1.
      622    1    1    2    0    0  0.13369661959E+00 -0.12459941555E+00  0.33579259832E+01  0.38143238863E+01  0.18000000000E+01 0. -1.
</event>
<event>
 5   0  0.7764500E-01  0.9118800E+02  0.7818608E-02  0.1180000E+00
       11   -1    0    0    0    0  0.00000000000E+00  0.00000000000E+00  0.39999999673E+01  0.40000000000E+01  0.51109989000E-03 0. -1.
     -623   -1    0    0    0    0  0.00000000000E+00  0.00000000000E+00  0.12525980253E-10  0.17130000000E+03  0.17130000000E+03 0.  1.
       11    1    1    2    0    0  0.23330845690E+00 -0.28837356748E+00  0.49569078176E+00  0.61911369136E+00  0.51109989000E-03 0. -1.
     -623    1    1    2    0    0 -0.13173796228E+00  0.29137061672E+00  0.64602053936E+00  0.17130151661E+03  0.17130000000E+03 0.  1.
      622    1    1    2    0    0 -0.10157049463E+00 -0.29970492393E-02  0.28582886462E+01  0.33793696946E+01  0.18000000000E+01 0. -1.
</event>
<event>
 5   0  0.7764500E-01  0.9118800E+02  0.7818608E-02  0.1180000E+00
       11   -1    0    0    0    0  0.00000000000E+00  0.00000000000E+00  0.39999999673E+01  0.40000000000E+01  0.51109989000E-03 0. -1.
     -623   -1    0    0    0    0  0.00000000000E+00  0.00000000000E+00  0.12525980253E-10  0.17130000000E+03  0.17130000000E+03 0.  1.
       11    1    1    2    0    0  0.60781829418E-01  0.37074043239E-01  0.31088971043E+00  0.31893822089E+00  0.51109989000E-03 0. -1.
     -623    1    1    2    0    0 -0.30823158284E+00 -0.24086395549E+00  0.49554009597E+00  0.17130116340E+03  0.17130000000E+03 0.  1.
      622    1    1    2    0    0  0.24744975342E+00  0.20378991225E+00  0.31935701610E+01  0.36798983793E+01  0.18000000000E+01 0. -1.
</event>
<event>
 5   0  0.7764500E-01  0.9118800E+02  0.7818608E-02  0.1180000E+00
       11   -1    0    0    0    0  0.00000000000E+00  0.00000000000E+00  0.39999999673E+01  0.40000000000E+01  0.51109989000E-03 0. -1.
     -623   -1    0    0    0    0  0.00000000000E+00  0.00000000000E+00  0.12525980253E-10  0.17130000000E+03  0.17130000000E+03 0. -1.
       11    1    1    2    0    0 -0.10544237137E+00 -0.63778497607E-01  0.74085125434E-01  0.14378684735E+00  0.51109989000E-03 0. -1.
     -623    1    1    2    0    0  0.22888905785E+00  0.18499350056E+00  0.52115569204E+00  0.17130104558E+03  0.17130000000E+03 0. -1.
      622    1    1    2    0    0 -0.12344668649E+00 -0.12121500295E+00  0.34047591499E+01  0.38551675748E+01  0.18000000000E+01 0. -1.
</event>
<event>
 5   0  0.7764500E-01  0.9118800E+02  0.7818608E-02  0.1180000E+00
       11   -1    0    0    0    0  0.00000000000E+00  0.00000000000E+00  0.39999999673E+01  0.40000000000E+01  0.51109989000E-03 0.  1.
     -623   -1    0    0    0    0  0.00000000000E+00  0.00000000000E+00  0.12525980253E-10  0.17130000000E+03  0.17130000000E+03 0.  1.
       11    1    1    2    0    0 -0.54928473605E-02 -0.21410314441E+00  0.36963878442E+00  0.42720419004E+00  0.51109989000E-03 0.  1.
     -623    1    1    2    0    0  0.16267235754E+00  0.41342670768E+00  0.55629783269E+00  0.17130147942E+03  0.17130000000E+03 0.  1.
      622    1    1    2    0    0 -0.15717951018E+00 -0.19932356327E+00  0.30740633503E+01  0.35713163907E+01  0.18000000000E+01 0.  1.
</event>
<event>
 5   0  0.7764500E-01  0.9118800E+02  0.7818608E-02  0.1180000E+00
       11   -1    0    0    0    0  0.00000000000E+00  0.00000000000E+00  0.39999999673E+01  0.40000000000E+01  0.51109989000E-03 0.  1.
     -623   -1    0    0    0    0  0.00000000000E+00  0.00000000000E+00  0.12525980253E-10  0.17130000000E+03  0.17130000000E+03 0. -1.
       11    1    1    2    0    0 -0.94506401681E-02  0.76533142722E-01 -0.35012726988E-01  0.84692318475E-01  0.51109989000E-03 0.  1.
     -623    1    1    2    0    0  0.17296313674E+00 -0.40794349251E+00  0.57945113465E+00  0.17130155311E+03  0.17130000000E+03 0. -1.
      622    1    1    2    0    0 -0.16351249657E+00  0.33141034978E+00  0.34555615597E+01  0.39137545719E+01  0.18000000000E+01 0.  1.
</event>
<event>
 5   0  0.7764500E-01  0.9118800E+02  0.7818608E-02  0.1180000E+00
       11   -1    0    0    0    0  0.00000000000E+00  0.00000000000E+00  0.39999999673E+01  0.40000000000E+01  0.51109989000E-03 0. -1.
     -623   -1    0    0    0    0  0.00000000000E+00  0.00000000000E+00  0.12525980253E-10  0.17130000000E+03  0.17130000000E+03 0. -1.
       11    1    1    2    0    0  0.12907447506E+00  0.27338597098E-01  0.47405422862E-01  0.14019684142E+00  0.51109989000E-03 0. -1.
     -623    1    1    2    0    0  0.11454887825E+00 -0.11091043347E+00  0.54901108526E+00  0.17130095398E+03  0.17130000000E+03 0. -1.
      622    1    1    2    0    0 -0.24362335331E+00  0.83571836368E-01  0.34035834592E+01  0.38588491748E+01  0.18000000000E+01 0. -1.
</event>
<event>
 5   0  0.7764500E-01  0.9118800E+02  0.7818608E-02  0.1180000E+00
       11   -1    0    0    0    0  0.00000000000E+00  0.00000000000E+00  0.39999999673E+01  0.40000000000E+01  0.51109989000E-03 0. -1.
     -623   -1    0    0    0    0  0.00000000000E+00  0.00000000000E+00  0.12525980253E-10  0.17130000000E+03  0.17130000000E+03 0.  1.
       11    1    1    2    0    0 -0.16553761417E+00 -0.14835375869E+00  0.50588146035E+00  0.55256479491E+00  0.51109989000E-03 0. -1.
     -623    1    1    2    0    0  0.87192613123E-01  0.15716689687E+00  0.55613956765E+00  0.17130099706E+03  0.17130000000E+03 0.  1.
      622    1    1    2    0    0  0.78345001046E-01 -0.88131381744E-02  0.29379789394E+01  0.34464381409E+01  0.18000000000E+01 0. -1.
</event>
<event>
 5   0  0.7764500E-01  0.9118800E+02  0.7818608E-02  0.1180000E+00
       11   -1    0    0    0    0  0.00000000000E+00  0.00000000000E+00  0.39999999673E+01  0.40000000000E+01  0.51109989000E-03 0.  1.
     -623   -1    0    0    0    0  0.00000000000E+00  0.00000000000E+00  0.12525980253E-10  0.17130000000E+03  0.17130000000E+03 0.  1.
       11    1    1    2    0    0  0.11335776639E-01 -0.80768199549E-01 -0.80434265499E-02  0.81957060837E-01  0.51109989000E-03 0.  1.
     -623    1    1    2    0    0 -0.18992988515E+00  0.16968203471E+00  0.53482673214E+00  0.17130102424E+03  0.17130000000E+03 0.  1.
      622    1    1    2    0    0  0.17859410851E+00 -0.88913835157E-01  0.34732166618E+01  0.39170187012E+01  0.18000000000E+01 0.  1.
</event>
<event>
 5   0  0.7764500E-01  0.9118800E+02  0.7818608E-02  0.1180000E+00
       11   -1    0    0    0    0  0.00000000000E+00  0.00000000000E+00  0.39999999673E+01  0.40000000000E+01  0.51109989000E-03 0. -1.
     -623   -1    0    0    0    0  0.00000000000E+00  0.00000000000E+00  0.12525980253E-10  0.17130000000E+03  0.17130000000E+03 0. -1.
       11    1    1    2    0    0  0.11318831246E+00 -0.14178928815E+00 -0.16611485849E+00  0.24598821871E+00  0.51109989000E-03 0. -1.
     -623    1    1    2    0    0  0.54839252059E-01 -0.23957230991E+00  0.90117685189E+00  0.17130254675E+03  0.17130000000E+03 0. -1.
      622    1    1    2    0    0 -0.16802756452E+00  0.38136159806E+00  0.32649379740E+01  0.37514650344E+01  0.18000000000E+01 0. -1.
</event>
<event>
 5   0  0.7764500E-01  0.9118800E+02  0.7818608E-02  0.1180000E+00
       11   -1    0    0    0    0  0.00000000000E+00  0.00000000000E+00  0.39999999673E+01  0.40000000000E+01  0.51109989000E-03 0. -1.
     -623   -1    0    0    0    0  0.00000000000E+00  0.00000000000E+00  0.12525980253E-10  0.17130000000E+03  0.17130000000E+03 0. -1.
       11    1    1    2    0    0  0.72584914519E+00 -0.43239835679E+00  0.61843864361E+00  0.10470396065E+01  0.51109989000E-03 0. -1.
     -623    1    1    2    0    0 -0.89200766691E+00 -0.14877531436E+01  0.21017803010E+01  0.17132167571E+03  0.17130000000E+03 0. -1.
      622    1    1    2    0    0  0.16615852172E+00  0.19201515004E+01  0.12797810227E+01  0.29312846851E+01  0.18000000000E+01 0. -1.
</event>
<event>
 5   0  0.7764500E-01  0.9118800E+02  0.7818608E-02  0.1180000E+00
       11   -1    0    0    0    0  0.00000000000E+00  0.00000000000E+00  0.39999999673E+01  0.40000000000E+01  0.51109989000E-03 0.  1.
     -623   -1    0    0    0    0  0.00000000000E+00  0.00000000000E+00  0.12525980253E-10  0.17130000000E+03  0.17130000000E+03 0. -1.
       11    1    1    2    0    0  0.46787819468E-01  0.10933550723E+00  0.51606758993E-01  0.12964132053E+00  0.51109989000E-03 0.  1.
     -623    1    1    2    0    0 -0.72590423478E-01  0.46262333827E-01  0.52664415397E+00  0.17130083118E+03  0.17130000000E+03 0. -1.
      622    1    1    2    0    0  0.25802604010E-01 -0.15559784106E+00  0.34217490544E+01  0.38695274975E+01  0.18000000000E+01 0.  1.
</event>
<event>
 5   0  0.7764500E-01  0.9118800E+02  0.7818608E-02  0.1180000E+00
       11   -1    0    0    0    0  0.00000000000E+00  0.00000000000E+00  0.39999999673E+01  0.40000000000E+01  0.51109989000E-03 0. -1.
     -623   -1    0    0    0    0  0.00000000000E+00  0.00000000000E+00  0.12525980253E-10  0.17130000000E+03  0.17130000000E+03 0. -1.
       11    1    1    2    0    0  0.70678832719E-02  0.71802036677E-01  0.22906855694E+00  0.24016276240E+00  0.51109989000E-03 0. -1.
     -623    1    1    2    0    0  0.31939580801E+00  0.19895919334E+00  0.49863527878E+00  0.17130113904E+03  0.17130000000E+03 0. -1.
      622    1    1    2    0    0 -0.32646369128E+00 -0.27076123002E+00  0.32722961316E+01  0.37586982000E+01  0.18000000000E+01 0. -1.
</event>
<event>
 5   0  0.7764500E-01  0.9118800E+02  0.7818608E-02  0.1180000E+00
       11   -1    0    0    0    0  0.00000000000E+00  0.00000000000E+00  0.39999999673E+01  0.40000000000E+01  0.51109989000E-03 0. -1.
     -623   -1    0    0    0    0  0.00000000000E+00  0.00000000000E+00  0.12525980253E-10  0.17130000000E+03  0.17130000000E+03 0.  1.
       11    1    1    2    0    0  0.17336227394E+00 -0.22744564212E+00  0.67737468084E+00  0.73527050642E+00  0.51109989000E-03 0. -1.
     -623    1    1    2    0    0 -0.36811275121E+00  0.18122221343E+00  0.60819374392E+00  0.17130157106E+03  0.17130000000E+03 0.  1.
      622    1    1    2    0    0  0.19475047726E+00  0.46223428683E-01  0.27144315426E+01  0.32631584321E+01  0.18000000000E+01 0. -1.
</event>
<event>
 5   0  0.7764500E-01  0.9118800E+02  0.7818608E-02  0.1180000E+00
       11   -1    0    0    0    0  0.00000000000E+00  0.00000000000E+00  0.39999999673E+01  0.40000000000E+01  0.51109989000E-03 0. -1.
     -623   -1    0    0    0    0  0.00000000000E+00  0.00000000000E+00  0.12525980253E-10  0.17130000000E+03  0.17130000000E+03 0.  1.
       11    1    1    2    0    0  0.35054881706E-02  0.14032488403E+00  0.38741874052E+00  0.41206419797E+00  0.51109989000E-03 0. -1.
     -623    1    1    2    0    0 -0.88817829692E-01 -0.35318662941E+00  0.51867047458E+00  0.17130117235E+03  0.17130000000E+03 0.  1.
      622    1    1    2    0    0  0.85312341521E-01  0.21286174538E+00  0.30939107523E+01  0.35867634521E+01  0.18000000000E+01 0. -1.
</event>
<event>
 5   0  0.7764500E-01  0.9118800E+02  0.7818608E-02  0.1180000E+00
       11   -1    0    0    0    0  0.00000000000E+00  0.00000000000E+00  0.39999999673E+01  0.40000000000E+01  0.51109989000E-03 0. -1.
     -623   -1    0    0    0    0  0.00000000000E+00  0.00000000000E+00  0.12525980253E-10  0.17130000000E+03  0.17130000000E+03 0.  1.
       11    1    1    2    0    0  0.53374229799E-01  0.10457363600E+00  0.37082808317E+00  0.38897067016E+00  0.51109989000E-03 0. -1.
     -623    1    1    2    0    0 -0.62270195908E-01 -0.15412798172E+00  0.50009146859E+00  0.17130081064E+03  0.17130000000E+03 0.  1.
      622    1    1    2    0    0  0.88959661088E-02  0.49554345723E-01  0.31290804156E+01  0.36102186940E+01  0.18000000000E+01 0. -1.
</event>
<event>
 5   0  0.7764500E-01  0.9118800E+02  0.7818608E-02  0.1180000E+00
       11   -1    0    0    0    0  0.00000000000E+00  0.00000000000E+00  0.39999999673E+01  0.40000000000E+01  0.51109989000E-03 0.  1.
     -623   -1    0    0    0    0  0.00000000000E+00  0.00000000000E+00  0.12525980253E-10  0.17130000000E+03  0.17130000000E+03 0.  1.
       11    1    1    2    0    0  0.13875624890E+00  0.63818468216E-01  0.39292296027E+00  0.42156234109E+00  0.51109989000E-03 0.  1.
     -623    1    1    2    0    0 -0.58713877693E-01 -0.19243655429E+00  0.51906899236E+00  0.17130090459E+03  0.17130000000E+03 0.  1.
      622    1    1    2    0    0 -0.80042371203E-01  0.12861808607E+00  0.30880080147E+01  0.35775330735E+01  0.18000000000E+01 0.  1.
</event>
<event>
 5   0  0.7764500E-01  0.9118800E+02  0.7818608E-02  0.1180000E+00
       11   -1    0    0    0    0  0.00000000000E+00  0.00000000000E+00  0.39999999673E+01  0.40000000000E+01  0.51109989000E-03 0. -1.
     -623   -1    0    0    0    0  0.00000000000E+00  0.00000000000E+00  0.12525980253E-10  0.17130000000E+03  0.17130000000E+03 0. -1.
       11    1    1    2    0    0  0.22870273483E+00 -0.10580349254E+00  0.72308717259E+00  0.76573797107E+00  0.51109989000E-03 0. -1.
     -623    1    1    2    0    0 -0.36478939541E+00 -0.63720088241E-01  0.60038514083E+00  0.17130145240E+03  0.17130000000E+03 0. -1.
      622    1    1    2    0    0  0.13608666058E+00  0.16952358078E+00  0.26765276539E+01  0.32328096303E+01  0.18000000000E+01 0. -1.
</event>
<event>
 5   0  0.7764500E-01  0.9118800E+02  0.7818608E-02  0.1180000E+00
       11   -1    0    0    0    0  0.00000000000E+00  0.00000000000E+00  0.39999999673E+01  0.40000000000E+01  0.51109989000E-03 0. -1.
     -623   -1    0    0    0    0  0.00000000000E+00  0.00000000000E+00  0.12525980253E-10  0.17130000000E+03  0.17130000000E+03 0.  1.
       11    1    1    2    0    0  0.27869970411E-02  0.22017270136E+00  0.14611011621E+00  0.26425785335E+00  0.51109989000E-03 0. -1.
     -623    1    1    2    0    0 -0.40066290287E+00 -0.33346823130E-01  0.61184208837E+00  0.17130156448E+03  0.17130000000E+03 0.  1.
      622    1    1    2    0    0  0.39787590583E+00 -0.18682587823E+00  0.32420477628E+01  0.37341776660E+01  0.18000000000E+01 0. -1.
</event>
<event>
 5   0  0.7764500E-01  0.9118800E+02  0.7818608E-02  0.1180000E+00
       11   -1    0    0    0    0  0.00000000000E+00  0.00000000000E+00  0.39999999673E+01  0.40000000000E+01  0.51109989000E-03 0. -1.
     -623   -1    0    0    0    0  0.00000000000E+00  0.00000000000E+00  0.12525980253E-10  0.17130000000E+03  0.17130000000E+03 0.  1.
       11    1    1    2    0    0  0.12218573116E+00  0.35368449756E+00  0.69611012077E+00  0.79031110215E+00  0.51109989000E-03 0. -1.
     -623    1    1    2    0    0 -0.53205547280E+00 -0.10175190273E+01  0.77058465688E+00  0.17130558143E+03  0.17130000000E+03 0.  1.
      622    1    1    2    0    0  0.40986974164E+00  0.66383452978E+00  0.25333051897E+01  0.32041074689E+01  0.18000000000E+01 0.  0.
</event>
<event>
 5   0  0.7764500E-01  0.9118800E+02  0.7818608E-02  0.1180000E+00
       11   -1    0    0    0    0  0.00000000000E+00  0.00000000000E+00  0.39999999673E+01  0.40000000000E+01  0.51109989000E-03 0.  1.
     -623   -1    0    0    0    0  0.00000000000E+00  0.00000000000E+00  0.12525980253E-10  0.17130000000E+03  0.17130000000E+03 0.  1.
       11    1    1    2    0    0  0.64251282715E-01 -0.12750540496E+00  0.65615967114E-01  0.15713552108E+00  0.51109989000E-03 0.  1.
     -623    1    1    2    0    0 -0.11463634803E+00  0.24558528108E+00  0.54279591898E+00  0.17130107437E+03  0.17130000000E+03 0.  1.
      622    1    1    2    0    0  0.50385065311E-01 -0.11807987612E+00  0.33915880813E+01  0.38417901068E+01  0.18000000000E+01 0.  1.
</event>
<event>
 5   0  0.7764500E-01  0.9118800E+02  0.7818608E-02  0.1180000E+00
       11   -1    0    0    0    0  0.00000000000E+00  0.00000000000E+00  0.39999999673E+01  0.40000000000E+01  0.51109989000E-03 0.  1.
     -623   -1    0    0    0    0  0.00000000000E+00  0.00000000000E+00  0.12525980253E-10  0.17130000000E+03  0.17130000000E+03 0. -1.
       11    1    1    2    0    0 -0.11503964102E+00 -0.89470040963E-01  0.44695602438E+00  0.47011589655E+00  0.51109989000E-03 0.  1.
     -623    1    1    2    0    0  0.54807425768E+00 -0.57588136602E+00  0.62579510636E+00  0.17130298784E+03  0.17130000000E+03 0. -1.
      622    1    1    2    0    0 -0.43303461666E+00  0.66535140698E+00  0.29272488366E+01  0.35268962595E+01  0.18000000000E+01 0.  1.
</event>
<event>
 5   0  0.7764500E-01  0.9118800E+02  0.7818608E-02  0.1180000E+00
       11   -1    0    0    0    0  0.00000000000E+00  0.00000000000E+00  0.39999999673E+01  0.40000000000E+01  0.51109989000E-03 0. -1.
     -623   -1    0    0    0    0  0.00000000000E+00  0.00000000000E+00  0.12525980253E-10  0.17130000000E+03  0.17130000000E+03 0.  1.
       11    1    1    2    0    0 -0.16046521606E+00 -0.17051485109E+00  0.17215577503E+00  0.29062393588E+00  0.51109989000E-03 0. -1.
     -623    1    1    2    0    0 -0.25698607882E-01  0.19825292404E+00  0.59123936961E+00  0.17130113697E+03  0.17130000000E+03 0.  1.
      622    1    1    2    0    0  0.18616382394E+00 -0.27738072948E-01  0.32366048227E+01  0.37082390900E+01  0.18000000000E+01 0. -1.
</event>
<event>
 5   0  0.7764500E-01  0.9118800E+02  0.7818608E-02  0.1180000E+00
       11   -1    0    0    0    0  0.00000000000E+00  0.00000000000E+00  0.39999999673E+01  0.40000000000E+01  0.51109989000E-03 0.  1.
     -623   -1    0    0    0    0  0.00000000000E+00  0.00000000000E+00  0.12525980253E-10  0.17130000000E+03  0.17130000000E+03 0.  1.
       11    1    1    2    0    0 -0.89874107569E-01 -0.36551856552E-01  0.30860755804E-01  0.10181375594E+00  0.51109989000E-03 0.  1.
     -623    1    1    2    0    0  0.26163483232E+00 -0.95910079247E-01  0.51937058292E+00  0.17130101400E+03  0.17130000000E+03 0.  1.
      622    1    1    2    0    0 -0.17176072475E+00  0.13246193580E+00  0.34497686286E+01  0.38971722443E+01  0.18000000000E+01 0.  1.
</event>
<event>
 5   0  0.7764500E-01  0.9118800E+02  0.7818608E-02  0.1180000E+00
       11   -1    0    0    0    0  0.00000000000E+00  0.00000000000E+00  0.39999999673E+01  0.40000000000E+01  0.51109989000E-03 0.  1.
     -623   -1    0    0    0    0  0.00000000000E+00  0.00000000000E+00  0.12525980253E-10  0.17130000000E+03  0.17130000000E+03 0. -1.
       11    1    1    2    0    0 -0.26626054826E+00  0.22057018864E+00  0.54734008291E+00  0.64740042884E+00  0.51109989000E-03 0.  1.
     -623    1    1    2    0    0  0.47279128864E-01 -0.55119033692E+00  0.65475246575E+00  0.17130214461E+03  0.17130000000E+03 0. -1.
      622    1    1    2    0    0  0.21898141939E+00  0.33062014827E+00  0.27979074187E+01  0.33504549643E+01  0.18000000000E+01 0.  1.
</event>
<event>
 5   0  0.7764500E-01  0.9118800E+02  0.7818608E-02  0.1180000E+00
       11   -1    0    0    0    0  0.00000000000E+00  0.00000000000E+00  0.39999999673E+01  0.40000000000E+01  0.51109989000E-03 0.  1.
     -623   -1    0    0    0    0  0.00000000000E+00  0.00000000000E+00  0.12525980253E-10  0.17130000000E+03  0.17130000000E+03 0.  1.
       11    1    1    2    0    0  0.31926342041E-01 -0.14725505794E+00  0.36642061516E+00  0.39619145857E+00  0.51109989000E-03 0.  1.
     -623    1    1    2    0    0  0.18488639877E+00  0.12225796825E+00  0.52020860039E+00  0.17130093329E+03  0.17130000000E+03 0.  1.
      622    1    1    2    0    0 -0.21681274081E+00  0.24997089692E-01  0.31133707518E+01  0.36028752486E+01  0.18000000000E+01 0.  1.
</event>
<event>
 5   0  0.7764500E-01  0.9118800E+02  0.7818608E-02  0.1180000E+00
       11   -1    0    0    0    0  0.00000000000E+00  0.00000000000E+00  0.39999999673E+01  0.40000000000E+01  0.51109989000E-03 0. -1.
     -623   -1    0    0    0    0  0.00000000000E+00  0.00000000000E+00  0.12525980253E-10  0.17130000000E+03  0.17130000000E+03 0. -1.
       11    1    1    2    0    0  0.13267159434E+00 -0.72591268922E-02  0.12701153862E-01  0.13347669235E+00  0.51109989000E-03 0. -1.
     -623    1    1    2    0    0 -0.34944970804E+00 -0.12186301759E+00  0.57617667284E+00  0.17130136878E+03  0.17130000000E+03 0. -1.
      622    1    1    2    0    0  0.21677811370E+00  0.12912214448E+00  0.34111221407E+01  0.38651545295E+01  0.18000000000E+01 0. -1.
</event>
<event>
 5   0  0.7764500E-01  0.9118800E+02  0.7818608E-02  0.1180000E+00
       11   -1    0    0    0    0  0.00000000000E+00  0.00000000000E+00  0.39999999673E+01  0.40000000000E+01  0.51109989000E-03 0.  1.
     -623   -1    0    0    0    0  0.00000000000E+00  0.00000000000E+00  0.12525980253E-10  0.17130000000E+03  0.17130000000E+03 0.  1.
       11    1    1    2    0    0 -0.82958096276E-01 -0.15944618242E+00  0.29771529362E+00  0.34776398334E+00  0.51109989000E-03 0.  1.
     -623    1    1    2    0    0  0.11887880084E+00  0.12427356170E+00  0.52584400600E+00  0.17130089342E+03  0.17130000000E+03 0.  1.
      622    1    1    2    0    0 -0.35920704563E-01  0.35172620726E-01  0.31764406677E+01  0.36513425922E+01  0.18000000000E+01 0.  1.
</event>
<event>
 5   0  0.7764500E-01  0.9118800E+02  0.7818608E-02  0.1180000E+00
       11   -1    0    0    0    0  0.00000000000E+00  0.00000000000E+00  0.39999999673E+01  0.40000000000E+01  0.51109989000E-03 0.  1.
     -623   -1    0    0    0    0  0.00000000000E+00  0.00000000000E+00  0.12525980253E-10  0.17130000000E+03  0.17130000000E+03 0. -1.
       11    1    1    2    0    0 -0.23196863059E+00  0.42309287694E+00  0.68061613181E+00  0.83429947153E+00  0.51109989000E-03 0.  1.
     -623    1    1    2    0    0 -0.17854119380E+00 -0.14684339807E+00  0.76497014254E+00  0.17130186403E+03  0.17130000000E+03 0. -1.
      622    1    1    2    0    0  0.41050982439E+00 -0.27624947887E+00  0.25544136930E+01  0.31638365011E+01  0.18000000000E+01 0.  1.
</event>
<event>
 5   0  0.7764500E-01  0.9118800E+02  0.7818608E-02  0.1180000E+00
       11   -1    0    0    0    0  0.00000000000E+00  0.00000000000E+00  0.39999999673E+01  0.40000000000E+01  0.51109989000E-03 0. -1.
     -623   -1    0    0    0    0  0.00000000000E+00  0.00000000000E+00  0.12525980253E-10  0.17130000000E+03  0.17130000000E+03 0. -1.
       11    1    1    2    0    0 -0.20537718430E-01 -0.73804701835E-01  0.16838206229E+00  0.18499111334E+00  0.51109989000E-03 0. -1.
     -623    1    1    2    0    0  0.16963877063E+00 -0.14281967609E+00  0.47916691431E+00  0.17130081370E+03  0.17130000000E+03 0. -1.
      622    1    1    2    0    0 -0.14910105220E+00  0.21662437792E+00  0.33524509908E+01  0.38141951825E+01  0.18000000000E+01 0.  0.
</event>
<event>
 5   0  0.7764500E-01  0.9118800E+02  0.7818608E-02  0.1180000E+00
       11   -1    0    0    0    0  0.00000000000E+00  0.00000000000E+00  0.39999999673E+01  0.40000000000E+01  0.51109989000E-03 0. -1.
     -623   -1    0    0    0    0  0.00000000000E+00  0.00000000000E+00  0.12525980253E-10  0.17130000000E+03  0.17130000000E+03 0.  1.
       11    1    1    2    0    0 -0.15867792435E+00  0.20431611751E-01  0.52334371659E+00  0.54725226482E+00  0.51109989000E-03 0. -1.
     -623    1    1    2    0    0  0.14072416648E+00  0.18300680743E+00  0.53848682693E+00  0.17130100193E+03  0.17130000000E+03 0.  1.
      622    1    1    2    0    0  0.17953757874E-01 -0.20343841918E+00  0.29381694238E+01  0.34517458034E+01  0.18000000000E+01 0.  1.
</event>
<event>
 5   0  0.7764500E-01  0.9118800E+02  0.7818608E-02  0.1180000E+00
       11   -1    0    0    0    0  0.00000000000E+00  0.00000000000E+00  0.39999999673E+01  0.40000000000E+01  0.51109989000E-03 0. -1.
     -623   -1    0    0    0    0  0.00000000000E+00  0.00000000000E+00  0.12525980253E-10  0.17130000000E+03  0.17130000000E+03 0. -1.
       11    1    1    2    0    0 -0.21971919285E-01 -0.47056066134E-01  0.25940910944E-01  0.58053687917E-01  0.51109989000E-03 0. -1.
     -623    1    1    2    0    0 -0.16451112663E-01  0.34005387235E-01  0.46803270306E+00  0.17130064355E+03  0.17130000000E+03 0. -1.
      622    1    1    2    0    0  0.38423031948E-01  0.13050678899E-01  0.35060263534E+01  0.39413027592E+01  0.18000000000E+01 0. -1.
</event>
<event>
 5   0  0.7764500E-01  0.9118800E+02  0.7818608E-02  0.1180000E+00
       11   -1    0    0    0    0  0.00000000000E+00  0.00000000000E+00  0.39999999673E+01  0.40000000000E+01  0.51109989000E-03 0.  1.
     -623   -1    0    0    0    0  0.00000000000E+00  0.00000000000E+00  0.12525980253E-10  0.17130000000E+03  0.17130000000E+03 0.  1.
       11    1    1    2    0    0 -0.16566918173E+00 -0.11015277410E+00  0.95655856505E-01  0.22074921409E+00  0.51109989000E-03 0.  1.
     -623    1    1    2    0    0 -0.30583468546E-01  0.90744516399E+00  0.68877159344E+00  0.17130379096E+03  0.17130000000E+03 0.  1.
      622    1    1    2    0    0  0.19625265027E+00 -0.79729238989E+00  0.32155725174E+01  0.37754598227E+01  0.18000000000E+01 0.  1.
</event>
<event>
 5   0  0.7764500E-01  0.9118800E+02  0.7818608E-02  0.1180000E+00
       11   -1    0    0    0    0  0.00000000000E+00  0.00000000000E+00  0.39999999673E+01  0.40000000000E+01  0.51109989000E-03 0.  1.
     -623   -1    0    0    0    0  0.00000000000E+00  0.00000000000E+00  0.12525980253E-10  0.17130000000E+03  0.17130000000E+03 0.  1.
       11    1    1    2    0    0 -0.37525978753E-02  0.12290361239E+00  0.38369450767E+00  0.40291576833E+00  0.51109989000E-03 0.  1.
     -623    1    1    2    0    0 -0.26505064716E+00 -0.22056493510E+00  0.51644645334E+00  0.17130112556E+03  0.17130000000E+03 0.  1.
      622    1    1    2    0    0  0.26880324504E+00  0.97661322710E-01  0.30998590063E+01  0.35959586730E+01  0.18000000000E+01 0.  1.
</event>
<event>
 5   0  0.7764500E-01  0.9118800E+02  0.7818608E-02  0.1180000E+00
       11   -1    0    0    0    0  0.00000000000E+00  0.00000000000E+00  0.39999999673E+01  0.40000000000E+01  0.51109989000E-03 0. -1.
     -623   -1    0    0    0    0  0.00000000000E+00  0.00000000000E+00  0.12525980253E-10  0.17130000000E+03  0.17130000000E+03 0. -1.
       11    1    1    2    0    0  0.13394985313E+00 -0.28095121003E+00  0.47205072448E+00  0.56542753141E+00  0.51109989000E-03 0. -1.
     -623    1    1    2    0    0 -0.16931727186E+00 -0.67993755329E-02  0.61865574117E+00  0.17130120096E+03  0.17130000000E+03 0. -1.
      622    1    1    2    0    0  0.35367418730E-01  0.28775058556E+00  0.29092935017E+01  0.34333715111E+01  0.18000000000E+01 0. -1.
</event>
<event>
 5   0  0.7764500E-01  0.9118800E+02  0.7818608E-02  0.1180000E+00
       11   -1    0    0    0    0  0.00000000000E+00  0.00000000000E+00  0.39999999673E+01  0.40000000000E+01  0.51109989000E-03 0.  1.
     -623   -1    0    0    0    0  0.00000000000E+00  0.00000000000E+00  0.12525980253E-10  0.17130000000E+03  0.17130000000E+03 0. -1.
       11    1    1    2    0    0 -0.23645673008E+00  0.18543263173E+00  0.34306352060E+00  0.45605908225E+00  0.51109989000E-03 0.  1.
     -623    1    1    2    0    0 -0.11775853553E+00 -0.66739655110E-01  0.62850270728E+00  0.17130120647E+03  0.17130000000E+03 0. -1.
      622    1    1    2    0    0  0.35421526561E+00 -0.11869297662E+00  0.30284337395E+01  0.35427344512E+01  0.18000000000E+01 0.  1.
</event>
<event>
 5   0  0.7764500E-01  0.9118800E+02  0.7818608E-02  0.1180000E+00
       11   -1    0    0    0    0  0.00000000000E+00  0.00000000000E+00  0.39999999673E+01  0.40000000000E+01  0.51109989000E-03 0.  1.
     -623   -1    0    0    0    0  0.00000000000E+00  0.00000000000E+00  0.12525980253E-10  0.17130000000E+03  0.17130000000E+03 0. -1.
       11    1    1    2    0    0  0.21634809119E+00 -0.10588575406E+00  0.27527694843E+00  0.36578128579E+00  0.51109989000E-03 0.  1.
     -623    1    1    2    0    0 -0.72420249859E-01  0.19765854288E+00  0.57345461686E+00  0.17130108921E+03  0.17130000000E+03 0. -1.
      622    1    1    2    0    0 -0.14392784133E+00 -0.91772788824E-01  0.31512684021E+01  0.36331295064E+01  0.18000000000E+01 0.  1.
</event>
<event>
 5   0  0.7764500E-01  0.9118800E+02  0.7818608E-02  0.1180000E+00
       11   -1    0    0    0    0  0.00000000000E+00  0.00000000000E+00  0.39999999673E+01  0.40000000000E+01  0.51109989000E-03 0. -1.
     -623   -1    0    0    0    0  0.00000000000E+00  0.00000000000E+00  0.12525980253E-10  0.17130000000E+03  0.17130000000E+03 0. -1.
       11    1    1    2    0    0  0.64658073909E-01  0.83230530839E-01  0.85951637623E-01  0.13599975374E+00  0.51109989000E-03 0. -1.
     -623    1    1    2    0    0 -0.20376955936E+00 -0.49365004961E-01  0.49887713888E+00  0.17130085475E+03  0.17130000000E+03 0. -1.
      622    1    1    2    0    0  0.13911148545E+00 -0.33865525878E-01  0.34151711909E+01  0.38631454984E+01  0.18000000000E+01 0. -1.
</event>
<event>
 5   0  0.7764500E-01  0.9118800E+02  0.7818608E-02  0.1180000E+00
       11   -1    0    0    0    0  0.00000000000E+00  0.00000000000E+00  0.39999999673E+01  0.40000000000E+01  0.51109989000E-03 0.  1.
     -623   -1    0    0    0    0  0.00000000000E+00  0.00000000000E+00  0.12525980253E-10  0.17130000000E+03  0.17130000000E+03 0.  1.
       11    1    1    2    0    0 -0.12472954777E+00 -0.11457193822E+00  0.36454412595E+00  0.40196625493E+00  0.51109989000E-03 0.  1.
     -623    1    1    2    0    0  0.36690775884E-01  0.88067025997E-01  0.52234290544E+00  0.17130082295E+03  0.17130000000E+03 0.  1.
      622    1    1    2    0    0  0.88038771891E-01  0.26504912223E-01  0.31131129360E+01  0.35972107928E+01  0.18000000000E+01 0.  1.
</event>
<event>
 5   0  0.7764500E-01  0.9118800E+02  0.7818608E-02  0.1180000E+00
       11   -1    0    0    0    0  0.00000000000E+00  0.00000000000E+00  0.39999999673E+01  0.40000000000E+01  0.51109989000E-03 0.  1.
     -623   -1    0    0    0    0  0.00000000000E+00  0.00000000000E+00  0.12525980253E-10  0.17130000000E+03  0.17130000000E+03 0.  1.
       11    1    1    2    0    0 -0.78770671286E-01 -0.76864411395E-01 -0.57610466046E-01  0.12422633946E+00  0.51109989000E-03 0.  1.
     -623    1    1    2    0    0 -0.12843582192E+00 -0.44651279320E+00  0.67388346034E+00  0.17130195559E+03  0.17130000000E+03 0.  1.
      622    1    1    2    0    0  0.20720649321E+00  0.52337720460E+00  0.33837269731E+01  0.38738180723E+01  0.18000000000E+01 0.  1.
</event>
<event>
 5   0  0.7764500E-01  0.9118800E+02  0.7818608E-02  0.1180000E+00
       11   -1    0    0    0    0  0.00000000000E+00  0.00000000000E+00  0.39999999673E+01  0.40000000000E+01  0.51109989000E-03 0. -1.
     -623   -1    0    0    0    0  0.00000000000E+00  0.00000000000E+00  0.12525980253E-10  0.17130000000E+03  0.17130000000E+03 0. -1.
       11    1    1    2    0    0  0.17608962142E+00  0.18046708366E+00  0.27205398810E+00  0.37093066295E+00  0.51109989000E-03 0. -1.
     -623    1    1    2    0    0 -0.12391328893E+00 -0.24245025534E+00  0.57915178920E+00  0.17130119542E+03  0.17130000000E+03 0. -1.
      622    1    1    2    0    0 -0.52176332490E-01  0.61983171672E-01  0.31487941901E+01  0.36278739138E+01  0.18000000000E+01 0. -1.
</event>
<event>
 5   0  0.7764500E-01  0.9118800E+02  0.7818608E-02  0.1180000E+00
       11   -1    0    0    0    0  0.00000000000E+00  0.00000000000E+00  0.39999999673E+01  0.40000000000E+01  0.51109989000E-03 0.  1.
     -623   -1    0    0    0    0  0.00000000000E+00  0.00000000000E+00  0.12525980253E-10  0.17130000000E+03  0.17130000000E+03 0. -1.
       11    1    1    2    0    0  0.20463815146E+00 -0.59070056216E+00  0.41577120366E+00  0.75077951636E+00  0.51109989000E-03 0.  1.
     -623    1    1    2    0    0  0.89754342447E-01  0.53809215546E+00  0.89964069147E+00  0.17130323100E+03  0.17130000000E+03 0. -1.
      622    1    1    2    0    0 -0.29439249390E+00  0.52608406699E-01  0.26845880722E+01  0.32459894797E+01  0.18000000000E+01 0.  1.
</event>
<event>
 5   0  0.7764500E-01  0.9118800E+02  0.7818608E-02  0.1180000E+00
       11   -1    0    0    0    0  0.00000000000E+00  0.00000000000E+00  0.39999999673E+01  0.40000000000E+01  0.51109989000E-03 0. -1.
     -623   -1    0    0    0    0  0.00000000000E+00  0.00000000000E+00  0.12525980253E-10  0.17130000000E+03  0.17130000000E+03 0. -1.
       11    1    1    2    0    0  0.90120456542E-01 -0.52846578886E-01 -0.34098147849E-01  0.10989723608E+00  0.51109989000E-03 0. -1.
     -623    1    1    2    0    0 -0.19926566121E+00 -0.53222904932E-01  0.59013780885E+00  0.17130114069E+03  0.17130000000E+03 0. -1.
      622    1    1    2    0    0  0.10914520467E+00  0.10606948382E+00  0.34439603064E+01  0.38889620727E+01  0.18000000000E+01 0. -1.
</event>
<event>
 5   0  0.7764500E-01  0.9118800E+02  0.7818608E-02  0.1180000E+00
       11   -1    0    0    0    0  0.00000000000E+00  0.00000000000E+00  0.39999999673E+01  0.40000000000E+01  0.51109989000E-03 0. -1.
     -623   -1    0    0    0    0  0.00000000000E+00  0.00000000000E+00  0.12525980253E-10  0.17130000000E+03  0.17130000000E+03 0.  1.
       11    1    1    2    0    0  0.12478935814E+00 -0.66482214682E-01  0.13369197999E+00  0.19459207463E+00  0.51109989000E-03 0. -1.
     -623    1    1    2    0    0 -0.31566279449E+00  0.11941500371E+00  0.52066250960E+00  0.17130112373E+03  0.17130000000E+03 0.  1.
      622    1    1    2    0    0  0.19087343635E+00 -0.52932789026E-01  0.33456454778E+01  0.38042841918E+01  0.18000000000E+01 0. -1.
</event>
<event>
 5   0  0.7764500E-01  0.9118800E+02  0.7818608E-02  0.1180000E+00
       11   -1    0    0    0    0  0.00000000000E+00  0.00000000000E+00  0.39999999673E+01  0.40000000000E+01  0.51109989000E-03 0. -1.
     -623   -1    0    0    0    0  0.00000000000E+00  0.00000000000E+00  0.12525980253E-10  0.17130000000E+03  0.17130000000E+03 0. -1.
       11    1    1    2    0    0 -0.28001011081E+00 -0.16597232548E+00  0.83111543564E-01  0.33594681853E+00  0.51109989000E-03 0. -1.
     -623    1    1    2    0    0  0.46201035168E+00 -0.23803484177E-01  0.73885488043E+00  0.17130221810E+03  0.17130000000E+03 0. -1.
      622    1    1    2    0    0 -0.18200024086E+00  0.18977580966E+00  0.31780335434E+01  0.36618350794E+01  0.18000000000E+01 0. -1.
</event>
<event>
 5   0  0.7764500E-01  0.9118800E+02  0.7818608E-02  0.1180000E+00
       11   -1    0    0    0    0  0.00000000000E+00  0.00000000000E+00  0.39999999673E+01  0.40000000000E+01  0.51109989000E-03 0. -1.
     -623   -1    0    0    0    0  0.00000000000E+00  0.00000000000E+00  0.12525980253E-10  0.17130000000E+03  0.17130000000E+03 0.  1.
       11    1    1    2    0    0 -0.10461014551E+00 -0.36161457517E+00  0.56503253503E+00  0.67894801744E+00  0.51109989000E-03 0. -1.
     -623    1    1    2    0    0  0.15628647901E+00  0.50225897129E+00  0.65047973959E+00  0.17130204264E+03  0.17130000000E+03 0.  1.
      622    1    1    2    0    0 -0.51676333499E-01 -0.14064439612E+00  0.27844876927E+01  0.33190093402E+01  0.18000000000E+01 0. -1.
</event>
<event>
 5   0  0.7764500E-01  0.9118800E+02  0.7818608E-02  0.1180000E+00
       11   -1    0    0    0    0  0.00000000000E+00  0.00000000000E+00  0.39999999673E+01  0.40000000000E+01  0.51109989000E-03 0.  1.
     -623   -1    0    0    0    0  0.00000000000E+00  0.00000000000E+00  0.12525980253E-10  0.17130000000E+03  0.17130000000E+03 0.  1.
       11    1    1    2    0    0  0.36477393874E+00 -0.19891196225E+00  0.21789904117E+00  0.46915482357E+00  0.51109989000E-03 0.  1.
     -623    1    1    2    0    0  0.41360853425E-01  0.55913033555E+00  0.79670137989E+00  0.17130277018E+03  0.17130000000E+03 0.  1.
      622    1    1    2    0    0 -0.40613479217E+00 -0.36021837330E+00  0.29853995463E+01  0.35280749988E+01  0.18000000000E+01 0.  0.
</event>
<event>
 5   0  0.7764500E-01  0.9118800E+02  0.7818608E-02  0.1180000E+00
       11   -1    0    0    0    0  0.00000000000E+00  0.00000000000E+00  0.39999999673E+01  0.40000000000E+01  0.51109989000E-03 0.  1.
     -623   -1    0    0    0    0  0.00000000000E+00  0.00000000000E+00  0.12525980253E-10  0.17130000000E+03  0.17130000000E+03 0. -1.
       11    1    1    2    0    0  0.34665365325E-01  0.57207326690E-01 -0.23483429234E-01  0.70894981852E-01  0.51109989000E-03 0.  1.
     -623    1    1    2    0    0  0.18164587687E+00 -0.42317107756E+00  0.55864195686E+00  0.17130152991E+03  0.17130000000E+03 0. -1.
      622    1    1    2    0    0 -0.21631124219E+00  0.36596375087E+00  0.34648414397E+01  0.39275751072E+01  0.18000000000E+01 0.  1.
</event>
<event>
 5   0  0.7764500E-01  0.9118800E+02  0.7818608E-02  0.1180000E+00
       11   -1    0    0    0    0  0.00000000000E+00  0.00000000000E+00  0.39999999673E+01  0.40000000000E+01  0.51109989000E-03 0.  1.
     -623   -1    0    0    0    0  0.00000000000E+00  0.00000000000E+00  0.12525980253E-10  0.17130000000E+03  0.17130000000E+03 0. -1.
       11    1    1    2    0    0  0.11269209090E+00 -0.36097199926E-01  0.14406432845E+00  0.18643311709E+00  0.51109989000E-03 0.  1.
     -623    1    1    2    0    0  0.31541637557E-01  0.49639365160E+00  0.53045121607E+00  0.17130154343E+03  0.17130000000E+03 0. -1.
      622    1    1    2    0    0 -0.14423372846E+00 -0.46029645167E+00  0.33254844228E+01  0.38120234572E+01  0.18000000000E+01 0.  1.
</event>
<event>
 5   0  0.7764500E-01  0.9118800E+02  0.7818608E-02  0.1180000E+00
       11   -1    0    0    0    0  0.00000000000E+00  0.00000000000E+00  0.39999999673E+01  0.40000000000E+01  0.51109989000E-03 0. -1.
     -623   -1    0    0    0    0  0.00000000000E+00  0.00000000000E+00  0.12525980253E-10  0.17130000000E+03  0.17130000000E+03 0.  1.
       11    1    1    2    0    0  0.12570999795E+00  0.27473494532E+00  0.14940004423E+00  0.33705033483E+00  0.51109989000E-03 0. -1.
     -623    1    1    2    0    0  0.35380196790E-01  0.10753967571E+00  0.68916220129E+00  0.17130142370E+03  0.17130000000E+03 0.  1.
      622    1    1    2    0    0 -0.16109019474E+00 -0.38227462104E+00  0.31614377218E+01  0.36615259668E+01  0.18000000000E+01 0. -1.
</event>
<event>
 5   0  0.7764500E-01  0.9118800E+02  0.7818608E-02  0.1180000E+00
       11   -1    0    0    0    0  0.00000000000E+00  0.00000000000E+00  0.39999999673E+01  0.40000000000E+01  0.51109989000E-03 0.  1.
     -623   -1    0    0    0    0  0.00000000000E+00  0.00000000000E+00  0.12525980253E-10  0.17130000000E+03  0.17130000000E+03 0. -1.
       11    1    1    2    0    0  0.15039694060E+00 -0.29809161521E+00  0.10095994484E+00  0.34881373609E+00  0.51109989000E-03 0.  1.
     -623    1    1    2    0    0 -0.45569302310E+00 -0.58519791185E-02  0.75435832963E+00  0.17130226720E+03  0.17130000000E+03 0. -1.
      622    1    1    2    0    0  0.30529608250E+00  0.30394359433E+00  0.31446816929E+01  0.36489190668E+01  0.18000000000E+01 0.  1.
</event>
<event>
 5   0  0.7764500E-01  0.9118800E+02  0.7818608E-02  0.1180000E+00
       11   -1    0    0    0    0  0.00000000000E+00  0.00000000000E+00  0.39999999673E+01  0.40000000000E+01  0.51109989000E-03 0.  1.
     -623   -1    0    0    0    0  0.00000000000E+00  0.00000000000E+00  0.12525980253E-10  0.17130000000E+03  0.17130000000E+03 0. -1.
       11    1    1    2    0    0  0.29513228345E-02 -0.30970911033E-01  0.27607196142E-01  0.41597189060E-01  0.51109989000E-03 0.  1.
     -623    1    1    2    0    0 -0.15833129545E+00  0.35619028404E+00  0.46661166516E+00  0.17130107900E+03  0.17130000000E+03 0. -1.
      622    1    1    2    0    0  0.15537997262E+00 -0.32521937301E+00  0.35057811061E+01  0.39573238104E+01  0.18000000000E+01 0.  1.
</event>
<event>
 5   0  0.7764500E-01  0.9118800E+02  0.7818608E-02  0.1180000E+00
       11   -1    0    0    0    0  0.00000000000E+00  0.00000000000E+00  0.39999999673E+01  0.40000000000E+01  0.51109989000E-03 0. -1.
     -623   -1    0    0    0    0  0.00000000000E+00  0.00000000000E+00  0.12525980253E-10  0.17130000000E+03  0.17130000000E+03 0. -1.
       11    1    1    2    0    0  0.23554651888E+00 -0.98887616942E-01  0.49209826251E+00  0.55445638650E+00  0.51109989000E-03 0. -1.
     -623    1    1    2    0    0 -0.50822542771E-01  0.66625296665E-01  0.57707101337E+00  0.17130099250E+03  0.17130000000E+03 0. -1.
      622    1    1    2    0    0 -0.18472397611E+00  0.32262320277E-01  0.29308306915E+01  0.34445511096E+01  0.18000000000E+01 0. -1.
</event>
<event>
 5   0  0.7764500E-01  0.9118800E+02  0.7818608E-02  0.1180000E+00
       11   -1    0    0    0    0  0.00000000000E+00  0.00000000000E+00  0.39999999673E+01  0.40000000000E+01  0.51109989000E-03 0. -1.
     -623   -1    0    0    0    0  0.00000000000E+00  0.00000000000E+00  0.12525980253E-10  0.17130000000E+03  0.17130000000E+03 0. -1.
       11    1    1    2    0    0 -0.19585415946E+00 -0.22502366957E+00  0.14560829751E+00  0.33195864377E+00  0.51109989000E-03 0. -1.
     -623    1    1    2    0    0 -0.10387503781E-01 -0.25528748904E+00  0.70331153856E+00  0.17130163434E+03  0.17130000000E+03 0. -1.
      622    1    1    2    0    0  0.20624166324E+00  0.48031115861E+00  0.31510801313E+01  0.36664070187E+01  0.18000000000E+01 0. -1.
</event>
<event>
 5   0  0.7764500E-01  0.9118800E+02  0.7818608E-02  0.1180000E+00
       11   -1    0    0    0    0  0.00000000000E+00  0.00000000000E+00  0.39999999673E+01  0.40000000000E+01  0.51109989000E-03 0.  1.
     -623   -1    0    0    0    0  0.00000000000E+00  0.00000000000E+00  0.12525980253E-10  0.17130000000E+03  0.17130000000E+03 0. -1.
       11    1    1    2    0    0  0.13400366295E+00  0.13112719301E+00  0.11169545252E+00  0.21823715946E+00  0.51109989000E-03 0.  1.
     -623    1    1    2    0    0  0.37618090315E-01 -0.15578267714E+00  0.56806685514E+00  0.17130101688E+03  0.17130000000E+03 0. -1.
      622    1    1    2    0    0 -0.17162175327E+00  0.24655484136E-01  0.33202376597E+01  0.37807459629E+01  0.18000000000E+01 0.  1.
</event>
<event>
 5   0  0.7764500E-01  0.9118800E+02  0.7818608E-02  0.1180000E+00
       11   -1    0    0    0    0  0.00000000000E+00  0.00000000000E+00  0.39999999673E+01  0.40000000000E+01  0.51109989000E-03 0. -1.
     -623   -1    0    0    0    0  0.00000000000E+00  0.00000000000E+00  0.12525980253E-10  0.17130000000E+03  0.17130000000E+03 0. -1.
       11    1    1    2    0    0  0.69608915631E-01 -0.47171087809E-01  0.43005723554E+00  0.43820086686E+00  0.51109989000E-03 0. -1.
     -623    1    1    2    0    0 -0.31787556674E+00  0.90585250208E-01  0.50803894267E+00  0.17130107225E+03  0.17130000000E+03 0. -1.
      622    1    1    2    0    0  0.24826665111E+00 -0.43414162398E-01  0.30619037892E+01  0.35607268828E+01  0.18000000000E+01 0. -1.
</event>
<event>
 5   0  0.7764500E-01  0.9118800E+02  0.7818608E-02  0.1180000E+00
       11   -1    0    0    0    0  0.00000000000E+00  0.00000000000E+00  0.39999999673E+01  0.40000000000E+01  0.51109989000E-03 0.  1.
     -623   -1    0    0    0    0  0.00000000000E+00  0.00000000000E+00  0.12525980253E-10  0.17130000000E+03  0.17130000000E+03 0.  1.
       11    1    1    2    0    0  0.49046780785E-01  0.22723510615E-01  0.11822011400E-01  0.55335032454E-01  0.51109989000E-03 0.  1.
     -623    1    1    2    0    0 -0.21637766000E+00  0.86721443739E-02  0.48318996164E+00  0.17130081835E+03  0.17130000000E+03 0.  1.
      622    1    1    2    0    0  0.16733087922E+00 -0.31395654989E-01  0.35049879943E+01  0.39438466185E+01  0.18000000000E+01 0.  1.
</event>
<event>
 5   0  0.7764500E-01  0.9118800E+02  0.7818608E-02  0.1180000E+00
       11   -1    0    0    0    0  0.00000000000E+00  0.00000000000E+00  0.39999999673E+01  0.40000000000E+01  0.51109989000E-03 0. -1.
     -623   -1    0    0    0    0  0.00000000000E+00  0.00000000000E+00  0.12525980253E-10  0.17130000000E+03  0.17130000000E+03 0. -1.
       11    1    1    2    0    0  0.12284539970E+00 -0.73585193469E-01  0.24586767485E+00  0.28452934415E+00  0.51109989000E-03 0. -1.
     -623    1    1    2    0    0 -0.20001369876E+00 -0.32627022861E+00  0.53084270390E+00  0.17130125000E+03  0.17130000000E+03 0. -1.
      622    1    1    2    0    0  0.77168299055E-01  0.39985542208E+00  0.32232895886E+01  0.37142206554E+01  0.18000000000E+01 0. -1.
</event>
<event>
 5   0  0.7764500E-01  0.9118800E+02  0.7818608E-02  0.1180000E+00
       11   -1    0    0    0    0  0.00000000000E+00  0.00000000000E+00  0.39999999673E+01  0.40000000000E+01  0.51109989000E-03 0. -1.
     -623   -1    0    0    0    0  0.00000000000E+00  0.00000000000E+00  0.12525980253E-10  0.17130000000E+03  0.17130000000E+03 0.  1.
       11    1    1    2    0    0 -0.26611224115E+00  0.47780486574E+00  0.10436113909E+01  0.11782352104E+01  0.51109989000E-03 0. -1.
     -623    1    1    2    0    0 -0.28085249247E+00 -0.24611764353E+00  0.86958222105E+00  0.17130261418E+03  0.17130000000E+03 0.  1.
      622    1    1    2    0    0  0.54696473363E+00 -0.23168722221E+00  0.20868063554E+01  0.28191506086E+01  0.18000000000E+01 0.  1.
</event>
<event>
 5   0  0.7764500E-01  0.9118800E+02  0.7818608E-02  0.1180000E+00
       11   -1    0    0    0    0  0.00000000000E+00  0.00000000000E+00  0.39999999673E+01  0.40000000000E+01  0.51109989000E-03 0. -1.
     -623   -1    0    0    0    0  0.00000000000E+00  0.00000000000E+00  0.12525980253E-10  0.17130000000E+03  0.17130000000E+03 0. -1.
       11    1    1    2    0    0 -0.90238694847E-01 -0.12036082325E-01  0.33985002479E-01  0.97175773424E-01  0.51109989000E-03 0. -1.
     -623    1    1    2    0    0  0.32851047549E+00  0.29371174203E+00  0.52432403730E+00  0.17130136923E+03  0.17130000000E+03 0. -1.
      622    1    1    2    0    0 -0.23827178065E+00 -0.28167565971E+00  0.34416909276E+01  0.39014549927E+01  0.18000000000E+01 0. -1.
</event>
<event>
 5   0  0.7764500E-01  0.9118800E+02  0.7818608E-02  0.1180000E+00
       11   -1    0    0    0    0  0.00000000000E+00  0.00000000000E+00  0.39999999673E+01  0.40000000000E+01  0.51109989000E-03 0. -1.
     -623   -1    0    0    0    0  0.00000000000E+00  0.00000000000E+00  0.12525980253E-10  0.17130000000E+03  0.17130000000E+03 0. -1.
       11    1    1    2    0    0  0.12363442324E+00 -0.10764375771E+00  0.14447599661E+00  0.21850909364E+00  0.51109989000E-03 0. -1.
     -623    1    1    2    0    0 -0.52740423948E-01 -0.24182891116E+00  0.55030385889E+00  0.17130106274E+03  0.17130000000E+03 0. -1.
      622    1    1    2    0    0 -0.70893999295E-01  0.34947266886E+00  0.33052201119E+01  0.37804281627E+01  0.18000000000E+01 0. -1.
</event>
<event>
 5   0  0.7764500E-01  0.9118800E+02  0.7818608E-02  0.1180000E+00
       11   -1    0    0    0    0  0.00000000000E+00  0.00000000000E+00  0.39999999673E+01  0.40000000000E+01  0.51109989000E-03 0.  1.
     -623   -1    0    0    0    0  0.00000000000E+00  0.00000000000E+00  0.12525980253E-10  0.17130000000E+03  0.17130000000E+03 0. -1.
       11    1    1    2    0    0  0.23409420707E-01  0.15839275379E-01  0.39593459137E-01  0.48649633625E-01  0.51109989000E-03 0.  1.
     -623    1    1    2    0    0 -0.93856667439E-01 -0.51159863869E-01  0.44442297651E+00  0.17130060986E+03  0.17130000000E+03 0. -1.
      622    1    1    2    0    0  0.70447246732E-01  0.35320588490E-01  0.35159835317E+01  0.39507405070E+01  0.18000000000E+01 0.  1.
</event>
<event>
 5   0  0.7764500E-01  0.9118800E+02  0.7818608E-02  0.1180000E+00
       11   -1    0    0    0    0  0.00000000000E+00  0.00000000000E+00  0.39999999673E+01  0.40000000000E+01  0.51109989000E-03 0. -1.
     -623   -1    0    0    0    0  0.00000000000E+00  0.00000000000E+00  0.12525980253E-10  0.17130000000E+03  0.17130000000E+03 0. -1.
       11    1    1    2    0    0  0.48249529371E-01 -0.55493380366E-02  0.42179766353E-01  0.64328890456E-01  0.51109989000E-03 0. -1.
     -623    1    1    2    0    0 -0.31389760865E+00  0.18374284670E+00  0.47371470647E+00  0.17130104115E+03  0.17130000000E+03 0. -1.
      622    1    1    2    0    0  0.26564807928E+00 -0.17819350866E+00  0.34841054945E+01  0.39346299604E+01  0.18000000000E+01 0. -1.
</event>
<event>
 5   0  0.7764500E-01  0.9118800E+02  0.7818608E-02  0.1180000E+00
       11   -1    0    0    0    0  0.00000000000E+00  0.00000000000E+00  0.39999999673E+01  0.40000000000E+01  0.51109989000E-03 0. -1.
     -623   -1    0    0    0    0  0.00000000000E+00  0.00000000000E+00  0.12525980253E-10  0.17130000000E+03  0.17130000000E+03 0. -1.
       11    1    1    2    0    0  0.20146056323E+00 -0.16492734087E+00  0.54224102031E+00  0.60150891235E+00  0.51109989000E-03 0. -1.
     -623    1    1    2    0    0 -0.19157498777E+00  0.41729083431E+00  0.58810483727E+00  0.17130162492E+03  0.17130000000E+03 0. -1.
      622    1    1    2    0    0 -0.98855754566E-02 -0.25236349344E+00  0.28696541098E+01  0.33968661686E+01  0.18000000000E+01 0. -1.
</event>
<event>
 5   0  0.7764500E-01  0.9118800E+02  0.7818608E-02  0.1180000E+00
       11   -1    0    0    0    0  0.00000000000E+00  0.00000000000E+00  0.39999999673E+01  0.40000000000E+01  0.51109989000E-03 0.  1.
     -623   -1    0    0    0    0  0.00000000000E+00  0.00000000000E+00  0.12525980253E-10  0.17130000000E+03  0.17130000000E+03 0.  1.
       11    1    1    2    0    0  0.10999133863E-01  0.87790001406E-01  0.11513192384E-01  0.89223764292E-01  0.51109989000E-03 0.  1.
     -623    1    1    2    0    0  0.20080630767E+00 -0.15773889536E+00  0.52487026087E+00  0.17130099443E+03  0.17130000000E+03 0.  1.
      622    1    1    2    0    0 -0.21180544153E+00  0.69948893954E-01  0.34636165141E+01  0.39097818033E+01  0.18000000000E+01 0.  1.
</event>
<event>
 5   0  0.7764500E-01  0.9118800E+02  0.7818608E-02  0.1180000E+00
       11   -1    0    0    0    0  0.00000000000E+00  0.00000000000E+00  0.39999999673E+01  0.40000000000E+01  0.51109989000E-03 0. -1.
     -623   -1    0    0    0    0  0.00000000000E+00  0.00000000000E+00  0.12525980253E-10  0.17130000000E+03  0.17130000000E+03 0. -1.
       11    1    1    2    0    0 -0.10856596390E+00 -0.12564264396E+00  0.13700722631E+00  0.21527629638E+00  0.51109989000E-03 0. -1.
     -623    1    1    2    0    0 -0.39904298576E+00 -0.36988360658E-01  0.57831891808E+00  0.17130144499E+03  0.17130000000E+03 0. -1.
      622    1    1    2    0    0  0.50760894966E+00  0.16263100462E+00  0.32846738230E+01  0.37832787120E+01  0.18000000000E+01 0. -1.
</event>
<event>
 5   0  0.7764500E-01  0.9118800E+02  0.7818608E-02  0.1180000E+00
       11   -1    0    0    0    0  0.00000000000E+00  0.00000000000E+00  0.39999999673E+01  0.40000000000E+01  0.51109989000E-03 0.  1.
     -623   -1    0    0    0    0  0.00000000000E+00  0.00000000000E+00  0.12525980253E-10  0.17130000000E+03  0.17130000000E+03 0.  1.
       11    1    1    2    0    0 -0.21629098591E+00  0.60610677618E-01  0.57130126092E+00  0.61387363258E+00  0.51109989000E-03 0.  1.
     -623    1    1    2    0    0  0.27802065164E+00  0.26813571558E+00  0.58188875356E+00  0.17130142377E+03  0.17130000000E+03 0.  1.
      622    1    1    2    0    0 -0.61729665725E-01 -0.32874639320E+00  0.28468099529E+01  0.33847025941E+01  0.18000000000E+01 0.  1.
</event>
<event>
 5   0  0.7764500E-01  0.9118800E+02  0.7818608E-02  0.1180000E+00
       11   -1    0    0    0    0  0.00000000000E+00  0.00000000000E+00  0.39999999673E+01  0.40000000000E+01  0.51109989000E-03 0. -1.
     -623   -1    0    0    0    0  0.00000000000E+00  0.00000000000E+00  0.12525980253E-10  0.17130000000E+03  0.17130000000E+03 0. -1.
       11    1    1    2    0    0  0.57094478038E-01  0.11741022136E+00 -0.27153209629E-01  0.13335103118E+00  0.51109989000E-03 0. -1.
     -623    1    1    2    0    0  0.22389361201E+00 -0.32588948978E+00  0.62476881715E+00  0.17130159564E+03  0.17130000000E+03 0. -1.
      622    1    1    2    0    0 -0.28098809005E+00  0.20847926843E+00  0.34023843598E+01  0.38650533301E+01  0.18000000000E+01 0. -1.
</event>
<event>
 5   0  0.7764500E-01  0.9118800E+02  0.7818608E-02  0.1180000E+00
       11   -1    0    0    0    0  0.00000000000E+00  0.00000000000E+00  0.39999999673E+01  0.40000000000E+01  0.51109989000E-03 0. -1.
     -623   -1    0    0    0    0  0.00000000000E+00  0.00000000000E+00  0.12525980253E-10  0.17130000000E+03  0.17130000000E+03 0.  1.
       11    1    1    2    0    0  0.77425706174E-01 -0.65176416248E-01 -0.48745315009E-01  0.11233464368E+00  0.51109989000E-03 0. -1.
     -623    1    1    2    0    0 -0.22537471900E+00 -0.51715310814E-01  0.60945061435E+00  0.17130124021E+03  0.17130000000E+03 0.  1.
      622    1    1    2    0    0  0.14794901283E+00  0.11689172706E+00  0.34392946680E+01  0.38864251440E+01  0.18000000000E+01 0. -1.
</event>
<event>
 5   0  0.7764500E-01  0.9118800E+02  0.7818608E-02  0.1180000E+00
       11   -1    0    0    0    0  0.00000000000E+00  0.00000000000E+00  0.39999999673E+01  0.40000000000E+01  0.51109989000E-03 0. -1.
     -623   -1    0    0    0    0  0.00000000000E+00  0.00000000000E+00  0.12525980253E-10  0.17130000000E+03  0.17130000000E+03 0. -1.
       11    1    1    2    0    0  0.31827842429E+00  0.52393310578E-01  0.70535673592E+00  0.77561240352E+00  0.51109989000E-03 0. -1.
     -623    1    1    2    0    0 -0.40426832015E+00 -0.83384382960E+00  0.74276452698E+00  0.17130411679E+03  0.17130000000E+03 0. -1.
      622    1    1    2    0    0  0.85989895860E-01  0.78145051902E+00  0.25518787045E+01  0.32202708113E+01  0.18000000000E+01 0.  0.
</event>
<event>
 5   0  0.7764500E-01  0.9118800E+02  0.7818608E-02  0.1180000E+00
       11   -1    0    0    0    0  0.00000000000E+00  0.00000000000E+00  0.39999999673E+01  0.40000000000E+01  0.51109989000E-03 0. -1.
     -623   -1    0    0    0    0  0.00000000000E+00  0.00000000000E+00  0.12525980253E-10  0.17130000000E+03  0.17130000000E+03 0.  1.
       11    1    1    2    0    0 -0.32795193711E+00  0.53907661405E-01  0.54809574026E+00  0.64098963387E+00  0.51109989000E-03 0. -1.
     -623    1    1    2    0    0  0.48332741751E+00  0.11447747630E+00  0.62738603075E+00  0.17130186900E+03  0.17130000000E+03 0.  1.
      622    1    1    2    0    0 -0.15537548039E+00 -0.16838513771E+00  0.28245181964E+01  0.33571413637E+01  0.18000000000E+01 0. -1.
</event>
<event>
 5   0  0.7764500E-01  0.9118800E+02  0.7818608E-02  0.1180000E+00
       11   -1    0    0    0    0  0.00000000000E+00  0.00000000000E+00  0.39999999673E+01  0.40000000000E+01  0.51109989000E-03 0. -1.
     -623   -1    0    0    0    0  0.00000000000E+00  0.00000000000E+00  0.12525980253E-10  0.17130000000E+03  0.17130000000E+03 0.  1.
       11    1    1    2    0    0 -0.28403734659E-01  0.12148455178E+00  0.61069316689E+00  0.62330704614E+00  0.51109989000E-03 0. -1.
     -623    1    1    2    0    0 -0.53517016138E-01 -0.40969743629E+00  0.54977226143E+00  0.17130138051E+03  0.17130000000E+03 0.  1.
      622    1    1    2    0    0  0.81920750797E-01  0.28821288452E+00  0.28395345390E+01  0.33753124410E+01  0.18000000000E+01 0. -1.
</event>
<event>
 5   0  0.7764500E-01  0.9118800E+02  0.7818608E-02  0.1180000E+00
       11   -1    0    0    0    0  0.00000000000E+00  0.00000000000E+00  0.39999999673E+01  0.40000000000E+01  0.51109989000E-03 0.  1.
     -623   -1    0    0    0    0  0.00000000000E+00  0.00000000000E+00  0.12525980253E-10  0.17130000000E+03  0.17130000000E+03 0.  1.
       11    1    1    2    0    0 -0.47518911783E-02  0.92294823846E-02 -0.42074012397E-01  0.43338753526E-01  0.51109989000E-03 0.  1.
     -623    1    1    2    0    0  0.15964916126E+00 -0.11530252001E-02  0.52295405588E+00  0.17130087265E+03  0.17130000000E+03 0.  1.
      622    1    1    2    0    0 -0.15489727008E+00 -0.80764571845E-02  0.35191199239E+01  0.39557885980E+01  0.18000000000E+01 0.  1.
</event>
<event>
 5   0  0.7764500E-01  0.9118800E+02  0.7818608E-02  0.1180000E+00
       11   -1    0    0    0    0  0.00000000000E+00  0.00000000000E+00  0.39999999673E+01  0.40000000000E+01  0.51109989000E-03 0. -1.
     -623   -1    0    0    0    0  0.00000000000E+00  0.00000000000E+00  0.12525980253E-10  0.17130000000E+03  0.17130000000E+03 0.  1.
       11    1    1    2    0    0 -0.32124206840E-01 -0.22377810788E+00 -0.28487202339E-01  0.22786045763E+00  0.51109989000E-03 0. -1.
     -623    1    1    2    0    0  0.60758028635E-01  0.60795768045E-01  0.71939409158E+00  0.17130153215E+03  0.17130000000E+03 0.  1.
      622    1    1    2    0    0 -0.28633821795E-01  0.16298233984E+00  0.33090930781E+01  0.37706073965E+01  0.18000000000E+01 0. -1.
</event>
<event>
 5   0  0.7764500E-01  0.9118800E+02  0.7818608E-02  0.1180000E+00
       11   -1    0    0    0    0  0.00000000000E+00  0.00000000000E+00  0.39999999673E+01  0.40000000000E+01  0.51109989000E-03 0. -1.
     -623   -1    0    0    0    0  0.00000000000E+00  0.00000000000E+00  0.12525980253E-10  0.17130000000E+03  0.17130000000E+03 0.  1.
       11    1    1    2    0    0 -0.68574987512E-01 -0.16379232555E-02  0.32255791355E-01  0.75801774402E-01  0.51109989000E-03 0. -1.
     -623    1    1    2    0    0  0.49389616234E+00 -0.59673013331E-01  0.50897668407E+00  0.17130147854E+03  0.17130000000E+03 0.  1.
      622    1    1    2    0    0 -0.42532117483E+00  0.61310936586E-01  0.34587674919E+01  0.39227196810E+01  0.18000000000E+01 0. -1.
</event>
<event>
 5   0  0.7764500E-01  0.9118800E+02  0.7818608E-02  0.1180000E+00
       11   -1    0    0    0    0  0.00000000000E+00  0.00000000000E+00  0.39999999673E+01  0.40000000000E+01  0.51109989000E-03 0.  1.
     -623   -1    0    0    0    0  0.00000000000E+00  0.00000000000E+00  0.12525980253E-10  0.17130000000E+03  0.17130000000E+03 0. -1.
       11    1    1    2    0    0 -0.14704940467E+00  0.75261614021E-01  0.20346301420E+00  0.26207879984E+00  0.51109989000E-03 0.  1.
     -623    1    1    2    0    0  0.53470688912E-01 -0.49329378211E+00  0.55052958206E+00  0.17130160326E+03  0.17130000000E+03 0. -1.
      622    1    1    2    0    0  0.93578715757E-01  0.41803216809E+00  0.32460073711E+01  0.37363179365E+01  0.18000000000E+01 0.  1.
</event>
<event>
 5   0  0.7764500E-01  0.9118800E+02  0.7818608E-02  0.1180000E+00
       11   -1    0    0    0    0  0.00000000000E+00  0.00000000000E+00  0.39999999673E+01  0.40000000000E+01  0.51109989000E-03 0.  1.
     -623   -1    0    0    0    0  0.00000000000E+00  0.00000000000E+00  0.12525980253E-10  0.17130000000E+03  0.17130000000E+03 0. -1.
       11    1    1    2    0    0  0.15570977247E-01 -0.18785700693E+00  0.16991785553E+00  0.25378149900E+00  0.51109989000E-03 0.  1.
     -623    1    1    2    0    0 -0.93356499857E-01  0.39717832282E+00  0.55381274139E+00  0.17130138112E+03  0.17130000000E+03 0. -1.
      622    1    1    2    0    0  0.77785522610E-01 -0.20932131588E+00  0.32762693704E+01  0.37448373781E+01  0.18000000000E+01 0.  1.
</event>
<event>
 5   0  0.7764500E-01  0.9118800E+02  0.7818608E-02  0.1180000E+00
       11   -1    0    0    0    0  0.00000000000E+00  0.00000000000E+00  0.39999999673E+01  0.40000000000E+01  0.51109989000E-03 0.  1.
     -623   -1    0    0    0    0  0.00000000000E+00  0.00000000000E+00  0.12525980253E-10  0.17130000000E+03  0.17130000000E+03 0.  1.
       11    1    1    2    0    0 -0.89426642963E-01 -0.14834299249E+00  0.35071533219E+00  0.39115760679E+00  0.51109989000E-03 0.  1.
     -623    1    1    2    0    0 -0.62177149396E-01 -0.10475228705E+00  0.53635513587E+00  0.17130088300E+03  0.17130000000E+03 0.  1.
      622    1    1    2    0    0  0.15160379236E+00  0.25309527954E+00  0.31129294993E+01  0.36079593953E+01  0.18000000000E+01 0.  1.
</event>
<event>
 5   0  0.7764500E-01  0.9118800E+02  0.7818608E-02  0.1180000E+00
       11   -1    0    0    0    0  0.00000000000E+00  0.00000000000E+00  0.39999999673E+01  0.40000000000E+01  0.51109989000E-03 0. -1.
     -623   -1    0    0    0    0  0.00000000000E+00  0.00000000000E+00  0.12525980253E-10  0.17130000000E+03  0.17130000000E+03 0.  1.
       11    1    1    2    0    0  0.17067118249E+00 -0.38444207916E+00  0.10379125568E+00  0.43324040756E+00  0.51109989000E-03 0. -1.
     -623    1    1    2    0    0 -0.17262260340E+00 -0.62747798929E-01  0.85220276230E+00  0.17130221827E+03  0.17130000000E+03 0.  1.
      622    1    1    2    0    0  0.19514209100E-02  0.44718987809E+00  0.30440059494E+01  0.35645413190E+01  0.18000000000E+01 0. -1.
</event>
<event>
 5   0  0.7764500E-01  0.9118800E+02  0.7818608E-02  0.1180000E+00
       11   -1    0    0    0    0  0.00000000000E+00  0.00000000000E+00  0.39999999673E+01  0.40000000000E+01  0.51109989000E-03 0. -1.
     -623   -1    0    0    0    0  0.00000000000E+00  0.00000000000E+00  0.12525980253E-10  0.17130000000E+03  0.17130000000E+03 0. -1.
       11    1    1    2    0    0  0.77826519283E-01  0.46175500168E+00  0.49635294626E+00  0.68237904215E+00  0.51109989000E-03 0. -1.
     -623    1    1    2    0    0 -0.81586614187E-01 -0.45208441027E+00  0.71933434177E+00  0.17130212631E+03  0.17130000000E+03 0. -1.
      622    1    1    2    0    0  0.37600949048E-02 -0.96705914138E-02  0.27843126793E+01  0.33154946471E+01  0.18000000000E+01 0.  1.
</event>
<event>
 5   0  0.7764500E-01  0.9118800E+02  0.7818608E-02  0.1180000E+00
       11   -1    0    0    0    0  0.00000000000E+00  0.00000000000E+00  0.39999999673E+01  0.40000000000E+01  0.51109989000E-03 0.  1.
     -623   -1    0    0    0    0  0.00000000000E+00  0.00000000000E+00  0.12525980253E-10  0.17130000000E+03  0.17130000000E+03 0.  1.
       11    1    1    2    0    0  0.49367114636E-01  0.13629712735E+00  0.52538104504E-02  0.14505820445E+00  0.51109989000E-03 0.  1.
     -623    1    1    2    0    0 -0.53293525286E+00 -0.17204698358E+00  0.62285109282E+00  0.17130204775E+03  0.17130000000E+03 0.  1.
      622    1    1    2    0    0  0.48356813822E+00  0.35749856223E-01  0.33718950641E+01  0.38528940447E+01  0.18000000000E+01 0.  1.
</event>
<event>
 5   0  0.7764500E-01  0.9118800E+02  0.7818608E-02  0.1180000E+00
       11   -1    0    0    0    0  0.00000000000E+00  0.00000000000E+00  0.39999999673E+01  0.40000000000E+01  0.51109989000E-03 0.  1.
     -623   -1    0    0    0    0  0.00000000000E+00  0.00000000000E+00  0.12525980253E-10  0.17130000000E+03  0.17130000000E+03 0.  1.
       11    1    1    2    0    0  0.10025099001E-01  0.65637910430E-01  0.26451838982E-01  0.71475862370E-01  0.51109989000E-03 0.  1.
     -623    1    1    2    0    0  0.75828021212E-02 -0.31848807802E+00  0.49199951926E+00  0.17130100279E+03  0.17130000000E+03 0.  1.
      622    1    1    2    0    0 -0.17607901122E-01  0.25285016759E+00  0.34815486091E+01  0.39275213511E+01  0.18000000000E+01 0.  1.
</event>
<event>
 5   0  0.7764500E-01  0.9118800E+02  0.7818608E-02  0.1180000E+00
       11   -1    0    0    0    0  0.00000000000E+00  0.00000000000E+00  0.39999999673E+01  0.40000000000E+01  0.51109989000E-03 0.  1.
     -623   -1    0    0    0    0  0.00000000000E+00  0.00000000000E+00  0.12525980253E-10  0.17130000000E+03  0.17130000000E+03 0.  1.
       11    1    1    2    0    0  0.74262263871E-01  0.35840320111E+00  0.48683924913E+00  0.60908164815E+00  0.51109989000E-03 0.  1.
     -623    1    1    2    0    0 -0.10989148449E+01  0.23594174177E+00  0.90278419971E+00  0.17130606616E+03  0.17130000000E+03 0.  1.
      622    1    1    2    0    0  0.10246525811E+01 -0.59434494289E+00  0.26103765185E+01  0.33848521964E+01  0.18000000000E+01 0.  1.
</event>
<event>
 5   0  0.7764500E-01  0.9118800E+02  0.7818608E-02  0.1180000E+00
       11   -1    0    0    0    0  0.00000000000E+00  0.00000000000E+00  0.39999999673E+01  0.40000000000E+01  0.51109989000E-03 0.  1.
     -623   -1    0    0    0    0  0.00000000000E+00  0.00000000000E+00  0.12525980253E-10  0.17130000000E+03  0.17130000000E+03 0. -1.
       11    1    1    2    0    0  0.58232429171E-01  0.23518800647E+00  0.35227791258E+00  0.42755631571E+00  0.51109989000E-03 0.  1.
     -623    1    1    2    0    0 -0.22656286832E+00 -0.33706312807E+00  0.56982817096E+00  0.17130142920E+03  0.17130000000E+03 0. -1.
      622    1    1    2    0    0  0.16833043914E+00  0.10187512160E+00  0.30778938838E+01  0.35710144829E+01  0.18000000000E+01 0.  1.
</event>
<event>
 5   0  0.7764500E-01  0.9118800E+02  0.7818608E-02  0.1180000E+00
       11   -1    0    0    0    0  0.00000000000E+00  0.00000000000E+00  0.39999999673E+01  0.40000000000E+01  0.51109989000E-03 0.  1.
     -623   -1    0    0    0    0  0.00000000000E+00  0.00000000000E+00  0.12525980253E-10  0.17130000000E+03  0.17130000000E+03 0. -1.
       11    1    1    2    0    0 -0.21787420417E+00 -0.90612466636E-01 -0.14153200321E+00  0.27515696813E+00  0.51109989000E-03 0.  1.
     -623    1    1    2    0    0  0.34889095948E-01  0.14720487597E+00  0.88882555623E+00  0.17130237271E+03  0.17130000000E+03 0. -1.
      622    1    1    2    0    0  0.18298510823E+00 -0.56592409329E-01  0.32527064143E+01  0.37224703180E+01  0.18000000000E+01 0.  1.
</event>
<event>
 5   0  0.7764500E-01  0.9118800E+02  0.7818608E-02  0.1180000E+00
       11   -1    0    0    0    0  0.00000000000E+00  0.00000000000E+00  0.39999999673E+01  0.40000000000E+01  0.51109989000E-03 0.  1.
     -623   -1    0    0    0    0  0.00000000000E+00  0.00000000000E+00  0.12525980253E-10  0.17130000000E+03  0.17130000000E+03 0.  1.
       11    1    1    2    0    0  0.14124274087E+00  0.60346747483E-02  0.16886146220E-02  0.14138260780E+00  0.51109989000E-03 0.  1.
     -623    1    1    2    0    0 -0.22186669669E+00 -0.21861204174E+00  0.59432858984E+00  0.17130131419E+03  0.17130000000E+03 0.  1.
      622    1    1    2    0    0  0.80623955820E-01  0.21257736699E+00  0.34039827629E+01  0.38573032042E+01  0.18000000000E+01 0.  1.
</event>
<event>
 5   0  0.7764500E-01  0.9118800E+02  0.7818608E-02  0.1180000E+00
       11   -1    0    0    0    0  0.00000000000E+00  0.00000000000E+00  0.39999999673E+01  0.40000000000E+01  0.51109989000E-03 0.  1.
     -623   -1    0    0    0    0  0.00000000000E+00  0.00000000000E+00  0.12525980253E-10  0.17130000000E+03  0.17130000000E+03 0. -1.
       11    1    1    2    0    0 -0.17716760058E+00 -0.41423141132E-01 -0.23229977977E-01  0.18342335842E+00  0.51109989000E-03 0.  1.
     -623    1    1    2    0    0  0.15192118812E+00  0.98914564768E-01  0.65991586768E+00  0.17130136705E+03  0.17130000000E+03 0. -1.
      622    1    1    2    0    0  0.25246412454E-01 -0.57491423636E-01  0.33633140777E+01  0.38152095919E+01  0.18000000000E+01 0.  1.
</event>
<event>
 5   0  0.7764500E-01  0.9118800E+02  0.7818608E-02  0.1180000E+00
       11   -1    0    0    0    0  0.00000000000E+00  0.00000000000E+00  0.39999999673E+01  0.40000000000E+01  0.51109989000E-03 0. -1.
     -623   -1    0    0    0    0  0.00000000000E+00  0.00000000000E+00  0.12525980253E-10  0.17130000000E+03  0.17130000000E+03 0.  1.
       11    1    1    2    0    0  0.10219007210E+00  0.74539670285E-01 -0.50026872218E-02  0.12658697162E+00  0.51109989000E-03 0. -1.
     -623    1    1    2    0    0 -0.41016035149E+00 -0.26941831508E+00  0.59662858116E+00  0.17130174192E+03  0.17130000000E+03 0.  1.
      622    1    1    2    0    0  0.30797027940E+00  0.19487864479E+00  0.34083740734E+01  0.38716711125E+01  0.18000000000E+01 0. -1.
</event>
<event>
 5   0  0.7764500E-01  0.9118800E+02  0.7818608E-02  0.1180000E+00
       11   -1    0    0    0    0  0.00000000000E+00  0.00000000000E+00  0.39999999673E+01  0.40000000000E+01  0.51109989000E-03 0.  1.
     -623   -1    0    0    0    0  0.00000000000E+00  0.00000000000E+00  0.12525980253E-10  0.17130000000E+03  0.17130000000E+03 0. -1.
       11    1    1    2    0    0  0.18673155413E+00 -0.44119839429E-01  0.62789377419E-01  0.20188610819E+00  0.51109989000E-03 0.  1.
     -623    1    1    2    0    0  0.68816428640E-03 -0.16152636175E+00  0.60561286492E+00  0.17130114669E+03  0.17130000000E+03 0. -1.
      622    1    1    2    0    0 -0.18741971842E+00  0.20564620118E+00  0.33315977250E+01  0.37969671993E+01  0.18000000000E+01 0.  1.
</event>
<event>
 5   0  0.7764500E-01  0.9118800E+02  0.7818608E-02  0.1180000E+00
       11   -1    0    0    0    0  0.00000000000E+00  0.00000000000E+00  0.39999999673E+01  0.40000000000E+01  0.51109989000E-03 0. -1.
     -623   -1    0    0    0    0  0.00000000000E+00  0.00000000000E+00  0.12525980253E-10  0.17130000000E+03  0.17130000000E+03 0. -1.
       11    1    1    2    0    0 -0.31408217841E-01 -0.18837850812E-01  0.11695804401E+00  0.12255931647E+00  0.51109989000E-03 0. -1.
     -623    1    1    2    0    0  0.32334868395E+00 -0.42470252173E+00  0.49177849007E+00  0.17130153757E+03  0.17130000000E+03 0. -1.
      622    1    1    2    0    0 -0.29194046611E+00  0.44354037254E+00  0.33912634333E+01  0.38759031169E+01  0.18000000000E+01 0.  0.
</event>
<event>
 5   0  0.7764500E-01  0.9118800E+02  0.7818608E-02  0.1180000E+00
       11   -1    0    0    0    0  0.00000000000E+00  0.00000000000E+00  0.39999999673E+01  0.40000000000E+01  0.51109989000E-03 0.  1.
     -623   -1    0    0    0    0  0.00000000000E+00  0.00000000000E+00  0.12525980253E-10  0.17130000000E+03  0.17130000000E+03 0. -1.
       11    1    1    2    0    0  0.24483426612E+00 -0.35960132850E+00  0.29943476965E+00  0.52812723451E+00  0.51109989000E-03 0.  1.
     -623    1    1    2    0    0  0.26318335669E-01  0.99725756898E+00  0.81959138027E+00  0.17130486550E+03  0.17130000000E+03 0. -1.
      622    1    1    2    0    0 -0.27115260179E+00 -0.63765624048E+00  0.28809738174E+01  0.34670072615E+01  0.18000000000E+01 0.  0.
</event>
<event>
 5   0  0.7764500E-01  0.9118800E+02  0.7818608E-02  0.1180000E+00
       11   -1    0    0    0    0  0.00000000000E+00  0.00000000000E+00  0.39999999673E+01  0.40000000000E+01  0.51109989000E-03 0. -1.
     -623   -1    0    0    0    0  0.00000000000E+00  0.00000000000E+00  0.12525980253E-10  0.17130000000E+03  0.17130000000E+03 0. -1.
       11    1    1    2    0    0 -0.12569110859E+00 -0.12150837724E-01  0.15530492750E+00  0.20016438085E+00  0.51109989000E-03 0. -1.
     -623    1    1    2    0    0  0.24954318222E+00  0.34859466537E+00  0.51901217724E+00  0.17130132271E+03  0.17130000000E+03 0. -1.
      622    1    1    2    0    0 -0.12385207363E+00 -0.33644382765E+00  0.33256828626E+01  0.37985129048E+01  0.18000000000E+01 0. -1.
</event>
<event>
 5   0  0.7764500E-01  0.9118800E+02  0.7818608E-02  0.1180000E+00
       11   -1    0    0    0    0  0.00000000000E+00  0.00000000000E+00  0.39999999673E+01  0.40000000000E+01  0.51109989000E-03 0.  1.
     -623   -1    0    0    0    0  0.00000000000E+00  0.00000000000E+00  0.12525980253E-10  0.17130000000E+03  0.17130000000E+03 0. -1.
       11    1    1    2    0    0  0.24871960738E+00 -0.24777705911E+00  0.18806434309E+00  0.39827549822E+00  0.51109989000E-03 0.  1.
     -623    1    1    2    0    0 -0.57575460622E+00 -0.19234366361E-01  0.72386438831E+00  0.17130249806E+03  0.17130000000E+03 0. -1.
      622    1    1    2    0    0  0.32703499884E+00  0.26701142547E+00  0.30880712360E+01  0.35992264377E+01  0.18000000000E+01 0.  1.
</event>
<event>
 5   0  0.7764500E-01  0.9118800E+02  0.7818608E-02  0.1180000E+00
       11   -1    0    0    0    0  0.00000000000E+00  0.00000000000E+00  0.39999999673E+01  0.40000000000E+01  0.51109989000E-03 0.  1.
     -623   -1    0    0    0    0  0.00000000000E+00  0.00000000000E+00  0.12525980253E-10  0.17130000000E+03  0.17130000000E+03 0.  1.
       11    1    1    2    0    0  0.18615666656E+00 -0.52856798852E-01  0.62124691665E-01  0.20324341128E+00  0.51109989000E-03 0.  1.
     -623    1    1    2    0    0 -0.25298395142E+00 -0.56326709772E-01  0.59878265048E+00  0.17130124259E+03  0.17130000000E+03 0.  1.
      622    1    1    2    0    0  0.66827284855E-01  0.10918350862E+00  0.33390926252E+01  0.37955139947E+01  0.18000000000E+01 0.  1.
</event>
<event>
 5   0  0.7764500E-01  0.9118800E+02  0.7818608E-02  0.1180000E+00
       11   -1    0    0    0    0  0.00000000000E+00  0.00000000000E+00  0.39999999673E+01  0.40000000000E+01  0.51109989000E-03 0.  1.
     -623   -1    0    0    0    0  0.00000000000E+00  0.00000000000E+00  0.12525980253E-10  0.17130000000E+03  0.17130000000E+03 0. -1.
       11    1    1    2    0    0  0.15596110999E+00  0.23501165200E-01  0.30824090133E+00  0.34624974668E+00  0.51109989000E-03 0.  1.
     -623    1    1    2    0    0 -0.11673683339E+00  0.23202070459E+00  0.52383068126E+00  0.17130099784E+03  0.17130000000E+03 0. -1.
      622    1    1    2    0    0 -0.39224276602E-01 -0.25552186979E+00  0.31679283848E+01  0.36527524171E+01  0.18000000000E+01 0. -1.
</event>
<event>
 5   0  0.7764500E-01  0.9118800E+02  0.7818608E-02  0.1180000E+00
       11   -1    0    0    0    0  0.00000000000E+00  0.00000000000E+00  0.39999999673E+01  0.40000000000E+01  0.51109989000E-03 0. -1.
     -623   -1    0    0    0    0  0.00000000000E+00  0.00000000000E+00  0.12525980253E-10  0.17130000000E+03  0.17130000000E+03 0. -1.
       11    1    1    2    0    0 -0.26213108375E+00 -0.19676472555E+00  0.38204098833E+00  0.50337326138E+00  0.51109989000E-03 0. -1.
     -623    1    1    2    0    0  0.42989360877E+00  0.60304124612E+00  0.65599637380E+00  0.17130285695E+03  0.17130000000E+03 0. -1.
      622    1    1    2    0    0 -0.16776252502E+00 -0.40627652057E+00  0.29619626052E+01  0.34937697907E+01  0.18000000000E+01 0. -1.
</event>
<event>
 5   0  0.7764500E-01  0.9118800E+02  0.7818608E-02  0.1180000E+00
       11   -1    0    0    0    0  0.00000000000E+00  0.00000000000E+00  0.39999999673E+01  0.40000000000E+01  0.51109989000E-03 0.  1.
     -623   -1    0    0    0    0  0.00000000000E+00  0.00000000000E+00  0.12525980253E-10  0.17130000000E+03  0.17130000000E+03 0. -1.
       11    1    1    2    0    0 -0.67837138297E-01 -0.13627410220E-01  0.13529892024E+00  0.15196592606E+00  0.51109989000E-03 0.  1.
     -623    1    1    2    0    0  0.69653617417E-01 -0.95248251473E-01  0.46612547025E+00  0.17130067483E+03  0.17130000000E+03 0. -1.
      622    1    1    2    0    0 -0.18164791200E-02  0.10887566169E+00  0.33985755769E+01  0.38473592451E+01  0.18000000000E+01 0.  1.
</event>
<event>
 5   0  0.7764500E-01  0.9118800E+02  0.7818608E-02  0.1180000E+00
       11   -1    0    0    0    0  0.00000000000E+00  0.00000000000E+00  0.39999999673E+01  0.40000000000E+01  0.51109989000E-03 0. -1.
     -623   -1    0    0    0    0  0.00000000000E+00  0.00000000000E+00  0.12525980253E-10  0.17130000000E+03  0.17130000000E+03 0. -1.
       11    1    1    2    0    0 -0.93017685774E-01 -0.35554958729E-01  0.10263106799E+00  0.14300294507E+00  0.51109989000E-03 0. -1.
     -623    1    1    2    0    0  0.97753301319E-01 -0.57860504525E-01  0.48826056525E+00  0.17130073351E+03  0.17130000000E+03 0. -1.
      622    1    1    2    0    0 -0.47356155451E-02  0.93415463254E-01  0.34091083341E+01  0.38562635424E+01  0.18000000000E+01 0. -1.
</event>
<event>
 5   0  0.7764500E-01  0.9118800E+02  0.7818608E-02  0.1180000E+00
       11   -1    0    0    0    0  0.00000000000E+00  0.00000000000E+00  0.39999999673E+01  0.40000000000E+01  0.51109989000E-03 0. -1.
     -623   -1    0    0    0    0  0.00000000000E+00  0.00000000000E+00  0.12525980253E-10  0.17130000000E+03  0.17130000000E+03 0.  1.
       11    1    1    2    0    0  0.55111378798E-01 -0.25409944047E-01  0.49420018739E-01  0.78265757541E-01  0.51109989000E-03 0. -1.
     -623    1    1    2    0    0 -0.73806446425E-01  0.48211146338E+00  0.49805177599E+00  0.17130141837E+03  0.17130000000E+03 0.  1.
      622    1    1    2    0    0  0.18695067627E-01 -0.45670151933E+00  0.34525281726E+01  0.39203158758E+01  0.18000000000E+01 0. -1.
</event>
<event>
 5   0  0.7764500E-01  0.9118800E+02  0.7818608E-02  0.1180000E+00
       11   -1    0    0    0    0  0.00000000000E+00  0.00000000000E+00  0.39999999673E+01  0.40000000000E+01  0.51109989000E-03 0.  1.
     -623   -1    0    0    0    0  0.00000000000E+00  0.00000000000E+00  0.12525980253E-10  0.17130000000E+03  0.17130000000E+03 0.  1.
       11    1    1    2    0    0 -0.22484866896E+00 -0.86240277528E-02  0.57805071347E-02  0.22508881197E+00  0.51109989000E-03 0.  1.
     -623    1    1    2    0    0  0.30849209801E+00 -0.45219358731E-01  0.67944247218E+00  0.17130163121E+03  0.17130000000E+03 0.  1.
      622    1    1    2    0    0 -0.83643429055E-01  0.53843386483E-01  0.33147769880E+01  0.37732799809E+01  0.18000000000E+01 0.  1.
</event>
<event>
 5   0  0.7764500E-01  0.9118800E+02  0.7818608E-02  0.1180000E+00
       11   -1    0    0    0    0  0.00000000000E+00  0.00000000000E+00  0.39999999673E+01  0.40000000000E+01  0.51109989000E-03 0.  1.
     -623   -1    0    0    0    0  0.00000000000E+00  0.00000000000E+00  0.12525980253E-10  0.17130000000E+03  0.17130000000E+03 0.  1.
       11    1    1    2    0    0 -0.46180087848E-01  0.16380897731E-01 -0.49285261467E-01  0.69499874425E-01  0.51109989000E-03 0.  1.
     -623    1    1    2    0    0  0.24793165289E-01  0.94205792564E-01  0.55804157780E+00  0.17130093666E+03  0.17130000000E+03 0.  1.
      622    1    1    2    0    0  0.21386922559E-01 -0.11058669029E+00  0.34912436510E+01  0.39295634678E+01  0.18000000000E+01 0.  1.
</event>
<event>
 5   0  0.7764500E-01  0.9118800E+02  0.7818608E-02  0.1180000E+00
       11   -1    0    0    0    0  0.00000000000E+00  0.00000000000E+00  0.39999999673E+01  0.40000000000E+01  0.51109989000E-03 0.  1.
     -623   -1    0    0    0    0  0.00000000000E+00  0.00000000000E+00  0.12525980253E-10  0.17130000000E+03  0.17130000000E+03 0. -1.
       11    1    1    2    0    0  0.77084450340E-01 -0.17284716506E+00 -0.60206520165E-01  0.19860322567E+00  0.51109989000E-03 0.  1.
     -623    1    1    2    0    0 -0.21380864576E+00  0.19097733189E+00  0.71679917037E+00  0.17130173959E+03  0.17130000000E+03 0. -1.
      622    1    1    2    0    0  0.13672419542E+00 -0.18130166827E-01  0.33434073172E+01  0.37996571815E+01  0.18000000000E+01 0.  1.
</event>
<event>
 5   0  0.7764500E-01  0.9118800E+02  0.7818608E-02  0.1180000E+00
       11   -1    0    0    0    0  0.00000000000E+00  0.00000000000E+00  0.39999999673E+01  0.40000000000E+01  0.51109989000E-03 0. -1.
     -623   -1    0    0    0    0  0.00000000000E+00  0.00000000000E+00  0.12525980253E-10  0.17130000000E+03  0.17130000000E+03 0. -1.
       11    1    1    2    0    0 -0.62133633671E-01  0.12472299315E+00  0.11662282387E-01  0.13983091041E+00  0.51109989000E-03 0. -1.
     -623    1    1    2    0    0 -0.53111322878E-01 -0.10851191508E+00  0.57666071337E+00  0.17130101323E+03  0.17130000000E+03 0. -1.
      622    1    1    2    0    0  0.11524495655E+00 -0.16211078075E-01  0.34116769716E+01  0.38591558608E+01  0.18000000000E+01 0. -1.
</event>
<event>
 5   0  0.7764500E-01  0.9118800E+02  0.7818608E-02  0.1180000E+00
       11   -1    0    0    0    0  0.00000000000E+00  0.00000000000E+00  0.39999999673E+01  0.40000000000E+01  0.51109989000E-03 0. -1.
     -623   -1    0    0    0    0  0.00000000000E+00  0.00000000000E+00  0.12525980253E-10  0.17130000000E+03  0.17130000000E+03 0.  1.
       11    1    1    2    0    0 -0.43386931151E-01 -0.13346935768E+00  0.14034481785E+00  0.19847776791E+00  0.51109989000E-03 0. -1.
     -623    1    1    2    0    0  0.39705927684E+00 -0.48031828684E+00  0.58957502462E+00  0.17130214815E+03  0.17130000000E+03 0.  1.
      622    1    1    2    0    0 -0.35367234569E+00  0.61378764452E+00  0.32700801249E+01  0.37993740832E+01  0.18000000000E+01 0. -1.
</event>
<event>
 5   0  0.7764500E-01  0.9118800E+02  0.7818608E-02  0.1180000E+00
       11   -1    0    0    0    0  0.00000000000E+00  0.00000000000E+00  0.39999999673E+01  0.40000000000E+01  0.51109989000E-03 0. -1.
     -623   -1    0    0    0    0  0.00000000000E+00  0.00000000000E+00  0.12525980253E-10  0.17130000000E+03  0.17130000000E+03 0. -1.
       11    1    1    2    0    0  0.30392089184E-01 -0.19187626773E+00  0.77633807542E-01  0.20920671715E+00  0.51109989000E-03 0. -1.
     -623    1    1    2    0    0 -0.12033989182E+00 -0.12059623010E+00  0.60337738386E+00  0.17130114737E+03  0.17130000000E+03 0. -1.
      622    1    1    2    0    0  0.89947802641E-01  0.31247249784E+00  0.33189887760E+01  0.37896459154E+01  0.18000000000E+01 0. -1.
</event>
<event>
 5   0  0.7764500E-01  0.9118800E+02  0.7818608E-02  0.1180000E+00
       11   -1    0    0    0    0  0.00000000000E+00  0.00000000000E+00  0.39999999673E+01  0.40000000000E+01  0.51109989000E-03 0.  1.
     -623   -1    0    0    0    0  0.00000000000E+00  0.00000000000E+00  0.12525980253E-10  0.17130000000E+03  0.17130000000E+03 0. -1.
       11    1    1    2    0    0 -0.26472800434E+00  0.45365832316E+00  0.37093945986E+00  0.64302654266E+00  0.51109989000E-03 0.  1.
     -623    1    1    2    0    0  0.24923238326E+00 -0.20642050107E+00  0.80894835271E+00  0.17130221576E+03  0.17130000000E+03 0. -1.
      622    1    1    2    0    0  0.15495621080E-01 -0.24723782209E+00  0.28201121548E+01  0.33547576992E+01  0.18000000000E+01 0.  1.
</event>
<event>
 5   0  0.7764500E-01  0.9118800E+02  0.7818608E-02  0.1180000E+00
       11   -1    0    0    0    0  0.00000000000E+00  0.00000000000E+00  0.39999999673E+01  0.40000000000E+01  0.51109989000E-03 0.  1.
     -623   -1    0    0    0    0  0.00000000000E+00  0.00000000000E+00  0.12525980253E-10  0.17130000000E+03  0.17130000000E+03 0. -1.
       11    1    1    2    0    0 -0.60576507089E-01 -0.19663199216E+00 -0.66399696488E-01  0.21620091227E+00  0.51109989000E-03 0.  1.
     -623    1    1    2    0    0  0.14792132644E-01  0.47060295524E+00  0.75240158394E+00  0.17130229944E+03  0.17130000000E+03 0. -1.
      622    1    1    2    0    0  0.45784374444E-01 -0.27397096308E+00  0.33139980799E+01  0.37814996458E+01  0.18000000000E+01 0.  1.
</event>
<event>
 5   0  0.7764500E-01  0.9118800E+02  0.7818608E-02  0.1180000E+00
       11   -1    0    0    0    0  0.00000000000E+00  0.00000000000E+00  0.39999999673E+01  0.40000000000E+01  0.51109989000E-03 0.  1.
     -623   -1    0    0    0    0  0.00000000000E+00  0.00000000000E+00  0.12525980253E-10  0.17130000000E+03  0.17130000000E+03 0.  1.
       11    1    1    2    0    0  0.13958036301E+00  0.17529908891E-01  0.18346558089E+00  0.23119224909E+00  0.51109989000E-03 0.  1.
     -623    1    1    2    0    0 -0.23306200703E+00  0.52349816658E-01  0.50846133032E+00  0.17130092116E+03  0.17130000000E+03 0.  1.
      622    1    1    2    0    0  0.93481644027E-01 -0.69879725548E-01  0.33080730561E+01  0.37678865878E+01  0.18000000000E+01 0.  1.
</event>
<event>
 5   0  0.7764500E-01  0.9118800E+02  0.7818608E-02  0.1180000E+00
       11   -1    0    0    0    0  0.00000000000E+00  0.00000000000E+00  0.39999999673E+01  0.40000000000E+01  0.51109989000E-03 0. -1.
     -623   -1    0    0    0    0  0.00000000000E+00  0.00000000000E+00  0.12525980253E-10  0.17130000000E+03  0.17130000000E+03 0.  1.
       11    1    1    2    0    0 -0.51264124148E+00  0.18693126518E+00  0.10202481385E+01  0.11570008063E+01  0.51109989000E-03 0. -1.
     -623    1    1    2    0    0  0.19854758181E+00 -0.62406561272E-01  0.80790104826E+00  0.17130203157E+03  0.17130000000E+03 0.  1.
      622    1    1    2    0    0  0.31409365967E+00 -0.12452470391E+00  0.21718507806E+01  0.28409676243E+01  0.18000000000E+01 0. -1.
</event>
<event>
 5   0  0.7764500E-01  0.9118800E+02  0.7818608E-02  0.1180000E+00
       11   -1    0    0    0    0  0.00000000000E+00  0.00000000000E+00  0.39999999673E+01  0.40000000000E+01  0.51109989000E-03 0. -1.
     -623   -1    0    0    0    0  0.00000000000E+00  0.00000000000E+00  0.12525980253E-10  0.17130000000E+03  0.17130000000E+03 0.  1.
       11    1    1    2    0    0  0.65267507092E-01 -0.69093357856E-01  0.63990113377E-01  0.11458069390E+00  0.51109989000E-03 0. -1.
     -623    1    1    2    0    0  0.43584110805E+00  0.18932839916E+00  0.53316548527E+00  0.17130148881E+03  0.17130000000E+03 0.  1.
      622    1    1    2    0    0 -0.50110861515E+00 -0.12023504130E+00  0.34028443687E+01  0.38839304972E+01  0.18000000000E+01 0. -1.
</event>
<event>
 5   0  0.7764500E-01  0.9118800E+02  0.7818608E-02  0.1180000E+00
       11   -1    0    0    0    0  0.00000000000E+00  0.00000000000E+00  0.39999999673E+01  0.40000000000E+01  0.51109989000E-03 0. -1.
     -623   -1    0    0    0    0  0.00000000000E+00  0.00000000000E+00  0.12525980253E-10  0.17130000000E+03  0.17130000000E+03 0. -1.
       11    1    1    2    0    0 -0.24741224184E+00  0.17579688786E+00  0.12113448197E+00  0.32678920903E+00  0.51109989000E-03 0. -1.
     -623    1    1    2    0    0  0.17339726913E+00 -0.32703829091E+00  0.68337233767E+00  0.17130176303E+03  0.17130000000E+03 0. -1.
      622    1    1    2    0    0  0.74014972712E-01  0.15124140304E+00  0.31954931477E+01  0.36714477574E+01  0.18000000000E+01 0. -1.
</event>
<event>
 5   0  0.7764500E-01  0.9118800E+02  0.7818608E-02  0.1180000E+00
       11   -1    0    0    0    0  0.00000000000E+00  0.00000000000E+00  0.39999999673E+01  0.40000000000E+01  0.51109989000E-03 0.  1.
     -623   -1    0    0    0    0  0.00000000000E+00  0.00000000000E+00  0.12525980253E-10  0.17130000000E+03  0.17130000000E+03 0.  1.
       11    1    1    2    0    0  0.40642751832E+00 -0.17305075644E+00  0.58562579065E+00  0.73354462704E+00  0.51109989000E-03 0.  1.
     -623    1    1    2    0    0 -0.69722300276E+00  0.44315748105E+00  0.72192715489E+00  0.17130351335E+03  0.17130000000E+03 0.  1.
      622    1    1    2    0    0  0.29079548444E+00 -0.27010672461E+00  0.26924470218E+01  0.32629420194E+01  0.18000000000E+01 0.  1.
</event>
<event>
 5   0  0.7764500E-01  0.9118800E+02  0.7818608E-02  0.1180000E+00
       11   -1    0    0    0    0  0.00000000000E+00  0.00000000000E+00  0.39999999673E+01  0.40000000000E+01  0.51109989000E-03 0. -1.
     -623   -1    0    0    0    0  0.00000000000E+00  0.00000000000E+00  0.12525980253E-10  0.17130000000E+03  0.17130000000E+03 0. -1.
       11    1    1    2    0    0  0.87488593384E-01  0.96426409300E-01  0.16125222521E+00  0.20725551317E+00  0.51109989000E-03 0. -1.
     -623    1    1    2    0    0 -0.23473946352E+00 -0.43903498172E+00  0.52298144081E+00  0.17130152178E+03  0.17130000000E+03 0. -1.
      622    1    1    2    0    0  0.14725087014E+00  0.34260857242E+00  0.33157663013E+01  0.37912227075E+01  0.18000000000E+01 0. -1.
</event>
<event>
 5   0  0.7764500E-01  0.9118800E+02  0.7818608E-02  0.1180000E+00
       11   -1    0    0    0    0  0.00000000000E+00  0.00000000000E+00  0.39999999673E+01  0.40000000000E+01  0.51109989000E-03 0. -1.
     -623   -1    0    0    0    0  0.00000000000E+00  0.00000000000E+00  0.12525980253E-10  0.17130000000E+03  0.17130000000E+03 0. -1.
       11    1    1    2    0    0  0.21696769832E+00  0.56091678035E-01 -0.75094333748E-01  0.23634863791E+00  0.51109989000E-03 0. -1.
     -623    1    1    2    0    0 -0.28206596094E+00  0.84510134940E-01  0.77570897515E+00  0.17130200941E+03  0.17130000000E+03 0. -1.
      622    1    1    2    0    0  0.65098262626E-01 -0.14060181297E+00  0.32993853260E+01  0.37616419530E+01  0.18000000000E+01 0. -1.
</event>
<event>
 5   0  0.7764500E-01  0.9118800E+02  0.7818608E-02  0.1180000E+00
       11   -1    0    0    0    0  0.00000000000E+00  0.00000000000E+00  0.39999999673E+01  0.40000000000E+01  0.51109989000E-03 0. -1.
     -623   -1    0    0    0    0  0.00000000000E+00  0.00000000000E+00  0.12525980253E-10  0.17130000000E+03  0.17130000000E+03 0. -1.
       11    1    1    2    0    0 -0.28166357979E-01 -0.12762773292E+00  0.11525280097E+00  0.17425742821E+00  0.51109989000E-03 0. -1.
     -623    1    1    2    0    0 -0.11045404575E+00  0.30454753893E+00  0.51763220254E+00  0.17130108842E+03  0.17130000000E+03 0. -1.
      622    1    1    2    0    0  0.13862040373E+00 -0.17691980601E+00  0.33671149638E+01  0.38246541561E+01  0.18000000000E+01 0. -1.
</event>
<event>
 5   0  0.7764500E-01  0.9118800E+02  0.7818608E-02  0.1180000E+00
       11   -1    0    0    0    0  0.00000000000E+00  0.00000000000E+00  0.39999999673E+01  0.40000000000E+01  0.51109989000E-03 0.  1.
     -623   -1    0    0    0    0  0.00000000000E+00  0.00000000000E+00  0.12525980253E-10  0.17130000000E+03  0.17130000000E+03 0. -1.
       11    1    1    2    0    0 -0.40769442619E-01  0.26843542330E+00  0.48487834399E+00  0.55572204709E+00  0.51109989000E-03 0.  1.
     -623    1    1    2    0    0  0.40820171863E+00 -0.47852626748E+00  0.61194627990E+00  0.17130224778E+03  0.17130000000E+03 0. -1.
      622    1    1    2    0    0 -0.36743227601E+00  0.21009084418E+00  0.29031753435E+01  0.34420301735E+01  0.18000000000E+01 0.  1.
</event>
<event>
 5   0  0.7764500E-01  0.9118800E+02  0.7818608E-02  0.1180000E+00
       11   -1    0    0    0    0  0.00000000000E+00  0.00000000000E+00  0.39999999673E+01  0.40000000000E+01  0.51109989000E-03 0.  1.
     -623   -1    0    0    0    0  0.00000000000E+00  0.00000000000E+00  0.12525980253E-10  0.17130000000E+03  0.17130000000E+03 0. -1.
       11    1    1    2    0    0  0.20811603233E+00  0.42708980701E+00  0.28713096004E+00  0.55512380205E+00  0.51109989000E-03 0.  1.
     -623    1    1    2    0    0 -0.19344188573E+00 -0.11425441726E+00  0.79475706048E+00  0.17130199098E+03  0.17130000000E+03 0. -1.
      622    1    1    2    0    0 -0.14674146603E-01 -0.31283538975E+00  0.29181119468E+01  0.34428852211E+01  0.18000000000E+01 0.  1.
</event>
<event>
 5   0  0.7764500E-01  0.9118800E+02  0.7818608E-02  0.1180000E+00
       11   -1    0    0    0    0  0.00000000000E+00  0.00000000000E+00  0.39999999673E+01  0.40000000000E+01  0.51109989000E-03 0.  1.
     -623   -1    0    0    0    0  0.00000000000E+00  0.00000000000E+00  0.12525980253E-10  0.17130000000E+03  0.17130000000E+03 0.  1.
       11    1    1    2    0    0  0.57241021370E-01 -0.11431919294E+00  0.22332565051E+00  0.25733250824E+00  0.51109989000E-03 0.  1.
     -623    1    1    2    0    0  0.91544406013E+00  0.23147225345E+00  0.64952935862E+00  0.17130383389E+03  0.17130000000E+03 0.  1.
      622    1    1    2    0    0 -0.97268508150E+00 -0.11715306051E+00  0.31271449582E+01  0.37388336012E+01  0.18000000000E+01 0.  0.
</event>
<event>
 5   0  0.7764500E-01  0.9118800E+02  0.7818608E-02  0.1180000E+00
       11   -1    0    0    0    0  0.00000000000E+00  0.00000000000E+00  0.39999999673E+01  0.40000000000E+01  0.51109989000E-03 0.  1.
     -623   -1    0    0    0    0  0.00000000000E+00  0.00000000000E+00  0.12525980253E-10  0.17130000000E+03  0.17130000000E+03 0.  1.
       11    1    1    2    0    0 -0.36769797125E+00 -0.30222612831E+00  0.18139151086E+00  0.50935799996E+00  0.51109989000E-03 0.  1.
     -623    1    1    2    0    0  0.32068665832E+00 -0.44401332394E+00  0.92691531024E+00  0.17130338339E+03  0.17130000000E+03 0.  1.
      622    1    1    2    0    0  0.47011312929E-01  0.74623945225E+00  0.28916931463E+01  0.34872586133E+01  0.18000000000E+01 0.  1.
</event>
<event>
 5   0  0.7764500E-01  0.9118800E+02  0.7818608E-02  0.1180000E+00
       11   -1    0    0    0    0  0.00000000000E+00  0.00000000000E+00  0.39999999673E+01  0.40000000000E+01  0.51109989000E-03 0. -1.
     -623   -1    0    0    0    0  0.00000000000E+00  0.00000000000E+00  0.12525980253E-10  0.17130000000E+03  0.17130000000E+03 0.  1.
       11    1    1    2    0    0 -0.45105396096E-01  0.98396245623E-01  0.58156250604E-01  0.12287688397E+00  0.51109989000E-03 0. -1.
     -623    1    1    2    0    0 -0.18471784231E+00 -0.21871225075E+00  0.51885643881E+00  0.17130102500E+03  0.17130000000E+03 0.  1.
      622    1    1    2    0    0  0.22982323841E+00  0.12031600513E+00  0.34229872779E+01  0.38760981111E+01  0.18000000000E+01 0. -1.
</event>
<event>
 5   0  0.7764500E-01  0.9118800E+02  0.7818608E-02  0.1180000E+00
       11   -1    0    0    0    0  0.00000000000E+00  0.00000000000E+00  0.39999999673E+01  0.40000000000E+01  0.51109989000E-03 0.  1.
     -623   -1    0    0    0    0  0.00000000000E+00  0.00000000000E+00  0.12525980253E-10  0.17130000000E+03  0.17130000000E+03 0.  1.
       11    1    1    2    0    0  0.56263181756E-01  0.28042520743E+00  0.79235679284E+00  0.84239740678E+00  0.51109989000E-03 0.  1.
     -623    1    1    2    0    0 -0.23325870235E+00 -0.55208101794E+00  0.63640846476E+00  0.17130223063E+03  0.17130000000E+03 0.  1.
      622    1    1    2    0    0  0.17699552060E+00  0.27165581051E+00  0.25712347098E+01  0.31553719632E+01  0.18000000000E+01 0.  1.
</event>
<event>
 5   0  0.7764500E-01  0.9118800E+02  0.7818608E-02  0.1180000E+00
       11   -1    0    0    0    0  0.00000000000E+00  0.00000000000E+00  0.39999999673E+01  0.40000000000E+01  0.51109989000E-03 0. -1.
     -623   -1    0    0    0    0  0.00000000000E+00  0.00000000000E+00  0.12525980253E-10  0.17130000000E+03  0.17130000000E+03 0. -1.
       11    1    1    2    0    0 -0.30303992849E+00  0.29466505490E-02  0.10946423164E+01  0.11358186225E+01  0.51109989000E-03 0. -1.
     -623    1    1    2    0    0  0.91268950708E-01 -0.74623472864E+00  0.82076893596E+00  0.17130361601E+03  0.17130000000E+03 0. -1.
      622    1    1    2    0    0  0.21177097778E+00  0.74328807809E+00  0.20845887150E+01  0.28605653680E+01  0.18000000000E+01 0.  0.
</event>
<event>
 5   0  0.7764500E-01  0.9118800E+02  0.7818608E-02  0.1180000E+00
       11   -1    0    0    0    0  0.00000000000E+00  0.00000000000E+00  0.39999999673E+01  0.40000000000E+01  0.51109989000E-03 0. -1.
     -623   -1    0    0    0    0  0.00000000000E+00  0.00000000000E+00  0.12525980253E-10  0.17130000000E+03  0.17130000000E+03 0. -1.
       11    1    1    2    0    0 -0.26903370857E+00 -0.28243507562E+00  0.70378819262E+00  0.80465321076E+00  0.51109989000E-03 0. -1.
     -623    1    1    2    0    0  0.41571521540E-01  0.14362089027E+00  0.67125220803E+00  0.17130138042E+03  0.17130000000E+03 0. -1.
      622    1    1    2    0    0  0.22746218703E+00  0.13881418535E+00  0.26249595667E+01  0.31939663667E+01  0.18000000000E+01 0. -1.
</event>
<event>
 5   0  0.7764500E-01  0.9118800E+02  0.7818608E-02  0.1180000E+00
       11   -1    0    0    0    0  0.00000000000E+00  0.00000000000E+00  0.39999999673E+01  0.40000000000E+01  0.51109989000E-03 0.  1.
     -623   -1    0    0    0    0  0.00000000000E+00  0.00000000000E+00  0.12525980253E-10  0.17130000000E+03  0.17130000000E+03 0. -1.
       11    1    1    2    0    0 -0.14466695944E+00  0.77252611396E-01 -0.33280690813E-01  0.16734503496E+00  0.51109989000E-03 0.  1.
     -623    1    1    2    0    0  0.29104721559E+00 -0.11124557808E+00  0.65468600085E+00  0.17130153443E+03  0.17130000000E+03 0. -1.
      622    1    1    2    0    0 -0.14638025615E+00  0.33992966680E-01  0.33785946573E+01  0.38311205358E+01  0.18000000000E+01 0.  1.
</event>
<event>
 5   0  0.7764500E-01  0.9118800E+02  0.7818608E-02  0.1180000E+00
       11   -1    0    0    0    0  0.00000000000E+00  0.00000000000E+00  0.39999999673E+01  0.40000000000E+01  0.51109989000E-03 0.  1.
     -623   -1    0    0    0    0  0.00000000000E+00  0.00000000000E+00  0.12525980253E-10  0.17130000000E+03  0.17130000000E+03 0.  1.
       11    1    1    2    0    0 -0.11249017225E+00 -0.47085430981E-01  0.11405956847E+00  0.16697581575E+00  0.51109989000E-03 0.  1.
     -623    1    1    2    0    0 -0.67738229172E-01 -0.23635179858E-01  0.50826432286E+00  0.17130076906E+03  0.17130000000E+03 0.  1.
      622    1    1    2    0    0  0.18022840142E+00  0.70720610839E-01  0.33776760760E+01  0.38322551267E+01  0.18000000000E+01 0.  1.
</event>
<event>
 5   0  0.7764500E-01  0.9118800E+02  0.7818608E-02  0.1180000E+00
       11   -1    0    0    0    0  0.00000000000E+00  0.00000000000E+00  0.39999999673E+01  0.40000000000E+01  0.51109989000E-03 0.  1.
     -623   -1    0    0    0    0  0.00000000000E+00  0.00000000000E+00  0.12525980253E-10  0.17130000000E+03  0.17130000000E+03 0.  1.
       11    1    1    2    0    0  0.19706010367E+00  0.31726331680E+00  0.40570303777E+00  0.55143804069E+00  0.51109989000E-03 0.  1.
     -623    1    1    2    0    0 -0.29375865364E+00 -0.45831803061E+00  0.66025620053E+00  0.17130213743E+03  0.17130000000E+03 0.  1.
      622    1    1    2    0    0  0.96698549965E-01  0.14105471381E+00  0.29340407291E+01  0.34464245301E+01  0.18000000000E+01 0.  1.
</event>
<event>
 5   0  0.7764500E-01  0.9118800E+02  0.7818608E-02  0.1180000E+00
       11   -1    0    0    0    0  0.00000000000E+00  0.00000000000E+00  0.39999999673E+01  0.40000000000E+01  0.51109989000E-03 0.  1.
     -623   -1    0    0    0    0  0.00000000000E+00  0.00000000000E+00  0.12525980253E-10  0.17130000000E+03  0.17130000000E+03 0. -1.
       11    1    1    2    0    0 -0.35679755823E+00  0.44630597153E+00  0.91281748315E-01  0.57864163052E+00  0.51109989000E-03 0.  1.
     -623    1    1    2    0    0 -0.10251533511E+01 -0.14437156426E+01  0.15743601928E+01  0.17131638528E+03  0.17130000000E+03 0. -1.
      622    1    1    2    0    0  0.13819509093E+01  0.99740967110E+00  0.23343580263E+01  0.34049730928E+01  0.18000000000E+01 0.  1.
</event>
<event>
 5   0  0.7764500E-01  0.9118800E+02  0.7818608E-02  0.1180000E+00
       11   -1    0    0    0    0  0.00000000000E+00  0.00000000000E+00  0.39999999673E+01  0.40000000000E+01  0.51109989000E-03 0.  1.
     -623   -1    0    0    0    0  0.00000000000E+00  0.00000000000E+00  0.12525980253E-10  0.17130000000E+03  0.17130000000E+03 0.  1.
       11    1    1    2    0    0  0.22921282996E+00  0.12812115562E+00  0.25640003013E+00  0.36700788630E+00  0.51109989000E-03 0.  1.
     -623    1    1    2    0    0 -0.43567369515E+00 -0.25866709662E+00  0.59941452023E+00  0.17130179806E+03  0.17130000000E+03 0.  1.
      622    1    1    2    0    0  0.20646086520E+00  0.13054594100E+00  0.31441854170E+01  0.36311940554E+01  0.18000000000E+01 0.  1.
</event>
<event>
 5   0  0.7764500E-01  0.9118800E+02  0.7818608E-02  0.1180000E+00
       11   -1    0    0    0    0  0.00000000000E+00  0.00000000000E+00  0.39999999673E+01  0.40000000000E+01  0.51109989000E-03 0.  1.
     -623   -1    0    0    0    0  0.00000000000E+00  0.00000000000E+00  0.12525980253E-10  0.17130000000E+03  0.17130000000E+03 0.  1.
       11    1    1    2    0    0  0.51159525487E-01  0.22531866517E+00  0.24600997951E+00  0.33750106543E+00  0.51109989000E-03 0.  1.
     -623    1    1    2    0    0 -0.39962327903E+00 -0.62259951971E+00  0.61154692365E+00  0.17130268917E+03  0.17130000000E+03 0.  1.
      622    1    1    2    0    0  0.34846375355E+00  0.39728085453E+00  0.31424430642E+01  0.36598097596E+01  0.18000000000E+01 0.  1.
</event>
<event>
 5   0  0.7764500E-01  0.9118800E+02  0.7818608E-02  0.1180000E+00
       11   -1    0    0    0    0  0.00000000000E+00  0.00000000000E+00  0.39999999673E+01  0.40000000000E+01  0.51109989000E-03 0. -1.
     -623   -1    0    0    0    0  0.00000000000E+00  0.00000000000E+00  0.12525980253E-10  0.17130000000E+03  0.17130000000E+03 0. -1.
       11    1    1    2    0    0 -0.12528434476E+00  0.36128690263E+00  0.58246658909E+00  0.69677254659E+00  0.51109989000E-03 0. -1.
     -623    1    1    2    0    0  0.22685098760E+00  0.63692954710E-01  0.68435048895E+00  0.17130152905E+03  0.17130000000E+03 0. -1.
      622    1    1    2    0    0 -0.10156664284E+00 -0.42497985734E+00  0.27331828893E+01  0.33016984067E+01  0.18000000000E+01 0.  0.
</event>
<event>
 5   0  0.7764500E-01  0.9118800E+02  0.7818608E-02  0.1180000E+00
       11   -1    0    0    0    0  0.00000000000E+00  0.00000000000E+00  0.39999999673E+01  0.40000000000E+01  0.51109989000E-03 0.  1.
     -623   -1    0    0    0    0  0.00000000000E+00  0.00000000000E+00  0.12525980253E-10  0.17130000000E+03  0.17130000000E+03 0.  1.
       11    1    1    2    0    0  0.56756639025E+00  0.10519419295E+00  0.82651900107E+00  0.10081326033E+01  0.51109989000E-03 0.  1.
     -623    1    1    2    0    0 -0.25593099034E+00  0.36981412887E-01  0.81100579152E+00  0.17130211499E+03  0.17130000000E+03 0.  1.
      622    1    1    2    0    0 -0.31163539991E+00 -0.14217560584E+00  0.23624751748E+01  0.29897524106E+01  0.18000000000E+01 0.  1.
</event>
<event>
 5   0  0.7764500E-01  0.9118800E+02  0.7818608E-02  0.1180000E+00
       11   -1    0    0    0    0  0.00000000000E+00  0.00000000000E+00  0.39999999673E+01  0.40000000000E+01  0.51109989000E-03 0. -1.
     -623   -1    0    0    0    0  0.00000000000E+00  0.00000000000E+00  0.12525980253E-10  0.17130000000E+03  0.17130000000E+03 0.  1.
       11    1    1    2    0    0 -0.21721037445E-01 -0.26704242808E-01 -0.81349599566E-01  0.88334243781E-01  0.51109989000E-03 0. -1.
     -623    1    1    2    0    0  0.14841356693E+00  0.23356782742E+00  0.61843098793E+00  0.17130133986E+03  0.17130000000E+03 0.  1.
      622    1    1    2    0    0 -0.12669252948E+00 -0.20686358461E+00  0.34629185790E+01  0.39103258975E+01  0.18000000000E+01 0. -1.
</event>
<event>
 5   0  0.7764500E-01  0.9118800E+02  0.7818608E-02  0.1180000E+00
       11   -1    0    0    0    0  0.00000000000E+00  0.00000000000E+00  0.39999999673E+01  0.40000000000E+01  0.51109989000E-03 0. -1.
     -623   -1    0    0    0    0  0.00000000000E+00  0.00000000000E+00  0.12525980253E-10  0.17130000000E+03  0.17130000000E+03 0.  1.
       11    1    1    2    0    0  0.52155931667E-01 -0.25414271093E+00  0.30555906075E+00  0.40084331048E+00  0.51109989000E-03 0. -1.
     -623    1    1    2    0    0 -0.22720315057E+00  0.22773576029E+00  0.58425678634E+00  0.17130129842E+03  0.17130000000E+03 0.  1.
      622    1    1    2    0    0  0.17504721891E+00  0.26406950639E-01  0.31101841203E+01  0.35978582682E+01  0.18000000000E+01 0. -1.
</event>
<event>
 5   0  0.7764500E-01  0.9118800E+02  0.7818608E-02  0.1180000E+00
       11   -1    0    0    0    0  0.00000000000E+00  0.00000000000E+00  0.39999999673E+01  0.40000000000E+01  0.51109989000E-03 0. -1.
     -623   -1    0    0    0    0  0.00000000000E+00  0.00000000000E+00  0.12525980253E-10  0.17130000000E+03  0.17130000000E+03 0.  1.
       11    1    1    2    0    0 -0.11569529435E+00 -0.20431032489E+00  0.41000512424E+00  0.47247494443E+00  0.51109989000E-03 0. -1.
     -623    1    1    2    0    0 -0.23367816425E+00  0.29316964233E+00  0.57940192469E+00  0.17130139013E+03  0.17130000000E+03 0.  1.
      622    1    1    2    0    0  0.34937345861E+00 -0.88859317434E-01  0.30105929184E+01  0.35261349254E+01  0.18000000000E+01 0. -1.
</event>
<event>
 5   0  0.7764500E-01  0.9118800E+02  0.7818608E-02  0.1180000E+00
       11   -1    0    0    0    0  0.00000000000E+00  0.00000000000E+00  0.39999999673E+01  0.40000000000E+01  0.51109989000E-03 0.  1.
     -623   -1    0    0    0    0  0.00000000000E+00  0.00000000000E+00  0.12525980253E-10  0.17130000000E+03  0.17130000000E+03 0. -1.
       11    1    1    2    0    0 -0.65711226711E-01  0.30513987556E-02  0.51843114976E-01  0.83757066225E-01  0.51109989000E-03 0.  1.
     -623    1    1    2    0    0  0.28674974981E-01 -0.40358669118E-01  0.47122385406E+00  0.17130065529E+03  0.17130000000E+03 0. -1.
      622    1    1    2    0    0  0.37036251730E-01  0.37307270363E-01  0.34769329983E+01  0.39155876432E+01  0.18000000000E+01 0.  1.
</event>
<event>
 5   0  0.7764500E-01  0.9118800E+02  0.7818608E-02  0.1180000E+00
       11   -1    0    0    0    0  0.00000000000E+00  0.00000000000E+00  0.39999999673E+01  0.40000000000E+01  0.51109989000E-03 0.  1.
     -623   -1    0    0    0    0  0.00000000000E+00  0.00000000000E+00  0.12525980253E-10  0.17130000000E+03  0.17130000000E+03 0. -1.
       11    1    1    2    0    0  0.37297530572E+00  0.31351454486E+00  0.76811694908E+00  0.90961852290E+00  0.51109989000E-03 0.  1.
     -623    1    1    2    0    0 -0.38203271714E+00 -0.12319545854E+00  0.72955421596E+00  0.17130202385E+03  0.17130000000E+03 0. -1.
      622    1    1    2    0    0  0.90574114249E-02 -0.19031908632E+00  0.25023288023E+01  0.30883576260E+01  0.18000000000E+01 0.  1.
</event>
<event>
 5   0  0.7764500E-01  0.9118800E+02  0.7818608E-02  0.1180000E+00
       11   -1    0    0    0    0  0.00000000000E+00  0.00000000000E+00  0.39999999673E+01  0.40000000000E+01  0.51109989000E-03 0.  1.
     -623   -1    0    0    0    0  0.00000000000E+00  0.00000000000E+00  0.12525980253E-10  0.17130000000E+03  0.17130000000E+03 0. -1.
       11    1    1    2    0    0 -0.81924822300E-01  0.17301064962E+00  0.19347697295E+00  0.27217266886E+00  0.51109989000E-03 0.  1.
     -623    1    1    2    0    0  0.24218282613E-01 -0.42439740909E+00  0.55389877860E+00  0.17130142295E+03  0.17130000000E+03 0. -1.
      622    1    1    2    0    0  0.57706539687E-01  0.25138675947E+00  0.32526242158E+01  0.37264043845E+01  0.18000000000E+01 0.  1.
</event>
<event>
 5   0  0.7764500E-01  0.9118800E+02  0.7818608E-02  0.1180000E+00
       11   -1    0    0    0    0  0.00000000000E+00  0.00000000000E+00  0.39999999673E+01  0.40000000000E+01  0.51109989000E-03 0.  1.
     -623   -1    0    0    0    0  0.00000000000E+00  0.00000000000E+00  0.12525980253E-10  0.17130000000E+03  0.17130000000E+03 0. -1.
       11    1    1    2    0    0 -0.15251423722E+00  0.66420274217E-01  0.61431128673E-01  0.17733101865E+00  0.51109989000E-03 0.  1.
     -623    1    1    2    0    0  0.24804688661E+00  0.29828510833E-01  0.57022202492E+00  0.17130113126E+03  0.17130000000E+03 0. -1.
      622    1    1    2    0    0 -0.95532649388E-01 -0.96248785050E-01  0.33683468138E+01  0.38215377237E+01  0.18000000000E+01 0.  1.
</event>
<event>
 5   0  0.7764500E-01  0.9118800E+02  0.7818608E-02  0.1180000E+00
       11   -1    0    0    0    0  0.00000000000E+00  0.00000000000E+00  0.39999999673E+01  0.40000000000E+01  0.51109989000E-03 0. -1.
     -623   -1    0    0    0    0  0.00000000000E+00  0.00000000000E+00  0.12525980253E-10  0.17130000000E+03  0.17130000000E+03 0.  1.
       11    1    1    2    0    0  0.54440296500E-01  0.11725580846E+00  0.10143472033E+00  0.16432265277E+00  0.51109989000E-03 0. -1.
     -623    1    1    2    0    0  0.34830832399E+00  0.12322147666E+00  0.54555680350E+00  0.17130126717E+03  0.17130000000E+03 0.  1.
      622    1    1    2    0    0 -0.40274862049E+00 -0.24047728511E+00  0.33530084435E+01  0.38344101761E+01  0.18000000000E+01 0. -1.
</event>
<event>
 5   0  0.7764500E-01  0.9118800E+02  0.7818608E-02  0.1180000E+00
       11   -1    0    0    0    0  0.00000000000E+00  0.00000000000E+00  0.39999999673E+01  0.40000000000E+01  0.51109989000E-03 0.  1.
     -623   -1    0    0    0    0  0.00000000000E+00  0.00000000000E+00  0.12525980253E-10  0.17130000000E+03  0.17130000000E+03 0.  1.
       11    1    1    2    0    0  0.14358247206E+00 -0.63418181654E-02  0.42776320315E+00  0.45126241161E+00  0.51109989000E-03 0.  1.
     -623    1    1    2    0    0  0.33501925987E+00  0.21335975850E+00  0.56028510372E+00  0.17130137676E+03  0.17130000000E+03 0.  1.
      622    1    1    2    0    0 -0.47860173194E+00 -0.20701794034E+00  0.30119516605E+01  0.35473608289E+01  0.18000000000E+01 0.  1.
</event>
<event>
 5   0  0.7764500E-01  0.9118800E+02  0.7818608E-02  0.1180000E+00
       11   -1    0    0    0    0  0.00000000000E+00  0.00000000000E+00  0.39999999673E+01  0.40000000000E+01  0.51109989000E-03 0. -1.
     -623   -1    0    0    0    0  0.00000000000E+00  0.00000000000E+00  0.12525980253E-10  0.17130000000E+03  0.17130000000E+03 0.  1.
       11    1    1    2    0    0 -0.23120999022E-01  0.24005404072E-01  0.27648197676E+00  0.27848408342E+00  0.51109989000E-03 0. -1.
     -623    1    1    2    0    0 -0.47932113158E+00 -0.52538991573E+00  0.54730072438E+00  0.17130235060E+03  0.17130000000E+03 0.  1.
      622    1    1    2    0    0  0.50244213060E+00  0.50138451166E+00  0.31762172662E+01  0.37191653157E+01  0.18000000000E+01 0. -1.
</event>
<event>
 5   0  0.7764500E-01  0.9118800E+02  0.7818608E-02  0.1180000E+00
       11   -1    0    0    0    0  0.00000000000E+00  0.00000000000E+00  0.39999999673E+01  0.40000000000E+01  0.51109989000E-03 0.  1.
     -623   -1    0    0    0    0  0.00000000000E+00  0.00000000000E+00  0.12525980253E-10  0.17130000000E+03  0.17130000000E+03 0. -1.
       11    1    1    2    0    0  0.97399793882E-01  0.31582878384E+00  0.18566649557E-01  0.33102797805E+00  0.51109989000E-03 0.  1.
     -623    1    1    2    0    0  0.68862705129E-01 -0.85067665771E-01  0.79921269388E+00  0.17130189935E+03  0.17130000000E+03 0. -1.
      622    1    1    2    0    0 -0.16626249901E+00 -0.23076111807E+00  0.31822206239E+01  0.36670726761E+01  0.18000000000E+01 0.  1.
</event>
<event>
 5   0  0.7764500E-01  0.9118800E+02  0.7818608E-02  0.1180000E+00
       11   -1    0    0    0    0  0.00000000000E+00  0.00000000000E+00  0.39999999673E+01  0.40000000000E+01  0.51109989000E-03 0.  1.
     -623   -1    0    0    0    0  0.00000000000E+00  0.00000000000E+00  0.12525980253E-10  0.17130000000E+03  0.17130000000E+03 0.  1.
       11    1    1    2    0    0  0.42168093359E+00  0.44360796593E-02  0.41404808066E+00  0.59099116988E+00  0.51109989000E-03 0.  1.
     -623    1    1    2    0    0  0.14163475920E-01 -0.39886378034E+00  0.75375563885E+00  0.17130212328E+03  0.17130000000E+03 0.  1.
      622    1    1    2    0    0 -0.43584440951E+00  0.39442770068E+00  0.28321962479E+01  0.34068855494E+01  0.18000000000E+01 0.  1.
</event>
<event>
 5   0  0.7764500E-01  0.9118800E+02  0.7818608E-02  0.1180000E+00
       11   -1    0    0    0    0  0.00000000000E+00  0.00000000000E+00  0.39999999673E+01  0.40000000000E+01  0.51109989000E-03 0. -1.
     -623   -1    0    0    0    0  0.00000000000E+00  0.00000000000E+00  0.12525980253E-10  0.17130000000E+03  0.17130000000E+03 0. -1.
       11    1    1    2    0    0  0.25529780370E+00  0.10275641661E+00  0.49482257996E+00  0.56620269921E+00  0.51109989000E-03 0. -1.
     -623    1    1    2    0    0 -0.12910452174E+00 -0.30984827131E+00  0.59264328862E+00  0.17130135405E+03  0.17130000000E+03 0. -1.
      622    1    1    2    0    0 -0.12619328196E+00  0.20709185470E+00  0.29125340988E+01  0.34324432489E+01  0.18000000000E+01 0. -1.
</event>
<event>
 5   0  0.7764500E-01  0.9118800E+02  0.7818608E-02  0.1180000E+00
       11   -1    0    0    0    0  0.00000000000E+00  0.00000000000E+00  0.39999999673E+01  0.40000000000E+01  0.51109989000E-03 0. -1.
     -623   -1    0    0    0    0  0.00000000000E+00  0.00000000000E+00  0.12525980253E-10  0.17130000000E+03  0.17130000000E+03 0. -1.
       11    1    1    2    0    0 -0.27775535720E+00  0.32521878888E+00  0.93515137859E+00  0.10283110722E+01  0.51109989000E-03 0. -1.
     -623    1    1    2    0    0  0.20296297450E+00 -0.21222578583E+00  0.70636922375E+00  0.17130170808E+03  0.17130000000E+03 0. -1.
      622    1    1    2    0    0  0.74792382697E-01 -0.11299300304E+00  0.23584793650E+01  0.29699808475E+01  0.18000000000E+01 0. -1.
</event>
<event>
 5   0  0.7764500E-01  0.9118800E+02  0.7818608E-02  0.1180000E+00
       11   -1    0    0    0    0  0.00000000000E+00  0.00000000000E+00  0.39999999673E+01  0.40000000000E+01  0.51109989000E-03 0. -1.
     -623   -1    0    0    0    0  0.00000000000E+00  0.00000000000E+00  0.12525980253E-10  0.17130000000E+03  0.17130000000E+03 0. -1.
       11    1    1    2    0    0 -0.15782206342E+00 -0.94959421230E-02  0.28006929564E+00  0.32161630587E+00  0.51109989000E-03 0. -1.
     -623    1    1    2    0    0  0.27711241969E+00 -0.21628949958E+00  0.52356414876E+00  0.17130116080E+03  0.17130000000E+03 0. -1.
      622    1    1    2    0    0 -0.11929035627E+00  0.22578544170E+00  0.31963665230E+01  0.36772228929E+01  0.18000000000E+01 0. -1.
</event>
<event>
 5   0  0.7764500E-01  0.9118800E+02  0.7818608E-02  0.1180000E+00
       11   -1    0    0    0    0  0.00000000000E+00  0.00000000000E+00  0.39999999673E+01  0.40000000000E+01  0.51109989000E-03 0.  1.
     -623   -1    0    0    0    0  0.00000000000E+00  0.00000000000E+00  0.12525980253E-10  0.17130000000E+03  0.17130000000E+03 0.  1.
       11    1    1    2    0    0 -0.36765430110E+00 -0.22342704121E+00  0.27755342533E+00  0.51198192644E+00  0.51109989000E-03 0.  1.
     -623    1    1    2    0    0  0.65611078949E+00 -0.30467197478E-01  0.76305991812E+00  0.17130295873E+03  0.17130000000E+03 0.  1.
      622    1    1    2    0    0 -0.28845648839E+00  0.25389423869E+00  0.29593866239E+01  0.34850593424E+01  0.18000000000E+01 0.  1.
</event>
<event>
 5   0  0.7764500E-01  0.9118800E+02  0.7818608E-02  0.1180000E+00
       11   -1    0    0    0    0  0.00000000000E+00  0.00000000000E+00  0.39999999673E+01  0.40000000000E+01  0.51109989000E-03 0.  1.
     -623   -1    0    0    0    0  0.00000000000E+00  0.00000000000E+00  0.12525980253E-10  0.17130000000E+03  0.17130000000E+03 0.  1.
       11    1    1    2    0    0 -0.88951812072E-01  0.61897067229E-01  0.19277210175E+00  0.22114478570E+00  0.51109989000E-03 0.  1.
     -623    1    1    2    0    0  0.36201378715E-01 -0.32346461524E+00  0.49652218727E+00  0.17130102882E+03  0.17130000000E+03 0.  1.
      622    1    1    2    0    0  0.52750433357E-01  0.26156754801E+00  0.33107056783E+01  0.37778263961E+01  0.18000000000E+01 0.  1.
</event>
<event>
 5   0  0.7764500E-01  0.9118800E+02  0.7818608E-02  0.1180000E+00
       11   -1    0    0    0    0  0.00000000000E+00  0.00000000000E+00  0.39999999673E+01  0.40000000000E+01  0.51109989000E-03 0.  1.
     -623   -1    0    0    0    0  0.00000000000E+00  0.00000000000E+00  0.12525980253E-10  0.17130000000E+03  0.17130000000E+03 0.  1.
       11    1    1    2    0    0  0.30341934418E+00  0.12474103929E+00  0.66336231454E+00  0.74004962461E+00  0.51109989000E-03 0.  1.
     -623    1    1    2    0    0 -0.33856288387E-01 -0.22836939469E-01  0.63543174072E+00  0.17130118342E+03  0.17130000000E+03 0.  1.
      622    1    1    2    0    0 -0.26956305580E+00 -0.10190409982E+00  0.27012059121E+01  0.32587669549E+01  0.18000000000E+01 0.  1.
</event>
<event>
 5   0  0.7764500E-01  0.9118800E+02  0.7818608E-02  0.1180000E+00
       11   -1    0    0    0    0  0.00000000000E+00  0.00000000000E+00  0.39999999673E+01  0.40000000000E+01  0.51109989000E-03 0. -1.
     -623   -1    0    0    0    0  0.00000000000E+00  0.00000000000E+00  0.12525980253E-10  0.17130000000E+03  0.17130000000E+03 0. -1.
       11    1    1    2    0    0 -0.20557038671E-01 -0.76126980248E-01  0.73326152015E-01  0.10767959301E+00  0.51109989000E-03 0. -1.
     -623    1    1    2    0    0 -0.76536532375E-01  0.27992034435E+00  0.48400571107E+00  0.17130092958E+03  0.17130000000E+03 0. -1.
      622    1    1    2    0    0  0.97093571046E-01 -0.20379336411E+00  0.34426681043E+01  0.38913908276E+01  0.18000000000E+01 0. -1.
</event>
<event>
 5   0  0.7764500E-01  0.9118800E+02  0.7818608E-02  0.1180000E+00
       11   -1    0    0    0    0  0.00000000000E+00  0.00000000000E+00  0.39999999673E+01  0.40000000000E+01  0.51109989000E-03 0.  1.
     -623   -1    0    0    0    0  0.00000000000E+00  0.00000000000E+00  0.12525980253E-10  0.17130000000E+03  0.17130000000E+03 0. -1.
       11    1    1    2    0    0 -0.19980567019E-01 -0.17071533851E+00  0.37937151345E-01  0.17601829035E+00  0.51109989000E-03 0.  1.
     -623    1    1    2    0    0 -0.83780021829E-01 -0.22588633964E+00  0.61466849197E+00  0.17130127221E+03  0.17130000000E+03 0. -1.
      622    1    1    2    0    0  0.10376058885E+00  0.39660167815E+00  0.33473943240E+01  0.38227094987E+01  0.18000000000E+01 0.  1.
</event>
<event>
 5   0  0.7764500E-01  0.9118800E+02  0.7818608E-02  0.1180000E+00
       11   -1    0    0    0    0  0.00000000000E+00  0.00000000000E+00  0.39999999673E+01  0.40000000000E+01  0.51109989000E-03 0. -1.
     -623   -1    0    0    0    0  0.00000000000E+00  0.00000000000E+00  0.12525980253E-10  0.17130000000E+03  0.17130000000E+03 0. -1.
       11    1    1    2    0    0 -0.20165701197E+00 -0.16618459270E+00  0.20070067937E+00  0.32949035380E+00  0.51109989000E-03 0. -1.
     -623    1    1    2    0    0  0.25575924509E+00 -0.30686225096E+00  0.63800173242E+00  0.17130165388E+03  0.17130000000E+03 0. -1.
      622    1    1    2    0    0 -0.54102233123E-01  0.47304684365E+00  0.31612975556E+01  0.36688557621E+01  0.18000000000E+01 0. -1.
</event>
<event>
 5   0  0.7764500E-01  0.9118800E+02  0.7818608E-02  0.1180000E+00
       11   -1    0    0    0    0  0.00000000000E+00  0.00000000000E+00  0.39999999673E+01  0.40000000000E+01  0.51109989000E-03 0. -1.
     -623   -1    0    0    0    0  0.00000000000E+00  0.00000000000E+00  0.12525980253E-10  0.17130000000E+03  0.17130000000E+03 0.  1.
       11    1    1    2    0    0 -0.12009729779E+00 -0.18313866109E+00  0.67812841510E+00  0.71261598264E+00  0.51109989000E-03 0. -1.
     -623    1    1    2    0    0  0.46897755974E+00 -0.21734991218E-02  0.60163788370E+00  0.17130169851E+03  0.17130000000E+03 0.  1.
      622    1    1    2    0    0 -0.34888026195E+00  0.18531216022E+00  0.27202336686E+01  0.32856855062E+01  0.18000000000E+01 0. -1.
</event>
<event>
 5   0  0.7764500E-01  0.9118800E+02  0.7818608E-02  0.1180000E+00
       11   -1    0    0    0    0  0.00000000000E+00  0.00000000000E+00  0.39999999673E+01  0.40000000000E+01  0.51109989000E-03 0. -1.
     -623   -1    0    0    0    0  0.00000000000E+00  0.00000000000E+00  0.12525980253E-10  0.17130000000E+03  0.17130000000E+03 0.  1.
       11    1    1    2    0    0  0.16114280034E+00  0.33219582728E+00  0.39736423463E+00  0.54242019316E+00  0.51109989000E-03 0. -1.
     -623    1    1    2    0    0 -0.11702028598E+01  0.87174916232E-01  0.86807540341E+00  0.17130621859E+03  0.17130000000E+03 0.  1.
      622    1    1    2    0    0  0.10090600595E+01 -0.41937074351E+00  0.27345603293E+01  0.34513612125E+01  0.18000000000E+01 0. -1.
</event>
<event>
 5   0  0.7764500E-01  0.9118800E+02  0.7818608E-02  0.1180000E+00
       11   -1    0    0    0    0  0.00000000000E+00  0.00000000000E+00  0.39999999673E+01  0.40000000000E+01  0.51109989000E-03 0.  1.
     -623   -1    0    0    0    0  0.00000000000E+00  0.00000000000E+00  0.12525980253E-10  0.17130000000E+03  0.17130000000E+03 0. -1.
       11    1    1    2    0    0  0.53810570083E-01  0.27990548782E-01 -0.12812086725E+00  0.14175424551E+00  0.51109989000E-03 0.  1.
     -623    1    1    2    0    0  0.34019189893E-01  0.19066760798E+00  0.72549866658E+00  0.17130164582E+03  0.17130000000E+03 0. -1.
      622    1    1    2    0    0 -0.87829759976E-01 -0.21865815676E+00  0.34026221680E+01  0.38565999371E+01  0.18000000000E+01 0.  1.
</event>
<event>
 5   0  0.7764500E-01  0.9118800E+02  0.7818608E-02  0.1180000E+00
       11   -1    0    0    0    0  0.00000000000E+00  0.00000000000E+00  0.39999999673E+01  0.40000000000E+01  0.51109989000E-03 0.  1.
     -623   -1    0    0    0    0  0.00000000000E+00  0.00000000000E+00  0.12525980253E-10  0.17130000000E+03  0.17130000000E+03 0.  1.
       11    1    1    2    0    0  0.21177962689E+00 -0.20915467422E-01  0.50764160305E+00  0.55044375327E+00  0.51109989000E-03 0.  1.
     -623    1    1    2    0    0 -0.32590783789E+00  0.11628484132E+00  0.55489216918E+00  0.17130124822E+03  0.17130000000E+03 0.  1.
      622    1    1    2    0    0  0.11412821100E+00 -0.95369373899E-01  0.29374661951E+01  0.34483080218E+01  0.18000000000E+01 0.  1.
</event>
<event>
 5   0  0.7764500E-01  0.9118800E+02  0.7818608E-02  0.1180000E+00
       11   -1    0    0    0    0  0.00000000000E+00  0.00000000000E+00  0.39999999673E+01  0.40000000000E+01  0.51109989000E-03 0. -1.
     -623   -1    0    0    0    0  0.00000000000E+00  0.00000000000E+00  0.12525980253E-10  0.17130000000E+03  0.17130000000E+03 0.  1.
       11    1    1    2    0    0 -0.33418893969E+00  0.16943264634E+00  0.55697753962E+00  0.67127781873E+00  0.51109989000E-03 0. -1.
     -623    1    1    2    0    0  0.21731035664E-01 -0.85546370314E-01  0.66326953162E+00  0.17130130682E+03  0.17130000000E+03 0.  1.
      622    1    1    2    0    0  0.31245790402E+00 -0.83886276030E-01  0.27797528961E+01  0.33274153652E+01  0.18000000000E+01 0. -1.
</event>
<event>
 5   0  0.7764500E-01  0.9118800E+02  0.7818608E-02  0.1180000E+00
       11   -1    0    0    0    0  0.00000000000E+00  0.00000000000E+00  0.39999999673E+01  0.40000000000E+01  0.51109989000E-03 0. -1.
     -623   -1    0    0    0    0  0.00000000000E+00  0.00000000000E+00  0.12525980253E-10  0.17130000000E+03  0.17130000000E+03 0.  1.
       11    1    1    2    0    0  0.13103779382E-01 -0.14375970588E+00  0.25795774817E-01  0.14664325859E+00  0.51109989000E-03 0. -1.
     -623    1    1    2    0    0  0.18192195920E+00  0.13256305417E+00  0.57396173808E+00  0.17130110946E+03  0.17130000000E+03 0.  1.
      622    1    1    2    0    0 -0.19502573858E+00  0.11196651712E-01  0.34002424545E+01  0.38522472860E+01  0.18000000000E+01 0. -1.
</event>
<event>
 5   0  0.7764500E-01  0.9118800E+02  0.7818608E-02  0.1180000E+00
       11   -1    0    0    0    0  0.00000000000E+00  0.00000000000E+00  0.39999999673E+01  0.40000000000E+01  0.51109989000E-03 0.  1.
     -623   -1    0    0    0    0  0.00000000000E+00  0.00000000000E+00  0.12525980253E-10  0.17130000000E+03  0.17130000000E+03 0. -1.
       11    1    1    2    0    0  0.31933725581E-01 -0.17606681433E+00  0.82796746678E-01  0.19716705714E+00  0.51109989000E-03 0.  1.
     -623    1    1    2    0    0 -0.70893025879E-01  0.37652269809E+00  0.57516234841E+00  0.17130139406E+03  0.17130000000E+03 0. -1.
      622    1    1    2    0    0  0.38959300297E-01 -0.20045588376E+00  0.33420408723E+01  0.38014388829E+01  0.18000000000E+01 0.  1.
</event>
<event>
 5   0  0.7764500E-01  0.9118800E+02  0.7818608E-02  0.1180000E+00
       11   -1    0    0    0    0  0.00000000000E+00  0.00000000000E+00  0.39999999673E+01  0.40000000000E+01  0.51109989000E-03 0. -1.
     -623   -1    0    0    0    0  0.00000000000E+00  0.00000000000E+00  0.12525980253E-10  0.17130000000E+03  0.17130000000E+03 0.  1.
       11    1    1    2    0    0 -0.86342901067E-01  0.17321621297E-01  0.65615047219E-01  0.10982135846E+00  0.51109989000E-03 0. -1.
     -623    1    1    2    0    0  0.55761059488E-01  0.95788736045E-01  0.48850872453E+00  0.17130073241E+03  0.17130000000E+03 0.  1.
      622    1    1    2    0    0  0.30581841579E-01 -0.11311035734E+00  0.34458761956E+01  0.38894462276E+01  0.18000000000E+01 0. -1.
</event>
<event>
 5   0  0.7764500E-01  0.9118800E+02  0.7818608E-02  0.1180000E+00
       11   -1    0    0    0    0  0.00000000000E+00  0.00000000000E+00  0.39999999673E+01  0.40000000000E+01  0.51109989000E-03 0.  1.
     -623   -1    0    0    0    0  0.00000000000E+00  0.00000000000E+00  0.12525980253E-10  0.17130000000E+03  0.17130000000E+03 0.  1.
       11    1    1    2    0    0  0.10018095353E+00 -0.44431389365E-01  0.61509168848E+00  0.62477869543E+00  0.51109989000E-03 0.  1.
     -623    1    1    2    0    0 -0.22000970502E+00  0.39842013535E+00  0.55607813891E+00  0.17130150719E+03  0.17130000000E+03 0.  1.
      622    1    1    2    0    0  0.11982875148E+00 -0.35398874599E+00  0.28288301400E+01  0.33737141140E+01  0.18000000000E+01 0.  0.
</event>
<event>
 5   0  0.7764500E-01  0.9118800E+02  0.7818608E-02  0.1180000E+00
       11   -1    0    0    0    0  0.00000000000E+00  0.00000000000E+00  0.39999999673E+01  0.40000000000E+01  0.51109989000E-03 0.  1.
     -623   -1    0    0    0    0  0.00000000000E+00  0.00000000000E+00  0.12525980253E-10  0.17130000000E+03  0.17130000000E+03 0.  1.
       11    1    1    2    0    0  0.38358656262E-01 -0.57801597512E-01 -0.13815956564E-01  0.70735797613E-01  0.51109989000E-03 0.  1.
     -623    1    1    2    0    0  0.14139792935E+00 -0.16873321404E+00  0.53418510950E+00  0.17130097436E+03  0.17130000000E+03 0.  1.
      622    1    1    2    0    0 -0.17975658562E+00  0.22653481155E+00  0.34796308144E+01  0.39282898385E+01  0.18000000000E+01 0.  1.
</event>
<event>
 5   0  0.7764500E-01  0.9118800E+02  0.7818608E-02  0.1180000E+00
       11   -1    0    0    0    0  0.00000000000E+00  0.00000000000E+00  0.39999999673E+01  0.40000000000E+01  0.51109989000E-03 0. -1.
     -623   -1    0    0    0    0  0.00000000000E+00  0.00000000000E+00  0.12525980253E-10  0.17130000000E+03  0.17130000000E+03 0.  1.
       11    1    1    2    0    0  0.10393271494E+00 -0.26306495158E+00  0.19019020576E+00  0.34084857866E+00  0.51109989000E-03 0. -1.
     -623    1    1    2    0    0  0.33526083580E+00  0.17663271851E+00  0.65755230317E+00  0.17130168118E+03  0.17130000000E+03 0.  1.
      622    1    1    2    0    0 -0.43919355075E+00  0.86432233077E-01  0.31522574584E+01  0.36574702446E+01  0.18000000000E+01 0. -1.
</event>
<event>
 5   0  0.7764500E-01  0.9118800E+02  0.7818608E-02  0.1180000E+00
       11   -1    0    0    0    0  0.00000000000E+00  0.00000000000E+00  0.39999999673E+01  0.40000000000E+01  0.51109989000E-03 0. -1.
     -623   -1    0    0    0    0  0.00000000000E+00  0.00000000000E+00  0.12525980253E-10  0.17130000000E+03  0.17130000000E+03 0. -1.
       11    1    1    2    0    0 -0.36202716814E+00  0.10468268176E+00  0.15229256832E+00  0.40646699979E+00  0.51109989000E-03 0. -1.
     -623    1    1    2    0    0  0.31804366252E+00 -0.39611707948E+00  0.75428406917E+00  0.17130241389E+03  0.17130000000E+03 0. -1.
      622    1    1    2    0    0  0.43983505620E-01  0.29143439772E+00  0.30934233299E+01  0.35911191090E+01  0.18000000000E+01 0. -1.
</event>
<event>
 5   0  0.7764500E-01  0.9118800E+02  0.7818608E-02  0.1180000E+00
       11   -1    0    0    0    0  0.00000000000E+00  0.00000000000E+00  0.39999999673E+01  0.40000000000E+01  0.51109989000E-03 0. -1.
     -623   -1    0    0    0    0  0.00000000000E+00  0.00000000000E+00  0.12525980253E-10  0.17130000000E+03  0.17130000000E+03 0. -1.
       11    1    1    2    0    0  0.11415120682E+00  0.22609043279E-01  0.17274964328E+00  0.20828914358E+00  0.51109989000E-03 0. -1.
     -623    1    1    2    0    0 -0.20388960386E+00 -0.32203857715E+00  0.50603401941E+00  0.17130117148E+03  0.17130000000E+03 0. -1.
      622    1    1    2    0    0  0.89738397038E-01  0.29942953387E+00  0.33212163047E+01  0.37905393769E+01  0.18000000000E+01 0. -1.
</event>
<event>
 5   0  0.7764500E-01  0.9118800E+02  0.7818608E-02  0.1180000E+00
       11   -1    0    0    0    0  0.00000000000E+00  0.00000000000E+00  0.39999999673E+01  0.40000000000E+01  0.51109989000E-03 0.  1.
     -623   -1    0    0    0    0  0.00000000000E+00  0.00000000000E+00  0.12525980253E-10  0.17130000000E+03  0.17130000000E+03 0.  1.
       11    1    1    2    0    0  0.45745642622E+00  0.12257268306E+00  0.93396777490E+00  0.10471802664E+01  0.51109989000E-03 0.  1.
     -623    1    1    2    0    0 -0.35984356786E+00  0.56710161171E-01  0.73668998776E+00  0.17130197143E+03  0.17130000000E+03 0.  1.
      622    1    1    2    0    0 -0.97612858356E-01 -0.17928284423E+00  0.23293422047E+01  0.29508483043E+01  0.18000000000E+01 0.  1.
</event>
<event>
 5   0  0.7764500E-01  0.9118800E+02  0.7818608E-02  0.1180000E+00
       11   -1    0    0    0    0  0.00000000000E+00  0.00000000000E+00  0.39999999673E+01  0.40000000000E+01  0.51109989000E-03 0. -1.
     -623   -1    0    0    0    0  0.00000000000E+00  0.00000000000E+00  0.12525980253E-10  0.17130000000E+03  0.17130000000E+03 0.  1.
       11    1    1    2    0    0  0.11599111057E+00  0.55508658739E-01  0.35060912984E-01  0.13328419925E+00  0.51109989000E-03 0. -1.
     -623    1    1    2    0    0 -0.33278513129E+00  0.11672351919E+00  0.55538495807E+00  0.17130126334E+03  0.17130000000E+03 0.  1.
      622    1    1    2    0    0  0.21679402072E+00 -0.17223217793E+00  0.34095540963E+01  0.38654524581E+01  0.18000000000E+01 0. -1.
</event>
<event>
 5   0  0.7764500E-01  0.9118800E+02  0.7818608E-02  0.1180000E+00
       11   -1    0    0    0    0  0.00000000000E+00  0.00000000000E+00  0.39999999673E+01  0.40000000000E+01  0.51109989000E-03 0.  1.
     -623   -1    0    0    0    0  0.00000000000E+00  0.00000000000E+00  0.12525980253E-10  0.17130000000E+03  0.17130000000E+03 0.  1.
       11    1    1    2    0    0  0.22002441541E+00 -0.31774881404E+00  0.50255050163E+00  0.63398132474E+00  0.51109989000E-03 0.  1.
     -623    1    1    2    0    0 -0.12845274697E+00  0.38270178350E+00  0.65741675710E+00  0.17130173717E+03  0.17130000000E+03 0.  1.
      622    1    1    2    0    0 -0.91571668440E-01 -0.64952969451E-01  0.28400327086E+01  0.33642815050E+01  0.18000000000E+01 0.  1.
</event>
<event>
 5   0  0.7764500E-01  0.9118800E+02  0.7818608E-02  0.1180000E+00
       11   -1    0    0    0    0  0.00000000000E+00  0.00000000000E+00  0.39999999673E+01  0.40000000000E+01  0.51109989000E-03 0.  1.
     -623   -1    0    0    0    0  0.00000000000E+00  0.00000000000E+00  0.12525980253E-10  0.17130000000E+03  0.17130000000E+03 0. -1.
       11    1    1    2    0    0  0.53300951861E-01 -0.11551040954E+00 -0.57494255702E-01  0.13960478803E+00  0.51109989000E-03 0.  1.
     -623    1    1    2    0    0 -0.34190534582E+00  0.15931102247E-02  0.65837945288E+00  0.17130160643E+03  0.17130000000E+03 0. -1.
      622    1    1    2    0    0  0.28860439396E+00  0.11391729931E+00  0.33991147702E+01  0.38587887825E+01  0.18000000000E+01 0.  1.
</event>
<event>
 5   0  0.7764500E-01  0.9118800E+02  0.7818608E-02  0.1180000E+00
       11   -1    0    0    0    0  0.00000000000E+00  0.00000000000E+00  0.39999999673E+01  0.40000000000E+01  0.51109989000E-03 0. -1.
     -623   -1    0    0    0    0  0.00000000000E+00  0.00000000000E+00  0.12525980253E-10  0.17130000000E+03  0.17130000000E+03 0. -1.
       11    1    1    2    0    0  0.10757734291E+00  0.89416593446E-01 -0.19628104302E-01  0.14125769215E+00  0.51109989000E-03 0. -1.
     -623    1    1    2    0    0 -0.20312772860E+00 -0.40048347673E+00  0.62394097169E+00  0.17130172489E+03  0.17130000000E+03 0. -1.
      622    1    1    2    0    0  0.95550385688E-01  0.31106688328E+00  0.33956871000E+01  0.38570174180E+01  0.18000000000E+01 0. -1.
</event>
<event>
 5   0  0.7764500E-01  0.9118800E+02  0.7818608E-02  0.1180000E+00
       11   -1    0    0    0    0  0.00000000000E+00  0.00000000000E+00  0.39999999673E+01  0.40000000000E+01  0.51109989000E-03 0. -1.
     -623   -1    0    0    0    0  0.00000000000E+00  0.00000000000E+00  0.12525980253E-10  0.17130000000E+03  0.17130000000E+03 0. -1.
       11    1    1    2    0    0  0.40918682561E-01  0.60202953483E-02 -0.22790549061E-01  0.47225553339E-01  0.51109989000E-03 0. -1.
     -623    1    1    2    0    0  0.49229137423E-01 -0.13313318903E+00  0.50800427843E+00  0.17130081207E+03  0.17130000000E+03 0. -1.
      622    1    1    2    0    0 -0.90147819984E-01  0.12711289368E+00  0.35147862380E+01  0.39519623753E+01  0.18000000000E+01 0. -1.
</event>
<event>
 5   0  0.7764500E-01  0.9118800E+02  0.7818608E-02  0.1180000E+00
       11   -1    0    0    0    0  0.00000000000E+00  0.00000000000E+00  0.39999999673E+01  0.40000000000E+01  0.51109989000E-03 0.  1.
     -623   -1    0    0    0    0  0.00000000000E+00  0.00000000000E+00  0.12525980253E-10  0.17130000000E+03  0.17130000000E+03 0.  1.
       11    1    1    2    0    0  0.51648165194E-02 -0.21598819331E-01  0.89153499746E-01  0.91879225433E-01  0.51109989000E-03 0.  1.
     -623    1    1    2    0    0 -0.32933980917E-01  0.27160869504E+00  0.45197900166E+00  0.17130081477E+03  0.17130000000E+03 0.  1.
      622    1    1    2    0    0  0.27769164398E-01 -0.25000987571E+00  0.34588674659E+01  0.39073060043E+01  0.18000000000E+01 0.  1.
</event>
<event>
 5   0  0.7764500E-01  0.9118800E+02  0.7818608E-02  0.1180000E+00
       11   -1    0    0    0    0  0.00000000000E+00  0.00000000000E+00  0.39999999673E+01  0.40000000000E+01  0.51109989000E-03 0.  1.
     -623   -1    0    0    0    0  0.00000000000E+00  0.00000000000E+00  0.12525980253E-10  0.17130000000E+03  0.17130000000E+03 0. -1.
       11    1    1    2    0    0 -0.41534392613E-01  0.22411290213E+00  0.84733915577E-01  0.24317030317E+00  0.51109989000E-03 0.  1.
     -623    1    1    2    0    0  0.51078284773E-01  0.24888189448E+00  0.65349125172E+00  0.17130143491E+03  0.17130000000E+03 0. -1.
      622    1    1    2    0    0 -0.95438921597E-02 -0.47299479661E+00  0.32617748001E+01  0.37553947875E+01  0.18000000000E+01 0.  1.
</event>
<event>
 5   0  0.7764500E-01  0.9118800E+02  0.7818608E-02  0.1180000E+00
       11   -1    0    0    0    0  0.00000000000E+00  0.00000000000E+00  0.39999999673E+01  0.40000000000E+01  0.51109989000E-03 0.  1.
     -623   -1    0    0    0    0  0.00000000000E+00  0.00000000000E+00  0.12525980253E-10  0.17130000000E+03  0.17130000000E+03 0.  1.
       11    1    1    2    0    0  0.21504854589E+00  0.87049186714E-01  0.51695452738E-01  0.23768912271E+00  0.51109989000E-03 0.  1.
     -623    1    1    2    0    0 -0.16849104548E+00 -0.10868843590E+00  0.64644323390E+00  0.17130133710E+03  0.17130000000E+03 0.  1.
      622    1    1    2    0    0 -0.46557500411E-01  0.21639249182E-01  0.33018612807E+01  0.37609737802E+01  0.18000000000E+01 0.  1.
</event>
<event>
 5   0  0.7764500E-01  0.9118800E+02  0.7818608E-02  0.1180000E+00
       11   -1    0    0    0    0  0.00000000000E+00  0.00000000000E+00  0.39999999673E+01  0.40000000000E+01  0.51109989000E-03 0. -1.
     -623   -1    0    0    0    0  0.00000000000E+00  0.00000000000E+00  0.12525980253E-10  0.17130000000E+03  0.17130000000E+03 0.  1.
       11    1    1    2    0    0  0.11778987517E+00  0.13180726167E+00 -0.11177054468E-01  0.17712367626E+00  0.51109989000E-03 0. -1.
     -623    1    1    2    0    0 -0.64617333562E-01  0.92684702221E-01  0.64791854485E+00  0.17130126259E+03  0.17130000000E+03 0.  1.
      622    1    1    2    0    0 -0.53172541612E-01 -0.22449196389E+00  0.33632584770E+01  0.38216137356E+01  0.18000000000E+01 0. -1.
</event>
<event>
 5   0  0.7764500E-01  0.9118800E+02  0.7818608E-02  0.1180000E+00
       11   -1    0    0    0    0  0.00000000000E+00  0.00000000000E+00  0.39999999673E+01  0.40000000000E+01  0.51109989000E-03 0.  1.
     -623   -1    0    0    0    0  0.00000000000E+00  0.00000000000E+00  0.12525980253E-10  0.17130000000E+03  0.17130000000E+03 0.  1.
       11    1    1    2    0    0 -0.14327750221E-01  0.49007763564E-01 -0.23059382011E-01  0.56027150898E-01  0.51109989000E-03 0.  1.
     -623    1    1    2    0    0 -0.23560743460E-02  0.19233529102E+00  0.52316730642E+00  0.17130090689E+03  0.17130000000E+03 0.  1.
      622    1    1    2    0    0  0.16683824567E-01 -0.24134305458E+00  0.34998920430E+01  0.39430659559E+01  0.18000000000E+01 0.  1.
</event>
<event>
 5   0  0.7764500E-01  0.9118800E+02  0.7818608E-02  0.1180000E+00
       11   -1    0    0    0    0  0.00000000000E+00  0.00000000000E+00  0.39999999673E+01  0.40000000000E+01  0.51109989000E-03 0. -1.
     -623   -1    0    0    0    0  0.00000000000E+00  0.00000000000E+00  0.12525980253E-10  0.17130000000E+03  0.17130000000E+03 0.  1.
       11    1    1    2    0    0  0.57911449134E-01 -0.86699510931E-01  0.17019634689E-01  0.10564312720E+00  0.51109989000E-03 0. -1.
     -623    1    1    2    0    0  0.53775773482E-01 -0.11194070089E+00  0.53810721539E+00  0.17130089020E+03  0.17130000000E+03 0.  1.
      622    1    1    2    0    0 -0.11168722262E+00  0.19864021182E+00  0.34448731173E+01  0.38934666768E+01  0.18000000000E+01 0. -1.
</event>
<event>
 5   0  0.7764500E-01  0.9118800E+02  0.7818608E-02  0.1180000E+00
       11   -1    0    0    0    0  0.00000000000E+00  0.00000000000E+00  0.39999999673E+01  0.40000000000E+01  0.51109989000E-03 0.  1.
     -623   -1    0    0    0    0  0.00000000000E+00  0.00000000000E+00  0.12525980253E-10  0.17130000000E+03  0.17130000000E+03 0.  1.
       11    1    1    2    0    0 -0.11792863248E+00 -0.12436380383E+00  0.12394009711E+00  0.21150632841E+00  0.51109989000E-03 0.  1.
     -623    1    1    2    0    0  0.27414011178E+00  0.22554531671E+00  0.54911074228E+00  0.17130124794E+03  0.17130000000E+03 0.  1.
      622    1    1    2    0    0 -0.15621147930E+00 -0.10118151288E+00  0.33269491280E+01  0.37872457307E+01  0.18000000000E+01 0.  1.
</event>
<event>
 5   0  0.7764500E-01  0.9118800E+02  0.7818608E-02  0.1180000E+00
       11   -1    0    0    0    0  0.00000000000E+00  0.00000000000E+00  0.39999999673E+01  0.40000000000E+01  0.51109989000E-03 0.  1.
     -623   -1    0    0    0    0  0.00000000000E+00  0.00000000000E+00  0.12525980253E-10  0.17130000000E+03  0.17130000000E+03 0. -1.
       11    1    1    2    0    0 -0.99060042843E-01 -0.17121265686E+00  0.25032442182E+00  0.31904426549E+00  0.51109989000E-03 0.  1.
     -623    1    1    2    0    0  0.47308629792E-02  0.19035125572E+00  0.54139027293E+00  0.17130096135E+03  0.17130000000E+03 0. -1.
      622    1    1    2    0    0  0.94329179863E-01 -0.19138598862E-01  0.32082852726E+01  0.36799943846E+01  0.18000000000E+01 0.  1.
</event>
<event>
 5   0  0.7764500E-01  0.9118800E+02  0.7818608E-02  0.1180000E+00
       11   -1    0    0    0    0  0.00000000000E+00  0.00000000000E+00  0.39999999673E+01  0.40000000000E+01  0.51109989000E-03 0.  1.
     -623   -1    0    0    0    0  0.00000000000E+00  0.00000000000E+00  0.12525980253E-10  0.17130000000E+03  0.17130000000E+03 0. -1.
       11    1    1    2    0    0 -0.29309459602E+00 -0.15759054737E+00  0.10901610421E+00  0.35017709096E+00  0.51109989000E-03 0.  1.
     -623    1    1    2    0    0  0.21768467721E+00  0.10477214559E+00  0.71915937193E+00  0.17130167995E+03  0.17130000000E+03 0. -1.
      622    1    1    2    0    0  0.75409918803E-01  0.52818401788E-01  0.31718244912E+01  0.36481429581E+01  0.18000000000E+01 0.  1.
</event>
<event>
 5   0  0.7764500E-01  0.9118800E+02  0.7818608E-02  0.1180000E+00
       11   -1    0    0    0    0  0.00000000000E+00  0.00000000000E+00  0.39999999673E+01  0.40000000000E+01  0.51109989000E-03 0. -1.
     -623   -1    0    0    0    0  0.00000000000E+00  0.00000000000E+00  0.12525980253E-10  0.17130000000E+03  0.17130000000E+03 0.  1.
       11    1    1    2    0    0  0.64079007467E-02  0.13269002035E+00  0.40045813474E-01  0.13875024718E+00  0.51109989000E-03 0. -1.
     -623    1    1    2    0    0 -0.21907500892E+00 -0.10825456979E+00  0.55184382208E+00  0.17130106317E+03  0.17130000000E+03 0.  1.
      622    1    1    2    0    0  0.21266710817E+00 -0.24435450566E-01  0.34081103318E+01  0.38601865789E+01  0.18000000000E+01 0. -1.
</event>
<event>
 5   0  0.7764500E-01  0.9118800E+02  0.7818608E-02  0.1180000E+00
       11   -1    0    0    0    0  0.00000000000E+00  0.00000000000E+00  0.39999999673E+01  0.40000000000E+01  0.51109989000E-03 0. -1.
     -623   -1    0    0    0    0  0.00000000000E+00  0.00000000000E+00  0.12525980253E-10  0.17130000000E+03  0.17130000000E+03 0. -1.
       11    1    1    2    0    0 -0.17230672873E+00 -0.12505066193E-01  0.13263048730E+00  0.21780058042E+00  0.51109989000E-03 0. -1.
     -623    1    1    2    0    0 -0.12686169117E-01 -0.12413197381E+00  0.54997303893E+00  0.17130092831E+03  0.17130000000E+03 0. -1.
      622    1    1    2    0    0  0.18499289785E+00  0.13663704000E+00  0.33173964411E+01  0.37812711091E+01  0.18000000000E+01 0. -1.
</event>
<event>
 5   0  0.7764500E-01  0.9118800E+02  0.7818608E-02  0.1180000E+00
       11   -1    0    0    0    0  0.00000000000E+00  0.00000000000E+00  0.39999999673E+01  0.40000000000E+01  0.51109989000E-03 0. -1.
     -623   -1    0    0    0    0  0.00000000000E+00  0.00000000000E+00  0.12525980253E-10  0.17130000000E+03  0.17130000000E+03 0. -1.
       11    1    1    2    0    0  0.19993797470E+00  0.21247439220E+00 -0.26380902163E-01  0.29294500216E+00  0.51109989000E-03 0. -1.
     -623    1    1    2    0    0 -0.29889873957E+00  0.47486272850E-01  0.80007434149E+00  0.17130213576E+03  0.17130000000E+03 0. -1.
      622    1    1    2    0    0  0.98960764874E-01 -0.25996066505E+00  0.32263065280E+01  0.37049192425E+01  0.18000000000E+01 0. -1.
</event>
<event>
 5   0  0.7764500E-01  0.9118800E+02  0.7818608E-02  0.1180000E+00
       11   -1    0    0    0    0  0.00000000000E+00  0.00000000000E+00  0.39999999673E+01  0.40000000000E+01  0.51109989000E-03 0.  1.
     -623   -1    0    0    0    0  0.00000000000E+00  0.00000000000E+00  0.12525980253E-10  0.17130000000E+03  0.17130000000E+03 0.  1.
       11    1    1    2    0    0  0.65289168365E-01 -0.19157608607E+00  0.14253218994E+00  0.24754748767E+00  0.51109989000E-03 0.  1.
     -623    1    1    2    0    0 -0.57836873452E-01 -0.17380293601E+00  0.58652403954E+00  0.17130110205E+03  0.17130000000E+03 0.  1.
      622    1    1    2    0    0 -0.74522949136E-02  0.36537902208E+00  0.32709437379E+01  0.37513504639E+01  0.18000000000E+01 0.  1.
</event>
<event>
 5   0  0.7764500E-01  0.9118800E+02  0.7818608E-02  0.1180000E+00
       11   -1    0    0    0    0  0.00000000000E+00  0.00000000000E+00  0.39999999673E+01  0.40000000000E+01  0.51109989000E-03 0. -1.
     -623   -1    0    0    0    0  0.00000000000E+00  0.00000000000E+00  0.12525980253E-10  0.17130000000E+03  0.17130000000E+03 0.  1.
       11    1    1    2    0    0  0.30749037146E-01  0.37585913218E-01 -0.98397183787E-01  0.10972908073E+00  0.51109989000E-03 0. -1.
     -623    1    1    2    0    0 -0.13788939560E+00 -0.29410600926E-01  0.65274249802E+00  0.17130130166E+03  0.17130000000E+03 0.  1.
      622    1    1    2    0    0  0.10714035845E+00 -0.81753122917E-02  0.34456546531E+01  0.38889692569E+01  0.18000000000E+01 0. -1.
</event>
<event>
 5   0  0.7764500E-01  0.9118800E+02  0.7818608E-02  0.1180000E+00
       11   -1    0    0    0    0  0.00000000000E+00  0.00000000000E+00  0.39999999673E+01  0.40000000000E+01  0.51109989000E-03 0. -1.
     -623   -1    0    0    0    0  0.00000000000E+00  0.00000000000E+00  0.12525980253E-10  0.17130000000E+03  0.17130000000E+03 0. -1.
       11    1    1    2    0    0  0.11906031691E+00 -0.28989032983E-01  0.26171445341E+00  0.28898172856E+00  0.51109989000E-03 0. -1.
     -623    1    1    2    0    0 -0.35328920842E+00 -0.23679085983E-01  0.50319366066E+00  0.17130110501E+03  0.17130000000E+03 0. -1.
      622    1    1    2    0    0  0.23422889151E+00  0.52668118966E-01  0.32350918533E+01  0.37099132609E+01  0.18000000000E+01 0. -1.
</event>
<event>
 5   0  0.7764500E-01  0.9118800E+02  0.7818608E-02  0.1180000E+00
       11   -1    0    0    0    0  0.00000000000E+00  0.00000000000E+00  0.39999999673E+01  0.40000000000E+01  0.51109989000E-03 0.  1.
     -623   -1    0    0    0    0  0.00000000000E+00  0.00000000000E+00  0.12525980253E-10  0.17130000000E+03  0.17130000000E+03 0. -1.
       11    1    1    2    0    0 -0.65671886526E-01  0.39647615422E-01 -0.27022492739E-01  0.81333919280E-01  0.51109989000E-03 0.  1.
     -623    1    1    2    0    0  0.19438096467E+00  0.24979344073E-01  0.55032930666E+00  0.17130099612E+03  0.17130000000E+03 0. -1.
      622    1    1    2    0    0 -0.12870907814E+00 -0.64626959495E-01  0.34766931534E+01  0.39176699649E+01  0.18000000000E+01 0.  1.
</event>
<event>
 5   0  0.7764500E-01  0.9118800E+02  0.7818608E-02  0.1180000E+00
       11   -1    0    0    0    0  0.00000000000E+00  0.00000000000E+00  0.39999999673E+01  0.40000000000E+01  0.51109989000E-03 0.  1.
     -623   -1    0    0    0    0  0.00000000000E+00  0.00000000000E+00  0.12525980253E-10  0.17130000000E+03  0.17130000000E+03 0. -1.
       11    1    1    2    0    0  0.91118182995E-01  0.55062773079E-01  0.30956701485E+00  0.32736284175E+00  0.51109989000E-03 0.  1.
     -623    1    1    2    0    0 -0.32354829435E+00  0.21545973633E+00  0.51045924867E+00  0.17130120162E+03  0.17130000000E+03 0. -1.
      622    1    1    2    0    0  0.23243011136E+00 -0.27052250941E+00  0.31799737038E+01  0.36714355424E+01  0.18000000000E+01 0.  1.
</event>
<event>
 5   0  0.7764500E-01  0.9118800E+02  0.7818608E-02  0.1180000E+00
       11   -1    0    0    0    0  0.00000000000E+00  0.00000000000E+00  0.39999999673E+01  0.40000000000E+01  0.51109989000E-03 0. -1.
     -623   -1    0    0    0    0  0.00000000000E+00  0.00000000000E+00  0.12525980253E-10  0.17130000000E+03  0.17130000000E+03 0. -1.
       11    1    1    2    0    0  0.96361755064E-01 -0.76679665362E-01 -0.36682438718E-02  0.12320339343E+00  0.51109989000E-03 0. -1.
     -623    1    1    2    0    0 -0.16971947340E+00  0.18380934515E+00  0.57382468775E+00  0.17130114379E+03  0.17130000000E+03 0. -1.
      622    1    1    2    0    0  0.73357718331E-01 -0.10712967978E+00  0.34298435235E+01  0.38756528119E+01  0.18000000000E+01 0. -1.
</event>
<event>
 5   0  0.7764500E-01  0.9118800E+02  0.7818608E-02  0.1180000E+00
       11   -1    0    0    0    0  0.00000000000E+00  0.00000000000E+00  0.39999999673E+01  0.40000000000E+01  0.51109989000E-03 0. -1.
     -623   -1    0    0    0    0  0.00000000000E+00  0.00000000000E+00  0.12525980253E-10  0.17130000000E+03  0.17130000000E+03 0. -1.
       11    1    1    2    0    0 -0.18414714551E+00  0.67618073268E-01 -0.24097858484E-01  0.19764448649E+00  0.51109989000E-03 0. -1.
     -623    1    1    2    0    0  0.25347786630E+00  0.24608392033E+00  0.69223830469E+00  0.17130176299E+03  0.17130000000E+03 0. -1.
      622    1    1    2    0    0 -0.69330720792E-01 -0.31370199360E+00  0.33318595212E+01  0.38005925273E+01  0.18000000000E+01 0. -1.
</event>
<event>
 5   0  0.7764500E-01  0.9118800E+02  0.7818608E-02  0.1180000E+00
       11   -1    0    0    0    0  0.00000000000E+00  0.00000000000E+00  0.39999999673E+01  0.40000000000E+01  0.51109989000E-03 0.  1.
     -623   -1    0    0    0    0  0.00000000000E+00  0.00000000000E+00  0.12525980253E-10  0.17130000000E+03  0.17130000000E+03 0. -1.
       11    1    1    2    0    0 -0.71182629522E-01  0.40801196416E-01  0.22534037019E+00  0.23981294384E+00  0.51109989000E-03 0.  1.
     -623    1    1    2    0    0  0.27080909968E+00 -0.20290192821E+00  0.48449025354E+00  0.17130101937E+03  0.17130000000E+03 0. -1.
      622    1    1    2    0    0 -0.19962647016E+00  0.16210073179E+00  0.32901693436E+01  0.37591676851E+01  0.18000000000E+01 0.  1.
</event>
<event>
 5   0  0.7764500E-01  0.9118800E+02  0.7818608E-02  0.1180000E+00
       11   -1    0    0    0    0  0.00000000000E+00  0.00000000000E+00  0.39999999673E+01  0.40000000000E+01  0.51109989000E-03 0.  1.
     -623   -1    0    0    0    0  0.00000000000E+00  0.00000000000E+00  0.12525980253E-10  0.17130000000E+03  0.17130000000E+03 0.  1.
       11    1    1    2    0    0 -0.14043566087E+00 -0.69817573467E-01  0.15642362076E+00  0.22150683683E+00  0.51109989000E-03 0.  1.
     -623    1    1    2    0    0  0.16206005704E+00 -0.71767600587E+00  0.61929282046E+00  0.17130269947E+03  0.17130000000E+03 0.  1.
      622    1    1    2    0    0 -0.21624396166E-01  0.78749357934E+00  0.32242835261E+01  0.37757936926E+01  0.18000000000E+01 0.  1.
</event>
<event>
 5   0  0.7764500E-01  0.9118800E+02  0.7818608E-02  0.1180000E+00
       11   -1    0    0    0    0  0.00000000000E+00  0.00000000000E+00  0.39999999673E+01  0.40000000000E+01  0.51109989000E-03 0.  1.
     -623   -1    0    0    0    0  0.00000000000E+00  0.00000000000E+00  0.12525980253E-10  0.17130000000E+03  0.17130000000E+03 0. -1.
       11    1    1    2    0    0 -0.21993611451E+00 -0.26418853179E+00  0.14412458199E+00  0.37274606792E+00  0.51109989000E-03 0.  1.
     -623    1    1    2    0    0  0.24913414689E+00 -0.51286288606E-01  0.72472453085E+00  0.17130172189E+03  0.17130000000E+03 0. -1.
      622    1    1    2    0    0 -0.29198032380E-01  0.31547482040E+00  0.31311508545E+01  0.36255320384E+01  0.18000000000E+01 0.  1.
</event>
<event>
 5   0  0.7764500E-01  0.9118800E+02  0.7818608E-02  0.1180000E+00
       11   -1    0    0    0    0  0.00000000000E+00  0.00000000000E+00  0.39999999673E+01  0.40000000000E+01  0.51109989000E-03 0. -1.
     -623   -1    0    0    0    0  0.00000000000E+00  0.00000000000E+00  0.12525980253E-10  0.17130000000E+03  0.17130000000E+03 0. -1.
       11    1    1    2    0    0  0.14887110307E-01  0.11529699463E+00  0.32100943070E+00  0.34141227108E+00  0.51109989000E-03 0. -1.
     -623    1    1    2    0    0 -0.14957770602E+00 -0.36205010098E-01  0.49857344889E+00  0.17130079469E+03  0.17130000000E+03 0. -1.
      622    1    1    2    0    0  0.13469059572E+00 -0.79091984533E-01  0.31804170878E+01  0.36577930437E+01  0.18000000000E+01 0. -1.
</event>
<event>
 5   0  0.7764500E-01  0.9118800E+02  0.7818608E-02  0.1180000E+00
       11   -1    0    0    0    0  0.00000000000E+00  0.00000000000E+00  0.39999999673E+01  0.40000000000E+01  0.51109989000E-03 0. -1.
     -623   -1    0    0    0    0  0.00000000000E+00  0.00000000000E+00  0.12525980253E-10  0.17130000000E+03  0.17130000000E+03 0. -1.
       11    1    1    2    0    0 -0.30926887612E+00  0.76342624496E-01  0.39000903445E+00  0.50356999735E+00  0.51109989000E-03 0. -1.
     -623    1    1    2    0    0  0.30925603511E+00 -0.13643593402E+00  0.61476682570E+00  0.17130143663E+03  0.17130000000E+03 0. -1.
      622    1    1    2    0    0  0.12841016626E-04  0.60093309520E-01  0.29952241072E+01  0.34949933703E+01  0.18000000000E+01 0. -1.
</event>
<event>
 5   0  0.7764500E-01  0.9118800E+02  0.7818608E-02  0.1180000E+00
       11   -1    0    0    0    0  0.00000000000E+00  0.00000000000E+00  0.39999999673E+01  0.40000000000E+01  0.51109989000E-03 0. -1.
     -623   -1    0    0    0    0  0.00000000000E+00  0.00000000000E+00  0.12525980253E-10  0.17130000000E+03  0.17130000000E+03 0.  1.
       11    1    1    2    0    0 -0.10529141574E+00  0.17611584690E+00  0.16788584413E+00  0.26512071145E+00  0.51109989000E-03 0. -1.
     -623    1    1    2    0    0 -0.17288639694E+00  0.60156460226E-01  0.58126503377E+00  0.17130108399E+03  0.17130000000E+03 0.  1.
      622    1    1    2    0    0  0.27817781268E+00 -0.23627230713E+00  0.32508490895E+01  0.37337952945E+01  0.18000000000E+01 0. -1.
</event>
<event>
 5   0  0.7764500E-01  0.9118800E+02  0.7818608E-02  0.1180000E+00
       11   -1    0    0    0    0  0.00000000000E+00  0.00000000000E+00  0.39999999673E+01  0.40000000000E+01  0.51109989000E-03 0. -1.
     -623   -1    0    0    0    0  0.00000000000E+00  0.00000000000E+00  0.12525980253E-10  0.17130000000E+03  0.17130000000E+03 0. -1.
       11    1    1    2    0    0  0.97487608193E-01  0.20542253513E+00  0.34370572126E+00  0.41211180005E+00  0.51109989000E-03 0. -1.
     -623    1    1    2    0    0  0.35016594240E+00 -0.18789797838E+00  0.58681170854E+00  0.17130146605E+03  0.17130000000E+03 0. -1.
      622    1    1    2    0    0 -0.44765355059E+00 -0.17524556758E-01  0.30694825376E+01  0.35864221530E+01  0.18000000000E+01 0. -1.
</event>
<event>
 5   0  0.7764500E-01  0.9118800E+02  0.7818608E-02  0.1180000E+00
       11   -1    0    0    0    0  0.00000000000E+00  0.00000000000E+00  0.39999999673E+01  0.40000000000E+01  0.51109989000E-03 0. -1.
     -623   -1    0    0    0    0  0.00000000000E+00  0.00000000000E+00  0.12525980253E-10  0.17130000000E+03  0.17130000000E+03 0. -1.
       11    1    1    2    0    0  0.34994840125E+00  0.12820384025E-01  0.55709089745E+00  0.65801122713E+00  0.51109989000E-03 0. -1.
     -623    1    1    2    0    0 -0.62306804357E+00  0.34110178730E+00  0.66612299331E+00  0.17130276788E+03  0.17130000000E+03 0. -1.
      622    1    1    2    0    0  0.27311964232E+00 -0.35392217133E+00  0.27767860766E+01  0.33392208908E+01  0.18000000000E+01 0. -1.
</event>
<event>
 5   0  0.7764500E-01  0.9118800E+02  0.7818608E-02  0.1180000E+00
       11   -1    0    0    0    0  0.00000000000E+00  0.00000000000E+00  0.39999999673E+01  0.40000000000E+01  0.51109989000E-03 0.  1.
     -623   -1    0    0    0    0  0.00000000000E+00  0.00000000000E+00  0.12525980253E-10  0.17130000000E+03  0.17130000000E+03 0.  1.
       11    1    1    2    0    0  0.13231216279E+00  0.11212717893E+00  0.21229908421E+00  0.27413532253E+00  0.51109989000E-03 0.  1.
     -623    1    1    2    0    0 -0.68557030428E-01 -0.75733794314E-01  0.52727066850E+00  0.17130084194E+03  0.17130000000E+03 0.  1.
      622    1    1    2    0    0 -0.63755132360E-01 -0.36393384613E-01  0.32604302146E+01  0.37250227355E+01  0.18000000000E+01 0.  1.
</event>
<event>
 5   0  0.7764500E-01  0.9118800E+02  0.7818608E-02  0.1180000E+00
       11   -1    0    0    0    0  0.00000000000E+00  0.00000000000E+00  0.39999999673E+01  0.40000000000E+01  0.51109989000E-03 0.  1.
     -623   -1    0    0    0    0  0.00000000000E+00  0.00000000000E+00  0.12525980253E-10  0.17130000000E+03  0.17130000000E+03 0.  1.
       11    1    1    2    0    0  0.54357618974E-02  0.31148827369E-01 -0.11627420939E-01  0.33693546781E-01  0.51109989000E-03 0.  1.
     -623    1    1    2    0    0 -0.52185989510E-01 -0.13693650088E+00  0.48000186670E+00  0.17130073519E+03  0.17130000000E+03 0.  1.
      622    1    1    2    0    0  0.46750227612E-01  0.10578767351E+00  0.35316255216E+01  0.39655712628E+01  0.18000000000E+01 0.  1.
</event>
<event>
 5   0  0.7764500E-01  0.9118800E+02  0.7818608E-02  0.1180000E+00
       11   -1    0    0    0    0  0.00000000000E+00  0.00000000000E+00  0.39999999673E+01  0.40000000000E+01  0.51109989000E-03 0. -1.
     -623   -1    0    0    0    0  0.00000000000E+00  0.00000000000E+00  0.12525980253E-10  0.17130000000E+03  0.17130000000E+03 0. -1.
       11    1    1    2    0    0 -0.14418677010E+00  0.59560417338E-01 -0.88139985562E-01  0.17918199202E+00  0.51109989000E-03 0. -1.
     -623    1    1    2    0    0  0.23115031079E+00 -0.11779913391E+00  0.72145195549E+00  0.17130171569E+03  0.17130000000E+03 0. -1.
      622    1    1    2    0    0 -0.86963540687E-01  0.58238716572E-01  0.33666879974E+01  0.38191023131E+01  0.18000000000E+01 0. -1.
</event>
<event>
 5   0  0.7764500E-01  0.9118800E+02  0.7818608E-02  0.1180000E+00
       11   -1    0    0    0    0  0.00000000000E+00  0.00000000000E+00  0.39999999673E+01  0.40000000000E+01  0.51109989000E-03 0.  1.
     -623   -1    0    0    0    0  0.00000000000E+00  0.00000000000E+00  0.12525980253E-10  0.17130000000E+03  0.17130000000E+03 0.  1.
       11    1    1    2    0    0  0.21731044591E+00  0.20957206115E+00  0.60531516048E+00  0.67642514992E+00  0.51109989000E-03 0.  1.
     -623    1    1    2    0    0 -0.70464651595E+00 -0.33270157880E+00  0.64995821237E+00  0.17130300541E+03  0.17130000000E+03 0.  1.
      622    1    1    2    0    0  0.48733607005E+00  0.12312951765E+00  0.27447265945E+01  0.33205694394E+01  0.18000000000E+01 0.  1.
</event>
<event>
 5   0  0.7764500E-01  0.9118800E+02  0.7818608E-02  0.1180000E+00
       11   -1    0    0    0    0  0.00000000000E+00  0.00000000000E+00  0.39999999673E+01  0.40000000000E+01  0.51109989000E-03 0.  1.
     -623   -1    0    0    0    0  0.00000000000E+00  0.00000000000E+00  0.12525980253E-10  0.17130000000E+03  0.17130000000E+03 0. -1.
       11    1    1    2    0    0 -0.12301985968E+00  0.12459733972E+00 -0.23401030649E-01  0.17665291506E+00  0.51109989000E-03 0.  1.
     -623    1    1    2    0    0 -0.53763862559E-01 -0.10164518599E+00  0.65645997576E+00  0.17130129644E+03  0.17130000000E+03 0. -1.
      622    1    1    2    0    0  0.17678372224E+00 -0.22952153726E-01  0.33669410223E+01  0.38220506450E+01  0.18000000000E+01 0.  1.
</event>
<event>
 5   0  0.7764500E-01  0.9118800E+02  0.7818608E-02  0.1180000E+00
       11   -1    0    0    0    0  0.00000000000E+00  0.00000000000E+00  0.39999999673E+01  0.40000000000E+01  0.51109989000E-03 0. -1.
     -623   -1    0    0    0    0  0.00000000000E+00  0.00000000000E+00  0.12525980253E-10  0.17130000000E+03  0.17130000000E+03 0.  1.
       11    1    1    2    0    0 -0.89065199370E-01 -0.56937936754E-01  0.99603033452E-01  0.14524311989E+00  0.51109989000E-03 0. -1.
     -623    1    1    2    0    0  0.23574871778E+00 -0.28918651449E-01  0.49695203773E+00  0.17130088551E+03  0.17130000000E+03 0.  1.
      622    1    1    2    0    0 -0.14668351841E+00  0.85856588202E-01  0.34034448962E+01  0.38538713743E+01  0.18000000000E+01 0. -1.
</event>
<event>
 5   0  0.7764500E-01  0.9118800E+02  0.7818608E-02  0.1180000E+00
       11   -1    0    0    0    0  0.00000000000E+00  0.00000000000E+00  0.39999999673E+01  0.40000000000E+01  0.51109989000E-03 0. -1.
     -623   -1    0    0    0    0  0.00000000000E+00  0.00000000000E+00  0.12525980253E-10  0.17130000000E+03  0.17130000000E+03 0. -1.
       11    1    1    2    0    0  0.36485183680E-01  0.49572420498E-01  0.18810244616E-02  0.61582408020E-01  0.51109989000E-03 0. -1.
     -623    1    1    2    0    0  0.87494151962E-01 -0.13371795832E+00  0.49920973325E+00  0.17130080194E+03  0.17130000000E+03 0. -1.
      622    1    1    2    0    0 -0.12397933564E+00  0.84145537820E-01  0.34989092096E+01  0.39376156497E+01  0.18000000000E+01 0. -1.
</event>
<event>
 5   0  0.7764500E-01  0.9118800E+02  0.7818608E-02  0.1180000E+00
       11   -1    0    0    0    0  0.00000000000E+00  0.00000000000E+00  0.39999999673E+01  0.40000000000E+01  0.51109989000E-03 0.  1.
     -623   -1    0    0    0    0  0.00000000000E+00  0.00000000000E+00  0.12525980253E-10  0.17130000000E+03  0.17130000000E+03 0.  1.
       11    1    1    2    0    0  0.25369598653E+00 -0.20888813630E+00  0.24852743510E-01  0.32956611954E+00  0.51109989000E-03 0.  1.
     -623    1    1    2    0    0 -0.30264391455E+00 -0.38964161710E-01  0.78877996806E+00  0.17130208780E+03  0.17130000000E+03 0.  1.
      622    1    1    2    0    0  0.48947928023E-01  0.24785229801E+00  0.31863672558E+01  0.36683460783E+01  0.18000000000E+01 0.  1.
</event>
<event>
 5   0  0.7764500E-01  0.9118800E+02  0.7818608E-02  0.1180000E+00
       11   -1    0    0    0    0  0.00000000000E+00  0.00000000000E+00  0.39999999673E+01  0.40000000000E+01  0.51109989000E-03 0.  1.
     -623   -1    0    0    0    0  0.00000000000E+00  0.00000000000E+00  0.12525980253E-10  0.17130000000E+03  0.17130000000E+03 0. -1.
       11    1    1    2    0    0  0.50616881266E-01  0.11554376265E-01  0.84449069578E-01  0.99133641390E-01  0.51109989000E-03 0.  1.
     -623    1    1    2    0    0 -0.13179160987E+00  0.36624710889E+00  0.47770425204E+00  0.17130110831E+03  0.17130000000E+03 0. -1.
      622    1    1    2    0    0  0.81174728602E-01 -0.37780148515E+00  0.34378466457E+01  0.38997580513E+01  0.18000000000E+01 0.  1.
</event>
<event>
 5   0  0.7764500E-01  0.9118800E+02  0.7818608E-02  0.1180000E+00
       11   -1    0    0    0    0  0.00000000000E+00  0.00000000000E+00  0.39999999673E+01  0.40000000000E+01  0.51109989000E-03 0.  1.
     -623   -1    0    0    0    0  0.00000000000E+00  0.00000000000E+00  0.12525980253E-10  0.17130000000E+03  0.17130000000E+03 0.  1.
       11    1    1    2    0    0 -0.19386586605E+00  0.37894443196E+00 -0.10816645504E+00  0.43918458506E+00  0.51109989000E-03 0.  1.
     -623    1    1    2    0    0  0.10064659555E+00 -0.99951692789E-01  0.10537613498E+01  0.17130329983E+03  0.17130000000E+03 0.  1.
      622    1    1    2    0    0  0.93219270506E-01 -0.27899273917E+00  0.30544050726E+01  0.35575155837E+01  0.18000000000E+01 0.  1.
</event>
<event>
 5   0  0.7764500E-01  0.9118800E+02  0.7818608E-02  0.1180000E+00
       11   -1    0    0    0    0  0.00000000000E+00  0.00000000000E+00  0.39999999673E+01  0.40000000000E+01  0.51109989000E-03 0. -1.
     -623   -1    0    0    0    0  0.00000000000E+00  0.00000000000E+00  0.12525980253E-10  0.17130000000E+03  0.17130000000E+03 0. -1.
       11    1    1    2    0    0  0.89516261208E-01 -0.12313806741E+00 -0.45191692798E-01  0.15880395142E+00  0.51109989000E-03 0. -1.
     -623    1    1    2    0    0 -0.12648462906E+00  0.40966764227E+00  0.66624967848E+00  0.17130183220E+03  0.17130000000E+03 0. -1.
      622    1    1    2    0    0  0.36968367855E-01 -0.28652957486E+00  0.33789419817E+01  0.38393638501E+01  0.18000000000E+01 0. -1.
</event>
<event>
 5   0  0.7764500E-01  0.9118800E+02  0.7818608E-02  0.1180000E+00
       11   -1    0    0    0    0  0.00000000000E+00  0.00000000000E+00  0.39999999673E+01  0.40000000000E+01  0.51109989000E-03 0. -1.
     -623   -1    0    0    0    0  0.00000000000E+00  0.00000000000E+00  0.12525980253E-10  0.17130000000E+03  0.17130000000E+03 0. -1.
       11    1    1    2    0    0  0.93017749954E-01  0.41815173874E-01  0.65000649728E-01  0.12093864668E+00  0.51109989000E-03 0. -1.
     -623    1    1    2    0    0 -0.19391083040E-01 -0.34262060256E-01  0.50047861605E+00  0.17130073563E+03  0.17130000000E+03 0. -1.
      622    1    1    2    0    0 -0.73626666914E-01 -0.75531136182E-02  0.34345207016E+01  0.38783257193E+01  0.18000000000E+01 0. -1.
</event>
<event>
 5   0  0.7764500E-01  0.9118800E+02  0.7818608E-02  0.1180000E+00
       11   -1    0    0    0    0  0.00000000000E+00  0.00000000000E+00  0.39999999673E+01  0.40000000000E+01  0.51109989000E-03 0. -1.
     -623   -1    0    0    0    0  0.00000000000E+00  0.00000000000E+00  0.12525980253E-10  0.17130000000E+03  0.17130000000E+03 0.  1.
       11    1    1    2    0    0 -0.77859431003E-01  0.13793229564E+00  0.29566201258E+00  0.33541570638E+00  0.51109989000E-03 0. -1.
     -623    1    1    2    0    0 -0.41005944913E+00 -0.39306084513E+00  0.56230680669E+00  0.17130186466E+03  0.17130000000E+03 0.  1.
      622    1    1    2    0    0  0.48791888013E+00  0.25512854949E+00  0.31420311481E+01  0.36627196379E+01  0.18000000000E+01 0. -1.
</event>
<event>
 5   0  0.7764500E-01  0.9118800E+02  0.7818608E-02  0.1180000E+00
       11   -1    0    0    0    0  0.00000000000E+00  0.00000000000E+00  0.39999999673E+01  0.40000000000E+01  0.51109989000E-03 0.  1.
     -623   -1    0    0    0    0  0.00000000000E+00  0.00000000000E+00  0.12525980253E-10  0.17130000000E+03  0.17130000000E+03 0. -1.
       11    1    1    2    0    0  0.30330515624E-01 -0.12104277416E+00  0.42189952994E-02  0.12485733658E+00  0.51109989000E-03 0.  1.
     -623    1    1    2    0    0  0.10330282423E-01  0.14847404289E-01  0.56700267295E+00  0.17130093934E+03  0.17130000000E+03 0. -1.
      622    1    1    2    0    0 -0.40660798047E-01  0.10619536987E+00  0.34287782991E+01  0.38742033222E+01  0.18000000000E+01 0.  1.
</event>
<event>
 5   0  0.7764500E-01  0.9118800E+02  0.7818608E-02  0.1180000E+00
       11   -1    0    0    0    0  0.00000000000E+00  0.00000000000E+00  0.39999999673E+01  0.40000000000E+01  0.51109989000E-03 0.  1.
     -623   -1    0    0    0    0  0.00000000000E+00  0.00000000000E+00  0.12525980253E-10  0.17130000000E+03  0.17130000000E+03 0. -1.
       11    1    1    2    0    0 -0.14689219735E-01 -0.44986445774E-01  0.22225951567E-01  0.52285826243E-01  0.51109989000E-03 0.  1.
     -623    1    1    2    0    0  0.20444157578E+00 -0.16382991238E-01  0.47083841962E+00  0.17130076986E+03  0.17130000000E+03 0. -1.
      622    1    1    2    0    0 -0.18975235605E+00  0.61369437011E-01  0.35069355962E+01  0.39469443168E+01  0.18000000000E+01 0.  1.
</event>
<event>
 5   0  0.7764500E-01  0.9118800E+02  0.7818608E-02  0.1180000E+00
       11   -1    0    0    0    0  0.00000000000E+00  0.00000000000E+00  0.39999999673E+01  0.40000000000E+01  0.51109989000E-03 0.  1.
     -623   -1    0    0    0    0  0.00000000000E+00  0.00000000000E+00  0.12525980253E-10  0.17130000000E+03  0.17130000000E+03 0.  1.
       11    1    1    2    0    0 -0.23396239028E-01  0.14065453140E-01 -0.16763326887E-01  0.32038903280E-01  0.51109989000E-03 0.  1.
     -623    1    1    2    0    0 -0.43828539055E-01 -0.17801795894E+00  0.48588960308E+00  0.17130078721E+03  0.17130000000E+03 0.  1.
      622    1    1    2    0    0  0.67224778083E-01  0.16395250580E+00  0.35308736912E+01  0.39671738830E+01  0.18000000000E+01 0.  1.
</event>
<event>
 5   0  0.7764500E-01  0.9118800E+02  0.7818608E-02  0.1180000E+00
       11   -1    0    0    0    0  0.00000000000E+00  0.00000000000E+00  0.39999999673E+01  0.40000000000E+01  0.51109989000E-03 0.  1.
     -623   -1    0    0    0    0  0.00000000000E+00  0.00000000000E+00  0.12525980253E-10  0.17130000000E+03  0.17130000000E+03 0. -1.
       11    1    1    2    0    0 -0.28498998401E-01 -0.76688316101E-01  0.70764960994E+00  0.71236333595E+00  0.51109989000E-03 0.  1.
     -623    1    1    2    0    0 -0.21969528867E+00 -0.25644321295E+00  0.57436219132E+00  0.17130129574E+03  0.17130000000E+03 0. -1.
      622    1    1    2    0    0  0.24819428708E+00  0.33313152906E+00  0.27179881661E+01  0.32863409274E+01  0.18000000000E+01 0.  1.
</event>
<event>
 5   0  0.7764500E-01  0.9118800E+02  0.7818608E-02  0.1180000E+00
       11   -1    0    0    0    0  0.00000000000E+00  0.00000000000E+00  0.39999999673E+01  0.40000000000E+01  0.51109989000E-03 0. -1.
     -623   -1    0    0    0    0  0.00000000000E+00  0.00000000000E+00  0.12525980253E-10  0.17130000000E+03  0.17130000000E+03 0.  1.
       11    1    1    2    0    0 -0.15363757979E+00  0.74303324651E+00  0.84505573803E+00  0.11357034705E+01  0.51109989000E-03 0. -1.
     -623    1    1    2    0    0  0.54215765789E+00 -0.22966411718E+00  0.10274414957E+01  0.17130409311E+03  0.17130000000E+03 0.  1.
      622    1    1    2    0    0 -0.38852007810E+00 -0.51336912933E+00  0.21275027336E+01  0.28602034185E+01  0.18000000000E+01 0. -1.
</event>
<event>
 5   0  0.7764500E-01  0.9118800E+02  0.7818608E-02  0.1180000E+00
       11   -1    0    0    0    0  0.00000000000E+00  0.00000000000E+00  0.39999999673E+01  0.40000000000E+01  0.51109989000E-03 0.  1.
     -623   -1    0    0    0    0  0.00000000000E+00  0.00000000000E+00  0.12525980253E-10  0.17130000000E+03  0.17130000000E+03 0.  1.
       11    1    1    2    0    0 -0.17377105650E+00 -0.97972283233E-01  0.31341106178E+00  0.37151272284E+00  0.51109989000E-03 0.  1.
     -623    1    1    2    0    0  0.32351395739E+00 -0.22315501015E-01  0.54325462994E+00  0.17130116837E+03  0.17130000000E+03 0.  1.
      622    1    1    2    0    0 -0.14974290089E+00  0.12028778425E+00  0.31433342756E+01  0.36273189074E+01  0.18000000000E+01 0.  1.
</event>
<event>
 5   0  0.7764500E-01  0.9118800E+02  0.7818608E-02  0.1180000E+00
       11   -1    0    0    0    0  0.00000000000E+00  0.00000000000E+00  0.39999999673E+01  0.40000000000E+01  0.51109989000E-03 0. -1.
     -623   -1    0    0    0    0  0.00000000000E+00  0.00000000000E+00  0.12525980253E-10  0.17130000000E+03  0.17130000000E+03 0.  1.
       11    1    1    2    0    0  0.13192642245E+00 -0.10813864039E+00 -0.73755454360E-01  0.18584583599E+00  0.51109989000E-03 0. -1.
     -623    1    1    2    0    0 -0.32329209898E+00  0.18686339255E-01  0.71976035724E+00  0.17130181821E+03  0.17130000000E+03 0.  1.
      622    1    1    2    0    0  0.19136567653E+00  0.89452301133E-01  0.33539950645E+01  0.38123359544E+01  0.18000000000E+01 0. -1.
</event>
<event>
 5   0  0.7764500E-01  0.9118800E+02  0.7818608E-02  0.1180000E+00
       11   -1    0    0    0    0  0.00000000000E+00  0.00000000000E+00  0.39999999673E+01  0.40000000000E+01  0.51109989000E-03 0.  1.
     -623   -1    0    0    0    0  0.00000000000E+00  0.00000000000E+00  0.12525980253E-10  0.17130000000E+03  0.17130000000E+03 0. -1.
       11    1    1    2    0    0 -0.95427475366E-02  0.18615538616E-01 -0.80524027168E-03  0.20940676768E-01  0.51109989000E-03 0.  1.
     -623    1    1    2    0    0  0.20918405642E+00 -0.14903370600E+00  0.46109090514E+00  0.17130081311E+03  0.17130000000E+03 0. -1.
      622    1    1    2    0    0 -0.19964130888E+00  0.13041816738E+00  0.35397143025E+01  0.39782462083E+01  0.18000000000E+01 0.  1.
</event>
<event>
 5   0  0.7764500E-01  0.9118800E+02  0.7818608E-02  0.1180000E+00
       11   -1    0    0    0    0  0.00000000000E+00  0.00000000000E+00  0.39999999673E+01  0.40000000000E+01  0.51109989000E-03 0. -1.
     -623   -1    0    0    0    0  0.00000000000E+00  0.00000000000E+00  0.12525980253E-10  0.17130000000E+03  0.17130000000E+03 0.  1.
       11    1    1    2    0    0  0.18293196820E+00 -0.44391099319E-01  0.60202170889E+00  0.63076546663E+00  0.51109989000E-03 0. -1.
     -623    1    1    2    0    0 -0.23869973964E+00  0.12088451538E+00  0.55274295187E+00  0.17130110074E+03  0.17130000000E+03 0.  1.
      622    1    1    2    0    0  0.55767771438E-01 -0.76493416058E-01  0.28452353066E+01  0.33681337914E+01  0.18000000000E+01 0. -1.
</event>
<event>
 5   0  0.7764500E-01  0.9118800E+02  0.7818608E-02  0.1180000E+00
       11   -1    0    0    0    0  0.00000000000E+00  0.00000000000E+00  0.39999999673E+01  0.40000000000E+01  0.51109989000E-03 0. -1.
     -623   -1    0    0    0    0  0.00000000000E+00  0.00000000000E+00  0.12525980253E-10  0.17130000000E+03  0.17130000000E+03 0.  1.
       11    1    1    2    0    0 -0.20034370062E+00  0.20265635786E+00 -0.24444527000E+00  0.37544766481E+00  0.51109989000E-03 0. -1.
     -623    1    1    2    0    0  0.40643529821E+00 -0.62089658378E+00  0.11394676683E+01  0.17130539714E+03  0.17130000000E+03 0.  1.
      622    1    1    2    0    0 -0.20609159759E+00  0.41824022591E+00  0.31049775691E+01  0.36191551967E+01  0.18000000000E+01 0. -1.
</event>
<event>
 5   0  0.7764500E-01  0.9118800E+02  0.7818608E-02  0.1180000E+00
       11   -1    0    0    0    0  0.00000000000E+00  0.00000000000E+00  0.39999999673E+01  0.40000000000E+01  0.51109989000E-03 0.  1.
     -623   -1    0    0    0    0  0.00000000000E+00  0.00000000000E+00  0.12525980253E-10  0.17130000000E+03  0.17130000000E+03 0. -1.
       11    1    1    2    0    0 -0.28357409125E-01  0.51376325608E-01 -0.51142121060E-03  0.58687241021E-01  0.51109989000E-03 0.  1.
     -623    1    1    2    0    0 -0.16331047792E+00 -0.13324227961E+00  0.50141125837E+00  0.17130086350E+03  0.17130000000E+03 0. -1.
      622    1    1    2    0    0  0.19166788705E+00  0.81865954003E-01  0.34991001302E+01  0.39404492554E+01  0.18000000000E+01 0.  1.
</event>
<event>
 5   0  0.7764500E-01  0.9118800E+02  0.7818608E-02  0.1180000E+00
       11   -1    0    0    0    0  0.00000000000E+00  0.00000000000E+00  0.39999999673E+01  0.40000000000E+01  0.51109989000E-03 0.  1.
     -623   -1    0    0    0    0  0.00000000000E+00  0.00000000000E+00  0.12525980253E-10  0.17130000000E+03  0.17130000000E+03 0.  1.
       11    1    1    2    0    0  0.84091354422E-01  0.13032162279E+00  0.22947217145E+00  0.27697079259E+00  0.51109989000E-03 0.  1.
     -623    1    1    2    0    0 -0.41195521026E+00 -0.35739079180E-01  0.53098093905E+00  0.17130132202E+03  0.17130000000E+03 0.  1.
      622    1    1    2    0    0  0.32786385584E+00 -0.94582543607E-01  0.32395468569E+01  0.37217071894E+01  0.18000000000E+01 0.  1.
</event>
<event>
 5   0  0.7764500E-01  0.9118800E+02  0.7818608E-02  0.1180000E+00
       11   -1    0    0    0    0  0.00000000000E+00  0.00000000000E+00  0.39999999673E+01  0.40000000000E+01  0.51109989000E-03 0.  1.
     -623   -1    0    0    0    0  0.00000000000E+00  0.00000000000E+00  0.12525980253E-10  0.17130000000E+03  0.17130000000E+03 0. -1.
       11    1    1    2    0    0 -0.87610480623E-01  0.67826672651E-01 -0.87701793470E-01  0.14130788951E+00  0.51109989000E-03 0.  1.
     -623    1    1    2    0    0  0.67749170658E-01  0.56111685703E-01  0.67841890411E+00  0.17130136599E+03  0.17130000000E+03 0. -1.
      622    1    1    2    0    0  0.19861309965E-01 -0.12393835835E+00  0.34092828567E+01  0.38573261186E+01  0.18000000000E+01 0.  1.
</event>
<event>
 5   0  0.7764500E-01  0.9118800E+02  0.7818608E-02  0.1180000E+00
       11   -1    0    0    0    0  0.00000000000E+00  0.00000000000E+00  0.39999999673E+01  0.40000000000E+01  0.51109989000E-03 0.  1.
     -623   -1    0    0    0    0  0.00000000000E+00  0.00000000000E+00  0.12525980253E-10  0.17130000000E+03  0.17130000000E+03 0. -1.
       11    1    1    2    0    0 -0.32931356252E-01  0.19565064161E+00 -0.14496198226E+00  0.24571911872E+00  0.51109989000E-03 0.  1.
     -623    1    1    2    0    0  0.20458294929E+00 -0.58162362966E+00  0.88139951401E+00  0.17130337710E+03  0.17130000000E+03 0. -1.
      622    1    1    2    0    0 -0.17165159304E+00  0.38597298805E+00  0.32635624356E+01  0.37509037828E+01  0.18000000000E+01 0.  1.
</event>
<event>
 5   0  0.7764500E-01  0.9118800E+02  0.7818608E-02  0.1180000E+00
       11   -1    0    0    0    0  0.00000000000E+00  0.00000000000E+00  0.39999999673E+01  0.40000000000E+01  0.51109989000E-03 0.  1.
     -623   -1    0    0    0    0  0.00000000000E+00  0.00000000000E+00  0.12525980253E-10  0.17130000000E+03  0.17130000000E+03 0. -1.
       11    1    1    2    0    0 -0.11086338888E+00  0.81124110039E-01  0.13256041597E+00  0.19090400029E+00  0.51109989000E-03 0.  1.
     -623    1    1    2    0    0  0.33888672238E+00 -0.12513314638E+00  0.51984770217E+00  0.17130116971E+03  0.17130000000E+03 0. -1.
      622    1    1    2    0    0 -0.22802333350E+00  0.44009036338E-01  0.33475918492E+01  0.38079262893E+01  0.18000000000E+01 0.  1.
</event>
<event>
 5   0  0.7764500E-01  0.9118800E+02  0.7818608E-02  0.1180000E+00
       11   -1    0    0    0    0  0.00000000000E+00  0.00000000000E+00  0.39999999673E+01  0.40000000000E+01  0.51109989000E-03 0. -1.
     -623   -1    0    0    0    0  0.00000000000E+00  0.00000000000E+00  0.12525980253E-10  0.17130000000E+03  0.17130000000E+03 0. -1.
       11    1    1    2    0    0 -0.26239981118E+00  0.78238275402E-01  0.53729368254E+00  0.60304199785E+00  0.51109989000E-03 0. -1.
     -623    1    1    2    0    0  0.18961088779E+00 -0.15297189371E+00  0.58512477190E+00  0.17130117257E+03  0.17130000000E+03 0. -1.
      622    1    1    2    0    0  0.72788923386E-01  0.74733618304E-01  0.28775815129E+01  0.33957854326E+01  0.18000000000E+01 0. -1.
</event>
<event>
 5   0  0.7764500E-01  0.9118800E+02  0.7818608E-02  0.1180000E+00
       11   -1    0    0    0    0  0.00000000000E+00  0.00000000000E+00  0.39999999673E+01  0.40000000000E+01  0.51109989000E-03 0.  1.
     -623   -1    0    0    0    0  0.00000000000E+00  0.00000000000E+00  0.12525980253E-10  0.17130000000E+03  0.17130000000E+03 0.  1.
       11    1    1    2    0    0  0.47816763973E-02  0.12241990705E+00  0.19087750941E+00  0.22681266035E+00  0.51109989000E-03 0.  1.
     -623    1    1    2    0    0 -0.54752635880E-01 -0.27902933392E-01  0.49551094717E+00  0.17130072769E+03  0.17130000000E+03 0.  1.
      622    1    1    2    0    0  0.49970959482E-01 -0.94516973655E-01  0.33136115108E+01  0.37724596485E+01  0.18000000000E+01 0.  1.
</event>
<event>
 5   0  0.7764500E-01  0.9118800E+02  0.7818608E-02  0.1180000E+00
       11   -1    0    0    0    0  0.00000000000E+00  0.00000000000E+00  0.39999999673E+01  0.40000000000E+01  0.51109989000E-03 0. -1.
     -623   -1    0    0    0    0  0.00000000000E+00  0.00000000000E+00  0.12525980253E-10  0.17130000000E+03  0.17130000000E+03 0. -1.
       11    1    1    2    0    0 -0.20412693198E+00 -0.23901493596E+00  0.23355406891E+00  0.39159125156E+00  0.51109989000E-03 0. -1.
     -623    1    1    2    0    0  0.57988030791E+00 -0.11722121335E+00  0.68500668041E+00  0.17130239122E+03  0.17130000000E+03 0. -1.
      622    1    1    2    0    0 -0.37575337593E+00  0.35623614931E+00  0.30814392180E+01  0.36060175330E+01  0.18000000000E+01 0. -1.
</event>
<event>
 5   0  0.7764500E-01  0.9118800E+02  0.7818608E-02  0.1180000E+00
       11   -1    0    0    0    0  0.00000000000E+00  0.00000000000E+00  0.39999999673E+01  0.40000000000E+01  0.51109989000E-03 0. -1.
     -623   -1    0    0    0    0  0.00000000000E+00  0.00000000000E+00  0.12525980253E-10  0.17130000000E+03  0.17130000000E+03 0.  1.
       11    1    1    2    0    0  0.30838565063E-01 -0.18214777090E+00  0.23781448324E-01  0.18626498878E+00  0.51109989000E-03 0. -1.
     -623    1    1    2    0    0 -0.29961606724E+00 -0.19216502706E+00  0.64754463855E+00  0.17130159372E+03  0.17130000000E+03 0.  1.
      622    1    1    2    0    0  0.26877750217E+00  0.37431279797E+00  0.33286738805E+01  0.38121412905E+01  0.18000000000E+01 0. -1.
</event>
<event>
 5   0  0.7764500E-01  0.9118800E+02  0.7818608E-02  0.1180000E+00
       11   -1    0    0    0    0  0.00000000000E+00  0.00000000000E+00  0.39999999673E+01  0.40000000000E+01  0.51109989000E-03 0.  1.
     -623   -1    0    0    0    0  0.00000000000E+00  0.00000000000E+00  0.12525980253E-10  0.17130000000E+03  0.17130000000E+03 0. -1.
       11    1    1    2    0    0  0.34194731380E+00 -0.21274515920E+00  0.38054253860E+00  0.55407702811E+00  0.51109989000E-03 0.  1.
     -623    1    1    2    0    0  0.40041832862E+00  0.46641251738E+00  0.79125232065E+00  0.17130293038E+03  0.17130000000E+03 0. -1.
      622    1    1    2    0    0 -0.74236564242E+00 -0.25366735818E+00  0.28282051081E+01  0.34429925950E+01  0.18000000000E+01 0.  1.
</event>
<event>
 5   0  0.7764500E-01  0.9118800E+02  0.7818608E-02  0.1180000E+00
       11   -1    0    0    0    0  0.00000000000E+00  0.00000000000E+00  0.39999999673E+01  0.40000000000E+01  0.51109989000E-03 0.  1.
     -623   -1    0    0    0    0  0.00000000000E+00  0.00000000000E+00  0.12525980253E-10  0.17130000000E+03  0.17130000000E+03 0. -1.
       11    1    1    2    0    0  0.20938795537E+00 -0.21162028831E+00  0.21640861215E-02  0.29771027320E+00  0.51109989000E-03 0.  1.
     -623    1    1    2    0    0 -0.18315879457E+00  0.25765415770E+00  0.76529380696E+00  0.17130200118E+03  0.17130000000E+03 0. -1.
      622    1    1    2    0    0 -0.26229160804E-01 -0.46033869397E-01  0.32325420743E+01  0.37002885493E+01  0.18000000000E+01 0.  1.
</event>
<event>
 5   0  0.7764500E-01  0.9118800E+02  0.7818608E-02  0.1180000E+00
       11   -1    0    0    0    0  0.00000000000E+00  0.00000000000E+00  0.39999999673E+01  0.40000000000E+01  0.51109989000E-03 0.  1.
     -623   -1    0    0    0    0  0.00000000000E+00  0.00000000000E+00  0.12525980253E-10  0.17130000000E+03  0.17130000000E+03 0.  1.
       11    1    1    2    0    0  0.13895137299E+00  0.82442411258E-01  0.90435667255E-01  0.18515697763E+00  0.51109989000E-03 0.  1.
     -623    1    1    2    0    0 -0.28304633675E+00 -0.15050423369E+00  0.55120485903E+00  0.17130118678E+03  0.17130000000E+03 0.  1.
      622    1    1    2    0    0  0.14409496376E+00  0.68061822432E-01  0.33583594411E+01  0.38136562385E+01  0.18000000000E+01 0.  1.
</event>
<event>
 5   0  0.7764500E-01  0.9118800E+02  0.7818608E-02  0.1180000E+00
       11   -1    0    0    0    0  0.00000000000E+00  0.00000000000E+00  0.39999999673E+01  0.40000000000E+01  0.51109989000E-03 0. -1.
     -623   -1    0    0    0    0  0.00000000000E+00  0.00000000000E+00  0.12525980253E-10  0.17130000000E+03  0.17130000000E+03 0.  1.
       11    1    1    2    0    0  0.33640630028E+00 -0.21305638852E+00 -0.40530556191E-01  0.40025643126E+00  0.51109989000E-03 0. -1.
     -623    1    1    2    0    0 -0.97393453348E-01  0.45168338078E+00  0.94523860198E+00  0.17130323108E+03  0.17130000000E+03 0.  1.
      622    1    1    2    0    0 -0.23901284694E+00 -0.23862699226E+00  0.30952919216E+01  0.35965124860E+01  0.18000000000E+01 0.  0.
</event>
<event>
 5   0  0.7764500E-01  0.9118800E+02  0.7818608E-02  0.1180000E+00
       11   -1    0    0    0    0  0.00000000000E+00  0.00000000000E+00  0.39999999673E+01  0.40000000000E+01  0.51109989000E-03 0. -1.
     -623   -1    0    0    0    0  0.00000000000E+00  0.00000000000E+00  0.12525980253E-10  0.17130000000E+03  0.17130000000E+03 0.  1.
       11    1    1    2    0    0 -0.40413280095E+00  0.20362690233E+00  0.15195150419E+00  0.47736438598E+00  0.51109989000E-03 0. -1.
     -623    1    1    2    0    0 -0.37003614392E+00  0.21647957896E+00  0.95484666770E+00  0.17130319764E+03  0.17130000000E+03 0.  1.
      622    1    1    2    0    0  0.77416894486E+00 -0.42010648129E+00  0.28932017955E+01  0.35194379722E+01  0.18000000000E+01 0. -1.
</event>
<event>
 5   0  0.7764500E-01  0.9118800E+02  0.7818608E-02  0.1180000E+00
       11   -1    0    0    0    0  0.00000000000E+00  0.00000000000E+00  0.39999999673E+01  0.40000000000E+01  0.51109989000E-03 0. -1.
     -623   -1    0    0    0    0  0.00000000000E+00  0.00000000000E+00  0.12525980253E-10  0.17130000000E+03  0.17130000000E+03 0.  1.
       11    1    1    2    0    0 -0.10348252068E+00  0.67238783097E-01  0.50832332897E-01  0.13346862302E+00  0.51109989000E-03 0. -1.
     -623    1    1    2    0    0  0.15030038204E-01 -0.15989127716E-01  0.52962484011E+00  0.17130082015E+03  0.17130000000E+03 0.  1.
      622    1    1    2    0    0  0.88452482480E-01 -0.51249655382E-01  0.34195427944E+01  0.38657112271E+01  0.18000000000E+01 0. -1.
</event>
<event>
 5   0  0.7764500E-01  0.9118800E+02  0.7818608E-02  0.1180000E+00
       11   -1    0    0    0    0  0.00000000000E+00  0.00000000000E+00  0.39999999673E+01  0.40000000000E+01  0.51109989000E-03 0.  1.
     -623   -1    0    0    0    0  0.00000000000E+00  0.00000000000E+00  0.12525980253E-10  0.17130000000E+03  0.17130000000E+03 0. -1.
       11    1    1    2    0    0 -0.21154151303E+00  0.89627134866E-01 -0.23442720823E-01  0.23093864428E+00  0.51109989000E-03 0.  1.
     -623    1    1    2    0    0 -0.36695318989E-01 -0.32153961218E+00  0.73158279212E+00  0.17130186790E+03  0.17130000000E+03 0. -1.
      622    1    1    2    0    0  0.24823683202E+00  0.23191247731E+00  0.32918598961E+01  0.37671934510E+01  0.18000000000E+01 0.  0.
</event>
<event>
 5   0  0.7764500E-01  0.9118800E+02  0.7818608E-02  0.1180000E+00
       11   -1    0    0    0    0  0.00000000000E+00  0.00000000000E+00  0.39999999673E+01  0.40000000000E+01  0.51109989000E-03 0. -1.
     -623   -1    0    0    0    0  0.00000000000E+00  0.00000000000E+00  0.12525980253E-10  0.17130000000E+03  0.17130000000E+03 0.  1.
       11    1    1    2    0    0 -0.23145289122E-01  0.40708570242E-01  0.58627528144E+00  0.58814271988E+00  0.51109989000E-03 0. -1.
     -623    1    1    2    0    0 -0.17104973720E-03 -0.39858777700E+00  0.53914701988E+00  0.17130131217E+03  0.17130000000E+03 0.  1.
      622    1    1    2    0    0  0.23316338859E-01  0.35787920676E+00  0.28745776660E+01  0.34105451084E+01  0.18000000000E+01 0. -1.
</event>
<event>
 5   0  0.7764500E-01  0.9118800E+02  0.7818608E-02  0.1180000E+00
       11   -1    0    0    0    0  0.00000000000E+00  0.00000000000E+00  0.39999999673E+01  0.40000000000E+01  0.51109989000E-03 0. -1.
     -623   -1    0    0    0    0  0.00000000000E+00  0.00000000000E+00  0.12525980253E-10  0.17130000000E+03  0.17130000000E+03 0.  1.
       11    1    1    2    0    0  0.14225397987E-01  0.34052886727E-01  0.56741609814E-01  0.67689235091E-01  0.51109989000E-03 0. -1.
     -623    1    1    2    0    0 -0.15342568672E-01 -0.12328333630E+00  0.44895961819E+00  0.17130063339E+03  0.17130000000E+03 0.  1.
      622    1    1    2    0    0  0.11171706851E-02  0.89230449573E-01  0.34942987394E+01  0.39316773775E+01  0.18000000000E+01 0. -1.
</event>
<event>
 5   0  0.7764500E-01  0.9118800E+02  0.7818608E-02  0.1180000E+00
       11   -1    0    0    0    0  0.00000000000E+00  0.00000000000E+00  0.39999999673E+01  0.40000000000E+01  0.51109989000E-03 0.  1.
     -623   -1    0    0    0    0  0.00000000000E+00  0.00000000000E+00  0.12525980253E-10  0.17130000000E+03  0.17130000000E+03 0. -1.
       11    1    1    2    0    0  0.39514702060E+00 -0.68054348845E-01  0.17690626919E+00  0.43825637655E+00  0.51109989000E-03 0.  1.
     -623    1    1    2    0    0  0.15554082166E+00  0.28055441841E+00  0.80948371837E+00  0.17130221297E+03  0.17130000000E+03 0. -1.
      622    1    1    2    0    0 -0.55068784225E+00 -0.21250006957E+00  0.30136099798E+01  0.35595306558E+01  0.18000000000E+01 0.  1.
</event>
<event>
 5   0  0.7764500E-01  0.9118800E+02  0.7818608E-02  0.1180000E+00
       11   -1    0    0    0    0  0.00000000000E+00  0.00000000000E+00  0.39999999673E+01  0.40000000000E+01  0.51109989000E-03 0. -1.
     -623   -1    0    0    0    0  0.00000000000E+00  0.00000000000E+00  0.12525980253E-10  0.17130000000E+03  0.17130000000E+03 0.  1.
       11    1    1    2    0    0 -0.24081445303E-01 -0.14429260494E+00  0.15526832872E+00  0.21332788607E+00  0.51109989000E-03 0. -1.
     -623    1    1    2    0    0  0.64007692729E-01  0.38795175244E+00  0.52382207824E+00  0.17130125216E+03  0.17130000000E+03 0.  1.
      622    1    1    2    0    0 -0.39926247426E-01 -0.24365914750E+00  0.33209095604E+01  0.37854199495E+01  0.18000000000E+01 0. -1.
</event>
<event>
 5   0  0.7764500E-01  0.9118800E+02  0.7818608E-02  0.1180000E+00
       11   -1    0    0    0    0  0.00000000000E+00  0.00000000000E+00  0.39999999673E+01  0.40000000000E+01  0.51109989000E-03 0. -1.
     -623   -1    0    0    0    0  0.00000000000E+00  0.00000000000E+00  0.12525980253E-10  0.17130000000E+03  0.17130000000E+03 0. -1.
       11    1    1    2    0    0 -0.18838023098E-01 -0.82293366976E-01 -0.57277915534E-01  0.10202004800E+00  0.51109989000E-03 0. -1.
     -623    1    1    2    0    0 -0.24271805764E+00 -0.27149943514E-01  0.61286856662E+00  0.17130127045E+03  0.17130000000E+03 0. -1.
      622    1    1    2    0    0  0.26155608074E+00  0.10944331049E+00  0.34444093163E+01  0.38967095041E+01  0.18000000000E+01 0. -1.
</event>
<event>
 5   0  0.7764500E-01  0.9118800E+02  0.7818608E-02  0.1180000E+00
       11   -1    0    0    0    0  0.00000000000E+00  0.00000000000E+00  0.39999999673E+01  0.40000000000E+01  0.51109989000E-03 0. -1.
     -623   -1    0    0    0    0  0.00000000000E+00  0.00000000000E+00  0.12525980253E-10  0.17130000000E+03  0.17130000000E+03 0. -1.
       11    1    1    2    0    0  0.14711631650E+00 -0.51423727472E-01  0.29258922662E-01  0.15856845874E+00  0.51109989000E-03 0. -1.
     -623    1    1    2    0    0  0.31844154062E-01  0.26816491204E+00  0.59018669522E+00  0.17130122955E+03  0.17130000000E+03 0. -1.
      622    1    1    2    0    0 -0.17896047056E+00 -0.21674118457E+00  0.33805543495E+01  0.38402019870E+01  0.18000000000E+01 0. -1.
</event>
<event>
 5   0  0.7764500E-01  0.9118800E+02  0.7818608E-02  0.1180000E+00
       11   -1    0    0    0    0  0.00000000000E+00  0.00000000000E+00  0.39999999673E+01  0.40000000000E+01  0.51109989000E-03 0.  1.
     -623   -1    0    0    0    0  0.00000000000E+00  0.00000000000E+00  0.12525980253E-10  0.17130000000E+03  0.17130000000E+03 0.  1.
       11    1    1    2    0    0  0.19114656222E+00  0.46817122834E+00  0.51785139308E+00  0.72380358788E+00  0.51109989000E-03 0.  1.
     -623    1    1    2    0    0 -0.81054811337E+00  0.17478900520E+00  0.89994272416E+00  0.17130437075E+03  0.17130000000E+03 0.  1.
      622    1    1    2    0    0  0.61940155116E+00 -0.64296023353E+00  0.25822058501E+01  0.32718256671E+01  0.18000000000E+01 0.  1.
</event>
<event>
 5   0  0.7764500E-01  0.9118800E+02  0.7818608E-02  0.1180000E+00
       11   -1    0    0    0    0  0.00000000000E+00  0.00000000000E+00  0.39999999673E+01  0.40000000000E+01  0.51109989000E-03 0.  1.
     -623   -1    0    0    0    0  0.00000000000E+00  0.00000000000E+00  0.12525980253E-10  0.17130000000E+03  0.17130000000E+03 0.  1.
       11    1    1    2    0    0 -0.10152497738E-01  0.87824522086E-01  0.13780235409E-01  0.89478354930E-01  0.51109989000E-03 0.  1.
     -623    1    1    2    0    0 -0.54711046013E-01  0.44925197364E-01  0.51864199089E+00  0.17130079977E+03  0.17130000000E+03 0.  1.
      622    1    1    2    0    0  0.64863543751E-01 -0.13274971945E+00  0.34675777411E+01  0.39097218773E+01  0.18000000000E+01 0.  1.
</event>
<event>
 5   0  0.7764500E-01  0.9118800E+02  0.7818608E-02  0.1180000E+00
       11   -1    0    0    0    0  0.00000000000E+00  0.00000000000E+00  0.39999999673E+01  0.40000000000E+01  0.51109989000E-03 0.  1.
     -623   -1    0    0    0    0  0.00000000000E+00  0.00000000000E+00  0.12525980253E-10  0.17130000000E+03  0.17130000000E+03 0. -1.
       11    1    1    2    0    0 -0.17373041411E-01 -0.15393684896E+00 -0.14666213992E+00  0.21332702722E+00  0.51109989000E-03 0.  1.
     -623    1    1    2    0    0 -0.92545021834E-01  0.23012108808E+00  0.82028617768E+00  0.17130214356E+03  0.17130000000E+03 0. -1.
      622    1    1    2    0    0  0.10991806324E+00 -0.76184239119E-01  0.33263759296E+01  0.37845294085E+01  0.18000000000E+01 0.  1.
</event>
<event>
 5   0  0.7764500E-01  0.9118800E+02  0.7818608E-02  0.1180000E+00
       11   -1    0    0    0    0  0.00000000000E+00  0.00000000000E+00  0.39999999673E+01  0.40000000000E+01  0.51109989000E-03 0. -1.
     -623   -1    0    0    0    0  0.00000000000E+00  0.00000000000E+00  0.12525980253E-10  0.17130000000E+03  0.17130000000E+03 0. -1.
       11    1    1    2    0    0 -0.50473962342E-01 -0.10815857049E+00  0.14517670888E+00  0.18794263823E+00  0.51109989000E-03 0. -1.
     -623    1    1    2    0    0 -0.22240316422E+00  0.12854080912E+00  0.50673093215E+00  0.17130094209E+03  0.17130000000E+03 0. -1.
      622    1    1    2    0    0  0.27287712656E+00 -0.20382238626E-01  0.33480923263E+01  0.38111152682E+01  0.18000000000E+01 0. -1.
</event>
<event>
 5   0  0.7764500E-01  0.9118800E+02  0.7818608E-02  0.1180000E+00
       11   -1    0    0    0    0  0.00000000000E+00  0.00000000000E+00  0.39999999673E+01  0.40000000000E+01  0.51109989000E-03 0.  1.
     -623   -1    0    0    0    0  0.00000000000E+00  0.00000000000E+00  0.12525980253E-10  0.17130000000E+03  0.17130000000E+03 0. -1.
       11    1    1    2    0    0 -0.74359868867E-01  0.62594469511E-01 -0.42868435186E-01  0.10623286529E+00  0.51109989000E-03 0.  1.
     -623    1    1    2    0    0  0.93355810301E-03 -0.22104182747E-01  0.59230219700E+00  0.17130102542E+03  0.17130000000E+03 0. -1.
      622    1    1    2    0    0  0.73426310764E-01 -0.40490286764E-01  0.34505662055E+01  0.38927417106E+01  0.18000000000E+01 0.  1.
</event>
<event>
 5   0  0.7764500E-01  0.9118800E+02  0.7818608E-02  0.1180000E+00
       11   -1    0    0    0    0  0.00000000000E+00  0.00000000000E+00  0.39999999673E+01  0.40000000000E+01  0.51109989000E-03 0. -1.
     -623   -1    0    0    0    0  0.00000000000E+00  0.00000000000E+00  0.12525980253E-10  0.17130000000E+03  0.17130000000E+03 0.  1.
       11    1    1    2    0    0  0.20947417851E+00 -0.30249469411E+00  0.15556881599E+00  0.39948014864E+00  0.51109989000E-03 0. -1.
     -623    1    1    2    0    0 -0.29792937696E+00  0.43394240886E+00  0.73291512930E+00  0.17130237661E+03  0.17130000000E+03 0.  1.
      622    1    1    2    0    0  0.88455198456E-01 -0.13144771474E+00  0.31115160221E+01  0.35981432405E+01  0.18000000000E+01 0. -1.
</event>
<event>
 5   0  0.7764500E-01  0.9118800E+02  0.7818608E-02  0.1180000E+00
       11   -1    0    0    0    0  0.00000000000E+00  0.00000000000E+00  0.39999999673E+01  0.40000000000E+01  0.51109989000E-03 0.  1.
     -623   -1    0    0    0    0  0.00000000000E+00  0.00000000000E+00  0.12525980253E-10  0.17130000000E+03  0.17130000000E+03 0.  1.
       11    1    1    2    0    0  0.39148153944E-01  0.14692696997E+00  0.23623839148E+00  0.28094296805E+00  0.51109989000E-03 0.  1.
     -623    1    1    2    0    0  0.19417877398E-01 -0.24295629704E+00  0.51233944521E+00  0.17130093957E+03  0.17130000000E+03 0.  1.
      622    1    1    2    0    0 -0.58566031343E-01  0.96029327063E-01  0.32514221307E+01  0.37181174650E+01  0.18000000000E+01 0.  1.
</event>
<event>
 5   0  0.7764500E-01  0.9118800E+02  0.7818608E-02  0.1180000E+00
       11   -1    0    0    0    0  0.00000000000E+00  0.00000000000E+00  0.39999999673E+01  0.40000000000E+01  0.51109989000E-03 0.  1.
     -623   -1    0    0    0    0  0.00000000000E+00  0.00000000000E+00  0.12525980253E-10  0.17130000000E+03  0.17130000000E+03 0.  1.
       11    1    1    2    0    0  0.96459976748E-01  0.23957072026E+00  0.38586617766E+00  0.46431845258E+00  0.51109989000E-03 0.  1.
     -623    1    1    2    0    0  0.69884368787E-01 -0.17585502422E+00  0.57740949425E+00  0.17130107767E+03  0.17130000000E+03 0.  1.
      622    1    1    2    0    0 -0.16634434553E+00 -0.63715696047E-01  0.30367242955E+01  0.35346038785E+01  0.18000000000E+01 0.  1.
</event>
<event>
 5   0  0.7764500E-01  0.9118800E+02  0.7818608E-02  0.1180000E+00
       11   -1    0    0    0    0  0.00000000000E+00  0.00000000000E+00  0.39999999673E+01  0.40000000000E+01  0.51109989000E-03 0. -1.
     -623   -1    0    0    0    0  0.00000000000E+00  0.00000000000E+00  0.12525980253E-10  0.17130000000E+03  0.17130000000E+03 0. -1.
       11    1    1    2    0    0 -0.29041579632E-01  0.30751422556E+00  0.39051466797E+00  0.49790599453E+00  0.51109989000E-03 0. -1.
     -623    1    1    2    0    0  0.47674031614E+00 -0.12140558999E+00  0.64703891996E+00  0.17130192842E+03  0.17130000000E+03 0. -1.
      622    1    1    2    0    0 -0.44769873651E+00 -0.18610863556E+00  0.29624463794E+01  0.35001655866E+01  0.18000000000E+01 0. -1.
</event>
<event>
 5   0  0.7764500E-01  0.9118800E+02  0.7818608E-02  0.1180000E+00
       11   -1    0    0    0    0  0.00000000000E+00  0.00000000000E+00  0.39999999673E+01  0.40000000000E+01  0.51109989000E-03 0. -1.
     -623   -1    0    0    0    0  0.00000000000E+00  0.00000000000E+00  0.12525980253E-10  0.17130000000E+03  0.17130000000E+03 0. -1.
       11    1    1    2    0    0  0.15905510427E+00  0.95795586960E-02  0.47194552289E-01  0.16618628441E+00  0.51109989000E-03 0. -1.
     -623    1    1    2    0    0  0.15800870815E+00 -0.29747141136E+00  0.59658529176E+00  0.17130137002E+03  0.17130000000E+03 0. -1.
      622    1    1    2    0    0 -0.31706381242E+00  0.28789185266E+00  0.33562201233E+01  0.38324436977E+01  0.18000000000E+01 0. -1.
</event>
<event>
 5   0  0.7764500E-01  0.9118800E+02  0.7818608E-02  0.1180000E+00
       11   -1    0    0    0    0  0.00000000000E+00  0.00000000000E+00  0.39999999673E+01  0.40000000000E+01  0.51109989000E-03 0. -1.
     -623   -1    0    0    0    0  0.00000000000E+00  0.00000000000E+00  0.12525980253E-10  0.17130000000E+03  0.17130000000E+03 0. -1.
       11    1    1    2    0    0 -0.41237609074E-01 -0.11737212575E+00 -0.18366534500E-01  0.12575510772E+00  0.51109989000E-03 0. -1.
     -623    1    1    2    0    0 -0.18405253568E+00  0.29577196589E+00  0.60131059779E+00  0.17130140960E+03  0.17130000000E+03 0. -1.
      622    1    1    2    0    0  0.22529014475E+00 -0.17839984014E+00  0.34170559041E+01  0.38728352926E+01  0.18000000000E+01 0. -1.
</event>
<event>
 5   0  0.7764500E-01  0.9118800E+02  0.7818608E-02  0.1180000E+00
       11   -1    0    0    0    0  0.00000000000E+00  0.00000000000E+00  0.39999999673E+01  0.40000000000E+01  0.51109989000E-03 0.  1.
     -623   -1    0    0    0    0  0.00000000000E+00  0.00000000000E+00  0.12525980253E-10  0.17130000000E+03  0.17130000000E+03 0. -1.
       11    1    1    2    0    0 -0.59629491985E-01  0.17982951601E+00  0.19194790271E+00  0.26970092644E+00  0.51109989000E-03 0.  1.
     -623    1    1    2    0    0 -0.66817352125E-01  0.67554857848E-03  0.54923405040E+00  0.17130089353E+03  0.17130000000E+03 0. -1.
      622    1    1    2    0    0  0.12644684411E+00 -0.18050506459E+00  0.32588180142E+01  0.37294055468E+01  0.18000000000E+01 0.  1.
</event>
<event>
 5   0  0.7764500E-01  0.9118800E+02  0.7818608E-02  0.1180000E+00
       11   -1    0    0    0    0  0.00000000000E+00  0.00000000000E+00  0.39999999673E+01  0.40000000000E+01  0.51109989000E-03 0. -1.
     -623   -1    0    0    0    0  0.00000000000E+00  0.00000000000E+00  0.12525980253E-10  0.17130000000E+03  0.17130000000E+03 0.  1.
       11    1    1    2    0    0 -0.21522471879E-01 -0.75265213607E-01  0.55930995618E-01  0.96211260614E-01  0.51109989000E-03 0. -1.
     -623    1    1    2    0    0 -0.13208963557E+00  0.19075488814E+00  0.48632172704E+00  0.17130084747E+03  0.17130000000E+03 0.  1.
      622    1    1    2    0    0  0.15361210745E+00 -0.11548967454E+00  0.34577472447E+01  0.39029412694E+01  0.18000000000E+01 0. -1.
</event>
<event>
 5   0  0.7764500E-01  0.9118800E+02  0.7818608E-02  0.1180000E+00
       11   -1    0    0    0    0  0.00000000000E+00  0.00000000000E+00  0.39999999673E+01  0.40000000000E+01  0.51109989000E-03 0. -1.
     -623   -1    0    0    0    0  0.00000000000E+00  0.00000000000E+00  0.12525980253E-10  0.17130000000E+03  0.17130000000E+03 0.  1.
       11    1    1    2    0    0  0.18039229438E+00  0.29653864704E+00  0.32441185126E+00  0.47509984163E+00  0.51109989000E-03 0. -1.
     -623    1    1    2    0    0  0.14175116055E+00  0.10634579355E+00  0.69090011592E+00  0.17130148495E+03  0.17130000000E+03 0.  1.
      622    1    1    2    0    0 -0.32214345492E+00 -0.40288444060E+00  0.29846880002E+01  0.35234152092E+01  0.18000000000E+01 0. -1.
</event>
<event>
 5   0  0.7764500E-01  0.9118800E+02  0.7818608E-02  0.1180000E+00
       11   -1    0    0    0    0  0.00000000000E+00  0.00000000000E+00  0.39999999673E+01  0.40000000000E+01  0.51109989000E-03 0.  1.
     -623   -1    0    0    0    0  0.00000000000E+00  0.00000000000E+00  0.12525980253E-10  0.17130000000E+03  0.17130000000E+03 0. -1.
       11    1    1    2    0    0 -0.97709318420E-01 -0.11337800737E-01 -0.32096599273E-01  0.10347033169E+00  0.51109989000E-03 0.  1.
     -623    1    1    2    0    0 -0.99141686074E-01  0.23591342532E+00  0.59053612101E+00  0.17130120904E+03  0.17130000000E+03 0. -1.
      622    1    1    2    0    0  0.19685100449E+00 -0.22457562458E+00  0.34415604456E+01  0.38953206325E+01  0.18000000000E+01 0.  1.
</event>
<event>
 5   0  0.7764500E-01  0.9118800E+02  0.7818608E-02  0.1180000E+00
       11   -1    0    0    0    0  0.00000000000E+00  0.00000000000E+00  0.39999999673E+01  0.40000000000E+01  0.51109989000E-03 0.  1.
     -623   -1    0    0    0    0  0.00000000000E+00  0.00000000000E+00  0.12525980253E-10  0.17130000000E+03  0.17130000000E+03 0.  1.
       11    1    1    2    0    0 -0.12673649533E+00 -0.14872905179E-01  0.32016493710E-01  0.13156237931E+00  0.51109989000E-03 0.  1.
     -623    1    1    2    0    0 -0.30794078348E+00  0.26137822209E+00  0.58216531206E+00  0.17130146544E+03  0.17130000000E+03 0.  1.
      622    1    1    2    0    0  0.43467727881E+00 -0.24650531691E+00  0.33858181616E+01  0.38669721788E+01  0.18000000000E+01 0.  1.
</event>
<event>
 5   0  0.7764500E-01  0.9118800E+02  0.7818608E-02  0.1180000E+00
       11   -1    0    0    0    0  0.00000000000E+00  0.00000000000E+00  0.39999999673E+01  0.40000000000E+01  0.51109989000E-03 0.  1.
     -623   -1    0    0    0    0  0.00000000000E+00  0.00000000000E+00  0.12525980253E-10  0.17130000000E+03  0.17130000000E+03 0. -1.
       11    1    1    2    0    0  0.18285687981E+00  0.22186202110E+00  0.36821781131E+00  0.46716593700E+00  0.51109989000E-03 0.  1.
     -623    1    1    2    0    0 -0.20013269292E+00 -0.72227861200E-01  0.59699300961E+00  0.17130117241E+03  0.17130000000E+03 0. -1.
      622    1    1    2    0    0  0.17275813115E-01 -0.14963415990E+00  0.30347891464E+01  0.35316616484E+01  0.18000000000E+01 0.  1.
</event>
<event>
 5   0  0.7764500E-01  0.9118800E+02  0.7818608E-02  0.1180000E+00
       11   -1    0    0    0    0  0.00000000000E+00  0.00000000000E+00  0.39999999673E+01  0.40000000000E+01  0.51109989000E-03 0.  1.
     -623   -1    0    0    0    0  0.00000000000E+00  0.00000000000E+00  0.12525980253E-10  0.17130000000E+03  0.17130000000E+03 0. -1.
       11    1    1    2    0    0 -0.50847975009E-01 -0.50351560547E-01 -0.92033026862E-01  0.11658102534E+00  0.51109989000E-03 0.  1.
     -623    1    1    2    0    0 -0.11702917459E+00 -0.17310306020E+00  0.66393626863E+00  0.17130141410E+03  0.17130000000E+03 0. -1.
      622    1    1    2    0    0  0.16787714959E+00  0.22345462075E+00  0.34280967256E+01  0.38820048770E+01  0.18000000000E+01 0.  1.
</event>
<event>
 5   0  0.7764500E-01  0.9118800E+02  0.7818608E-02  0.1180000E+00
       11   -1    0    0    0    0  0.00000000000E+00  0.00000000000E+00  0.39999999673E+01  0.40000000000E+01  0.51109989000E-03 0. -1.
     -623   -1    0    0    0    0  0.00000000000E+00  0.00000000000E+00  0.12525980253E-10  0.17130000000E+03  0.17130000000E+03 0.  1.
       11    1    1    2    0    0  0.10882799504E-01 -0.14273008438E+00  0.18875310611E-01  0.14438438587E+00  0.51109989000E-03 0. -1.
     -623    1    1    2    0    0 -0.22881143438E+00  0.42963074860E+00  0.59250617886E+00  0.17130171628E+03  0.17130000000E+03 0.  1.
      622    1    1    2    0    0  0.21792863487E+00 -0.28690066423E+00  0.33886184779E+01  0.38538993331E+01  0.18000000000E+01 0. -1.
</event>
<event>
 5   0  0.7764500E-01  0.9118800E+02  0.7818608E-02  0.1180000E+00
       11   -1    0    0    0    0  0.00000000000E+00  0.00000000000E+00  0.39999999673E+01  0.40000000000E+01  0.51109989000E-03 0. -1.
     -623   -1    0    0    0    0  0.00000000000E+00  0.00000000000E+00  0.12525980253E-10  0.17130000000E+03  0.17130000000E+03 0. -1.
       11    1    1    2    0    0  0.27600599275E+00  0.23564380703E+00  0.12179778596E+00  0.38280840340E+00  0.51109989000E-03 0. -1.
     -623    1    1    2    0    0  0.23086117843E-01 -0.17391779777E-01  0.76458272100E+00  0.17130170875E+03  0.17130000000E+03 0. -1.
      622    1    1    2    0    0 -0.29909211059E+00 -0.21825202725E+00  0.31136194604E+01  0.36154828422E+01  0.18000000000E+01 0. -1.
</event>
<event>
 5   0  0.7764500E-01  0.9118800E+02  0.7818608E-02  0.1180000E+00
       11   -1    0    0    0    0  0.00000000000E+00  0.00000000000E+00  0.39999999673E+01  0.40000000000E+01  0.51109989000E-03 0.  1.
     -623   -1    0    0    0    0  0.00000000000E+00  0.00000000000E+00  0.12525980253E-10  0.17130000000E+03  0.17130000000E+03 0. -1.
       11    1    1    2    0    0  0.22660495937E-01  0.60242661681E-01 -0.40582205811E-01  0.76091083671E-01  0.51109989000E-03 0.  1.
     -623    1    1    2    0    0  0.25068455700E+00 -0.22787693917E+00  0.57011104966E+00  0.17130128370E+03  0.17130000000E+03 0. -1.
      622    1    1    2    0    0 -0.27334505294E+00  0.16763427749E+00  0.34704711235E+01  0.39226252164E+01  0.18000000000E+01 0.  1.
</event>
<event>
 5   0  0.7764500E-01  0.9118800E+02  0.7818608E-02  0.1180000E+00
       11   -1    0    0    0    0  0.00000000000E+00  0.00000000000E+00  0.39999999673E+01  0.40000000000E+01  0.51109989000E-03 0. -1.
     -623   -1    0    0    0    0  0.00000000000E+00  0.00000000000E+00  0.12525980253E-10  0.17130000000E+03  0.17130000000E+03 0. -1.
       11    1    1    2    0    0  0.99674796113E-01  0.16644125530E+00  0.28602223041E+00  0.34561066817E+00  0.51109989000E-03 0. -1.
     -623    1    1    2    0    0 -0.17744347028E+00 -0.35736066254E+00  0.54184825605E+00  0.17130132163E+03  0.17130000000E+03 0. -1.
      622    1    1    2    0    0  0.77768674171E-01  0.19091940724E+00  0.31721294809E+01  0.36530677013E+01  0.18000000000E+01 0. -1.
</event>
<event>
 5   0  0.7764500E-01  0.9118800E+02  0.7818608E-02  0.1180000E+00
       11   -1    0    0    0    0  0.00000000000E+00  0.00000000000E+00  0.39999999673E+01  0.40000000000E+01  0.51109989000E-03 0. -1.
     -623   -1    0    0    0    0  0.00000000000E+00  0.00000000000E+00  0.12525980253E-10  0.17130000000E+03  0.17130000000E+03 0.  1.
       11    1    1    2    0    0  0.53842137449E-02 -0.50617571792E-01  0.16624846049E-01  0.53551611190E-01  0.51109989000E-03 0. -1.
     -623    1    1    2    0    0  0.20135496615E+00  0.52528856026E-01  0.47831558641E+00  0.17130079419E+03  0.17130000000E+03 0.  1.
      622    1    1    2    0    0 -0.20673917990E+00 -0.19112842332E-02  0.35050595349E+01  0.39456542024E+01  0.18000000000E+01 0. -1.
</event>
<event>
 5   0  0.7764500E-01  0.9118800E+02  0.7818608E-02  0.1180000E+00
       11   -1    0    0    0    0  0.00000000000E+00  0.00000000000E+00  0.39999999673E+01  0.40000000000E+01  0.51109989000E-03 0.  1.
     -623   -1    0    0    0    0  0.00000000000E+00  0.00000000000E+00  0.12525980253E-10  0.17130000000E+03  0.17130000000E+03 0. -1.
       11    1    1    2    0    0 -0.10211934393E-01  0.88152351239E-01  0.98486670617E-01  0.13257075901E+00  0.51109989000E-03 0.  1.
     -623    1    1    2    0    0  0.63994913031E-01 -0.18169003940E+00  0.48108868103E+00  0.17130078387E+03  0.17130000000E+03 0. -1.
      622    1    1    2    0    0 -0.53782978637E-01  0.93537688166E-01  0.34204246157E+01  0.38666453755E+01  0.18000000000E+01 0.  1.
</event>
<event>
 5   0  0.7764500E-01  0.9118800E+02  0.7818608E-02  0.1180000E+00
       11   -1    0    0    0    0  0.00000000000E+00  0.00000000000E+00  0.39999999673E+01  0.40000000000E+01  0.51109989000E-03 0.  1.
     -623   -1    0    0    0    0  0.00000000000E+00  0.00000000000E+00  0.12525980253E-10  0.17130000000E+03  0.17130000000E+03 0. -1.
       11    1    1    2    0    0  0.40167212278E-01 -0.47646252570E-01 -0.29824668418E-01  0.69089379759E-01  0.51109989000E-03 0.  1.
     -623    1    1    2    0    0  0.64280090230E+00  0.43514811041E+00  0.62797403876E+00  0.17130290978E+03  0.17130000000E+03 0. -1.
      622    1    1    2    0    0 -0.68296811458E+00 -0.38750185784E+00  0.34018505970E+01  0.39280008426E+01  0.18000000000E+01 0.  1.
</event>
<event>
 5   0  0.7764500E-01  0.9118800E+02  0.7818608E-02  0.1180000E+00
       11   -1    0    0    0    0  0.00000000000E+00  0.00000000000E+00  0.39999999673E+01  0.40000000000E+01  0.51109989000E-03 0. -1.
     -623   -1    0    0    0    0  0.00000000000E+00  0.00000000000E+00  0.12525980253E-10  0.17130000000E+03  0.17130000000E+03 0.  1.
       11    1    1    2    0    0  0.20145781019E+00  0.17875177241E+00 -0.40338277362E-01  0.27233230302E+00  0.51109989000E-03 0. -1.
     -623    1    1    2    0    0 -0.11295217307E+01  0.26474139166E+00  0.95025354205E+00  0.17130656406E+03  0.17130000000E+03 0.  1.
      622    1    1    2    0    0  0.92806392048E+00 -0.44349316406E+00  0.30900847027E+01  0.37211036396E+01  0.18000000000E+01 0. -1.
</event>
<event>
 5   0  0.7764500E-01  0.9118800E+02  0.7818608E-02  0.1180000E+00
       11   -1    0    0    0    0  0.00000000000E+00  0.00000000000E+00  0.39999999673E+01  0.40000000000E+01  0.51109989000E-03 0.  1.
     -623   -1    0    0    0    0  0.00000000000E+00  0.00000000000E+00  0.12525980253E-10  0.17130000000E+03  0.17130000000E+03 0. -1.
       11    1    1    2    0    0  0.11776089638E+00  0.15788457403E-02  0.58491252934E+00  0.59665153119E+00  0.51109989000E-03 0.  1.
     -623    1    1    2    0    0 -0.86059604291E+00  0.29012424025E+00  0.64357458210E+00  0.17130361638E+03  0.17130000000E+03 0. -1.
      622    1    1    2    0    0  0.74283514652E+00 -0.29170308599E+00  0.27715128559E+01  0.33997320859E+01  0.18000000000E+01 0.  1.
</event>
<event>
 5   0  0.7764500E-01  0.9118800E+02  0.7818608E-02  0.1180000E+00
       11   -1    0    0    0    0  0.00000000000E+00  0.00000000000E+00  0.39999999673E+01  0.40000000000E+01  0.51109989000E-03 0. -1.
     -623   -1    0    0    0    0  0.00000000000E+00  0.00000000000E+00  0.12525980253E-10  0.17130000000E+03  0.17130000000E+03 0.  1.
       11    1    1    2    0    0  0.82936310985E-01  0.12324585039E+00  0.72757329848E+00  0.74258409437E+00  0.51109989000E-03 0. -1.
     -623    1    1    2    0    0 -0.25241965756E+00 -0.45685140547E+00  0.58559900494E+00  0.17130179612E+03  0.17130000000E+03 0.  1.
      622    1    1    2    0    0  0.16948334657E+00  0.33360555508E+00  0.26868276639E+01  0.32556197823E+01  0.18000000000E+01 0.  0.
</event>
<event>
 5   0  0.7764500E-01  0.9118800E+02  0.7818608E-02  0.1180000E+00
       11   -1    0    0    0    0  0.00000000000E+00  0.00000000000E+00  0.39999999673E+01  0.40000000000E+01  0.51109989000E-03 0. -1.
     -623   -1    0    0    0    0  0.00000000000E+00  0.00000000000E+00  0.12525980253E-10  0.17130000000E+03  0.17130000000E+03 0.  1.
       11    1    1    2    0    0  0.62662936923E-02 -0.96619792407E-01 -0.54837514676E-01  0.11127472740E+00  0.51109989000E-03 0. -1.
     -623    1    1    2    0    0  0.35411783064E-01  0.17490678991E+00  0.61025585640E+00  0.17130117997E+03  0.17130000000E+03 0.  1.
      622    1    1    2    0    0 -0.41678076757E-01 -0.78286997506E-01  0.34445816256E+01  0.38875453041E+01  0.18000000000E+01 0. -1.
</event>
<event>
 5   0  0.7764500E-01  0.9118800E+02  0.7818608E-02  0.1180000E+00
       11   -1    0    0    0    0  0.00000000000E+00  0.00000000000E+00  0.39999999673E+01  0.40000000000E+01  0.51109989000E-03 0. -1.
     -623   -1    0    0    0    0  0.00000000000E+00  0.00000000000E+00  0.12525980253E-10  0.17130000000E+03  0.17130000000E+03 0.  1.
       11    1    1    2    0    0 -0.79945199591E-01  0.31532833867E+00  0.49757664225E+00  0.59447958101E+00  0.51109989000E-03 0. -1.
     -623    1    1    2    0    0 -0.54097776187E+00 -0.17633628310E+00  0.68516553762E+00  0.17130231523E+03  0.17130000000E+03 0.  1.
      622    1    1    2    0    0  0.62092296146E+00 -0.13899205558E+00  0.28172577875E+01  0.34032051888E+01  0.18000000000E+01 0. -1.
</event>
<event>
 5   0  0.7764500E-01  0.9118800E+02  0.7818608E-02  0.1180000E+00
       11   -1    0    0    0    0  0.00000000000E+00  0.00000000000E+00  0.39999999673E+01  0.40000000000E+01  0.51109989000E-03 0.  1.
     -623   -1    0    0    0    0  0.00000000000E+00  0.00000000000E+00  0.12525980253E-10  0.17130000000E+03  0.17130000000E+03 0. -1.
       11    1    1    2    0    0  0.51437690429E-01 -0.20898021479E+00  0.33189925351E+00  0.39557040065E+00  0.51109989000E-03 0.  1.
     -623    1    1    2    0    0  0.14736820859E+00  0.24891203784E+00  0.55320173310E+00  0.17130113749E+03  0.17130000000E+03 0. -1.
      622    1    1    2    0    0 -0.19880589902E+00 -0.39931823055E-01  0.31148989808E+01  0.36032921053E+01  0.18000000000E+01 0.  1.
</event>
<event>
 5   0  0.7764500E-01  0.9118800E+02  0.7818608E-02  0.1180000E+00
       11   -1    0    0    0    0  0.00000000000E+00  0.00000000000E+00  0.39999999673E+01  0.40000000000E+01  0.51109989000E-03 0. -1.
     -623   -1    0    0    0    0  0.00000000000E+00  0.00000000000E+00  0.12525980253E-10  0.17130000000E+03  0.17130000000E+03 0.  1.
       11    1    1    2    0    0 -0.48752156013E-01 -0.14552494612E+00  0.11643894512E+00  0.19264623491E+00  0.51109989000E-03 0. -1.
     -623    1    1    2    0    0 -0.35838276438E+00  0.18049868981E+00  0.55511774655E+00  0.17130136944E+03  0.17130000000E+03 0.  1.
      622    1    1    2    0    0  0.40713492039E+00 -0.34973743689E-01  0.33284432757E+01  0.38059843202E+01  0.18000000000E+01 0. -1.
</event>
<event>
 5   0  0.7764500E-01  0.9118800E+02  0.7818608E-02  0.1180000E+00
       11   -1    0    0    0    0  0.00000000000E+00  0.00000000000E+00  0.39999999673E+01  0.40000000000E+01  0.51109989000E-03 0.  1.
     -623   -1    0    0    0    0  0.00000000000E+00  0.00000000000E+00  0.12525980253E-10  0.17130000000E+03  0.17130000000E+03 0. -1.
       11    1    1    2    0    0  0.12726576358E+00 -0.58029921873E-01 -0.77904914500E-01  0.16010460123E+00  0.51109989000E-03 0.  1.
     -623    1    1    2    0    0  0.17666632830E+00  0.26416097541E+00  0.70797377801E+00  0.17130175778E+03  0.17130000000E+03 0. -1.
      622    1    1    2    0    0 -0.30393209189E+00 -0.20613105354E+00  0.33699311038E+01  0.38381376177E+01  0.18000000000E+01 0.  1.
</event>
<event>
 5   0  0.7764500E-01  0.9118800E+02  0.7818608E-02  0.1180000E+00
       11   -1    0    0    0    0  0.00000000000E+00  0.00000000000E+00  0.39999999673E+01  0.40000000000E+01  0.51109989000E-03 0.  1.
     -623   -1    0    0    0    0  0.00000000000E+00  0.00000000000E+00  0.12525980253E-10  0.17130000000E+03  0.17130000000E+03 0.  1.
       11    1    1    2    0    0 -0.47690491546E-01 -0.21537203300E-01  0.20986413345E-01  0.56381955253E-01  0.51109989000E-03 0.  1.
     -623    1    1    2    0    0  0.29839507792E+00 -0.19792666092E+00  0.48721017990E+00  0.17130106710E+03  0.17130000000E+03 0.  1.
      622    1    1    2    0    0 -0.25070458638E+00  0.21946386422E+00  0.34918033741E+01  0.39425509484E+01  0.18000000000E+01 0.  1.
</event>
<event>
 5   0  0.7764500E-01  0.9118800E+02  0.7818608E-02  0.1180000E+00
       11   -1    0    0    0    0  0.00000000000E+00  0.00000000000E+00  0.39999999673E+01  0.40000000000E+01  0.51109989000E-03 0. -1.
     -623   -1    0    0    0    0  0.00000000000E+00  0.00000000000E+00  0.12525980253E-10  0.17130000000E+03  0.17130000000E+03 0.  1.
       11    1    1    2    0    0  0.60637783855E-01 -0.12335884547E+00 -0.10268801303E+00  0.17157923776E+00  0.51109989000E-03 0. -1.
     -623    1    1    2    0    0  0.34253311829E+00 -0.50358713510E+00  0.81054068381E+00  0.17130300028E+03  0.17130000000E+03 0.  1.
      622    1    1    2    0    0 -0.40317090215E+00  0.62694598056E+00  0.32921472966E+01  0.38254204816E+01  0.18000000000E+01 0. -1.
</event>
<event>
 5   0  0.7764500E-01  0.9118800E+02  0.7818608E-02  0.1180000E+00
       11   -1    0    0    0    0  0.00000000000E+00  0.00000000000E+00  0.39999999673E+01  0.40000000000E+01  0.51109989000E-03 0.  1.
     -623   -1    0    0    0    0  0.00000000000E+00  0.00000000000E+00  0.12525980253E-10  0.17130000000E+03  0.17130000000E+03 0. -1.
       11    1    1    2    0    0  0.99722242686E-01  0.17168658101E+00  0.73457514774E-01  0.21170043808E+00  0.51109989000E-03 0.  1.
     -623    1    1    2    0    0 -0.99710123848E-01 -0.23229205909E+00  0.59513191838E+00  0.17130122032E+03  0.17130000000E+03 0. -1.
      622    1    1    2    0    0 -0.12118837658E-04  0.60605478084E-01  0.33314105342E+01  0.37870792402E+01  0.18000000000E+01 0.  1.
</event>
<event>
 5   0  0.7764500E-01  0.9118800E+02  0.7818608E-02  0.1180000E+00
       11   -1    0    0    0    0  0.00000000000E+00  0.00000000000E+00  0.39999999673E+01  0.40000000000E+01  0.51109989000E-03 0.  1.
     -623   -1    0    0    0    0  0.00000000000E+00  0.00000000000E+00  0.12525980253E-10  0.17130000000E+03  0.17130000000E+03 0.  1.
       11    1    1    2    0    0  0.33277949930E-02  0.15677869375E-01  0.26980474122E-01  0.31385936574E-01  0.51109989000E-03 0.  1.
     -623    1    1    2    0    0  0.64988843429E-01 -0.17365795751E+00  0.44102707591E+00  0.17130066808E+03  0.17130000000E+03 0.  1.
      622    1    1    2    0    0 -0.68316638422E-01  0.15798008814E+00  0.35319924173E+01  0.39679459809E+01  0.18000000000E+01 0.  1.
</event>
<event>
 5   0  0.7764500E-01  0.9118800E+02  0.7818608E-02  0.1180000E+00
       11   -1    0    0    0    0  0.00000000000E+00  0.00000000000E+00  0.39999999673E+01  0.40000000000E+01  0.51109989000E-03 0.  1.
     -623   -1    0    0    0    0  0.00000000000E+00  0.00000000000E+00  0.12525980253E-10  0.17130000000E+03  0.17130000000E+03 0. -1.
       11    1    1    2    0    0 -0.10419445261E+00  0.15165354874E+00  0.15476226844E+00  0.24043066310E+00  0.51109989000E-03 0.  1.
     -623    1    1    2    0    0  0.29318261163E-03 -0.92397083563E-01  0.54777156687E+00  0.17130090073E+03  0.17130000000E+03 0. -1.
      622    1    1    2    0    0  0.10390127000E+00 -0.59256465179E-01  0.32974661321E+01  0.37586686066E+01  0.18000000000E+01 0.  1.
</event>
<event>
 5   0  0.7764500E-01  0.9118800E+02  0.7818608E-02  0.1180000E+00
       11   -1    0    0    0    0  0.00000000000E+00  0.00000000000E+00  0.39999999673E+01  0.40000000000E+01  0.51109989000E-03 0.  1.
     -623   -1    0    0    0    0  0.00000000000E+00  0.00000000000E+00  0.12525980253E-10  0.17130000000E+03  0.17130000000E+03 0. -1.
       11    1    1    2    0    0  0.62221917715E-01  0.39573620766E-01  0.24401454655E+00  0.25491370826E+00  0.51109989000E-03 0.  1.
     -623    1    1    2    0    0 -0.30256554576E+00  0.36013442507E-01  0.48259693680E+00  0.17130095079E+03  0.17130000000E+03 0. -1.
      622    1    1    2    0    0  0.24034362804E+00 -0.75587063273E-01  0.32733884840E+01  0.37441354985E+01  0.18000000000E+01 0.  1.
</event>
<event>
 5   0  0.7764500E-01  0.9118800E+02  0.7818608E-02  0.1180000E+00
       11   -1    0    0    0    0  0.00000000000E+00  0.00000000000E+00  0.39999999673E+01  0.40000000000E+01  0.51109989000E-03 0.  1.
     -623   -1    0    0    0    0  0.00000000000E+00  0.00000000000E+00  0.12525980253E-10  0.17130000000E+03  0.17130000000E+03 0. -1.
       11    1    1    2    0    0  0.12111267994E+00 -0.22746656852E+00  0.18144571090E+00  0.31516999898E+00  0.51109989000E-03 0.  1.
     -623    1    1    2    0    0  0.18126464192E+00 -0.15232788654E-01  0.62818777710E+00  0.17130124842E+03  0.17130000000E+03 0. -1.
      622    1    1    2    0    0 -0.30237732185E+00  0.24269935717E+00  0.31903664794E+01  0.36835815853E+01  0.18000000000E+01 0.  1.
</event>
<event>
 5   0  0.7764500E-01  0.9118800E+02  0.7818608E-02  0.1180000E+00
       11   -1    0    0    0    0  0.00000000000E+00  0.00000000000E+00  0.39999999673E+01  0.40000000000E+01  0.51109989000E-03 0. -1.
     -623   -1    0    0    0    0  0.00000000000E+00  0.00000000000E+00  0.12525980253E-10  0.17130000000E+03  0.17130000000E+03 0.  1.
       11    1    1    2    0    0  0.27624418693E+00 -0.79643991281E-01  0.40599002392E+00  0.49747580534E+00  0.51109989000E-03 0. -1.
     -623    1    1    2    0    0 -0.96689546951E-01  0.41734383939E+00  0.61577354905E+00  0.17130164244E+03  0.17130000000E+03 0.  1.
      622    1    1    2    0    0 -0.17955463998E+00 -0.33769984811E+00  0.29782363944E+01  0.35008817571E+01  0.18000000000E+01 0. -1.
</event>
<event>
 5   0  0.7764500E-01  0.9118800E+02  0.7818608E-02  0.1180000E+00
       11   -1    0    0    0    0  0.00000000000E+00  0.00000000000E+00  0.39999999673E+01  0.40000000000E+01  0.51109989000E-03 0.  1.
     -623   -1    0    0    0    0  0.00000000000E+00  0.00000000000E+00  0.12525980253E-10  0.17130000000E+03  0.17130000000E+03 0.  1.
       11    1    1    2    0    0 -0.44005979865E-01  0.63734690350E-01  0.24612399548E-01  0.81269111306E-01  0.51109989000E-03 0.  1.
     -623    1    1    2    0    0  0.18094952230E+00 -0.23236144847E+00  0.50241974587E+00  0.17130098996E+03  0.17130000000E+03 0.  1.
      622    1    1    2    0    0 -0.13694354244E+00  0.16862675812E+00  0.34729678219E+01  0.39177409319E+01  0.18000000000E+01 0.  1.
</event>
<event>
 5   0  0.7764500E-01  0.9118800E+02  0.7818608E-02  0.1180000E+00
       11   -1    0    0    0    0  0.00000000000E+00  0.00000000000E+00  0.39999999673E+01  0.40000000000E+01  0.51109989000E-03 0.  1.
     -623   -1    0    0    0    0  0.00000000000E+00  0.00000000000E+00  0.12525980253E-10  0.17130000000E+03  0.17130000000E+03 0.  1.
       11    1    1    2    0    0  0.42040148012E-02  0.14005733857E+00  0.54655918253E-01  0.15040366501E+00  0.51109989000E-03 0.  1.
     -623    1    1    2    0    0 -0.76146233001E-01 -0.39184364963E+00  0.55412885204E+00  0.17130136134E+03  0.17130000000E+03 0.  1.
      622    1    1    2    0    0  0.71942218200E-01  0.25178631106E+00  0.33912151971E+01  0.38482349905E+01  0.18000000000E+01 0.  1.
</event>
<event>
 5   0  0.7764500E-01  0.9118800E+02  0.7818608E-02  0.1180000E+00
       11   -1    0    0    0    0  0.00000000000E+00  0.00000000000E+00  0.39999999673E+01  0.40000000000E+01  0.51109989000E-03 0.  1.
     -623   -1    0    0    0    0  0.00000000000E+00  0.00000000000E+00  0.12525980253E-10  0.17130000000E+03  0.17130000000E+03 0. -1.
       11    1    1    2    0    0  0.27975708960E-01  0.22375762092E+00  0.14083261955E+00  0.26586500553E+00  0.51109989000E-03 0.  1.
     -623    1    1    2    0    0  0.30767104696E+00 -0.43170671460E+00  0.61362700667E+00  0.17130191934E+03  0.17130000000E+03 0. -1.
      622    1    1    2    0    0 -0.33564675592E+00  0.20794909368E+00  0.32455403411E+01  0.37322156524E+01  0.18000000000E+01 0.  1.
</event>
<event>
 5   0  0.7764500E-01  0.9118800E+02  0.7818608E-02  0.1180000E+00
       11   -1    0    0    0    0  0.00000000000E+00  0.00000000000E+00  0.39999999673E+01  0.40000000000E+01  0.51109989000E-03 0. -1.
     -623   -1    0    0    0    0  0.00000000000E+00  0.00000000000E+00  0.12525980253E-10  0.17130000000E+03  0.17130000000E+03 0.  1.
       11    1    1    2    0    0 -0.13913427968E-02  0.28614685279E+00  0.43961241159E+00  0.52453912231E+00  0.51109989000E-03 0. -1.
     -623    1    1    2    0    0 -0.47834849150E+00 -0.15907043679E+00  0.63134496747E+00  0.17130190518E+03  0.17130000000E+03 0.  1.
      622    1    1    2    0    0  0.47973983429E+00 -0.12707641599E+00  0.29290425883E+01  0.34735557010E+01  0.18000000000E+01 0. -1.
</event>
<event>
 5   0  0.7764500E-01  0.9118800E+02  0.7818608E-02  0.1180000E+00
       11   -1    0    0    0    0  0.00000000000E+00  0.00000000000E+00  0.39999999673E+01  0.40000000000E+01  0.51109989000E-03 0.  1.
     -623   -1    0    0    0    0  0.00000000000E+00  0.00000000000E+00  0.12525980253E-10  0.17130000000E+03  0.17130000000E+03 0. -1.
       11    1    1    2    0    0 -0.45932174850E-01 -0.10940245349E+00 -0.35574954029E-01  0.12387291913E+00  0.51109989000E-03 0.  1.
     -623    1    1    2    0    0  0.11091921583E+00  0.53633128154E-01  0.60506456210E+00  0.17130111291E+03  0.17130000000E+03 0. -1.
      622    1    1    2    0    0 -0.64987040977E-01  0.55769325334E-01  0.34305103593E+01  0.38750141752E+01  0.18000000000E+01 0.  1.
</event>
<event>
 5   0  0.7764500E-01  0.9118800E+02  0.7818608E-02  0.1180000E+00
       11   -1    0    0    0    0  0.00000000000E+00  0.00000000000E+00  0.39999999673E+01  0.40000000000E+01  0.51109989000E-03 0. -1.
     -623   -1    0    0    0    0  0.00000000000E+00  0.00000000000E+00  0.12525980253E-10  0.17130000000E+03  0.17130000000E+03 0.  1.
       11    1    1    2    0    0 -0.30698668468E+00  0.10354573519E-02 -0.24843694286E+00  0.39492160303E+00  0.51109989000E-03 0. -1.
     -623    1    1    2    0    0  0.12398278755E+00 -0.46989090190E-01  0.11349947677E+01  0.17130381138E+03  0.17130000000E+03 0.  1.
      622    1    1    2    0    0  0.18300389713E+00  0.45953632839E-01  0.31134421425E+01  0.36012670184E+01  0.18000000000E+01 0. -1.
</event>
<event>
 5   0  0.7764500E-01  0.9118800E+02  0.7818608E-02  0.1180000E+00
       11   -1    0    0    0    0  0.00000000000E+00  0.00000000000E+00  0.39999999673E+01  0.40000000000E+01  0.51109989000E-03 0.  1.
     -623   -1    0    0    0    0  0.00000000000E+00  0.00000000000E+00  0.12525980253E-10  0.17130000000E+03  0.17130000000E+03 0. -1.
       11    1    1    2    0    0 -0.64342339782E-01  0.36538658382E+00  0.30744166298E+00  0.48183807413E+00  0.51109989000E-03 0.  1.
     -623    1    1    2    0    0 -0.42985915093E+00  0.16672744024E+00  0.76103526458E+00  0.17130231099E+03  0.17130000000E+03 0. -1.
      622    1    1    2    0    0  0.49420149071E+00 -0.53211402406E+00  0.29315230398E+01  0.35158509327E+01  0.18000000000E+01 0.  1.
</event>
<event>
 5   0  0.7764500E-01  0.9118800E+02  0.7818608E-02  0.1180000E+00
       11   -1    0    0    0    0  0.00000000000E+00  0.00000000000E+00  0.39999999673E+01  0.40000000000E+01  0.51109989000E-03 0.  1.
     -623   -1    0    0    0    0  0.00000000000E+00  0.00000000000E+00  0.12525980253E-10  0.17130000000E+03  0.17130000000E+03 0.  1.
       11    1    1    2    0    0 -0.10704350171E+00  0.42154821134E-01 -0.52280585850E-01  0.12636795908E+00  0.51109989000E-03 0.  1.
     -623    1    1    2    0    0  0.19326395914E+00 -0.36542785340E+00  0.64054400319E+00  0.17130169639E+03  0.17130000000E+03 0.  1.
      622    1    1    2    0    0 -0.86220457428E-01  0.32327303227E+00  0.34117365500E+01  0.38719356538E+01  0.18000000000E+01 0.  1.
</event>
<event>
 5   0  0.7764500E-01  0.9118800E+02  0.7818608E-02  0.1180000E+00
       11   -1    0    0    0    0  0.00000000000E+00  0.00000000000E+00  0.39999999673E+01  0.40000000000E+01  0.51109989000E-03 0.  1.
     -623   -1    0    0    0    0  0.00000000000E+00  0.00000000000E+00  0.12525980253E-10  0.17130000000E+03  0.17130000000E+03 0.  1.
       11    1    1    2    0    0  0.16842480800E+00 -0.25225449991E+00  0.44004701668E+00  0.53445382100E+00  0.51109989000E-03 0.  1.
     -623    1    1    2    0    0 -0.40045403543E-01  0.10513114390E+00  0.60627851944E+00  0.17130110983E+03  0.17130000000E+03 0.  1.
      622    1    1    2    0    0 -0.12837940446E+00  0.14712335601E+00  0.29536744312E+01  0.34644363465E+01  0.18000000000E+01 0.  1.
</event>
<event>
 5   0  0.7764500E-01  0.9118800E+02  0.7818608E-02  0.1180000E+00
       11   -1    0    0    0    0  0.00000000000E+00  0.00000000000E+00  0.39999999673E+01  0.40000000000E+01  0.51109989000E-03 0. -1.
     -623   -1    0    0    0    0  0.00000000000E+00  0.00000000000E+00  0.12525980253E-10  0.17130000000E+03  0.17130000000E+03 0.  1.
       11    1    1    2    0    0  0.12702035702E+00 -0.21053801211E+00  0.31127082024E+00  0.39667393461E+00  0.51109989000E-03 0. -1.
     -623    1    1    2    0    0  0.16049639602E+00  0.40139255172E+00  0.58813844505E+00  0.17130155511E+03  0.17130000000E+03 0.  1.
      622    1    1    2    0    0 -0.28751675304E+00 -0.19085453960E+00  0.31005907021E+01  0.36017709589E+01  0.18000000000E+01 0. -1.
</event>
<event>
 5   0  0.7764500E-01  0.9118800E+02  0.7818608E-02  0.1180000E+00
       11   -1    0    0    0    0  0.00000000000E+00  0.00000000000E+00  0.39999999673E+01  0.40000000000E+01  0.51109989000E-03 0.  1.
     -623   -1    0    0    0    0  0.00000000000E+00  0.00000000000E+00  0.12525980253E-10  0.17130000000E+03  0.17130000000E+03 0.  1.
       11    1    1    2    0    0 -0.20734019445E+00  0.14083543145E+00  0.32209184179E+00  0.40812741975E+00  0.51109989000E-03 0.  1.
     -623    1    1    2    0    0  0.60977436462E+00  0.21957936447E-01  0.60257428375E+00  0.17130214652E+03  0.17130000000E+03 0.  1.
      622    1    1    2    0    0 -0.40243417017E+00 -0.16279336790E+00  0.30753338418E+01  0.35897260593E+01  0.18000000000E+01 0.  1.
</event>
<event>
 5   0  0.7764500E-01  0.9118800E+02  0.7818608E-02  0.1180000E+00
       11   -1    0    0    0    0  0.00000000000E+00  0.00000000000E+00  0.39999999673E+01  0.40000000000E+01  0.51109989000E-03 0. -1.
     -623   -1    0    0    0    0  0.00000000000E+00  0.00000000000E+00  0.12525980253E-10  0.17130000000E+03  0.17130000000E+03 0.  1.
       11    1    1    2    0    0 -0.70297573774E-01 -0.11830147908E-01  0.17047518252E+00  0.18478027588E+00  0.51109989000E-03 0. -1.
     -623    1    1    2    0    0  0.26948725368E-01 -0.13751276278E+00  0.47000663093E+00  0.17130070211E+03  0.17130000000E+03 0.  1.
      622    1    1    2    0    0  0.43348848406E-01  0.14934291068E+00  0.33595181539E+01  0.38145176175E+01  0.18000000000E+01 0. -1.
</event>
<event>
 5   0  0.7764500E-01  0.9118800E+02  0.7818608E-02  0.1180000E+00
       11   -1    0    0    0    0  0.00000000000E+00  0.00000000000E+00  0.39999999673E+01  0.40000000000E+01  0.51109989000E-03 0. -1.
     -623   -1    0    0    0    0  0.00000000000E+00  0.00000000000E+00  0.12525980253E-10  0.17130000000E+03  0.17130000000E+03 0. -1.
       11    1    1    2    0    0  0.39113228714E-02 -0.10928970502E-01 -0.15323710245E+00  0.15367697171E+00  0.51109989000E-03 0. -1.
     -623    1    1    2    0    0 -0.20859424174E+00  0.12982498554E+00  0.76447695168E+00  0.17130188204E+03  0.17130000000E+03 0. -1.
      622    1    1    2    0    0  0.20468291887E+00 -0.11889601504E+00  0.33887601181E+01  0.38444409864E+01  0.18000000000E+01 0. -1.
</event>
<event>
 5   0  0.7764500E-01  0.9118800E+02  0.7818608E-02  0.1180000E+00
       11   -1    0    0    0    0  0.00000000000E+00  0.00000000000E+00  0.39999999673E+01  0.40000000000E+01  0.51109989000E-03 0.  1.
     -623   -1    0    0    0    0  0.00000000000E+00  0.00000000000E+00  0.12525980253E-10  0.17130000000E+03  0.17130000000E+03 0.  1.
       11    1    1    2    0    0 -0.13776336560E+00  0.95917495786E-01  0.10861551591E+00  0.19994124742E+00  0.51109989000E-03 0.  1.
     -623    1    1    2    0    0  0.12698900333E+00 -0.28141070242E+00  0.55116430995E+00  0.17130116491E+03  0.17130000000E+03 0.  1.
      622    1    1    2    0    0  0.10774362274E-01  0.18549320663E+00  0.33402201415E+01  0.37988938404E+01  0.18000000000E+01 0.  1.
</event>
<event>
 5   0  0.7764500E-01  0.9118800E+02  0.7818608E-02  0.1180000E+00
       11   -1    0    0    0    0  0.00000000000E+00  0.00000000000E+00  0.39999999673E+01  0.40000000000E+01  0.51109989000E-03 0.  1.
     -623   -1    0    0    0    0  0.00000000000E+00  0.00000000000E+00  0.12525980253E-10  0.17130000000E+03  0.17130000000E+03 0.  1.
       11    1    1    2    0    0  0.16755616103E-01 -0.63097792032E-01 -0.76906092807E-01  0.10088057476E+00  0.51109989000E-03 0.  1.
     -623    1    1    2    0    0  0.30628156387E-01  0.15244704506E+00  0.62095783154E+00  0.17130119605E+03  0.17130000000E+03 0.  1.
      622    1    1    2    0    0 -0.47383772490E-01 -0.89349253029E-01  0.34559482286E+01  0.38979233792E+01  0.18000000000E+01 0.  1.
</event>
<event>
 5   0  0.7764500E-01  0.9118800E+02  0.7818608E-02  0.1180000E+00
       11   -1    0    0    0    0  0.00000000000E+00  0.00000000000E+00  0.39999999673E+01  0.40000000000E+01  0.51109989000E-03 0.  1.
     -623   -1    0    0    0    0  0.00000000000E+00  0.00000000000E+00  0.12525980253E-10  0.17130000000E+03  0.17130000000E+03 0. -1.
       11    1    1    2    0    0 -0.79979370953E-02 -0.55313672998E-01  0.74342784210E-01  0.93009032925E-01  0.51109989000E-03 0.  1.
     -623    1    1    2    0    0  0.21866888189E+00 -0.11265363310E+00  0.46941963646E+00  0.17130081979E+03  0.17130000000E+03 0. -1.
      622    1    1    2    0    0 -0.21067094480E+00  0.16796730610E+00  0.34562375467E+01  0.39061711742E+01  0.18000000000E+01 0.  1.
</event>
<event>
 5   0  0.7764500E-01  0.9118800E+02  0.7818608E-02  0.1180000E+00
       11   -1    0    0    0    0  0.00000000000E+00  0.00000000000E+00  0.39999999673E+01  0.40000000000E+01  0.51109989000E-03 0.  1.
     -623   -1    0    0    0    0  0.00000000000E+00  0.00000000000E+00  0.12525980253E-10  0.17130000000E+03  0.17130000000E+03 0.  1.
       11    1    1    2    0    0  0.18815765146E+00  0.34258842612E-01  0.82501761735E+00  0.84689509401E+00  0.51109989000E-03 0.  1.
     -623    1    1    2    0    0 -0.12918676564E+00 -0.27985404672E+00  0.60012317532E+00  0.17130132853E+03  0.17130000000E+03 0.  1.
      622    1    1    2    0    0 -0.58970885821E-01  0.24559520411E+00  0.25748591747E+01  0.31517763784E+01  0.18000000000E+01 0.  1.
</event>
<event>
 5   0  0.7764500E-01  0.9118800E+02  0.7818608E-02  0.1180000E+00
       11   -1    0    0    0    0  0.00000000000E+00  0.00000000000E+00  0.39999999673E+01  0.40000000000E+01  0.51109989000E-03 0. -1.
     -623   -1    0    0    0    0  0.00000000000E+00  0.00000000000E+00  0.12525980253E-10  0.17130000000E+03  0.17130000000E+03 0. -1.
       11    1    1    2    0    0  0.49770968135E-01 -0.19340944611E-01  0.12914352839E-01  0.54938721681E-01  0.51109989000E-03 0. -1.
     -623    1    1    2    0    0 -0.11224847621E+00 -0.60856260572E-01  0.47887850204E+00  0.17130071695E+03  0.17130000000E+03 0. -1.
      622    1    1    2    0    0  0.62477508079E-01  0.80197205183E-01  0.35082071125E+01  0.39443443276E+01  0.18000000000E+01 0. -1.
</event>
<event>
 5   0  0.7764500E-01  0.9118800E+02  0.7818608E-02  0.1180000E+00
       11   -1    0    0    0    0  0.00000000000E+00  0.00000000000E+00  0.39999999673E+01  0.40000000000E+01  0.51109989000E-03 0. -1.
     -623   -1    0    0    0    0  0.00000000000E+00  0.00000000000E+00  0.12525980253E-10  0.17130000000E+03  0.17130000000E+03 0. -1.
       11    1    1    2    0    0 -0.25015450110E+00 -0.69405050830E-01  0.18869647123E+00  0.32093761852E+00  0.51109989000E-03 0. -1.
     -623    1    1    2    0    0 -0.32219263554E+00  0.38654132042E+00  0.67248263419E+00  0.17130205911E+03  0.17130000000E+03 0. -1.
      622    1    1    2    0    0  0.57234713664E+00 -0.31713626959E+00  0.31388208619E+01  0.36770032719E+01  0.18000000000E+01 0. -1.
</event>
<event>
 5   0  0.7764500E-01  0.9118800E+02  0.7818608E-02  0.1180000E+00
       11   -1    0    0    0    0  0.00000000000E+00  0.00000000000E+00  0.39999999673E+01  0.40000000000E+01  0.51109989000E-03 0.  1.
     -623   -1    0    0    0    0  0.00000000000E+00  0.00000000000E+00  0.12525980253E-10  0.17130000000E+03  0.17130000000E+03 0.  1.
       11    1    1    2    0    0 -0.11409621901E+00 -0.73010511822E-01  0.61771637457E+00  0.63239407229E+00  0.51109989000E-03 0.  1.
     -623    1    1    2    0    0  0.93510252584E-01 -0.27000959283E+00  0.55828786983E+00  0.17130114808E+03  0.17130000000E+03 0.  1.
      622    1    1    2    0    0  0.20585966425E-01  0.34302010466E+00  0.28239957230E+01  0.33664578443E+01  0.18000000000E+01 0.  1.
</event>
<event>
 5   0  0.7764500E-01  0.9118800E+02  0.7818608E-02  0.1180000E+00
       11   -1    0    0    0    0  0.00000000000E+00  0.00000000000E+00  0.39999999673E+01  0.40000000000E+01  0.51109989000E-03 0. -1.
     -623   -1    0    0    0    0  0.00000000000E+00  0.00000000000E+00  0.12525980253E-10  0.17130000000E+03  0.17130000000E+03 0. -1.
       11    1    1    2    0    0  0.12104269702E+00 -0.19146990031E-01 -0.21872131187E-01  0.12448531269E+00  0.51109989000E-03 0. -1.
     -623    1    1    2    0    0 -0.45545910964E+00  0.20221460473E+00  0.61303819950E+00  0.17130182179E+03  0.17130000000E+03 0. -1.
      622    1    1    2    0    0  0.33441641261E+00 -0.18306761470E+00  0.34088338990E+01  0.38736928944E+01  0.18000000000E+01 0. -1.
</event>
<event>
 5   0  0.7764500E-01  0.9118800E+02  0.7818608E-02  0.1180000E+00
       11   -1    0    0    0    0  0.00000000000E+00  0.00000000000E+00  0.39999999673E+01  0.40000000000E+01  0.51109989000E-03 0.  1.
     -623   -1    0    0    0    0  0.00000000000E+00  0.00000000000E+00  0.12525980253E-10  0.17130000000E+03  0.17130000000E+03 0.  1.
       11    1    1    2    0    0  0.61968140392E-01 -0.68042053280E-01  0.52296617596E-01  0.10585352555E+00  0.51109989000E-03 0.  1.
     -623    1    1    2    0    0 -0.77891306898E-01 -0.12300858889E+00  0.50075670429E+00  0.17130079380E+03  0.17130000000E+03 0.  1.
      622    1    1    2    0    0  0.15923166506E-01  0.19105064217E+00  0.34469466455E+01  0.38933526776E+01  0.18000000000E+01 0.  1.
</event>
<event>
 5   0  0.7764500E-01  0.9118800E+02  0.7818608E-02  0.1180000E+00
       11   -1    0    0    0    0  0.00000000000E+00  0.00000000000E+00  0.39999999673E+01  0.40000000000E+01  0.51109989000E-03 0.  1.
     -623   -1    0    0    0    0  0.00000000000E+00  0.00000000000E+00  0.12525980253E-10  0.17130000000E+03  0.17130000000E+03 0.  1.
       11    1    1    2    0    0  0.20707999179E+00 -0.60420659035E-01  0.18845722785E+00  0.28644225769E+00  0.51109989000E-03 0.  1.
     -623    1    1    2    0    0  0.24454792271E+00  0.22812917025E+00  0.60090939889E+00  0.17130138043E+03  0.17130000000E+03 0.  1.
      622    1    1    2    0    0 -0.45162791450E+00 -0.16770851122E+00  0.32106333406E+01  0.37121773080E+01  0.18000000000E+01 0.  1.
</event>
<event>
 5   0  0.7764500E-01  0.9118800E+02  0.7818608E-02  0.1180000E+00
       11   -1    0    0    0    0  0.00000000000E+00  0.00000000000E+00  0.39999999673E+01  0.40000000000E+01  0.51109989000E-03 0.  1.
     -623   -1    0    0    0    0  0.00000000000E+00  0.00000000000E+00  0.12525980253E-10  0.17130000000E+03  0.17130000000E+03 0.  1.
       11    1    1    2    0    0 -0.41524925682E+00  0.23459220132E+00  0.52987992453E-01  0.47986814311E+00  0.51109989000E-03 0.  1.
     -623    1    1    2    0    0  0.41929671657E+00 -0.38127706129E+00  0.92948751828E+00  0.17130345919E+03  0.17130000000E+03 0.  1.
      622    1    1    2    0    0 -0.40474597536E-02  0.14668485997E+00  0.30175244566E+01  0.35166726712E+01  0.18000000000E+01 0.  1.
</event>
<event>
 5   0  0.7764500E-01  0.9118800E+02  0.7818608E-02  0.1180000E+00
       11   -1    0    0    0    0  0.00000000000E+00  0.00000000000E+00  0.39999999673E+01  0.40000000000E+01  0.51109989000E-03 0. -1.
     -623   -1    0    0    0    0  0.00000000000E+00  0.00000000000E+00  0.12525980253E-10  0.17130000000E+03  0.17130000000E+03 0.  1.
       11    1    1    2    0    0 -0.49695135891E-01 -0.17724124256E-02 -0.90042276173E-02  0.50537959151E-01  0.51109989000E-03 0. -1.
     -623    1    1    2    0    0 -0.14505775922E+00  0.91159138226E-01  0.50103214330E+00  0.17130081840E+03  0.17130000000E+03 0.  1.
      622    1    1    2    0    0  0.19475289511E+00 -0.89386725800E-01  0.35079720517E+01  0.39486436396E+01  0.18000000000E+01 0. -1.
</event>
<event>
 5   0  0.7764500E-01  0.9118800E+02  0.7818608E-02  0.1180000E+00
       11   -1    0    0    0    0  0.00000000000E+00  0.00000000000E+00  0.39999999673E+01  0.40000000000E+01  0.51109989000E-03 0. -1.
     -623   -1    0    0    0    0  0.00000000000E+00  0.00000000000E+00  0.12525980253E-10  0.17130000000E+03  0.17130000000E+03 0.  1.
       11    1    1    2    0    0 -0.11432317975E+00 -0.20831674880E+00  0.47887834340E-01  0.24240289429E+00  0.51109989000E-03 0. -1.
     -623    1    1    2    0    0  0.24578551729E+00 -0.15625152347E+00  0.67836947267E+00  0.17130159080E+03  0.17130000000E+03 0.  1.
      622    1    1    2    0    0 -0.13146233754E+00  0.36456827227E+00  0.32737426604E+01  0.37560063069E+01  0.18000000000E+01 0. -1.
</event>
<event>
 5   0  0.7764500E-01  0.9118800E+02  0.7818608E-02  0.1180000E+00
       11   -1    0    0    0    0  0.00000000000E+00  0.00000000000E+00  0.39999999673E+01  0.40000000000E+01  0.51109989000E-03 0. -1.
     -623   -1    0    0    0    0  0.00000000000E+00  0.00000000000E+00  0.12525980253E-10  0.17130000000E+03  0.17130000000E+03 0.  1.
       11    1    1    2    0    0 -0.75923004437E-01 -0.25125028363E+00  0.74280357700E+00  0.78781242872E+00  0.51109989000E-03 0. -1.
     -623    1    1    2    0    0  0.35392639144E+00  0.34733403600E+00  0.61524157230E+00  0.17130182260E+03  0.17130000000E+03 0.  1.
      622    1    1    2    0    0 -0.27800338701E+00 -0.96083752370E-01  0.26419548181E+01  0.32103649686E+01  0.18000000000E+01 0. -1.
</event>
<event>
 5   0  0.7764500E-01  0.9118800E+02  0.7818608E-02  0.1180000E+00
       11   -1    0    0    0    0  0.00000000000E+00  0.00000000000E+00  0.39999999673E+01  0.40000000000E+01  0.51109989000E-03 0.  1.
     -623   -1    0    0    0    0  0.00000000000E+00  0.00000000000E+00  0.12525980253E-10  0.17130000000E+03  0.17130000000E+03 0. -1.
       11    1    1    2    0    0 -0.76954511657E-01 -0.25208591558E+00  0.17860890132E+00  0.31838766708E+00  0.51109989000E-03 0.  1.
     -623    1    1    2    0    0 -0.14731519135E+00  0.17563007750E+00  0.62002620473E+00  0.17130127548E+03  0.17130000000E+03 0. -1.
      622    1    1    2    0    0  0.22426970300E+00  0.76455838080E-01  0.32013648613E+01  0.36803368555E+01  0.18000000000E+01 0.  1.
</event>
<event>
 5   0  0.7764500E-01  0.9118800E+02  0.7818608E-02  0.1180000E+00
       11   -1    0    0    0    0  0.00000000000E+00  0.00000000000E+00  0.39999999673E+01  0.40000000000E+01  0.51109989000E-03 0.  1.
     -623   -1    0    0    0    0  0.00000000000E+00  0.00000000000E+00  0.12525980253E-10  0.17130000000E+03  0.17130000000E+03 0. -1.
       11    1    1    2    0    0  0.18259508937E+00 -0.98343735998E-01  0.20421472805E-01  0.20839806824E+00  0.51109989000E-03 0.  1.
     -623    1    1    2    0    0  0.23772638334E-01 -0.10046900281E+00  0.65627234846E+00  0.17130128824E+03  0.17130000000E+03 0. -1.
      622    1    1    2    0    0 -0.20636772770E+00  0.19881273881E+00  0.33233061461E+01  0.37903136921E+01  0.18000000000E+01 0.  1.
</event>
<event>
 5   0  0.7764500E-01  0.9118800E+02  0.7818608E-02  0.1180000E+00
       11   -1    0    0    0    0  0.00000000000E+00  0.00000000000E+00  0.39999999673E+01  0.40000000000E+01  0.51109989000E-03 0.  1.
     -623   -1    0    0    0    0  0.00000000000E+00  0.00000000000E+00  0.12525980253E-10  0.17130000000E+03  0.17130000000E+03 0.  1.
       11    1    1    2    0    0 -0.25328317358E-01 -0.23527727414E-01  0.27025727602E-01  0.43883126488E-01  0.51109989000E-03 0.  1.
     -623    1    1    2    0    0 -0.99890093392E-01  0.21972346565E+00  0.45864850703E+00  0.17130078405E+03  0.17130000000E+03 0.  1.
      622    1    1    2    0    0  0.12521841075E+00 -0.19619573824E+00  0.35143257327E+01  0.39553328272E+01  0.18000000000E+01 0.  1.
</event>
<event>
 5   0  0.7764500E-01  0.9118800E+02  0.7818608E-02  0.1180000E+00
       11   -1    0    0    0    0  0.00000000000E+00  0.00000000000E+00  0.39999999673E+01  0.40000000000E+01  0.51109989000E-03 0.  1.
     -623   -1    0    0    0    0  0.00000000000E+00  0.00000000000E+00  0.12525980253E-10  0.17130000000E+03  0.17130000000E+03 0. -1.
       11    1    1    2    0    0  0.80032084369E-01  0.15152030893E+00 -0.11424641732E+00  0.20595155653E+00  0.51109989000E-03 0.  1.
     -623    1    1    2    0    0  0.42955532151E-01  0.20035684987E+00  0.79749379713E+00  0.17130197893E+03  0.17130000000E+03 0. -1.
      622    1    1    2    0    0 -0.12298761652E+00 -0.35187715880E+00  0.33167525875E+01  0.37920695162E+01  0.18000000000E+01 0.  1.
</event>
<event>
 5   0  0.7764500E-01  0.9118800E+02  0.7818608E-02  0.1180000E+00
       11   -1    0    0    0    0  0.00000000000E+00  0.00000000000E+00  0.39999999673E+01  0.40000000000E+01  0.51109989000E-03 0. -1.
     -623   -1    0    0    0    0  0.00000000000E+00  0.00000000000E+00  0.12525980253E-10  0.17130000000E+03  0.17130000000E+03 0.  1.
       11    1    1    2    0    0 -0.10902350120E+00  0.55262988464E+00  0.47663628366E+00  0.73788096691E+00  0.51109989000E-03 0. -1.
     -623    1    1    2    0    0 -0.20844567027E+00 -0.63954747187E+00  0.82679995552E+00  0.17130331599E+03  0.17130000000E+03 0.  1.
      622    1    1    2    0    0  0.31746917148E+00  0.86917587235E-01  0.26965637282E+01  0.32588030444E+01  0.18000000000E+01 0. -1.
</event>
<event>
 5   0  0.7764500E-01  0.9118800E+02  0.7818608E-02  0.1180000E+00
       11   -1    0    0    0    0  0.00000000000E+00  0.00000000000E+00  0.39999999673E+01  0.40000000000E+01  0.51109989000E-03 0.  1.
     -623   -1    0    0    0    0  0.00000000000E+00  0.00000000000E+00  0.12525980253E-10  0.17130000000E+03  0.17130000000E+03 0.  1.
       11    1    1    2    0    0 -0.12429986853E+00  0.43611133201E-01  0.28923733457E+00  0.31782209675E+00  0.51109989000E-03 0.  1.
     -623    1    1    2    0    0  0.27347765662E+00  0.27184943779E-01  0.50388131339E+00  0.17130096154E+03  0.17130000000E+03 0.  1.
      622    1    1    2    0    0 -0.14917778809E+00 -0.70796076980E-01  0.32068813194E+01  0.36812163606E+01  0.18000000000E+01 0.  1.
</event>
<event>
 5   0  0.7764500E-01  0.9118800E+02  0.7818608E-02  0.1180000E+00
       11   -1    0    0    0    0  0.00000000000E+00  0.00000000000E+00  0.39999999673E+01  0.40000000000E+01  0.51109989000E-03 0.  1.
     -623   -1    0    0    0    0  0.00000000000E+00  0.00000000000E+00  0.12525980253E-10  0.17130000000E+03  0.17130000000E+03 0.  1.
       11    1    1    2    0    0 -0.10752542181E+00  0.11788379871E+00 -0.41833889291E-01  0.16495042240E+00  0.51109989000E-03 0.  1.
     -623    1    1    2    0    0  0.49654276460E-01 -0.48066261782E+00  0.67773801018E+00  0.17130202226E+03  0.17130000000E+03 0.  1.
      622    1    1    2    0    0  0.57871145349E-01  0.36277881911E+00  0.33640958465E+01  0.38330273160E+01  0.18000000000E+01 0.  1.
</event>
<event>
 5   0  0.7764500E-01  0.9118800E+02  0.7818608E-02  0.1180000E+00
       11   -1    0    0    0    0  0.00000000000E+00  0.00000000000E+00  0.39999999673E+01  0.40000000000E+01  0.51109989000E-03 0.  1.
     -623   -1    0    0    0    0  0.00000000000E+00  0.00000000000E+00  0.12525980253E-10  0.17130000000E+03  0.17130000000E+03 0.  1.
       11    1    1    2    0    0 -0.16343955686E+00  0.54671178474E-01 -0.16793874971E-01  0.17315808374E+00  0.51109989000E-03 0.  1.
     -623    1    1    2    0    0  0.21409015860E+00 -0.30426632137E+00  0.65118940517E+00  0.17130164173E+03  0.17130000000E+03 0.  1.
      622    1    1    2    0    0 -0.50650601736E-01  0.24959514289E+00  0.33656044372E+01  0.38252001838E+01  0.18000000000E+01 0.  1.
</event>
<event>
 5   0  0.7764500E-01  0.9118800E+02  0.7818608E-02  0.1180000E+00
       11   -1    0    0    0    0  0.00000000000E+00  0.00000000000E+00  0.39999999673E+01  0.40000000000E+01  0.51109989000E-03 0.  1.
     -623   -1    0    0    0    0  0.00000000000E+00  0.00000000000E+00  0.12525980253E-10  0.17130000000E+03  0.17130000000E+03 0. -1.
       11    1    1    2    0    0  0.23227024330E+00  0.42853274297E-01  0.27027560256E+00  0.35893597145E+00  0.51109989000E-03 0.  1.
     -623    1    1    2    0    0 -0.10169449765E+00  0.21410936460E+00  0.57917767289E+00  0.17130114311E+03  0.17130000000E+03 0. -1.
      622    1    1    2    0    0 -0.13057574565E+00 -0.25696263889E+00  0.31505466919E+01  0.36399209169E+01  0.18000000000E+01 0.  1.
</event>
<event>
 5   0  0.7764500E-01  0.9118800E+02  0.7818608E-02  0.1180000E+00
       11   -1    0    0    0    0  0.00000000000E+00  0.00000000000E+00  0.39999999673E+01  0.40000000000E+01  0.51109989000E-03 0. -1.
     -623   -1    0    0    0    0  0.00000000000E+00  0.00000000000E+00  0.12525980253E-10  0.17130000000E+03  0.17130000000E+03 0. -1.
       11    1    1    2    0    0  0.54110079644E-01  0.12434965306E+00 -0.52895634353E-02  0.13571653415E+00  0.51109989000E-03 0. -1.
     -623    1    1    2    0    0 -0.13426442369E+00 -0.23914040273E+00  0.59009778735E+00  0.17130123593E+03  0.17130000000E+03 0. -1.
      622    1    1    2    0    0  0.80154344048E-01  0.11479074967E+00  0.34151917434E+01  0.38630475378E+01  0.18000000000E+01 0. -1.
</event>
<event>
 5   0  0.7764500E-01  0.9118800E+02  0.7818608E-02  0.1180000E+00
       11   -1    0    0    0    0  0.00000000000E+00  0.00000000000E+00  0.39999999673E+01  0.40000000000E+01  0.51109989000E-03 0. -1.
     -623   -1    0    0    0    0  0.00000000000E+00  0.00000000000E+00  0.12525980253E-10  0.17130000000E+03  0.17130000000E+03 0.  1.
       11    1    1    2    0    0  0.11327546290E+00 -0.61272673268E-01  0.26586366197E+00  0.29541397895E+00  0.51109989000E-03 0. -1.
     -623    1    1    2    0    0 -0.41244680656E+00  0.50828185514E-01  0.51156710482E+00  0.17130126794E+03  0.17130000000E+03 0.  1.
      622    1    1    2    0    0  0.29917134366E+00  0.10444487754E-01  0.32225692006E+01  0.37033180842E+01  0.18000000000E+01 0. -1.
</event>
<event>
 5   0  0.7764500E-01  0.9118800E+02  0.7818608E-02  0.1180000E+00
       11   -1    0    0    0    0  0.00000000000E+00  0.00000000000E+00  0.39999999673E+01  0.40000000000E+01  0.51109989000E-03 0. -1.
     -623   -1    0    0    0    0  0.00000000000E+00  0.00000000000E+00  0.12525980253E-10  0.17130000000E+03  0.17130000000E+03 0. -1.
       11    1    1    2    0    0 -0.79500422315E-01  0.78822924846E-01 -0.18035262599E+00  0.21227506107E+00  0.51109989000E-03 0. -1.
     -623    1    1    2    0    0  0.16478905558E+00  0.49051149006E-01  0.85372220326E+00  0.17130221365E+03  0.17130000000E+03 0. -1.
      622    1    1    2    0    0 -0.85288633264E-01 -0.12787407385E+00  0.33266303901E+01  0.37855112841E+01  0.18000000000E+01 0. -1.
</event>
<event>
 5   0  0.7764500E-01  0.9118800E+02  0.7818608E-02  0.1180000E+00
       11   -1    0    0    0    0  0.00000000000E+00  0.00000000000E+00  0.39999999673E+01  0.40000000000E+01  0.51109989000E-03 0.  1.
     -623   -1    0    0    0    0  0.00000000000E+00  0.00000000000E+00  0.12525980253E-10  0.17130000000E+03  0.17130000000E+03 0. -1.
       11    1    1    2    0    0  0.91039505176E-01  0.23499856033E+00  0.57515701477E-01  0.25849725723E+00  0.51109989000E-03 0.  1.
     -623    1    1    2    0    0 -0.25611135994E+00 -0.38902617962E+00  0.67242934514E+00  0.17130195298E+03  0.17130000000E+03 0. -1.
      622    1    1    2    0    0  0.16507185476E+00  0.15402761928E+00  0.32700549207E+01  0.37395497603E+01  0.18000000000E+01 0.  1.
</event>
<event>
 5   0  0.7764500E-01  0.9118800E+02  0.7818608E-02  0.1180000E+00
       11   -1    0    0    0    0  0.00000000000E+00  0.00000000000E+00  0.39999999673E+01  0.40000000000E+01  0.51109989000E-03 0. -1.
     -623   -1    0    0    0    0  0.00000000000E+00  0.00000000000E+00  0.12525980253E-10  0.17130000000E+03  0.17130000000E+03 0. -1.
       11    1    1    2    0    0  0.32845786222E-01 -0.24602378603E+00 -0.96196817382E-01  0.26619661505E+00  0.51109989000E-03 0. -1.
     -623    1    1    2    0    0  0.96855444737E-01  0.61222634076E+00  0.85178886897E+00  0.17130323916E+03  0.17130000000E+03 0. -1.
      622    1    1    2    0    0 -0.12970123096E+00 -0.36620255473E+00  0.32444079158E+01  0.37305642260E+01  0.18000000000E+01 0. -1.
</event>
<event>
 5   0  0.7764500E-01  0.9118800E+02  0.7818608E-02  0.1180000E+00
       11   -1    0    0    0    0  0.00000000000E+00  0.00000000000E+00  0.39999999673E+01  0.40000000000E+01  0.51109989000E-03 0. -1.
     -623   -1    0    0    0    0  0.00000000000E+00  0.00000000000E+00  0.12525980253E-10  0.17130000000E+03  0.17130000000E+03 0. -1.
       11    1    1    2    0    0 -0.15276509560E+00  0.22610308282E+00  0.20806748575E+00  0.34315028536E+00  0.51109989000E-03 0. -1.
     -623    1    1    2    0    0  0.22654307890E-01 -0.15462474028E+00  0.61357519038E+00  0.17130117016E+03  0.17130000000E+03 0. -1.
      622    1    1    2    0    0  0.13011078771E+00 -0.71478342543E-01  0.31783572912E+01  0.36556795594E+01  0.18000000000E+01 0. -1.
</event>
<event>
 5   0  0.7764500E-01  0.9118800E+02  0.7818608E-02  0.1180000E+00
       11   -1    0    0    0    0  0.00000000000E+00  0.00000000000E+00  0.39999999673E+01  0.40000000000E+01  0.51109989000E-03 0. -1.
     -623   -1    0    0    0    0  0.00000000000E+00  0.00000000000E+00  0.12525980253E-10  0.17130000000E+03  0.17130000000E+03 0. -1.
       11    1    1    2    0    0 -0.37761930303E+00 -0.38918771152E+00  0.90766516593E+00  0.10573172312E+01  0.51109989000E-03 0. -1.
     -623    1    1    2    0    0  0.97178789764E-01  0.37891442857E+00  0.78420972425E+00  0.17130224168E+03  0.17130000000E+03 0. -1.
      622    1    1    2    0    0  0.28044051326E+00  0.10273282945E-01  0.23081250772E+01  0.29404410883E+01  0.18000000000E+01 0. -1.
</event>
<event>
 5   0  0.7764500E-01  0.9118800E+02  0.7818608E-02  0.1180000E+00
       11   -1    0    0    0    0  0.00000000000E+00  0.00000000000E+00  0.39999999673E+01  0.40000000000E+01  0.51109989000E-03 0. -1.
     -623   -1    0    0    0    0  0.00000000000E+00  0.00000000000E+00  0.12525980253E-10  0.17130000000E+03  0.17130000000E+03 0. -1.
       11    1    1    2    0    0  0.98086002121E-01  0.13645718789E+00  0.10836798500E+00  0.19996326997E+00  0.51109989000E-03 0. -1.
     -623    1    1    2    0    0  0.40870782655E+00 -0.46604868631E+00  0.60252325467E+00  0.17130218118E+03  0.17130000000E+03 0. -1.
      622    1    1    2    0    0 -0.50679382867E+00  0.32959149842E+00  0.32891087277E+01  0.37978555480E+01  0.18000000000E+01 0. -1.
</event>
<event>
 5   0  0.7764500E-01  0.9118800E+02  0.7818608E-02  0.1180000E+00
       11   -1    0    0    0    0  0.00000000000E+00  0.00000000000E+00  0.39999999673E+01  0.40000000000E+01  0.51109989000E-03 0.  1.
     -623   -1    0    0    0    0  0.00000000000E+00  0.00000000000E+00  0.12525980253E-10  0.17130000000E+03  0.17130000000E+03 0. -1.
       11    1    1    2    0    0  0.83458266105E-01  0.46267639142E-01  0.96216249130E-02  0.95910445219E-01  0.51109989000E-03 0.  1.
     -623    1    1    2    0    0  0.42805039290E+00 -0.24951510127E+00  0.57191112480E+00  0.17130167123E+03  0.17130000000E+03 0. -1.
      622    1    1    2    0    0 -0.51150865900E+00  0.20324746213E+00  0.34184672177E+01  0.39024183217E+01  0.18000000000E+01 0.  1.
</event>
<event>
 5   0  0.7764500E-01  0.9118800E+02  0.7818608E-02  0.1180000E+00
       11   -1    0    0    0    0  0.00000000000E+00  0.00000000000E+00  0.39999999673E+01  0.40000000000E+01  0.51109989000E-03 0.  1.
     -623   -1    0    0    0    0  0.00000000000E+00  0.00000000000E+00  0.12525980253E-10  0.17130000000E+03  0.17130000000E+03 0.  1.
       11    1    1    2    0    0 -0.93829626934E-01  0.48259037760E-02 -0.95155589904E-03  0.93959858022E-01  0.51109989000E-03 0.  1.
     -623    1    1    2    0    0  0.94691738861E-01 -0.18117333886E+00  0.53996174252E+00  0.17130097299E+03  0.17130000000E+03 0.  1.
      622    1    1    2    0    0 -0.86211192727E-03  0.17634743509E+00  0.34609897807E+01  0.39050671471E+01  0.18000000000E+01 0.  1.
</event>
<event>
 5   0  0.7764500E-01  0.9118800E+02  0.7818608E-02  0.1180000E+00
       11   -1    0    0    0    0  0.00000000000E+00  0.00000000000E+00  0.39999999673E+01  0.40000000000E+01  0.51109989000E-03 0.  1.
     -623   -1    0    0    0    0  0.00000000000E+00  0.00000000000E+00  0.12525980253E-10  0.17130000000E+03  0.17130000000E+03 0. -1.
       11    1    1    2    0    0 -0.48277711541E-01  0.77364191738E-01  0.18787099410E+00  0.20883420994E+00  0.51109989000E-03 0.  1.
     -623    1    1    2    0    0 -0.12893415816E+00 -0.32422865292E+00  0.49059743064E+00  0.17130105789E+03  0.17130000000E+03 0. -1.
      622    1    1    2    0    0  0.17721186970E+00  0.24686446118E+00  0.33215315426E+01  0.37901079005E+01  0.18000000000E+01 0.  1.
</event>
<event>
 5   0  0.7764500E-01  0.9118800E+02  0.7818608E-02  0.1180000E+00
       11   -1    0    0    0    0  0.00000000000E+00  0.00000000000E+00  0.39999999673E+01  0.40000000000E+01  0.51109989000E-03 0. -1.
     -623   -1    0    0    0    0  0.00000000000E+00  0.00000000000E+00  0.12525980253E-10  0.17130000000E+03  0.17130000000E+03 0. -1.
       11    1    1    2    0    0  0.22436077833E+00 -0.20452875058E+00  0.12245860821E+00  0.32736239951E+00  0.51109989000E-03 0. -1.
     -623    1    1    2    0    0  0.22949763137E+00  0.11983846235E+00  0.71165847539E+00  0.17130167392E+03  0.17130000000E+03 0. -1.
      622    1    1    2    0    0 -0.45385840970E+00  0.84690288230E-01  0.31658828838E+01  0.36709636793E+01  0.18000000000E+01 0. -1.
</event>
<event>
 5   0  0.7764500E-01  0.9118800E+02  0.7818608E-02  0.1180000E+00
       11   -1    0    0    0    0  0.00000000000E+00  0.00000000000E+00  0.39999999673E+01  0.40000000000E+01  0.51109989000E-03 0. -1.
     -623   -1    0    0    0    0  0.00000000000E+00  0.00000000000E+00  0.12525980253E-10  0.17130000000E+03  0.17130000000E+03 0.  1.
       11    1    1    2    0    0  0.70779681716E-01  0.54830204238E-01  0.11019357217E+00  0.14198239049E+00  0.51109989000E-03 0. -1.
     -623    1    1    2    0    0 -0.19343392334E+00 -0.12358220640E+00  0.48126910353E+00  0.17130082986E+03  0.17130000000E+03 0.  1.
      622    1    1    2    0    0  0.12265424163E+00  0.68752002162E-01  0.34085372917E+01  0.38571877540E+01  0.18000000000E+01 0. -1.
</event>
<event>
 5   0  0.7764500E-01  0.9118800E+02  0.7818608E-02  0.1180000E+00
       11   -1    0    0    0    0  0.00000000000E+00  0.00000000000E+00  0.39999999673E+01  0.40000000000E+01  0.51109989000E-03 0.  1.
     -623   -1    0    0    0    0  0.00000000000E+00  0.00000000000E+00  0.12525980253E-10  0.17130000000E+03  0.17130000000E+03 0. -1.
       11    1    1    2    0    0  0.65302374916E-01 -0.13351224979E-01 -0.87612241760E-03  0.66660964527E-01  0.51109989000E-03 0.  1.
     -623    1    1    2    0    0  0.82369766683E-01 -0.58446454693E-01  0.50830860841E+00  0.17130078394E+03  0.17130000000E+03 0. -1.
      622    1    1    2    0    0 -0.14767214160E+00  0.71797679672E-01  0.34925674814E+01  0.39325550956E+01  0.18000000000E+01 0.  1.
</event>
<event>
 5   0  0.7764500E-01  0.9118800E+02  0.7818608E-02  0.1180000E+00
       11   -1    0    0    0    0  0.00000000000E+00  0.00000000000E+00  0.39999999673E+01  0.40000000000E+01  0.51109989000E-03 0. -1.
     -623   -1    0    0    0    0  0.00000000000E+00  0.00000000000E+00  0.12525980253E-10  0.17130000000E+03  0.17130000000E+03 0. -1.
       11    1    1    2    0    0 -0.19495222696E-01  0.46661061678E+00  0.47474022555E+00  0.66594599960E+00  0.51109989000E-03 0. -1.
     -623    1    1    2    0    0  0.83553441783E-01 -0.15528731837E+00  0.73892505782E+00  0.17130168448E+03  0.17130000000E+03 0. -1.
      622    1    1    2    0    0 -0.64058219086E-01 -0.31132329841E+00  0.27863346840E+01  0.33323695207E+01  0.18000000000E+01 0. -1.
</event>
<event>
 5   0  0.7764500E-01  0.9118800E+02  0.7818608E-02  0.1180000E+00
       11   -1    0    0    0    0  0.00000000000E+00  0.00000000000E+00  0.39999999673E+01  0.40000000000E+01  0.51109989000E-03 0. -1.
     -623   -1    0    0    0    0  0.00000000000E+00  0.00000000000E+00  0.12525980253E-10  0.17130000000E+03  0.17130000000E+03 0. -1.
       11    1    1    2    0    0 -0.83024256376E-01  0.16204697834E+00  0.11637294621E+00  0.21609066191E+00  0.51109989000E-03 0. -1.
     -623    1    1    2    0    0 -0.13730493584E+00 -0.20912665976E+00  0.56416977298E+00  0.17130111171E+03  0.17130000000E+03 0. -1.
      622    1    1    2    0    0  0.22032919222E+00  0.47079681423E-01  0.33194572482E+01  0.37827976250E+01  0.18000000000E+01 0. -1.
</event>
<event>
 5   0  0.7764500E-01  0.9118800E+02  0.7818608E-02  0.1180000E+00
       11   -1    0    0    0    0  0.00000000000E+00  0.00000000000E+00  0.39999999673E+01  0.40000000000E+01  0.51109989000E-03 0. -1.
     -623   -1    0    0    0    0  0.00000000000E+00  0.00000000000E+00  0.12525980253E-10  0.17130000000E+03  0.17130000000E+03 0.  1.
       11    1    1    2    0    0  0.33087438068E-01  0.13299527831E+00  0.20868370738E+00  0.24966312014E+00  0.51109989000E-03 0. -1.
     -623    1    1    2    0    0 -0.47844670798E-01 -0.58613926994E+00  0.53468578245E+00  0.17130184394E+03  0.17130000000E+03 0.  1.
      622    1    1    2    0    0  0.14757232730E-01  0.45314399163E+00  0.32566304775E+01  0.37484929399E+01  0.18000000000E+01 0. -1.
</event>
<event>
 5   0  0.7764500E-01  0.9118800E+02  0.7818608E-02  0.1180000E+00
       11   -1    0    0    0    0  0.00000000000E+00  0.00000000000E+00  0.39999999673E+01  0.40000000000E+01  0.51109989000E-03 0.  1.
     -623   -1    0    0    0    0  0.00000000000E+00  0.00000000000E+00  0.12525980253E-10  0.17130000000E+03  0.17130000000E+03 0. -1.
       11    1    1    2    0    0 -0.12529902342E-01 -0.93105798333E-01  0.59742343995E-01  0.11133327006E+00  0.51109989000E-03 0.  1.
     -623    1    1    2    0    0  0.98304615570E-01  0.15296236760E+00  0.49577518684E+00  0.17130081393E+03  0.17130000000E+03 0. -1.
      622    1    1    2    0    0 -0.85774713228E-01 -0.59856569266E-01  0.34444824365E+01  0.38878527963E+01  0.18000000000E+01 0.  1.
</event>
<event>
 5   0  0.7764500E-01  0.9118800E+02  0.7818608E-02  0.1180000E+00
       11   -1    0    0    0    0  0.00000000000E+00  0.00000000000E+00  0.39999999673E+01  0.40000000000E+01  0.51109989000E-03 0.  1.
     -623   -1    0    0    0    0  0.00000000000E+00  0.00000000000E+00  0.12525980253E-10  0.17130000000E+03  0.17130000000E+03 0. -1.
       11    1    1    2    0    0  0.27016253628E-01 -0.15439245459E+00  0.23258442515E-01  0.15845543337E+00  0.51109989000E-03 0.  1.
     -623    1    1    2    0    0 -0.57563317372E-01  0.32061285702E+00  0.58871079505E+00  0.17130132132E+03  0.17130000000E+03 0. -1.
      622    1    1    2    0    0  0.30547063744E-01 -0.16622040243E+00  0.33880307298E+01  0.38402232450E+01  0.18000000000E+01 0.  1.
</event>
<event>
 5   0  0.7764500E-01  0.9118800E+02  0.7818608E-02  0.1180000E+00
       11   -1    0    0    0    0  0.00000000000E+00  0.00000000000E+00  0.39999999673E+01  0.40000000000E+01  0.51109989000E-03 0.  1.
     -623   -1    0    0    0    0  0.00000000000E+00  0.00000000000E+00  0.12525980253E-10  0.17130000000E+03  0.17130000000E+03 0. -1.
       11    1    1    2    0    0 -0.72997272144E-01  0.13810748946E+00  0.18447086663E+00  0.24172720625E+00  0.51109989000E-03 0.  1.
     -623    1    1    2    0    0  0.26311179912E+00 -0.19009246169E+00  0.52350155248E+00  0.17130110746E+03  0.17130000000E+03 0. -1.
      622    1    1    2    0    0 -0.19011452697E+00  0.51984972235E-01  0.32920275483E+01  0.37571653343E+01  0.18000000000E+01 0.  1.
</event>
<event>
 5   0  0.7764500E-01  0.9118800E+02  0.7818608E-02  0.1180000E+00
       11   -1    0    0    0    0  0.00000000000E+00  0.00000000000E+00  0.39999999673E+01  0.40000000000E+01  0.51109989000E-03 0.  1.
     -623   -1    0    0    0    0  0.00000000000E+00  0.00000000000E+00  0.12525980253E-10  0.17130000000E+03  0.17130000000E+03 0. -1.
       11    1    1    2    0    0 -0.16753378320E+00 -0.35206182604E-01  0.43406170977E+00  0.46660140690E+00  0.51109989000E-03 0.  1.
     -623    1    1    2    0    0  0.84269509730E-01 -0.11309541582E+00  0.53118129420E+00  0.17130088162E+03  0.17130000000E+03 0. -1.
      622    1    1    2    0    0  0.83264273471E-01  0.14830159842E+00  0.30347569634E+01  0.35325169681E+01  0.18000000000E+01 0.  1.
</event>
<event>
 5   0  0.7764500E-01  0.9118800E+02  0.7818608E-02  0.1180000E+00
       11   -1    0    0    0    0  0.00000000000E+00  0.00000000000E+00  0.39999999673E+01  0.40000000000E+01  0.51109989000E-03 0.  1.
     -623   -1    0    0    0    0  0.00000000000E+00  0.00000000000E+00  0.12525980253E-10  0.17130000000E+03  0.17130000000E+03 0.  1.
       11    1    1    2    0    0  0.36324136151E-01 -0.85839717682E-02 -0.35676157775E-01  0.51635035539E-01  0.51109989000E-03 0.  1.
     -623    1    1    2    0    0  0.19033669531E-01  0.21650734067E+00  0.52914683573E+00  0.17130095515E+03  0.17130000000E+03 0.  1.
      622    1    1    2    0    0 -0.55357805682E-01 -0.20792336891E+00  0.35065292894E+01  0.39474098180E+01  0.18000000000E+01 0.  1.
</event>
<event>
 5   0  0.7764500E-01  0.9118800E+02  0.7818608E-02  0.1180000E+00
       11   -1    0    0    0    0  0.00000000000E+00  0.00000000000E+00  0.39999999673E+01  0.40000000000E+01  0.51109989000E-03 0.  1.
     -623   -1    0    0    0    0  0.00000000000E+00  0.00000000000E+00  0.12525980253E-10  0.17130000000E+03  0.17130000000E+03 0. -1.
       11    1    1    2    0    0 -0.43890344199E-01  0.34042859264E-01  0.13484091319E-01  0.57160830317E-01  0.51109989000E-03 0.  1.
     -623    1    1    2    0    0 -0.28070880270E-01  0.66115333946E-01  0.48147427915E+00  0.17130069170E+03  0.17130000000E+03 0. -1.
      622    1    1    2    0    0  0.71961224469E-01 -0.10015819321E+00  0.35050415969E+01  0.39421474703E+01  0.18000000000E+01 0.  1.
</event>
<event>
 5   0  0.7764500E-01  0.9118800E+02  0.7818608E-02  0.1180000E+00
       11   -1    0    0    0    0  0.00000000000E+00  0.00000000000E+00  0.39999999673E+01  0.40000000000E+01  0.51109989000E-03 0. -1.
     -623   -1    0    0    0    0  0.00000000000E+00  0.00000000000E+00  0.12525980253E-10  0.17130000000E+03  0.17130000000E+03 0.  1.
       11    1    1    2    0    0 -0.12120029365E+00 -0.22583198788E-01  0.38784091272E-01  0.12924387416E+00  0.51109989000E-03 0. -1.
     -623    1    1    2    0    0  0.24324020129E+00  0.23688511140E-01  0.53777102329E+00  0.17130101846E+03  0.17130000000E+03 0.  1.
      622    1    1    2    0    0 -0.12203990764E+00 -0.11053123513E-02  0.34234448528E+01  0.38697376682E+01  0.18000000000E+01 0. -1.
</event>
<event>
 5   0  0.7764500E-01  0.9118800E+02  0.7818608E-02  0.1180000E+00
       11   -1    0    0    0    0  0.00000000000E+00  0.00000000000E+00  0.39999999673E+01  0.40000000000E+01  0.51109989000E-03 0. -1.
     -623   -1    0    0    0    0  0.00000000000E+00  0.00000000000E+00  0.12525980253E-10  0.17130000000E+03  0.17130000000E+03 0. -1.
       11    1    1    2    0    0  0.11560179017E-01 -0.21192426782E-02 -0.33116842339E-01  0.35144208599E-01  0.51109989000E-03 0. -1.
     -623    1    1    2    0    0 -0.10361014170E+00  0.11433234616E+00  0.50429549854E+00  0.17130081179E+03  0.17130000000E+03 0. -1.
      622    1    1    2    0    0  0.92049962685E-01 -0.11221310348E+00  0.35288213112E+01  0.39640439985E+01  0.18000000000E+01 0. -1.
</event>
<event>
 5   0  0.7764500E-01  0.9118800E+02  0.7818608E-02  0.1180000E+00
       11   -1    0    0    0    0  0.00000000000E+00  0.00000000000E+00  0.39999999673E+01  0.40000000000E+01  0.51109989000E-03 0.  1.
     -623   -1    0    0    0    0  0.00000000000E+00  0.00000000000E+00  0.12525980253E-10  0.17130000000E+03  0.17130000000E+03 0. -1.
       11    1    1    2    0    0  0.28317220970E+00  0.53774329296E-01  0.41549963208E+00  0.50568605312E+00  0.51109989000E-03 0.  1.
     -623    1    1    2    0    0 -0.23636136507E+00 -0.49262229914E+00  0.62453260029E+00  0.17130200987E+03  0.17130000000E+03 0. -1.
      622    1    1    2    0    0 -0.46810844628E-01  0.43884796985E+00  0.29599677350E+01  0.34923040801E+01  0.18000000000E+01 0.  0.
</event>
<event>
 5   0  0.7764500E-01  0.9118800E+02  0.7818608E-02  0.1180000E+00
       11   -1    0    0    0    0  0.00000000000E+00  0.00000000000E+00  0.39999999673E+01  0.40000000000E+01  0.51109989000E-03 0. -1.
     -623   -1    0    0    0    0  0.00000000000E+00  0.00000000000E+00  0.12525980253E-10  0.17130000000E+03  0.17130000000E+03 0. -1.
       11    1    1    2    0    0 -0.20884180355E+00 -0.11298098549E-01  0.45661921944E-01  0.21407432887E+00  0.51109989000E-03 0. -1.
     -623    1    1    2    0    0  0.37527084932E+00 -0.11393069617E+00  0.63204566956E+00  0.17130161497E+03  0.17130000000E+03 0. -1.
      622    1    1    2    0    0 -0.16642904577E+00  0.12522879472E+00  0.33222923759E+01  0.37843107046E+01  0.18000000000E+01 0. -1.
</event>
<event>
 5   0  0.7764500E-01  0.9118800E+02  0.7818608E-02  0.1180000E+00
       11   -1    0    0    0    0  0.00000000000E+00  0.00000000000E+00  0.39999999673E+01  0.40000000000E+01  0.51109989000E-03 0. -1.
     -623   -1    0    0    0    0  0.00000000000E+00  0.00000000000E+00  0.12525980253E-10  0.17130000000E+03  0.17130000000E+03 0. -1.
       11    1    1    2    0    0  0.17464548094E+00 -0.27220774530E+00  0.33536423981E+00  0.46590507099E+00  0.51109989000E-03 0. -1.
     -623    1    1    2    0    0 -0.19588740338E+00  0.37695556769E-01  0.63391469506E+00  0.17130128908E+03  0.17130000000E+03 0. -1.
      622    1    1    2    0    0  0.21241922438E-01  0.23451218853E+00  0.30307210325E+01  0.35328058484E+01  0.18000000000E+01 0. -1.
</event>
<event>
 5   0  0.7764500E-01  0.9118800E+02  0.7818608E-02  0.1180000E+00
       11   -1    0    0    0    0  0.00000000000E+00  0.00000000000E+00  0.39999999673E+01  0.40000000000E+01  0.51109989000E-03 0.  1.
     -623   -1    0    0    0    0  0.00000000000E+00  0.00000000000E+00  0.12525980253E-10  0.17130000000E+03  0.17130000000E+03 0.  1.
       11    1    1    2    0    0  0.51522576048E-01 -0.46155940639E-01  0.51151253804E+00  0.51616885270E+00  0.51109989000E-03 0.  1.
     -623    1    1    2    0    0 -0.43737925166E+00 -0.15249002155E+00  0.53917220314E+00  0.17130147478E+03  0.17130000000E+03 0.  1.
      622    1    1    2    0    0  0.38585667562E+00  0.19864596218E+00  0.29493152262E+01  0.34823563712E+01  0.18000000000E+01 0.  1.
</event>
<event>
 5   0  0.7764500E-01  0.9118800E+02  0.7818608E-02  0.1180000E+00
       11   -1    0    0    0    0  0.00000000000E+00  0.00000000000E+00  0.39999999673E+01  0.40000000000E+01  0.51109989000E-03 0. -1.
     -623   -1    0    0    0    0  0.00000000000E+00  0.00000000000E+00  0.12525980253E-10  0.17130000000E+03  0.17130000000E+03 0.  1.
       11    1    1    2    0    0 -0.12027929250E+00  0.71406078676E-01  0.97851946135E-01  0.17070794024E+00  0.51109989000E-03 0. -1.
     -623    1    1    2    0    0  0.23584277234E+00  0.34271254017E+00  0.55133221072E+00  0.17130139241E+03  0.17130000000E+03 0.  1.
      622    1    1    2    0    0 -0.11556347984E+00 -0.41411861885E+00  0.33508158105E+01  0.38278996518E+01  0.18000000000E+01 0. -1.
</event>
<event>
 5   0  0.7764500E-01  0.9118800E+02  0.7818608E-02  0.1180000E+00
       11   -1    0    0    0    0  0.00000000000E+00  0.00000000000E+00  0.39999999673E+01  0.40000000000E+01  0.51109989000E-03 0.  1.
     -623   -1    0    0    0    0  0.00000000000E+00  0.00000000000E+00  0.12525980253E-10  0.17130000000E+03  0.17130000000E+03 0. -1.
       11    1    1    2    0    0 -0.18079031065E-01 -0.25460429542E-01 -0.15074906948E-01  0.34678507455E-01  0.51109989000E-03 0.  1.
     -623    1    1    2    0    0  0.62561836441E-01  0.37605566633E+00  0.50085960617E+00  0.17130115642E+03  0.17130000000E+03 0. -1.
      622    1    1    2    0    0 -0.44482805376E-01 -0.35059523678E+00  0.35142152681E+01  0.39641650686E+01  0.18000000000E+01 0.  1.
</event>
<event>
 5   0  0.7764500E-01  0.9118800E+02  0.7818608E-02  0.1180000E+00
       11   -1    0    0    0    0  0.00000000000E+00  0.00000000000E+00  0.39999999673E+01  0.40000000000E+01  0.51109989000E-03 0. -1.
     -623   -1    0    0    0    0  0.00000000000E+00  0.00000000000E+00  0.12525980253E-10  0.17130000000E+03  0.17130000000E+03 0.  1.
       11    1    1    2    0    0  0.17062832572E+00 -0.24082901695E+00  0.21826655074E+00  0.36708744100E+00  0.51109989000E-03 0. -1.
     -623    1    1    2    0    0 -0.51345252618E+00 -0.14503390464E+00  0.67109826317E+00  0.17130214547E+03  0.17130000000E+03 0.  1.
      622    1    1    2    0    0  0.34282420046E+00  0.38586292160E+00  0.31106351535E+01  0.36307670931E+01  0.18000000000E+01 0. -1.
</event>
<event>
 5   0  0.7764500E-01  0.9118800E+02  0.7818608E-02  0.1180000E+00
       11   -1    0    0    0    0  0.00000000000E+00  0.00000000000E+00  0.39999999673E+01  0.40000000000E+01  0.51109989000E-03 0.  1.
     -623   -1    0    0    0    0  0.00000000000E+00  0.00000000000E+00  0.12525980253E-10  0.17130000000E+03  0.17130000000E+03 0.  1.
       11    1    1    2    0    0 -0.25269798196E+00  0.19755083885E+00  0.54080200950E+00  0.62876838241E+00  0.51109989000E-03 0.  1.
     -623    1    1    2    0    0  0.38070887166E+00 -0.26285992772E+00  0.61439349445E+00  0.17130172654E+03  0.17130000000E+03 0.  1.
      622    1    1    2    0    0 -0.12801088970E+00  0.65309088878E-01  0.28448044634E+01  0.33695050824E+01  0.18000000000E+01 0.  1.
</event>
<event>
 5   0  0.7764500E-01  0.9118800E+02  0.7818608E-02  0.1180000E+00
       11   -1    0    0    0    0  0.00000000000E+00  0.00000000000E+00  0.39999999673E+01  0.40000000000E+01  0.51109989000E-03 0. -1.
     -623   -1    0    0    0    0  0.00000000000E+00  0.00000000000E+00  0.12525980253E-10  0.17130000000E+03  0.17130000000E+03 0.  1.
       11    1    1    2    0    0  0.19859128344E-01 -0.49932797049E-01 -0.35290834732E-01  0.64291316979E-01  0.51109989000E-03 0. -1.
     -623    1    1    2    0    0  0.10452001036E-01  0.17000319519E+00  0.53855838588E+00  0.17130093127E+03  0.17130000000E+03 0.  1.
      622    1    1    2    0    0 -0.30311129380E-01 -0.12007039814E+00  0.34967324162E+01  0.39347774087E+01  0.18000000000E+01 0. -1.
</event>
<event>
 5   0  0.7764500E-01  0.9118800E+02  0.7818608E-02  0.1180000E+00
       11   -1    0    0    0    0  0.00000000000E+00  0.00000000000E+00  0.39999999673E+01  0.40000000000E+01  0.51109989000E-03 0.  1.
     -623   -1    0    0    0    0  0.00000000000E+00  0.00000000000E+00  0.12525980253E-10  0.17130000000E+03  0.17130000000E+03 0. -1.
       11    1    1    2    0    0  0.33218833723E-01  0.11779699461E+00  0.56114766359E-01  0.13464305061E+00  0.51109989000E-03 0.  1.
     -623    1    1    2    0    0  0.15768400726E-01 -0.31963036382E+00  0.53079558134E+00  0.17130112129E+03  0.17130000000E+03 0. -1.
      622    1    1    2    0    0 -0.48987234449E-01  0.20183336920E+00  0.34130896197E+01  0.38642356566E+01  0.18000000000E+01 0.  1.
</event>
<event>
 5   0  0.7764500E-01  0.9118800E+02  0.7818608E-02  0.1180000E+00
       11   -1    0    0    0    0  0.00000000000E+00  0.00000000000E+00  0.39999999673E+01  0.40000000000E+01  0.51109989000E-03 0. -1.
     -623   -1    0    0    0    0  0.00000000000E+00  0.00000000000E+00  0.12525980253E-10  0.17130000000E+03  0.17130000000E+03 0. -1.
       11    1    1    2    0    0 -0.18215454426E+00  0.19510473146E+00  0.20473486227E+00  0.33639672900E+00  0.51109989000E-03 0. -1.
     -623    1    1    2    0    0  0.21992295522E+00  0.80251202578E-01  0.61793847864E+00  0.17130127453E+03  0.17130000000E+03 0. -1.
      622    1    1    2    0    0 -0.37768410961E-01 -0.27535593404E+00  0.31773266265E+01  0.36623287447E+01  0.18000000000E+01 0. -1.
</event>
<event>
 5   0  0.7764500E-01  0.9118800E+02  0.7818608E-02  0.1180000E+00
       11   -1    0    0    0    0  0.00000000000E+00  0.00000000000E+00  0.39999999673E+01  0.40000000000E+01  0.51109989000E-03 0.  1.
     -623   -1    0    0    0    0  0.00000000000E+00  0.00000000000E+00  0.12525980253E-10  0.17130000000E+03  0.17130000000E+03 0.  1.
       11    1    1    2    0    0  0.41568209328E-01 -0.28083563551E-02  0.33721530132E+00  0.33977966914E+00  0.51109989000E-03 0.  1.
     -623    1    1    2    0    0 -0.45323257416E+00  0.17824061507E+00  0.50899852024E+00  0.17130144853E+03  0.17130000000E+03 0.  1.
      622    1    1    2    0    0  0.41166436483E+00 -0.17543225871E+00  0.31537861458E+01  0.36587717994E+01  0.18000000000E+01 0.  1.
</event>
<event>
 5   0  0.7764500E-01  0.9118800E+02  0.7818608E-02  0.1180000E+00
       11   -1    0    0    0    0  0.00000000000E+00  0.00000000000E+00  0.39999999673E+01  0.40000000000E+01  0.51109989000E-03 0. -1.
     -623   -1    0    0    0    0  0.00000000000E+00  0.00000000000E+00  0.12525980253E-10  0.17130000000E+03  0.17130000000E+03 0.  1.
       11    1    1    2    0    0 -0.25516948675E+00  0.27028277300E+00 -0.72709596895E-01  0.37874950964E+00  0.51109989000E-03 0. -1.
     -623    1    1    2    0    0 -0.54102042106E-03  0.49662096883E-02  0.95614322235E+00  0.17130266850E+03  0.17130000000E+03 0.  1.
      622    1    1    2    0    0  0.25571050717E+00 -0.27524898269E+00  0.31165663419E+01  0.36185819915E+01  0.18000000000E+01 0. -1.
</event>
<event>
 5   0  0.7764500E-01  0.9118800E+02  0.7818608E-02  0.1180000E+00
       11   -1    0    0    0    0  0.00000000000E+00  0.00000000000E+00  0.39999999673E+01  0.40000000000E+01  0.51109989000E-03 0. -1.
     -623   -1    0    0    0    0  0.00000000000E+00  0.00000000000E+00  0.12525980253E-10  0.17130000000E+03  0.17130000000E+03 0. -1.
       11    1    1    2    0    0  0.97321633101E-01  0.56992398492E-01 -0.60305056659E-01  0.12789290377E+00  0.51109989000E-03 0. -1.
     -623    1    1    2    0    0 -0.26162434386E+00  0.14991656005E+00  0.64387670499E+00  0.17130147547E+03  0.17130000000E+03 0. -1.
      622    1    1    2    0    0  0.16430271076E+00 -0.20690895854E+00  0.34164283190E+01  0.38706316225E+01  0.18000000000E+01 0. -1.
</event>
<event>
 5   0  0.7764500E-01  0.9118800E+02  0.7818608E-02  0.1180000E+00
       11   -1    0    0    0    0  0.00000000000E+00  0.00000000000E+00  0.39999999673E+01  0.40000000000E+01  0.51109989000E-03 0. -1.
     -623   -1    0    0    0    0  0.00000000000E+00  0.00000000000E+00  0.12525980253E-10  0.17130000000E+03  0.17130000000E+03 0.  1.
       11    1    1    2    0    0 -0.53180888786E-01 -0.22390766515E+00  0.13160649640E+00  0.26511012912E+00  0.51109989000E-03 0. -1.
     -623    1    1    2    0    0  0.17285087519E+00  0.10134059673E+00  0.60169924813E+00  0.17130117393E+03  0.17130000000E+03 0.  1.
      622    1    1    2    0    0 -0.11966998641E+00  0.12256706842E+00  0.32666942228E+01  0.37337159422E+01  0.18000000000E+01 0. -1.
</event>
<event>
 5   0  0.7764500E-01  0.9118800E+02  0.7818608E-02  0.1180000E+00
       11   -1    0    0    0    0  0.00000000000E+00  0.00000000000E+00  0.39999999673E+01  0.40000000000E+01  0.51109989000E-03 0.  1.
     -623   -1    0    0    0    0  0.00000000000E+00  0.00000000000E+00  0.12525980253E-10  0.17130000000E+03  0.17130000000E+03 0.  1.
       11    1    1    2    0    0 -0.48650054983E-02 -0.40413549714E-01 -0.77582540979E-01  0.87614126525E-01  0.51109989000E-03 0.  1.
     -623    1    1    2    0    0  0.10073707688E+00  0.10314226746E+00  0.60702815436E+00  0.17130113622E+03  0.17130000000E+03 0.  1.
      622    1    1    2    0    0 -0.95872071379E-01 -0.62728717741E-01  0.34705543540E+01  0.39112496558E+01  0.18000000000E+01 0.  1.
</event>
<event>
 5   0  0.7764500E-01  0.9118800E+02  0.7818608E-02  0.1180000E+00
       11   -1    0    0    0    0  0.00000000000E+00  0.00000000000E+00  0.39999999673E+01  0.40000000000E+01  0.51109989000E-03 0.  1.
     -623   -1    0    0    0    0  0.00000000000E+00  0.00000000000E+00  0.12525980253E-10  0.17130000000E+03  0.17130000000E+03 0.  1.
       11    1    1    2    0    0  0.17729908360E-01 -0.16787552942E+00 -0.52990195605E-01  0.17693152653E+00  0.51109989000E-03 0.  1.
     -623    1    1    2    0    0 -0.40910534292E+00  0.16710974861E+00  0.70527127590E+00  0.17130202188E+03  0.17130000000E+03 0.  1.
      622    1    1    2    0    0  0.39137543456E+00  0.76578080148E-03  0.33477188871E+01  0.38210465928E+01  0.18000000000E+01 0.  1.
</event>
<event>
 5   0  0.7764500E-01  0.9118800E+02  0.7818608E-02  0.1180000E+00
       11   -1    0    0    0    0  0.00000000000E+00  0.00000000000E+00  0.39999999673E+01  0.40000000000E+01  0.51109989000E-03 0. -1.
     -623   -1    0    0    0    0  0.00000000000E+00  0.00000000000E+00  0.12525980253E-10  0.17130000000E+03  0.17130000000E+03 0. -1.
       11    1    1    2    0    0  0.26660564456E+00  0.18442096470E+00  0.27147445710E-01  0.32531047780E+00  0.51109989000E-03 0. -1.
     -623    1    1    2    0    0 -0.27331616228E+00 -0.20967998502E+00  0.77170527562E+00  0.17130208462E+03  0.17130000000E+03 0. -1.
      622    1    1    2    0    0  0.67105177168E-02  0.25259020322E-01  0.32011472460E+01  0.36726048984E+01  0.18000000000E+01 0. -1.
</event>
<event>
 5   0  0.7764500E-01  0.9118800E+02  0.7818608E-02  0.1180000E+00
       11   -1    0    0    0    0  0.00000000000E+00  0.00000000000E+00  0.39999999673E+01  0.40000000000E+01  0.51109989000E-03 0. -1.
     -623   -1    0    0    0    0  0.00000000000E+00  0.00000000000E+00  0.12525980253E-10  0.17130000000E+03  0.17130000000E+03 0.  1.
       11    1    1    2    0    0  0.20841729210E-01 -0.12226591711E+00  0.10007236537E+00  0.15936772475E+00  0.51109989000E-03 0. -1.
     -623    1    1    2    0    0 -0.38502388387E+00  0.46276732219E+00  0.54626172936E+00  0.17130192877E+03  0.17130000000E+03 0.  1.
      622    1    1    2    0    0  0.36418215466E+00 -0.34050140508E+00  0.33536658726E+01  0.38387035095E+01  0.18000000000E+01 0. -1.
</event>
<event>
 5   0  0.7764500E-01  0.9118800E+02  0.7818608E-02  0.1180000E+00
       11   -1    0    0    0    0  0.00000000000E+00  0.00000000000E+00  0.39999999673E+01  0.40000000000E+01  0.51109989000E-03 0. -1.
     -623   -1    0    0    0    0  0.00000000000E+00  0.00000000000E+00  0.12525980253E-10  0.17130000000E+03  0.17130000000E+03 0.  1.
       11    1    1    2    0    0 -0.26973082719E+00 -0.78495374757E-01  0.39472311370E+00  0.48448203342E+00  0.51109989000E-03 0. -1.
     -623    1    1    2    0    0  0.17182559561E+00  0.49626530176E-01  0.58854288228E+00  0.17130110440E+03  0.17130000000E+03 0.  1.
      622    1    1    2    0    0  0.97905231579E-01  0.28868844581E-01  0.30167339714E+01  0.35144135640E+01  0.18000000000E+01 0. -1.
</event>
<event>
 5   0  0.7764500E-01  0.9118800E+02  0.7818608E-02  0.1180000E+00
       11   -1    0    0    0    0  0.00000000000E+00  0.00000000000E+00  0.39999999673E+01  0.40000000000E+01  0.51109989000E-03 0.  1.
     -623   -1    0    0    0    0  0.00000000000E+00  0.00000000000E+00  0.12525980253E-10  0.17130000000E+03  0.17130000000E+03 0. -1.
       11    1    1    2    0    0 -0.62375082465E-01 -0.61507577322E-01  0.13905662866E+00  0.16434974954E+00  0.51109989000E-03 0.  1.
     -623    1    1    2    0    0  0.31727132861E-01  0.53677467542E+00  0.50935955634E+00  0.17130160122E+03  0.17130000000E+03 0. -1.
      622    1    1    2    0    0  0.30647949604E-01 -0.47526709810E+00  0.33515837824E+01  0.38340490296E+01  0.18000000000E+01 0.  1.
</event>
<event>
 5   0  0.7764500E-01  0.9118800E+02  0.7818608E-02  0.1180000E+00
       11   -1    0    0    0    0  0.00000000000E+00  0.00000000000E+00  0.39999999673E+01  0.40000000000E+01  0.51109989000E-03 0.  1.
     -623   -1    0    0    0    0  0.00000000000E+00  0.00000000000E+00  0.12525980253E-10  0.17130000000E+03  0.17130000000E+03 0. -1.
       11    1    1    2    0    0 -0.17836185617E+00  0.16390209604E-01  0.36839781352E+00  0.40963251939E+00  0.51109989000E-03 0.  1.
     -623    1    1    2    0    0  0.15918019539E+00  0.75610682737E-01  0.52750417527E+00  0.17130090285E+03  0.17130000000E+03 0. -1.
      622    1    1    2    0    0  0.19181660782E-01 -0.92000892341E-01  0.31040979786E+01  0.35894646343E+01  0.18000000000E+01 0.  1.
</event>
<event>
 5   0  0.7764500E-01  0.9118800E+02  0.7818608E-02  0.1180000E+00
       11   -1    0    0    0    0  0.00000000000E+00  0.00000000000E+00  0.39999999673E+01  0.40000000000E+01  0.51109989000E-03 0. -1.
     -623   -1    0    0    0    0  0.00000000000E+00  0.00000000000E+00  0.12525980253E-10  0.17130000000E+03  0.17130000000E+03 0. -1.
       11    1    1    2    0    0 -0.37686781321E+00 -0.75381799763E+00  0.64546726758E+00  0.10615550748E+01  0.51109989000E-03 0. -1.
     -623    1    1    2    0    0  0.44566354493E+00  0.48269145717E+00  0.10545858606E+01  0.17130450595E+03  0.17130000000E+03 0. -1.
      622    1    1    2    0    0 -0.68795731723E-01  0.27112654045E+00  0.22999468392E+01  0.29339389763E+01  0.18000000000E+01 0. -1.
</event>
<event>
 5   0  0.7764500E-01  0.9118800E+02  0.7818608E-02  0.1180000E+00
       11   -1    0    0    0    0  0.00000000000E+00  0.00000000000E+00  0.39999999673E+01  0.40000000000E+01  0.51109989000E-03 0.  1.
     -623   -1    0    0    0    0  0.00000000000E+00  0.00000000000E+00  0.12525980253E-10  0.17130000000E+03  0.17130000000E+03 0.  1.
       11    1    1    2    0    0 -0.15018246686E-01  0.11503065612E+00  0.75258463252E-01  0.13828122466E+00  0.51109989000E-03 0.  1.
     -623    1    1    2    0    0  0.15577644071E+00  0.14003338889E+00  0.52167258747E+00  0.17130092241E+03  0.17130000000E+03 0.  1.
      622    1    1    2    0    0 -0.14075819402E+00 -0.25506404501E+00  0.34030689166E+01  0.38607963670E+01  0.18000000000E+01 0.  1.
</event>
<event>
 5   0  0.7764500E-01  0.9118800E+02  0.7818608E-02  0.1180000E+00
       11   -1    0    0    0    0  0.00000000000E+00  0.00000000000E+00  0.39999999673E+01  0.40000000000E+01  0.51109989000E-03 0.  1.
     -623   -1    0    0    0    0  0.00000000000E+00  0.00000000000E+00  0.12525980253E-10  0.17130000000E+03  0.17130000000E+03 0. -1.
       11    1    1    2    0    0 -0.72660390629E-01  0.31805774931E-02 -0.26277454983E-01  0.77333138447E-01  0.51109989000E-03 0.  1.
     -623    1    1    2    0    0  0.76090721009E-01  0.90604797810E-01  0.54325720362E+00  0.17130090230E+03  0.17130000000E+03 0. -1.
      622    1    1    2    0    0 -0.34303303798E-02 -0.93785375303E-01  0.34830202187E+01  0.39217645656E+01  0.18000000000E+01 0.  0.
</event>
<event>
 5   0  0.7764500E-01  0.9118800E+02  0.7818608E-02  0.1180000E+00
       11   -1    0    0    0    0  0.00000000000E+00  0.00000000000E+00  0.39999999673E+01  0.40000000000E+01  0.51109989000E-03 0.  1.
     -623   -1    0    0    0    0  0.00000000000E+00  0.00000000000E+00  0.12525980253E-10  0.17130000000E+03  0.17130000000E+03 0. -1.
       11    1    1    2    0    0 -0.25489212237E+00  0.65201729645E-01  0.38600079614E-01  0.26591631571E+00  0.51109989000E-03 0.  1.
     -623    1    1    2    0    0  0.68060721464E-01 -0.10344276307E+00  0.69703323393E+00  0.17130146289E+03  0.17130000000E+03 0. -1.
      622    1    1    2    0    0  0.18683140090E+00  0.38241033421E-01  0.32643666538E+01  0.37326207950E+01  0.18000000000E+01 0.  1.
</event>
<event>
 5   0  0.7764500E-01  0.9118800E+02  0.7818608E-02  0.1180000E+00
       11   -1    0    0    0    0  0.00000000000E+00  0.00000000000E+00  0.39999999673E+01  0.40000000000E+01  0.51109989000E-03 0. -1.
     -623   -1    0    0    0    0  0.00000000000E+00  0.00000000000E+00  0.12525980253E-10  0.17130000000E+03  0.17130000000E+03 0. -1.
       11    1    1    2    0    0 -0.54432597819E+00 -0.76915670538E-01  0.80102148916E-01  0.55553884328E+00  0.51109989000E-03 0. -1.
     -623    1    1    2    0    0  0.43031419109E+00  0.75784086385E-01  0.98940265742E+00  0.17130341453E+03  0.17130000000E+03 0. -1.
      622    1    1    2    0    0  0.11401178710E+00  0.11315841525E-02  0.29304951610E+01  0.34410466223E+01  0.18000000000E+01 0. -1.
</event>
<event>
 5   0  0.7764500E-01  0.9118800E+02  0.7818608E-02  0.1180000E+00
       11   -1    0    0    0    0  0.00000000000E+00  0.00000000000E+00  0.39999999673E+01  0.40000000000E+01  0.51109989000E-03 0. -1.
     -623   -1    0    0    0    0  0.00000000000E+00  0.00000000000E+00  0.12525980253E-10  0.17130000000E+03  0.17130000000E+03 0. -1.
       11    1    1    2    0    0  0.70163151361E-01  0.43553805996E-01 -0.34615601448E-01  0.89544977036E-01  0.51109989000E-03 0. -1.
     -623    1    1    2    0    0  0.12266284263E+00  0.13420947979E+00  0.57418247061E+00  0.17130105879E+03  0.17130000000E+03 0. -1.
      622    1    1    2    0    0 -0.19282599399E+00 -0.17776328578E+00  0.34604330982E+01  0.39093962292E+01  0.18000000000E+01 0. -1.
</event>
<event>
 5   0  0.7764500E-01  0.9118800E+02  0.7818608E-02  0.1180000E+00
       11   -1    0    0    0    0  0.00000000000E+00  0.00000000000E+00  0.39999999673E+01  0.40000000000E+01  0.51109989000E-03 0.  1.
     -623   -1    0    0    0    0  0.00000000000E+00  0.00000000000E+00  0.12525980253E-10  0.17130000000E+03  0.17130000000E+03 0. -1.
       11    1    1    2    0    0 -0.85591230410E-01  0.20638014778E+00 -0.99858849530E-02  0.22364839199E+00  0.51109989000E-03 0.  1.
     -623    1    1    2    0    0  0.83658838727E-01 -0.23201492662E+00  0.69211425161E+00  0.17130157574E+03  0.17130000000E+03 0. -1.
      622    1    1    2    0    0  0.19323916829E-02  0.25634778843E-01  0.33178716007E+01  0.37747758655E+01  0.18000000000E+01 0.  1.
</event>
<event>
 5   0  0.7764500E-01  0.9118800E+02  0.7818608E-02  0.1180000E+00
       11   -1    0    0    0    0  0.00000000000E+00  0.00000000000E+00  0.39999999673E+01  0.40000000000E+01  0.51109989000E-03 0. -1.
     -623   -1    0    0    0    0  0.00000000000E+00  0.00000000000E+00  0.12525980253E-10  0.17130000000E+03  0.17130000000E+03 0.  1.
       11    1    1    2    0    0 -0.39857383527E-01  0.22069685093E+00  0.30061672545E-01  0.22627345493E+00  0.51109989000E-03 0. -1.
     -623    1    1    2    0    0 -0.52872417580E-01 -0.14514959672E+00  0.65683135367E+00  0.17130132892E+03  0.17130000000E+03 0.  1.
      622    1    1    2    0    0  0.92729801106E-01 -0.75547254209E-01  0.33131069411E+01  0.37723976205E+01  0.18000000000E+01 0. -1.
</event>
<event>
 5   0  0.7764500E-01  0.9118800E+02  0.7818608E-02  0.1180000E+00
       11   -1    0    0    0    0  0.00000000000E+00  0.00000000000E+00  0.39999999673E+01  0.40000000000E+01  0.51109989000E-03 0.  1.
     -623   -1    0    0    0    0  0.00000000000E+00  0.00000000000E+00  0.12525980253E-10  0.17130000000E+03  0.17130000000E+03 0. -1.
       11    1    1    2    0    0  0.65407146954E-01 -0.16049053568E+00  0.59487930409E+00  0.61961032478E+00  0.51109989000E-03 0.  1.
     -623    1    1    2    0    0  0.30413117776E-01  0.13627225472E+00  0.54662700148E+00  0.17130092906E+03  0.17130000000E+03 0. -1.
      622    1    1    2    0    0 -0.95820264730E-01  0.24218280961E-01  0.28584936618E+01  0.33794606171E+01  0.18000000000E+01 0.  1.
</event>
<event>
 5   0  0.7764500E-01  0.9118800E+02  0.7818608E-02  0.1180000E+00
       11   -1    0    0    0    0  0.00000000000E+00  0.00000000000E+00  0.39999999673E+01  0.40000000000E+01  0.51109989000E-03 0.  1.
     -623   -1    0    0    0    0  0.00000000000E+00  0.00000000000E+00  0.12525980253E-10  0.17130000000E+03  0.17130000000E+03 0.  1.
       11    1    1    2    0    0  0.38611331154E-01  0.20868599983E-01 -0.65044763895E-01  0.78469203462E-01  0.51109989000E-03 0.  1.
     -623    1    1    2    0    0 -0.28390932554E+00 -0.22183978454E+00  0.59708974220E+00  0.17130141953E+03  0.17130000000E+03 0.  1.
      622    1    1    2    0    0  0.24529799439E+00  0.20097118456E+00  0.34679549891E+01  0.39201112649E+01  0.18000000000E+01 0.  1.
</event>
<event>
 5   0  0.7764500E-01  0.9118800E+02  0.7818608E-02  0.1180000E+00
       11   -1    0    0    0    0  0.00000000000E+00  0.00000000000E+00  0.39999999673E+01  0.40000000000E+01  0.51109989000E-03 0.  1.
     -623   -1    0    0    0    0  0.00000000000E+00  0.00000000000E+00  0.12525980253E-10  0.17130000000E+03  0.17130000000E+03 0. -1.
       11    1    1    2    0    0 -0.94631655125E+00  0.39310134308E+00  0.51840515333E+00  0.11483848855E+01  0.51109989000E-03 0.  1.
     -623    1    1    2    0    0  0.75630385218E+00 -0.32872772775E+00  0.12878361151E+01  0.17130682584E+03  0.17130000000E+03 0. -1.
      622    1    1    2    0    0  0.19001269907E+00 -0.64373615328E-01  0.21937586990E+01  0.28447892747E+01  0.18000000000E+01 0.  1.
</event>
<event>
 5   0  0.7764500E-01  0.9118800E+02  0.7818608E-02  0.1180000E+00
       11   -1    0    0    0    0  0.00000000000E+00  0.00000000000E+00  0.39999999673E+01  0.40000000000E+01  0.51109989000E-03 0. -1.
     -623   -1    0    0    0    0  0.00000000000E+00  0.00000000000E+00  0.12525980253E-10  0.17130000000E+03  0.17130000000E+03 0.  1.
       11    1    1    2    0    0  0.18024560034E+00  0.18322737498E+00  0.29832539467E+00  0.39377537977E+00  0.51109989000E-03 0. -1.
     -623    1    1    2    0    0  0.16333918526E+00  0.26292489878E+00  0.62964059974E+00  0.17130143682E+03  0.17130000000E+03 0.  1.
      622    1    1    2    0    0 -0.34358478560E+00 -0.44615227376E+00  0.30720339730E+01  0.36047878006E+01  0.18000000000E+01 0. -1.
</event>
<event>
 5   0  0.7764500E-01  0.9118800E+02  0.7818608E-02  0.1180000E+00
       11   -1    0    0    0    0  0.00000000000E+00  0.00000000000E+00  0.39999999673E+01  0.40000000000E+01  0.51109989000E-03 0.  1.
     -623   -1    0    0    0    0  0.00000000000E+00  0.00000000000E+00  0.12525980253E-10  0.17130000000E+03  0.17130000000E+03 0. -1.
       11    1    1    2    0    0  0.62229647484E+00  0.15842124922E+00  0.57690402486E+00  0.86323155059E+00  0.51109989000E-03 0.  1.
     -623    1    1    2    0    0 -0.26759880824E+00 -0.20023049130E+00  0.88233552999E+00  0.17130259840E+03  0.17130000000E+03 0. -1.
      622    1    1    2    0    0 -0.35469766660E+00  0.41809242080E-01  0.25407604125E+01  0.31341700530E+01  0.18000000000E+01 0.  1.
</event>
<event>
 5   0  0.7764500E-01  0.9118800E+02  0.7818608E-02  0.1180000E+00
       11   -1    0    0    0    0  0.00000000000E+00  0.00000000000E+00  0.39999999673E+01  0.40000000000E+01  0.51109989000E-03 0. -1.
     -623   -1    0    0    0    0  0.00000000000E+00  0.00000000000E+00  0.12525980253E-10  0.17130000000E+03  0.17130000000E+03 0. -1.
       11    1    1    2    0    0  0.23138469893E+00 -0.22695868878E-01 -0.14104359415E-01  0.23292311079E+00  0.51109989000E-03 0. -1.
     -623    1    1    2    0    0 -0.30422666249E+00 -0.24241173419E+00  0.71856160121E+00  0.17130194876E+03  0.17130000000E+03 0. -1.
      622    1    1    2    0    0  0.72841963558E-01  0.26510760306E+00  0.32955427256E+01  0.37651281318E+01  0.18000000000E+01 0. -1.
</event>
<event>
 5   0  0.7764500E-01  0.9118800E+02  0.7818608E-02  0.1180000E+00
       11   -1    0    0    0    0  0.00000000000E+00  0.00000000000E+00  0.39999999673E+01  0.40000000000E+01  0.51109989000E-03 0.  1.
     -623   -1    0    0    0    0  0.00000000000E+00  0.00000000000E+00  0.12525980253E-10  0.17130000000E+03  0.17130000000E+03 0. -1.
       11    1    1    2    0    0  0.48586637455E+00 -0.25733030484E+00  0.80585014906E+00  0.97554074424E+00  0.51109989000E-03 0.  1.
     -623    1    1    2    0    0 -0.62823886451E-01  0.56958071142E+00  0.82495503035E+00  0.17130294487E+03  0.17130000000E+03 0. -1.
      622    1    1    2    0    0 -0.42304248809E+00 -0.31225040658E+00  0.23691947879E+01  0.30215143896E+01  0.18000000000E+01 0.  1.
</event>
<event>
 5   0  0.7764500E-01  0.9118800E+02  0.7818608E-02  0.1180000E+00
       11   -1    0    0    0    0  0.00000000000E+00  0.00000000000E+00  0.39999999673E+01  0.40000000000E+01  0.51109989000E-03 0. -1.
     -623   -1    0    0    0    0  0.00000000000E+00  0.00000000000E+00  0.12525980253E-10  0.17130000000E+03  0.17130000000E+03 0.  1.
       11    1    1    2    0    0  0.45662644343E-01  0.80245807208E-01 -0.49519260252E-01  0.10477063053E+00  0.51109989000E-03 0. -1.
     -623    1    1    2    0    0 -0.92266137693E-01 -0.25396944407E+00  0.60124701630E+00  0.17130126827E+03  0.17130000000E+03 0.  1.
      622    1    1    2    0    0  0.46603493349E-01  0.17372363686E+00  0.34482722113E+01  0.38939610978E+01  0.18000000000E+01 0. -1.
</event>
<event>
 5   0  0.7764500E-01  0.9118800E+02  0.7818608E-02  0.1180000E+00
       11   -1    0    0    0    0  0.00000000000E+00  0.00000000000E+00  0.39999999673E+01  0.40000000000E+01  0.51109989000E-03 0.  1.
     -623   -1    0    0    0    0  0.00000000000E+00  0.00000000000E+00  0.12525980253E-10  0.17130000000E+03  0.17130000000E+03 0.  1.
       11    1    1    2    0    0 -0.18660127394E-01  0.36863928068E+00  0.37860612489E+00  0.52875890408E+00  0.51109989000E-03 0.  1.
     -623    1    1    2    0    0 -0.86548250101E-01 -0.55480985357E+00  0.66361120047E+00  0.17130220572E+03  0.17130000000E+03 0.  1.
      622    1    1    2    0    0  0.10520837749E+00  0.18617057289E+00  0.29577826420E+01  0.34690353763E+01  0.18000000000E+01 0.  1.
</event>
<event>
 5   0  0.7764500E-01  0.9118800E+02  0.7818608E-02  0.1180000E+00
       11   -1    0    0    0    0  0.00000000000E+00  0.00000000000E+00  0.39999999673E+01  0.40000000000E+01  0.51109989000E-03 0. -1.
     -623   -1    0    0    0    0  0.00000000000E+00  0.00000000000E+00  0.12525980253E-10  0.17130000000E+03  0.17130000000E+03 0.  1.
       11    1    1    2    0    0 -0.10536292844E-01  0.15584769216E+00  0.72426119222E-01  0.17217816524E+00  0.51109989000E-03 0. -1.
     -623    1    1    2    0    0 -0.13824791688E+00  0.54119242947E-01  0.56030636408E+00  0.17130098069E+03  0.17130000000E+03 0.  1.
      622    1    1    2    0    0  0.14878420972E+00 -0.20996693510E+00  0.33672674841E+01  0.38268411470E+01  0.18000000000E+01 0. -1.
</event>
<event>
 5   0  0.7764500E-01  0.9118800E+02  0.7818608E-02  0.1180000E+00
       11   -1    0    0    0    0  0.00000000000E+00  0.00000000000E+00  0.39999999673E+01  0.40000000000E+01  0.51109989000E-03 0.  1.
     -623   -1    0    0    0    0  0.00000000000E+00  0.00000000000E+00  0.12525980253E-10  0.17130000000E+03  0.17130000000E+03 0. -1.
       11    1    1    2    0    0 -0.82691071540E-01  0.77212879342E-03  0.18375793978E-01  0.84713284216E-01  0.51109989000E-03 0.  1.
     -623    1    1    2    0    0 -0.10509926579E+00 -0.60942689139E-01  0.51113772533E+00  0.17130080567E+03  0.17130000000E+03 0. -1.
      622    1    1    2    0    0  0.18779033733E+00  0.60170560345E-01  0.34704864480E+01  0.39144810503E+01  0.18000000000E+01 0.  1.
</event>
<event>
 5   0  0.7764500E-01  0.9118800E+02  0.7818608E-02  0.1180000E+00
       11   -1    0    0    0    0  0.00000000000E+00  0.00000000000E+00  0.39999999673E+01  0.40000000000E+01  0.51109989000E-03 0.  1.
     -623   -1    0    0    0    0  0.00000000000E+00  0.00000000000E+00  0.12525980253E-10  0.17130000000E+03  0.17130000000E+03 0. -1.
       11    1    1    2    0    0  0.14460207232E+00  0.39273621177E-01  0.47241547143E-01  0.15711206713E+00  0.51109989000E-03 0.  1.
     -623    1    1    2    0    0 -0.15968495035E+00 -0.16353823244E+00  0.56102040495E+00  0.17130107118E+03  0.17130000000E+03 0. -1.
      622    1    1    2    0    0  0.15082878036E-01  0.12426461127E+00  0.33917380153E+01  0.38418167514E+01  0.18000000000E+01 0.  1.
</event>
<event>
 5   0  0.7764500E-01  0.9118800E+02  0.7818608E-02  0.1180000E+00
       11   -1    0    0    0    0  0.00000000000E+00  0.00000000000E+00  0.39999999673E+01  0.40000000000E+01  0.51109989000E-03 0.  1.
     -623   -1    0    0    0    0  0.00000000000E+00  0.00000000000E+00  0.12525980253E-10  0.17130000000E+03  0.17130000000E+03 0.  1.
       11    1    1    2    0    0 -0.22243002481E+00  0.57614278466E-01  0.20563391210E+00  0.30835059275E+00  0.51109989000E-03 0.  1.
     -623    1    1    2    0    0  0.15359219241E+00 -0.32097826182E+00  0.58436760838E+00  0.17130136632E+03  0.17130000000E+03 0.  1.
      622    1    1    2    0    0  0.68837832404E-01  0.26336398335E+00  0.32099984469E+01  0.36902830872E+01  0.18000000000E+01 0.  1.
</event>
<event>
 5   0  0.7764500E-01  0.9118800E+02  0.7818608E-02  0.1180000E+00
       11   -1    0    0    0    0  0.00000000000E+00  0.00000000000E+00  0.39999999673E+01  0.40000000000E+01  0.51109989000E-03 0.  1.
     -623   -1    0    0    0    0  0.00000000000E+00  0.00000000000E+00  0.12525980253E-10  0.17130000000E+03  0.17130000000E+03 0. -1.
       11    1    1    2    0    0 -0.77844360784E-01 -0.30846149545E-02  0.91955289459E-01  0.12052093527E+00  0.51109989000E-03 0.  1.
     -623    1    1    2    0    0  0.10872282811E+00 -0.19482148974E+00  0.47818574096E+00  0.17130081272E+03  0.17130000000E+03 0. -1.
      622    1    1    2    0    0 -0.30878467322E-01  0.19790610469E+00  0.34298589369E+01  0.38786663473E+01  0.18000000000E+01 0.  1.
</event>
<event>
 5   0  0.7764500E-01  0.9118800E+02  0.7818608E-02  0.1180000E+00
       11   -1    0    0    0    0  0.00000000000E+00  0.00000000000E+00  0.39999999673E+01  0.40000000000E+01  0.51109989000E-03 0. -1.
     -623   -1    0    0    0    0  0.00000000000E+00  0.00000000000E+00  0.12525980253E-10  0.17130000000E+03  0.17130000000E+03 0. -1.
       11    1    1    2    0    0 -0.16517518564E+00  0.96423713372E-01  0.55172045181E+00  0.58393158214E+00  0.51109989000E-03 0. -1.
     -623    1    1    2    0    0  0.17362218398E+00 -0.30067500252E-01  0.54681991653E+00  0.17130096340E+03  0.17130000000E+03 0. -1.
      622    1    1    2    0    0 -0.84469983404E-02 -0.66356213120E-01  0.29014595990E+01  0.34151050209E+01  0.18000000000E+01 0. -1.
</event>
<event>
 5   0  0.7764500E-01  0.9118800E+02  0.7818608E-02  0.1180000E+00
       11   -1    0    0    0    0  0.00000000000E+00  0.00000000000E+00  0.39999999673E+01  0.40000000000E+01  0.51109989000E-03 0.  1.
     -623   -1    0    0    0    0  0.00000000000E+00  0.00000000000E+00  0.12525980253E-10  0.17130000000E+03  0.17130000000E+03 0. -1.
       11    1    1    2    0    0 -0.24763624083E+00  0.14945274041E-01  0.19875538824E+00  0.31788525378E+00  0.51109989000E-03 0.  1.
     -623    1    1    2    0    0  0.36055574225E+00  0.16906337183E+00  0.59807992946E+00  0.17130150695E+03  0.17130000000E+03 0. -1.
      622    1    1    2    0    0 -0.11291950142E+00 -0.18400864587E+00  0.32031646497E+01  0.36806077988E+01  0.18000000000E+01 0.  1.
</event>
<event>
 5   0  0.7764500E-01  0.9118800E+02  0.7818608E-02  0.1180000E+00
       11   -1    0    0    0    0  0.00000000000E+00  0.00000000000E+00  0.39999999673E+01  0.40000000000E+01  0.51109989000E-03 0. -1.
     -623   -1    0    0    0    0  0.00000000000E+00  0.00000000000E+00  0.12525980253E-10  0.17130000000E+03  0.17130000000E+03 0. -1.
       11    1    1    2    0    0 -0.10409724010E+00 -0.23188537475E+00  0.47635950834E+00  0.53993120379E+00  0.51109989000E-03 0. -1.
     -623    1    1    2    0    0 -0.29966484223E+00  0.46998145408E+00  0.60840214299E+00  0.17130198725E+03  0.17130000000E+03 0. -1.
      622    1    1    2    0    0  0.40376208233E+00 -0.23809607934E+00  0.29152383160E+01  0.34580815493E+01  0.18000000000E+01 0. -1.
</event>
<event>
 5   0  0.7764500E-01  0.9118800E+02  0.7818608E-02  0.1180000E+00
       11   -1    0    0    0    0  0.00000000000E+00  0.00000000000E+00  0.39999999673E+01  0.40000000000E+01  0.51109989000E-03 0.  1.
     -623   -1    0    0    0    0  0.00000000000E+00  0.00000000000E+00  0.12525980253E-10  0.17130000000E+03  0.17130000000E+03 0.  1.
       11    1    1    2    0    0 -0.25825400936E+00 -0.13029961785E+00  0.88606134208E+00  0.93208266098E+00  0.51109989000E-03 0.  1.
     -623    1    1    2    0    0  0.23077447593E+00  0.53519141497E+00  0.66579505618E+00  0.17130228536E+03  0.17130000000E+03 0.  1.
      622    1    1    2    0    0  0.27479533432E-01 -0.40489179712E+00  0.24481435691E+01  0.30656319784E+01  0.18000000000E+01 0.  1.
</event>
<event>
 5   0  0.7764500E-01  0.9118800E+02  0.7818608E-02  0.1180000E+00
       11   -1    0    0    0    0  0.00000000000E+00  0.00000000000E+00  0.39999999673E+01  0.40000000000E+01  0.51109989000E-03 0. -1.
     -623   -1    0    0    0    0  0.00000000000E+00  0.00000000000E+00  0.12525980253E-10  0.17130000000E+03  0.17130000000E+03 0.  1.
       11    1    1    2    0    0 -0.19895522470E-01 -0.26016246570E-01  0.47455041680E-01  0.57662111487E-01  0.51109989000E-03 0. -1.
     -623    1    1    2    0    0  0.20620393459E+00  0.14548846953E+00  0.45299411024E+00  0.17130078485E+03  0.17130000000E+03 0.  1.
      622    1    1    2    0    0 -0.18630841212E+00 -0.11947222296E+00  0.34995508154E+01  0.39415530374E+01  0.18000000000E+01 0. -1.
</event>
<event>
 5   0  0.7764500E-01  0.9118800E+02  0.7818608E-02  0.1180000E+00
       11   -1    0    0    0    0  0.00000000000E+00  0.00000000000E+00  0.39999999673E+01  0.40000000000E+01  0.51109989000E-03 0. -1.
     -623   -1    0    0    0    0  0.00000000000E+00  0.00000000000E+00  0.12525980253E-10  0.17130000000E+03  0.17130000000E+03 0. -1.
       11    1    1    2    0    0 -0.25871139955E-01 -0.30529832710E-02  0.27738803537E+00  0.27860908093E+00  0.51109989000E-03 0. -1.
     -623    1    1    2    0    0  0.10049198709E+00  0.48318241085E+00  0.50362785237E+00  0.17130145126E+03  0.17130000000E+03 0. -1.
      622    1    1    2    0    0 -0.74620847135E-01 -0.48012942757E+00  0.32189840796E+01  0.37199396558E+01  0.18000000000E+01 0. -1.
</event>
<event>
 5   0  0.7764500E-01  0.9118800E+02  0.7818608E-02  0.1180000E+00
       11   -1    0    0    0    0  0.00000000000E+00  0.00000000000E+00  0.39999999673E+01  0.40000000000E+01  0.51109989000E-03 0.  1.
     -623   -1    0    0    0    0  0.00000000000E+00  0.00000000000E+00  0.12525980253E-10  0.17130000000E+03  0.17130000000E+03 0.  1.
       11    1    1    2    0    0 -0.77422613199E-01 -0.25553742289E-01  0.12481027607E-02  0.81541852822E-01  0.51109989000E-03 0.  1.
     -623    1    1    2    0    0 -0.44052742933E+00  0.26013285238E+00  0.56688948975E+00  0.17130170197E+03  0.17130000000E+03 0. -1.
      622    1    1    2    0    0  0.51795004253E+00 -0.23457911010E+00  0.34318623749E+01  0.39167561790E+01  0.18000000000E+01 0.  1.
</event>
<event>
 5   0  0.7764500E-01  0.9118800E+02  0.7818608E-02  0.1180000E+00
       11   -1    0    0    0    0  0.00000000000E+00  0.00000000000E+00  0.39999999673E+01  0.40000000000E+01  0.51109989000E-03 0.  1.
     -623   -1    0    0    0    0  0.00000000000E+00  0.00000000000E+00  0.12525980253E-10  0.17130000000E+03  0.17130000000E+03 0.  1.
       11    1    1    2    0    0 -0.91878215149E-01 -0.22879383994E+00  0.36109576160E-01  0.24918344713E+00  0.51109989000E-03 0.  1.
     -623    1    1    2    0    0 -0.85047088905E-01 -0.25420357228E+00  0.71562130071E+00  0.17130170450E+03  0.17130000000E+03 0.  1.
      622    1    1    2    0    0  0.17692530405E+00  0.48299741222E+00  0.32482690905E+01  0.37491120479E+01  0.18000000000E+01 0.  0.
</event>
<event>
 5   0  0.7764500E-01  0.9118800E+02  0.7818608E-02  0.1180000E+00
       11   -1    0    0    0    0  0.00000000000E+00  0.00000000000E+00  0.39999999673E+01  0.40000000000E+01  0.51109989000E-03 0. -1.
     -623   -1    0    0    0    0  0.00000000000E+00  0.00000000000E+00  0.12525980253E-10  0.17130000000E+03  0.17130000000E+03 0. -1.
       11    1    1    2    0    0  0.19603900896E+00  0.30058991373E-01  0.85126073426E-01  0.21582758303E+00  0.51109989000E-03 0. -1.
     -623    1    1    2    0    0 -0.17657079007E+00  0.16508459558E+00  0.59336312621E+00  0.17130119822E+03  0.17130000000E+03 0. -1.
      622    1    1    2    0    0 -0.19468218887E-01 -0.19514358695E+00  0.33215107677E+01  0.37829742018E+01  0.18000000000E+01 0. -1.
</event>
<event>
 5   0  0.7764500E-01  0.9118800E+02  0.7818608E-02  0.1180000E+00
       11   -1    0    0    0    0  0.00000000000E+00  0.00000000000E+00  0.39999999673E+01  0.40000000000E+01  0.51109989000E-03 0. -1.
     -623   -1    0    0    0    0  0.00000000000E+00  0.00000000000E+00  0.12525980253E-10  0.17130000000E+03  0.17130000000E+03 0. -1.
       11    1    1    2    0    0  0.27073169430E-01  0.40413448157E-01  0.41973613196E+00  0.42254571941E+00  0.51109989000E-03 0. -1.
     -623    1    1    2    0    0 -0.25375757159E+00 -0.31237788519E+00  0.51040930212E+00  0.17130123318E+03  0.17130000000E+03 0. -1.
      622    1    1    2    0    0  0.22668440216E+00  0.27196443704E+00  0.30698545333E+01  0.35762210962E+01  0.18000000000E+01 0. -1.
</event>
<event>
 5   0  0.7764500E-01  0.9118800E+02  0.7818608E-02  0.1180000E+00
       11   -1    0    0    0    0  0.00000000000E+00  0.00000000000E+00  0.39999999673E+01  0.40000000000E+01  0.51109989000E-03 0.  1.
     -623   -1    0    0    0    0  0.00000000000E+00  0.00000000000E+00  0.12525980253E-10  0.17130000000E+03  0.17130000000E+03 0.  1.
       11    1    1    2    0    0 -0.14414727624E-01 -0.45593690174E+00  0.39130190001E+00  0.60100223037E+00  0.51109989000E-03 0.  1.
     -623    1    1    2    0    0  0.33382254942E+00  0.75706329925E+00  0.76346487757E+00  0.17130369950E+03  0.17130000000E+03 0.  1.
      622    1    1    2    0    0 -0.31940782179E+00 -0.30112639751E+00  0.28452331898E+01  0.33952982738E+01  0.18000000000E+01 0.  1.
</event>
<event>
 5   0  0.7764500E-01  0.9118800E+02  0.7818608E-02  0.1180000E+00
       11   -1    0    0    0    0  0.00000000000E+00  0.00000000000E+00  0.39999999673E+01  0.40000000000E+01  0.51109989000E-03 0.  1.
     -623   -1    0    0    0    0  0.00000000000E+00  0.00000000000E+00  0.12525980253E-10  0.17130000000E+03  0.17130000000E+03 0. -1.
       11    1    1    2    0    0  0.10518230288E+00  0.39031156405E+00  0.49340526422E+00  0.63785221631E+00  0.51109989000E-03 0.  1.
     -623    1    1    2    0    0 -0.73064591754E-01 -0.37701167672E+00  0.66913990278E+00  0.17130173737E+03  0.17130000000E+03 0. -1.
      622    1    1    2    0    0 -0.32117711123E-01 -0.13299887338E-01  0.28374548004E+01  0.33604104182E+01  0.18000000000E+01 0.  1.
</event>
<event>
 5   0  0.7764500E-01  0.9118800E+02  0.7818608E-02  0.1180000E+00
       11   -1    0    0    0    0  0.00000000000E+00  0.00000000000E+00  0.39999999673E+01  0.40000000000E+01  0.51109989000E-03 0. -1.
     -623   -1    0    0    0    0  0.00000000000E+00  0.00000000000E+00  0.12525980253E-10  0.17130000000E+03  0.17130000000E+03 0. -1.
       11    1    1    2    0    0  0.14074424038E-01  0.99509263448E-02 -0.43981971095E-01  0.47241775477E-01  0.51109989000E-03 0. -1.
     -623    1    1    2    0    0 -0.15681926615E+00 -0.45740886223E-01  0.52893287304E+00  0.17130089449E+03  0.17130000000E+03 0. -1.
      622    1    1    2    0    0  0.14274484212E+00  0.35789959878E-01  0.35150490654E+01  0.39518637304E+01  0.18000000000E+01 0. -1.
</event>
<event>
 5   0  0.7764500E-01  0.9118800E+02  0.7818608E-02  0.1180000E+00
       11   -1    0    0    0    0  0.00000000000E+00  0.00000000000E+00  0.39999999673E+01  0.40000000000E+01  0.51109989000E-03 0.  1.
     -623   -1    0    0    0    0  0.00000000000E+00  0.00000000000E+00  0.12525980253E-10  0.17130000000E+03  0.17130000000E+03 0.  1.
       11    1    1    2    0    0  0.11115911694E+00 -0.64752683265E-01  0.33339438973E-02  0.12868813339E+00  0.51109989000E-03 0.  1.
     -623    1    1    2    0    0  0.16652332671E+00  0.27092323657E+00  0.58824442173E+00  0.17130130519E+03  0.17130000000E+03 0.  1.
      622    1    1    2    0    0 -0.27768244365E+00 -0.20617055330E+00  0.34084216017E+01  0.38700066733E+01  0.18000000000E+01 0.  1.
</event>
<event>
 5   0  0.7764500E-01  0.9118800E+02  0.7818608E-02  0.1180000E+00
       11   -1    0    0    0    0  0.00000000000E+00  0.00000000000E+00  0.39999999673E+01  0.40000000000E+01  0.51109989000E-03 0. -1.
     -623   -1    0    0    0    0  0.00000000000E+00  0.00000000000E+00  0.12525980253E-10  0.17130000000E+03  0.17130000000E+03 0. -1.
       11    1    1    2    0    0 -0.33353762082E-01  0.12654989661E+00  0.30254692212E+00  0.32963957755E+00  0.51109989000E-03 0. -1.
     -623    1    1    2    0    0  0.39966377648E+00 -0.94344515902E-01  0.52146698597E+00  0.17130128593E+03  0.17130000000E+03 0. -1.
      622    1    1    2    0    0 -0.36631001439E+00 -0.32205380710E-01  0.31759860593E+01  0.36690744966E+01  0.18000000000E+01 0. -1.
</event>
<event>
 5   0  0.7764500E-01  0.9118800E+02  0.7818608E-02  0.1180000E+00
       11   -1    0    0    0    0  0.00000000000E+00  0.00000000000E+00  0.39999999673E+01  0.40000000000E+01  0.51109989000E-03 0. -1.
     -623   -1    0    0    0    0  0.00000000000E+00  0.00000000000E+00  0.12525980253E-10  0.17130000000E+03  0.17130000000E+03 0.  1.
       11    1    1    2    0    0  0.16624332955E-02  0.22388490910E-01  0.35532392505E-01  0.42033562149E-01  0.51109989000E-03 0. -1.
     -623    1    1    2    0    0 -0.36112556404E+00 -0.75018983685E+00  0.53752936144E+00  0.17130286668E+03  0.17130000000E+03 0.  1.
      622    1    1    2    0    0  0.35946313074E+00  0.72780134594E+00  0.34269382134E+01  0.39550997535E+01  0.18000000000E+01 0. -1.
</event>
<event>
 5   0  0.7764500E-01  0.9118800E+02  0.7818608E-02  0.1180000E+00
       11   -1    0    0    0    0  0.00000000000E+00  0.00000000000E+00  0.39999999673E+01  0.40000000000E+01  0.51109989000E-03 0.  1.
     -623   -1    0    0    0    0  0.00000000000E+00  0.00000000000E+00  0.12525980253E-10  0.17130000000E+03  0.17130000000E+03 0. -1.
       11    1    1    2    0    0 -0.34224877958E-01 -0.49716972475E-01  0.92266365656E-02  0.61061540013E-01  0.51109989000E-03 0.  1.
     -623    1    1    2    0    0  0.19413865008E+00 -0.29191073084E+00  0.50879445198E+00  0.17130111434E+03  0.17130000000E+03 0. -1.
      622    1    1    2    0    0 -0.15991377212E+00  0.34162770331E+00  0.34819788788E+01  0.39378241219E+01  0.18000000000E+01 0.  1.
</event>
<event>
 5   0  0.7764500E-01  0.9118800E+02  0.7818608E-02  0.1180000E+00
       11   -1    0    0    0    0  0.00000000000E+00  0.00000000000E+00  0.39999999673E+01  0.40000000000E+01  0.51109989000E-03 0.  1.
     -623   -1    0    0    0    0  0.00000000000E+00  0.00000000000E+00  0.12525980253E-10  0.17130000000E+03  0.17130000000E+03 0. -1.
       11    1    1    2    0    0  0.37988117140E-01 -0.10496293472E+00  0.39153836087E+00  0.40713985799E+00  0.51109989000E-03 0.  1.
     -623    1    1    2    0    0 -0.31362958711E+00  0.16240744368E+00  0.51310558218E+00  0.17130113256E+03  0.17130000000E+03 0. -1.
      622    1    1    2    0    0  0.27564146997E+00 -0.57444508952E-01  0.30953560243E+01  0.35917275800E+01  0.18000000000E+01 0.  1.
</event>
<event>
 5   0  0.7764500E-01  0.9118800E+02  0.7818608E-02  0.1180000E+00
       11   -1    0    0    0    0  0.00000000000E+00  0.00000000000E+00  0.39999999673E+01  0.40000000000E+01  0.51109989000E-03 0.  1.
     -623   -1    0    0    0    0  0.00000000000E+00  0.00000000000E+00  0.12525980253E-10  0.17130000000E+03  0.17130000000E+03 0.  1.
       11    1    1    2    0    0 -0.14459621676E+00  0.11611556415E+00 -0.19751914564E-01  0.18649742489E+00  0.51109989000E-03 0.  1.
     -623    1    1    2    0    0 -0.24980454355E+00 -0.35591162148E+00  0.69185670223E+00  0.17130194903E+03  0.17130000000E+03 0.  1.
      622    1    1    2    0    0  0.39440076030E+00  0.23979605733E+00  0.33278951797E+01  0.38115535462E+01  0.18000000000E+01 0.  1.
</event>
<event>
 5   0  0.7764500E-01  0.9118800E+02  0.7818608E-02  0.1180000E+00
       11   -1    0    0    0    0  0.00000000000E+00  0.00000000000E+00  0.39999999673E+01  0.40000000000E+01  0.51109989000E-03 0.  1.
     -623   -1    0    0    0    0  0.00000000000E+00  0.00000000000E+00  0.12525980253E-10  0.17130000000E+03  0.17130000000E+03 0.  1.
       11    1    1    2    0    0  0.89015078871E-02  0.11886971791E+00  0.61212656020E+00  0.62362523490E+00  0.51109989000E-03 0.  1.
     -623    1    1    2    0    0  0.62907672460E+00  0.25665144399E+00  0.63198702359E+00  0.17130251316E+03  0.17130000000E+03 0.  1.
      622    1    1    2    0    0 -0.63797823249E+00 -0.37552116190E+00  0.27558863836E+01  0.33738616046E+01  0.18000000000E+01 0.  1.
</event>
<event>
 5   0  0.7764500E-01  0.9118800E+02  0.7818608E-02  0.1180000E+00
       11   -1    0    0    0    0  0.00000000000E+00  0.00000000000E+00  0.39999999673E+01  0.40000000000E+01  0.51109989000E-03 0.  1.
     -623   -1    0    0    0    0  0.00000000000E+00  0.00000000000E+00  0.12525980253E-10  0.17130000000E+03  0.17130000000E+03 0.  1.
       11    1    1    2    0    0 -0.54424885431E-01 -0.16399599725E+00  0.85705153758E-01  0.19287921058E+00  0.51109989000E-03 0.  1.
     -623    1    1    2    0    0  0.38862795213E+00  0.10647807362E+00  0.57841011788E+00  0.17130145045E+03  0.17130000000E+03 0.  1.
      622    1    1    2    0    0 -0.33420306670E+00  0.57517923631E-01  0.33358846957E+01  0.38056703358E+01  0.18000000000E+01 0.  1.
</event>
<event>
 5   0  0.7764500E-01  0.9118800E+02  0.7818608E-02  0.1180000E+00
       11   -1    0    0    0    0  0.00000000000E+00  0.00000000000E+00  0.39999999673E+01  0.40000000000E+01  0.51109989000E-03 0.  1.
     -623   -1    0    0    0    0  0.00000000000E+00  0.00000000000E+00  0.12525980253E-10  0.17130000000E+03  0.17130000000E+03 0.  1.
       11    1    1    2    0    0  0.27282528881E-01  0.60418429758E-01 -0.71367746522E-01  0.97408107996E-01  0.51109989000E-03 0.  1.
     -623    1    1    2    0    0  0.86692441400E-01 -0.11379093544E+00  0.61226677204E+00  0.17130115392E+03  0.17130000000E+03 0.  1.
      622    1    1    2    0    0 -0.11397497028E+00  0.53372505686E-01  0.34591009418E+01  0.39014379713E+01  0.18000000000E+01 0.  1.
</event>
<event>
 5   0  0.7764500E-01  0.9118800E+02  0.7818608E-02  0.1180000E+00
       11   -1    0    0    0    0  0.00000000000E+00  0.00000000000E+00  0.39999999673E+01  0.40000000000E+01  0.51109989000E-03 0. -1.
     -623   -1    0    0    0    0  0.00000000000E+00  0.00000000000E+00  0.12525980253E-10  0.17130000000E+03  0.17130000000E+03 0. -1.
       11    1    1    2    0    0  0.35557291329E+00  0.20955453960E+00 -0.37048646865E-05  0.41272928533E+00  0.51109989000E-03 0. -1.
     -623    1    1    2    0    0  0.29192145616E-01 -0.32530352257E+00  0.92642757881E+00  0.17130281651E+03  0.17130000000E+03 0. -1.
      622    1    1    2    0    0 -0.38476505891E+00  0.11574898297E+00  0.30735760934E+01  0.35844542094E+01  0.18000000000E+01 0. -1.
</event>
<event>
 5   0  0.7764500E-01  0.9118800E+02  0.7818608E-02  0.1180000E+00
       11   -1    0    0    0    0  0.00000000000E+00  0.00000000000E+00  0.39999999673E+01  0.40000000000E+01  0.51109989000E-03 0.  1.
     -623   -1    0    0    0    0  0.00000000000E+00  0.00000000000E+00  0.12525980253E-10  0.17130000000E+03  0.17130000000E+03 0.  1.
       11    1    1    2    0    0  0.85574179632E-01  0.32660878771E-01  0.22264163905E-01  0.94263606122E-01  0.51109989000E-03 0.  1.
     -623    1    1    2    0    0 -0.17729852869E+00  0.69559020610E+00  0.59302708390E+00  0.17130253052E+03  0.17130000000E+03 0.  1.
      622    1    1    2    0    0  0.91724349060E-01 -0.72825108487E+00  0.33847087196E+01  0.39032058766E+01  0.18000000000E+01 0.  1.
</event>
<event>
 5   0  0.7764500E-01  0.9118800E+02  0.7818608E-02  0.1180000E+00
       11   -1    0    0    0    0  0.00000000000E+00  0.00000000000E+00  0.39999999673E+01  0.40000000000E+01  0.51109989000E-03 0. -1.
     -623   -1    0    0    0    0  0.00000000000E+00  0.00000000000E+00  0.12525980253E-10  0.17130000000E+03  0.17130000000E+03 0. -1.
       11    1    1    2    0    0 -0.99939842735E-01 -0.89749770120E-01  0.42418160993E+00  0.44494189826E+00  0.51109989000E-03 0. -1.
     -623    1    1    2    0    0  0.37013157880E+00 -0.32519737623E+00  0.55226276233E+00  0.17130159878E+03  0.17130000000E+03 0. -1.
      622    1    1    2    0    0 -0.27019173607E+00  0.41494714635E+00  0.30235555951E+01  0.35534593209E+01  0.18000000000E+01 0. -1.
</event>
<event>
 5   0  0.7764500E-01  0.9118800E+02  0.7818608E-02  0.1180000E+00
       11   -1    0    0    0    0  0.00000000000E+00  0.00000000000E+00  0.39999999673E+01  0.40000000000E+01  0.51109989000E-03 0.  1.
     -623   -1    0    0    0    0  0.00000000000E+00  0.00000000000E+00  0.12525980253E-10  0.17130000000E+03  0.17130000000E+03 0.  1.
       11    1    1    2    0    0 -0.20172279984E+00 -0.86491752718E-01  0.76361365006E-01  0.23238810329E+00  0.51109989000E-03 0.  1.
     -623    1    1    2    0    0  0.15709650338E+00  0.28445021042E+00  0.62168471637E+00  0.17130143631E+03  0.17130000000E+03 0.  1.
      622    1    1    2    0    0  0.44626296453E-01 -0.19795845770E+00  0.33019538860E+01  0.37661755831E+01  0.18000000000E+01 0.  1.
</event>
<event>
 5   0  0.7764500E-01  0.9118800E+02  0.7818608E-02  0.1180000E+00
       11   -1    0    0    0    0  0.00000000000E+00  0.00000000000E+00  0.39999999673E+01  0.40000000000E+01  0.51109989000E-03 0.  1.
     -623   -1    0    0    0    0  0.00000000000E+00  0.00000000000E+00  0.12525980253E-10  0.17130000000E+03  0.17130000000E+03 0. -1.
       11    1    1    2    0    0 -0.59469110507E-01 -0.24371793402E+00  0.70544440348E+00  0.74872362998E+00  0.51109989000E-03 0.  1.
     -623    1    1    2    0    0  0.38323107847E+00  0.14744822400E+00  0.61007300918E+00  0.17130157850E+03  0.17130000000E+03 0. -1.
      622    1    1    2    0    0 -0.32376196796E+00  0.96269710022E-01  0.26844825547E+01  0.32496978714E+01  0.18000000000E+01 0.  1.
</event>
<event>
 5   0  0.7764500E-01  0.9118800E+02  0.7818608E-02  0.1180000E+00
       11   -1    0    0    0    0  0.00000000000E+00  0.00000000000E+00  0.39999999673E+01  0.40000000000E+01  0.51109989000E-03 0.  1.
     -623   -1    0    0    0    0  0.00000000000E+00  0.00000000000E+00  0.12525980253E-10  0.17130000000E+03  0.17130000000E+03 0. -1.
       11    1    1    2    0    0  0.83307421061E-03  0.37052176040E-01 -0.43186949753E-01  0.56911612294E-01  0.51109989000E-03 0.  1.
     -623    1    1    2    0    0 -0.73403821928E-01 -0.16272986268E+00  0.53898015043E+00  0.17130094095E+03  0.17130000000E+03 0. -1.
      622    1    1    2    0    0  0.72570747717E-01  0.12567768664E+00  0.35042067667E+01  0.39421474424E+01  0.18000000000E+01 0.  1.
</event>
<event>
 5   0  0.7764500E-01  0.9118800E+02  0.7818608E-02  0.1180000E+00
       11   -1    0    0    0    0  0.00000000000E+00  0.00000000000E+00  0.39999999673E+01  0.40000000000E+01  0.51109989000E-03 0.  1.
     -623   -1    0    0    0    0  0.00000000000E+00  0.00000000000E+00  0.12525980253E-10  0.17130000000E+03  0.17130000000E+03 0.  1.
       11    1    1    2    0    0 -0.59570025035E-01 -0.11796976022E+00  0.21663179936E+00  0.25376179762E+00  0.51109989000E-03 0.  1.
     -623    1    1    2    0    0  0.25595868071E+00  0.16406515400E+00  0.50525834323E+00  0.17130101494E+03  0.17130000000E+03 0.  1.
      622    1    1    2    0    0 -0.19638865567E+00 -0.46095393774E-01  0.32781098248E+01  0.37452232661E+01  0.18000000000E+01 0.  1.
</event>
<event>
 5   0  0.7764500E-01  0.9118800E+02  0.7818608E-02  0.1180000E+00
       11   -1    0    0    0    0  0.00000000000E+00  0.00000000000E+00  0.39999999673E+01  0.40000000000E+01  0.51109989000E-03 0. -1.
     -623   -1    0    0    0    0  0.00000000000E+00  0.00000000000E+00  0.12525980253E-10  0.17130000000E+03  0.17130000000E+03 0.  1.
       11    1    1    2    0    0  0.23254271863E+00  0.19678901057E+00  0.40556519917E-01  0.30732250682E+00  0.51109989000E-03 0. -1.
     -623    1    1    2    0    0  0.18538911334E+00 -0.15535707471E+00  0.76482043000E+00  0.17130187814E+03  0.17130000000E+03 0.  1.
      622    1    1    2    0    0 -0.41793183197E+00 -0.41431935862E-01  0.31946230174E+01  0.36907993504E+01  0.18000000000E+01 0. -1.
</event>
<event>
 5   0  0.7764500E-01  0.9118800E+02  0.7818608E-02  0.1180000E+00
       11   -1    0    0    0    0  0.00000000000E+00  0.00000000000E+00  0.39999999673E+01  0.40000000000E+01  0.51109989000E-03 0. -1.
     -623   -1    0    0    0    0  0.00000000000E+00  0.00000000000E+00  0.12525980253E-10  0.17130000000E+03  0.17130000000E+03 0.  1.
       11    1    1    2    0    0  0.68169491749E-01  0.16946394379E-01  0.35619519802E+00  0.36305583620E+00  0.51109989000E-03 0. -1.
     -623    1    1    2    0    0 -0.21047807472E+00 -0.36615100072E+00  0.50757902414E+00  0.17130127263E+03  0.17130000000E+03 0.  1.
      622    1    1    2    0    0  0.14230858297E+00  0.34920460634E+00  0.31362257452E+01  0.36356715356E+01  0.18000000000E+01 0. -1.
</event>
<event>
 5   0  0.7764500E-01  0.9118800E+02  0.7818608E-02  0.1180000E+00
       11   -1    0    0    0    0  0.00000000000E+00  0.00000000000E+00  0.39999999673E+01  0.40000000000E+01  0.51109989000E-03 0. -1.
     -623   -1    0    0    0    0  0.00000000000E+00  0.00000000000E+00  0.12525980253E-10  0.17130000000E+03  0.17130000000E+03 0.  1.
       11    1    1    2    0    0 -0.14723607539E+00  0.28423188861E+00  0.12580171495E+00  0.34393685628E+00  0.51109989000E-03 0. -1.
     -623    1    1    2    0    0 -0.40824729193E+00 -0.17727811210E+00  0.74518530307E+00  0.17130219904E+03  0.17130000000E+03 0.  1.
      622    1    1    2    0    0  0.55548336732E+00 -0.10695377651E+00  0.31290129493E+01  0.36538641079E+01  0.18000000000E+01 0. -1.
</event>
<event>
 5   0  0.7764500E-01  0.9118800E+02  0.7818608E-02  0.1180000E+00
       11   -1    0    0    0    0  0.00000000000E+00  0.00000000000E+00  0.39999999673E+01  0.40000000000E+01  0.51109989000E-03 0. -1.
     -623   -1    0    0    0    0  0.00000000000E+00  0.00000000000E+00  0.12525980253E-10  0.17130000000E+03  0.17130000000E+03 0.  1.
       11    1    1    2    0    0 -0.13781013231E+00  0.20469996670E-01  0.13666633758E+00  0.19516301489E+00  0.51109989000E-03 0. -1.
     -623    1    1    2    0    0  0.12860196200E+00 -0.12096691687E+00  0.51369975317E+00  0.17130086123E+03  0.17130000000E+03 0.  1.
      622    1    1    2    0    0  0.92081703100E-02  0.10049692020E+00  0.33496338766E+01  0.38039757529E+01  0.18000000000E+01 0. -1.
</event>
<event>
 5   0  0.7764500E-01  0.9118800E+02  0.7818608E-02  0.1180000E+00
       11   -1    0    0    0    0  0.00000000000E+00  0.00000000000E+00  0.39999999673E+01  0.40000000000E+01  0.51109989000E-03 0. -1.
     -623   -1    0    0    0    0  0.00000000000E+00  0.00000000000E+00  0.12525980253E-10  0.17130000000E+03  0.17130000000E+03 0.  1.
       11    1    1    2    0    0  0.70786370707E-01 -0.43808385489E-02  0.64010253038E-01  0.95537823616E-01  0.51109989000E-03 0. -1.
     -623    1    1    2    0    0 -0.23320364828E-01 -0.46486005516E-01  0.47263417001E+00  0.17130065992E+03  0.17130000000E+03 0.  1.
      622    1    1    2    0    0 -0.47466005880E-01  0.50866844065E-01  0.34633555443E+01  0.39038022598E+01  0.18000000000E+01 0. -1.
</event>
<event>
 5   0  0.7764500E-01  0.9118800E+02  0.7818608E-02  0.1180000E+00
       11   -1    0    0    0    0  0.00000000000E+00  0.00000000000E+00  0.39999999673E+01  0.40000000000E+01  0.51109989000E-03 0. -1.
     -623   -1    0    0    0    0  0.00000000000E+00  0.00000000000E+00  0.12525980253E-10  0.17130000000E+03  0.17130000000E+03 0.  1.
       11    1    1    2    0    0 -0.12774630005E+00 -0.63549057951E-01  0.87405330438E-01  0.16732469320E+00  0.51109989000E-03 0. -1.
     -623    1    1    2    0    0 -0.44034219244E-01  0.80035201316E-01  0.53427448339E+00  0.17130085754E+03  0.17130000000E+03 0.  1.
      622    1    1    2    0    0  0.17178051929E+00 -0.16486143364E-01  0.33783201535E+01  0.38318177670E+01  0.18000000000E+01 0. -1.
</event>
<event>
 5   0  0.7764500E-01  0.9118800E+02  0.7818608E-02  0.1180000E+00
       11   -1    0    0    0    0  0.00000000000E+00  0.00000000000E+00  0.39999999673E+01  0.40000000000E+01  0.51109989000E-03 0.  1.
     -623   -1    0    0    0    0  0.00000000000E+00  0.00000000000E+00  0.12525980253E-10  0.17130000000E+03  0.17130000000E+03 0. -1.
       11    1    1    2    0    0 -0.54126154632E-01  0.11847143343E+00  0.31012065394E+00  0.33636320009E+00  0.51109989000E-03 0.  1.
     -623    1    1    2    0    0  0.11751012313E+00 -0.60413467914E-01  0.50097575839E+00  0.17130078352E+03  0.17130000000E+03 0. -1.
      622    1    1    2    0    0 -0.63383968496E-01 -0.58057965516E-01  0.31889035550E+01  0.36628532783E+01  0.18000000000E+01 0.  1.
</event>
<event>
 5   0  0.7764500E-01  0.9118800E+02  0.7818608E-02  0.1180000E+00
       11   -1    0    0    0    0  0.00000000000E+00  0.00000000000E+00  0.39999999673E+01  0.40000000000E+01  0.51109989000E-03 0. -1.
     -623   -1    0    0    0    0  0.00000000000E+00  0.00000000000E+00  0.12525980253E-10  0.17130000000E+03  0.17130000000E+03 0.  1.
       11    1    1    2    0    0 -0.24039776399E-01  0.11541590094E+00  0.28402435898E-01  0.12126706324E+00  0.51109989000E-03 0. -1.
     -623    1    1    2    0    0 -0.16056353899E+00 -0.16552408246E+00  0.54229468756E+00  0.17130101361E+03  0.17130000000E+03 0.  1.
      622    1    1    2    0    0  0.18460331539E+00  0.50108181516E-01  0.34293028439E+01  0.38777193309E+01  0.18000000000E+01 0. -1.
</event>
<event>
 5   0  0.7764500E-01  0.9118800E+02  0.7818608E-02  0.1180000E+00
       11   -1    0    0    0    0  0.00000000000E+00  0.00000000000E+00  0.39999999673E+01  0.40000000000E+01  0.51109989000E-03 0.  1.
     -623   -1    0    0    0    0  0.00000000000E+00  0.00000000000E+00  0.12525980253E-10  0.17130000000E+03  0.17130000000E+03 0.  1.
       11    1    1    2    0    0 -0.28392157095E+00 -0.24172199607E+00  0.59453581723E+00  0.70179347463E+00  0.51109989000E-03 0.  1.
     -623    1    1    2    0    0  0.26698545898E+00 -0.76943981415E-01  0.66203408784E+00  0.17130150464E+03  0.17130000000E+03 0.  1.
      622    1    1    2    0    0  0.16936111971E-01  0.31866597749E+00  0.27434300623E+01  0.32967018888E+01  0.18000000000E+01 0.  1.
</event>
<event>
 5   0  0.7764500E-01  0.9118800E+02  0.7818608E-02  0.1180000E+00
       11   -1    0    0    0    0  0.00000000000E+00  0.00000000000E+00  0.39999999673E+01  0.40000000000E+01  0.51109989000E-03 0. -1.
     -623   -1    0    0    0    0  0.00000000000E+00  0.00000000000E+00  0.12525980253E-10  0.17130000000E+03  0.17130000000E+03 0. -1.
       11    1    1    2    0    0 -0.41734622220E-01 -0.24812932909E+00  0.19629511344E+00  0.31912689550E+00  0.51109989000E-03 0. -1.
     -623    1    1    2    0    0  0.33683554514E+00 -0.29842706151E+00  0.65578023903E+00  0.17130184635E+03  0.17130000000E+03 0. -1.
      622    1    1    2    0    0 -0.29510092292E+00  0.54655639060E+00  0.31479246149E+01  0.36790267495E+01  0.18000000000E+01 0. -1.
</event>
<event>
 5   0  0.7764500E-01  0.9118800E+02  0.7818608E-02  0.1180000E+00
       11   -1    0    0    0    0  0.00000000000E+00  0.00000000000E+00  0.39999999673E+01  0.40000000000E+01  0.51109989000E-03 0.  1.
     -623   -1    0    0    0    0  0.00000000000E+00  0.00000000000E+00  0.12525980253E-10  0.17130000000E+03  0.17130000000E+03 0. -1.
       11    1    1    2    0    0 -0.49537164819E-01 -0.17794501859E+00  0.33173761216E+00  0.37969522631E+00  0.51109989000E-03 0.  1.
     -623    1    1    2    0    0  0.44234662978E-01  0.47786441365E+00  0.54327851304E+00  0.17130153374E+03  0.17130000000E+03 0. -1.
      622    1    1    2    0    0  0.53025018414E-02 -0.29991939507E+00  0.31249838422E+01  0.36187710309E+01  0.18000000000E+01 0.  1.
</event>
<event>
 5   0  0.7764500E-01  0.9118800E+02  0.7818608E-02  0.1180000E+00
       11   -1    0    0    0    0  0.00000000000E+00  0.00000000000E+00  0.39999999673E+01  0.40000000000E+01  0.51109989000E-03 0. -1.
     -623   -1    0    0    0    0  0.00000000000E+00  0.00000000000E+00  0.12525980253E-10  0.17130000000E+03  0.17130000000E+03 0.  1.
       11    1    1    2    0    0  0.12330283304E+00  0.35197692361E-01  0.11299141360E+00  0.17090870941E+00  0.51109989000E-03 0. -1.
     -623    1    1    2    0    0 -0.30322107621E+00  0.14492736104E+00  0.51824058936E+00  0.17130111360E+03  0.17130000000E+03 0.  1.
      622    1    1    2    0    0  0.17991824317E+00 -0.18012505340E+00  0.33687679644E+01  0.38279776916E+01  0.18000000000E+01 0. -1.
</event>
<event>
 5   0  0.7764500E-01  0.9118800E+02  0.7818608E-02  0.1180000E+00
       11   -1    0    0    0    0  0.00000000000E+00  0.00000000000E+00  0.39999999673E+01  0.40000000000E+01  0.51109989000E-03 0.  1.
     -623   -1    0    0    0    0  0.00000000000E+00  0.00000000000E+00  0.12525980253E-10  0.17130000000E+03  0.17130000000E+03 0.  1.
       11    1    1    2    0    0  0.29728469401E+00  0.97503419050E-02  0.17279713637E+00  0.34399472382E+00  0.51109989000E-03 0.  1.
     -623    1    1    2    0    0 -0.11331916780E+00 -0.20364889817E+00  0.65789061558E+00  0.17130142187E+03  0.17130000000E+03 0.  1.
      622    1    1    2    0    0 -0.18396552620E+00  0.19389855626E+00  0.31693122154E+01  0.36545834077E+01  0.18000000000E+01 0.  1.
</event>
<event>
 5   0  0.7764500E-01  0.9118800E+02  0.7818608E-02  0.1180000E+00
       11   -1    0    0    0    0  0.00000000000E+00  0.00000000000E+00  0.39999999673E+01  0.40000000000E+01  0.51109989000E-03 0.  1.
     -623   -1    0    0    0    0  0.00000000000E+00  0.00000000000E+00  0.12525980253E-10  0.17130000000E+03  0.17130000000E+03 0.  1.
       11    1    1    2    0    0 -0.63902205800E-01 -0.19525461076E-01  0.33905505811E+00  0.34557680650E+00  0.51109989000E-03 0.  1.
     -623    1    1    2    0    0  0.94612998376E-01  0.15819174257E+00  0.48464164409E+00  0.17130078474E+03  0.17130000000E+03 0.  1.
      622    1    1    2    0    0 -0.30710792575E-01 -0.13866628149E+00  0.31763032652E+01  0.36536384499E+01  0.18000000000E+01 0.  1.
</event>
<event>
 5   0  0.7764500E-01  0.9118800E+02  0.7818608E-02  0.1180000E+00
       11   -1    0    0    0    0  0.00000000000E+00  0.00000000000E+00  0.39999999673E+01  0.40000000000E+01  0.51109989000E-03 0. -1.
     -623   -1    0    0    0    0  0.00000000000E+00  0.00000000000E+00  0.12525980253E-10  0.17130000000E+03  0.17130000000E+03 0.  1.
       11    1    1    2    0    0 -0.13682762468E+00 -0.17907654694E+00  0.17128961563E+00  0.28307349256E+00  0.51109989000E-03 0. -1.
     -623    1    1    2    0    0  0.11139476579E+00 -0.12492338030E-01  0.58363182877E+00  0.17130103091E+03  0.17130000000E+03 0.  1.
      622    1    1    2    0    0  0.25432858887E-01  0.19156888497E+00  0.32450785230E+01  0.37158955970E+01  0.18000000000E+01 0. -1.
</event>
<event>
 5   0  0.7764500E-01  0.9118800E+02  0.7818608E-02  0.1180000E+00
       11   -1    0    0    0    0  0.00000000000E+00  0.00000000000E+00  0.39999999673E+01  0.40000000000E+01  0.51109989000E-03 0.  1.
     -623   -1    0    0    0    0  0.00000000000E+00  0.00000000000E+00  0.12525980253E-10  0.17130000000E+03  0.17130000000E+03 0. -1.
       11    1    1    2    0    0 -0.18788324501E-01 -0.60766043147E-01  0.58239058762E+00  0.58585371119E+00  0.51109989000E-03 0.  1.
     -623    1    1    2    0    0  0.43666331851E+00  0.84600221500E-01  0.54859067921E+00  0.17130145587E+03  0.17130000000E+03 0. -1.
      622    1    1    2    0    0 -0.41787499401E+00 -0.23834178353E-01  0.28690187005E+01  0.34126904171E+01  0.18000000000E+01 0.  1.
</event>
<event>
 5   0  0.7764500E-01  0.9118800E+02  0.7818608E-02  0.1180000E+00
       11   -1    0    0    0    0  0.00000000000E+00  0.00000000000E+00  0.39999999673E+01  0.40000000000E+01  0.51109989000E-03 0.  1.
     -623   -1    0    0    0    0  0.00000000000E+00  0.00000000000E+00  0.12525980253E-10  0.17130000000E+03  0.17130000000E+03 0.  1.
       11    1    1    2    0    0  0.56124792251E-01  0.95334806367E-01  0.95602790362E-01  0.14621515775E+00  0.51109989000E-03 0.  1.
     -623    1    1    2    0    0 -0.24807951744E+00  0.29023447915E+00  0.52554299536E+00  0.17130123168E+03  0.17130000000E+03 0.  1.
      622    1    1    2    0    0  0.19195472519E+00 -0.38556928552E+00  0.33788541816E+01  0.38525531627E+01  0.18000000000E+01 0.  0.
</event>
<event>
 5   0  0.7764500E-01  0.9118800E+02  0.7818608E-02  0.1180000E+00
       11   -1    0    0    0    0  0.00000000000E+00  0.00000000000E+00  0.39999999673E+01  0.40000000000E+01  0.51109989000E-03 0. -1.
     -623   -1    0    0    0    0  0.00000000000E+00  0.00000000000E+00  0.12525980253E-10  0.17130000000E+03  0.17130000000E+03 0.  1.
       11    1    1    2    0    0  0.20863734846E+00  0.18060867140E+00  0.29255532865E+00  0.40216652881E+00  0.51109989000E-03 0. -1.
     -623    1    1    2    0    0 -0.35016401138E+00  0.41663215570E+00  0.65581729459E+00  0.17130211993E+03  0.17130000000E+03 0.  1.
      622    1    1    2    0    0  0.14152666292E+00 -0.59724082709E+00  0.30516273441E+01  0.35957135383E+01  0.18000000000E+01 0. -1.
</event>
<event>
 5   0  0.7764500E-01  0.9118800E+02  0.7818608E-02  0.1180000E+00
       11   -1    0    0    0    0  0.00000000000E+00  0.00000000000E+00  0.39999999673E+01  0.40000000000E+01  0.51109989000E-03 0. -1.
     -623   -1    0    0    0    0  0.00000000000E+00  0.00000000000E+00  0.12525980253E-10  0.17130000000E+03  0.17130000000E+03 0. -1.
       11    1    1    2    0    0 -0.27423379060E+00 -0.16613161074E+00 -0.74075543844E-01  0.32907648262E+00  0.51109989000E-03 0. -1.
     -623    1    1    2    0    0  0.19443288523E+00  0.30301204885E+00  0.88171833389E+00  0.17130264752E+03  0.17130000000E+03 0. -1.
      622    1    1    2    0    0  0.79800905372E-01 -0.13688043811E+00  0.31923571773E+01  0.36682759965E+01  0.18000000000E+01 0. -1.
</event>
<event>
 5   0  0.7764500E-01  0.9118800E+02  0.7818608E-02  0.1180000E+00
       11   -1    0    0    0    0  0.00000000000E+00  0.00000000000E+00  0.39999999673E+01  0.40000000000E+01  0.51109989000E-03 0. -1.
     -623   -1    0    0    0    0  0.00000000000E+00  0.00000000000E+00  0.12525980253E-10  0.17130000000E+03  0.17130000000E+03 0.  1.
       11    1    1    2    0    0  0.65918299557E-01  0.13569502551E-01  0.32838878613E-01  0.74886626214E-01  0.51109989000E-03 0. -1.
     -623    1    1    2    0    0 -0.39585773871E-01  0.14181164637E+00  0.48350993705E+00  0.17130074565E+03  0.17130000000E+03 0.  1.
      622    1    1    2    0    0 -0.26332525687E-01 -0.15538114892E+00  0.34836511517E+01  0.39243677262E+01  0.18000000000E+01 0. -1.
</event>
<event>
 5   0  0.7764500E-01  0.9118800E+02  0.7818608E-02  0.1180000E+00
       11   -1    0    0    0    0  0.00000000000E+00  0.00000000000E+00  0.39999999673E+01  0.40000000000E+01  0.51109989000E-03 0.  1.
     -623   -1    0    0    0    0  0.00000000000E+00  0.00000000000E+00  0.12525980253E-10  0.17130000000E+03  0.17130000000E+03 0. -1.
       11    1    1    2    0    0 -0.30112891552E-01  0.25213143563E-01  0.10668747565E-01  0.40701010352E-01  0.51109989000E-03 0.  1.
     -623    1    1    2    0    0 -0.32991128380E-01 -0.54780401851E-01  0.46426153936E+00  0.17130064106E+03  0.17130000000E+03 0. -1.
      622    1    1    2    0    0  0.63104019932E-01  0.29567258288E-01  0.35250696804E+01  0.39586579281E+01  0.18000000000E+01 0.  1.
</event>
<event>
 5   0  0.7764500E-01  0.9118800E+02  0.7818608E-02  0.1180000E+00
       11   -1    0    0    0    0  0.00000000000E+00  0.00000000000E+00  0.39999999673E+01  0.40000000000E+01  0.51109989000E-03 0. -1.
     -623   -1    0    0    0    0  0.00000000000E+00  0.00000000000E+00  0.12525980253E-10  0.17130000000E+03  0.17130000000E+03 0.  1.
       11    1    1    2    0    0  0.52816375766E-01  0.80357855175E-01  0.35351978563E-01  0.10245476097E+00  0.51109989000E-03 0. -1.
     -623    1    1    2    0    0  0.63486470992E-01 -0.89355985767E-02  0.51121603684E+00  0.17130077481E+03  0.17130000000E+03 0.  1.
      622    1    1    2    0    0 -0.11630284676E+00 -0.71422256598E-01  0.34534319520E+01  0.38967704240E+01  0.18000000000E+01 0. -1.
</event>
<event>
 5   0  0.7764500E-01  0.9118800E+02  0.7818608E-02  0.1180000E+00
       11   -1    0    0    0    0  0.00000000000E+00  0.00000000000E+00  0.39999999673E+01  0.40000000000E+01  0.51109989000E-03 0.  1.
     -623   -1    0    0    0    0  0.00000000000E+00  0.00000000000E+00  0.12525980253E-10  0.17130000000E+03  0.17130000000E+03 0. -1.
       11    1    1    2    0    0 -0.16967322026E+00 -0.18546148071E+00  0.92881901786E+00  0.96223177648E+00  0.51109989000E-03 0.  1.
     -623    1    1    2    0    0  0.29814851382E+00  0.18703400837E+00  0.62939717450E+00  0.17130151784E+03  0.17130000000E+03 0. -1.
      622    1    1    2    0    0 -0.12847529357E+00 -0.15725276623E-02  0.24417837750E+01  0.30362503813E+01  0.18000000000E+01 0.  1.
</event>
<event>
 5   0  0.7764500E-01  0.9118800E+02  0.7818608E-02  0.1180000E+00
       11   -1    0    0    0    0  0.00000000000E+00  0.00000000000E+00  0.39999999673E+01  0.40000000000E+01  0.51109989000E-03 0. -1.
     -623   -1    0    0    0    0  0.00000000000E+00  0.00000000000E+00  0.12525980253E-10  0.17130000000E+03  0.17130000000E+03 0.  1.
       11    1    1    2    0    0 -0.24297330915E+00 -0.31926888414E-01  0.35223504206E+00  0.42909805551E+00  0.51109989000E-03 0. -1.
     -623    1    1    2    0    0  0.22904971532E+00  0.29582508930E-01  0.56501033398E+00  0.17130108749E+03  0.17130000000E+03 0.  1.
      622    1    1    2    0    0  0.13923593836E-01  0.23443794838E-02  0.30827545913E+01  0.35698144536E+01  0.18000000000E+01 0. -1.
</event>
<event>
 5   0  0.7764500E-01  0.9118800E+02  0.7818608E-02  0.1180000E+00
       11   -1    0    0    0    0  0.00000000000E+00  0.00000000000E+00  0.39999999673E+01  0.40000000000E+01  0.51109989000E-03 0.  1.
     -623   -1    0    0    0    0  0.00000000000E+00  0.00000000000E+00  0.12525980253E-10  0.17130000000E+03  0.17130000000E+03 0.  1.
       11    1    1    2    0    0 -0.25416411144E+00  0.36472289560E+00  0.16676643807E+00  0.47479837006E+00  0.51109989000E-03 0.  1.
     -623    1    1    2    0    0 -0.75800428370E+00 -0.17740722263E+00  0.98807391046E+00  0.17130461854E+03  0.17130000000E+03 0.  1.
      622    1    1    2    0    0  0.10121683951E+01 -0.18731567298E+00  0.28451596188E+01  0.35205830878E+01  0.18000000000E+01 0.  1.
</event>
<event>
 5   0  0.7764500E-01  0.9118800E+02  0.7818608E-02  0.1180000E+00
       11   -1    0    0    0    0  0.00000000000E+00  0.00000000000E+00  0.39999999673E+01  0.40000000000E+01  0.51109989000E-03 0.  1.
     -623   -1    0    0    0    0  0.00000000000E+00  0.00000000000E+00  0.12525980253E-10  0.17130000000E+03  0.17130000000E+03 0.  1.
       11    1    1    2    0    0  0.14026462045E+00  0.12073000228E+00  0.10354626370E+00  0.21206599715E+00  0.51109989000E-03 0.  1.
     -623    1    1    2    0    0  0.10560880047E+00  0.31181649290E+00  0.60244803311E+00  0.17130137573E+03  0.17130000000E+03 0.  1.
      622    1    1    2    0    0 -0.24587342092E+00 -0.43254649518E+00  0.32940056706E+01  0.37865582746E+01  0.18000000000E+01 0.  1.
</event>
<event>
 5   0  0.7764500E-01  0.9118800E+02  0.7818608E-02  0.1180000E+00
       11   -1    0    0    0    0  0.00000000000E+00  0.00000000000E+00  0.39999999673E+01  0.40000000000E+01  0.51109989000E-03 0. -1.
     -623   -1    0    0    0    0  0.00000000000E+00  0.00000000000E+00  0.12525980253E-10  0.17130000000E+03  0.17130000000E+03 0.  1.
       11    1    1    2    0    0  0.43917221641E-01  0.38798799123E-01  0.24895299674E+00  0.25575755117E+00  0.51109989000E-03 0. -1.
     -623    1    1    2    0    0 -0.12328476064E+00 -0.35005672716E+00  0.48485301347E+00  0.17130108821E+03  0.17130000000E+03 0.  1.
      622    1    1    2    0    0  0.79367539002E-01  0.31125792804E+00  0.32661939571E+01  0.37431542407E+01  0.18000000000E+01 0. -1.
</event>
<event>
 5   0  0.7764500E-01  0.9118800E+02  0.7818608E-02  0.1180000E+00
       11   -1    0    0    0    0  0.00000000000E+00  0.00000000000E+00  0.39999999673E+01  0.40000000000E+01  0.51109989000E-03 0.  1.
     -623   -1    0    0    0    0  0.00000000000E+00  0.00000000000E+00  0.12525980253E-10  0.17130000000E+03  0.17130000000E+03 0. -1.
       11    1    1    2    0    0  0.19891408821E+00  0.89276366839E-01  0.27749130434E+00  0.35290050916E+00  0.51109989000E-03 0.  1.
     -623    1    1    2    0    0 -0.13395932136E+00 -0.37484669769E+00  0.56570966460E+00  0.17130139662E+03  0.17130000000E+03 0. -1.
      622    1    1    2    0    0 -0.64954766849E-01  0.28557033085E+00  0.31567989984E+01  0.36457028749E+01  0.18000000000E+01 0.  1.
</event>
<event>
 5   0  0.7764500E-01  0.9118800E+02  0.7818608E-02  0.1180000E+00
       11   -1    0    0    0    0  0.00000000000E+00  0.00000000000E+00  0.39999999673E+01  0.40000000000E+01  0.51109989000E-03 0. -1.
     -623   -1    0    0    0    0  0.00000000000E+00  0.00000000000E+00  0.12525980253E-10  0.17130000000E+03  0.17130000000E+03 0. -1.
       11    1    1    2    0    0 -0.17745852885E+00  0.56933447052E-01  0.47833928490E-01  0.19240918063E+00  0.51109989000E-03 0. -1.
     -623    1    1    2    0    0 -0.59112266865E-01  0.11754218601E+00  0.61110993375E+00  0.17130114059E+03  0.17130000000E+03 0. -1.
      622    1    1    2    0    0  0.23657079571E+00 -0.17447563307E+00  0.33410561051E+01  0.38064502342E+01  0.18000000000E+01 0. -1.
</event>
<event>
 5   0  0.7764500E-01  0.9118800E+02  0.7818608E-02  0.1180000E+00
       11   -1    0    0    0    0  0.00000000000E+00  0.00000000000E+00  0.39999999673E+01  0.40000000000E+01  0.51109989000E-03 0.  1.
     -623   -1    0    0    0    0  0.00000000000E+00  0.00000000000E+00  0.12525980253E-10  0.17130000000E+03  0.17130000000E+03 0.  1.
       11    1    1    2    0    0 -0.50553458497E-01  0.82962957778E-01  0.27167866533E+00  0.28852740416E+00  0.51109989000E-03 0.  1.
     -623    1    1    2    0    0  0.35717183968E-01 -0.16986518597E+00  0.48463270240E+00  0.17130077349E+03  0.17130000000E+03 0.  1.
      622    1    1    2    0    0  0.14836274529E-01  0.86902228197E-01  0.32436885996E+01  0.37106991044E+01  0.18000000000E+01 0.  1.
</event>
<event>
 5   0  0.7764500E-01  0.9118800E+02  0.7818608E-02  0.1180000E+00
       11   -1    0    0    0    0  0.00000000000E+00  0.00000000000E+00  0.39999999673E+01  0.40000000000E+01  0.51109989000E-03 0.  1.
     -623   -1    0    0    0    0  0.00000000000E+00  0.00000000000E+00  0.12525980253E-10  0.17130000000E+03  0.17130000000E+03 0. -1.
       11    1    1    2    0    0  0.96259993708E-01  0.12547451391E-01  0.59364540290E-01  0.11378855299E+00  0.51109989000E-03 0.  1.
     -623    1    1    2    0    0 -0.20394538252E+00  0.37211326424E+00  0.52115675139E+00  0.17130131834E+03  0.17130000000E+03 0. -1.
      622    1    1    2    0    0  0.10768538882E+00 -0.38466071563E+00  0.34194786757E+01  0.38848931031E+01  0.18000000000E+01 0.  1.
</event>
<event>
 5   0  0.7764500E-01  0.9118800E+02  0.7818608E-02  0.1180000E+00
       11   -1    0    0    0    0  0.00000000000E+00  0.00000000000E+00  0.39999999673E+01  0.40000000000E+01  0.51109989000E-03 0. -1.
     -623   -1    0    0    0    0  0.00000000000E+00  0.00000000000E+00  0.12525980253E-10  0.17130000000E+03  0.17130000000E+03 0.  1.
       11    1    1    2    0    0 -0.23712520446E+00 -0.27002010125E-01  0.34200710732E+00  0.41704507409E+00  0.51109989000E-03 0. -1.
     -623    1    1    2    0    0  0.19883423792E+00 -0.41816092493E+00  0.59432509648E+00  0.17130165678E+03  0.17130000000E+03 0.  1.
      622    1    1    2    0    0  0.38290966541E-01  0.44516293506E+00  0.30636677636E+01  0.35812981449E+01  0.18000000000E+01 0.  0.
</event>
<event>
 5   0  0.7764500E-01  0.9118800E+02  0.7818608E-02  0.1180000E+00
       11   -1    0    0    0    0  0.00000000000E+00  0.00000000000E+00  0.39999999673E+01  0.40000000000E+01  0.51109989000E-03 0. -1.
     -623   -1    0    0    0    0  0.00000000000E+00  0.00000000000E+00  0.12525980253E-10  0.17130000000E+03  0.17130000000E+03 0. -1.
       11    1    1    2    0    0 -0.14178517198E+00 -0.12567831573E+00  0.34854943733E+00  0.39671784119E+00  0.51109989000E-03 0. -1.
     -623    1    1    2    0    0  0.48146522929E-01  0.59634427675E-01  0.53305149453E+00  0.17130084652E+03  0.17130000000E+03 0. -1.
      622    1    1    2    0    0  0.93638649049E-01  0.66043888051E-01  0.31183990355E+01  0.36024356394E+01  0.18000000000E+01 0. -1.
</event>
<event>
 5   0  0.7764500E-01  0.9118800E+02  0.7818608E-02  0.1180000E+00
       11   -1    0    0    0    0  0.00000000000E+00  0.00000000000E+00  0.39999999673E+01  0.40000000000E+01  0.51109989000E-03 0.  1.
     -623   -1    0    0    0    0  0.00000000000E+00  0.00000000000E+00  0.12525980253E-10  0.17130000000E+03  0.17130000000E+03 0. -1.
       11    1    1    2    0    0  0.14953516500E+00 -0.31049830735E+00  0.11101900244E+01  0.11624509091E+01  0.51109989000E-03 0.  1.
     -623    1    1    2    0    0  0.48656876454E-01  0.38476731259E+00  0.70896722438E+00  0.17130190614E+03  0.17130000000E+03 0. -1.
      622    1    1    2    0    0 -0.19819204146E+00 -0.74269005241E-01  0.21808427186E+01  0.28356429489E+01  0.18000000000E+01 0. -1.
</event>
<event>
 5   0  0.7764500E-01  0.9118800E+02  0.7818608E-02  0.1180000E+00
       11   -1    0    0    0    0  0.00000000000E+00  0.00000000000E+00  0.39999999673E+01  0.40000000000E+01  0.51109989000E-03 0.  1.
     -623   -1    0    0    0    0  0.00000000000E+00  0.00000000000E+00  0.12525980253E-10  0.17130000000E+03  0.17130000000E+03 0. -1.
       11    1    1    2    0    0  0.42252690434E-01  0.36165369908E-01  0.14435278243E+00  0.15469715850E+00  0.51109989000E-03 0.  1.
     -623    1    1    2    0    0 -0.23669307329E+00 -0.19728971145E-01  0.46416155980E+00  0.17130079351E+03  0.17130000000E+03 0. -1.
      622    1    1    2    0    0  0.19444038285E+00 -0.16436398763E-01  0.33914856251E+01  0.38445093267E+01  0.18000000000E+01 0.  1.
</event>
<event>
 5   0  0.7764500E-01  0.9118800E+02  0.7818608E-02  0.1180000E+00
       11   -1    0    0    0    0  0.00000000000E+00  0.00000000000E+00  0.39999999673E+01  0.40000000000E+01  0.51109989000E-03 0. -1.
     -623   -1    0    0    0    0  0.00000000000E+00  0.00000000000E+00  0.12525980253E-10  0.17130000000E+03  0.17130000000E+03 0.  1.
       11    1    1    2    0    0 -0.74192462266E-01 -0.11668118534E+00  0.11185873815E+00  0.17785291393E+00  0.51109989000E-03 0. -1.
     -623    1    1    2    0    0  0.14921773395E-01 -0.86076119117E-01  0.52393400339E+00  0.17130082352E+03  0.17130000000E+03 0.  1.
      622    1    1    2    0    0  0.59270688871E-01  0.20275730446E+00  0.33642072258E+01  0.38213235662E+01  0.18000000000E+01 0. -1.
</event>
<event>
 5   0  0.7764500E-01  0.9118800E+02  0.7818608E-02  0.1180000E+00
       11   -1    0    0    0    0  0.00000000000E+00  0.00000000000E+00  0.39999999673E+01  0.40000000000E+01  0.51109989000E-03 0. -1.
     -623   -1    0    0    0    0  0.00000000000E+00  0.00000000000E+00  0.12525980253E-10  0.17130000000E+03  0.17130000000E+03 0. -1.
       11    1    1    2    0    0  0.94540836675E-01  0.75796912223E-01  0.45517989572E+00  0.47103305658E+00  0.51109989000E-03 0. -1.
     -623    1    1    2    0    0 -0.12002861636E-01 -0.13152468469E+00  0.51201110339E+00  0.17130081610E+03  0.17130000000E+03 0. -1.
      622    1    1    2    0    0 -0.82537975038E-01  0.55727772472E-01  0.30328089683E+01  0.35281508386E+01  0.18000000000E+01 0. -1.
</event>
<event>
 5   0  0.7764500E-01  0.9118800E+02  0.7818608E-02  0.1180000E+00
       11   -1    0    0    0    0  0.00000000000E+00  0.00000000000E+00  0.39999999673E+01  0.40000000000E+01  0.51109989000E-03 0. -1.
     -623   -1    0    0    0    0  0.00000000000E+00  0.00000000000E+00  0.12525980253E-10  0.17130000000E+03  0.17130000000E+03 0. -1.
       11    1    1    2    0    0 -0.10452277838E-01  0.16735979574E+00  0.50894432565E-01  0.17523999496E+00  0.51109989000E-03 0. -1.
     -623    1    1    2    0    0  0.61234929032E-01 -0.19314420866E+00  0.57609208605E+00  0.17130108854E+03  0.17130000000E+03 0. -1.
      622    1    1    2    0    0 -0.50782651194E-01  0.25784412919E-01  0.33730134487E+01  0.38236714607E+01  0.18000000000E+01 0. -1.
</event>
<event>
 5   0  0.7764500E-01  0.9118800E+02  0.7818608E-02  0.1180000E+00
       11   -1    0    0    0    0  0.00000000000E+00  0.00000000000E+00  0.39999999673E+01  0.40000000000E+01  0.51109989000E-03 0. -1.
     -623   -1    0    0    0    0  0.00000000000E+00  0.00000000000E+00  0.12525980253E-10  0.17130000000E+03  0.17130000000E+03 0. -1.
       11    1    1    2    0    0 -0.21605125093E-01  0.17008514599E-01  0.18892278123E-01  0.33365407129E-01  0.51109989000E-03 0. -1.
     -623    1    1    2    0    0  0.10446255103E+00  0.10772910550E+00  0.45030768606E+00  0.17130065760E+03  0.17130000000E+03 0. -1.
      622    1    1    2    0    0 -0.82857425937E-01 -0.12473762010E+00  0.35308000032E+01  0.39659769905E+01  0.18000000000E+01 0. -1.
</event>
<event>
 5   0  0.7764500E-01  0.9118800E+02  0.7818608E-02  0.1180000E+00
       11   -1    0    0    0    0  0.00000000000E+00  0.00000000000E+00  0.39999999673E+01  0.40000000000E+01  0.51109989000E-03 0.  1.
     -623   -1    0    0    0    0  0.00000000000E+00  0.00000000000E+00  0.12525980253E-10  0.17130000000E+03  0.17130000000E+03 0.  1.
       11    1    1    2    0    0  0.23838579190E+00  0.21605971654E+00  0.18508098815E-01  0.32226138123E+00  0.51109989000E-03 0.  1.
     -623    1    1    2    0    0 -0.42550513415E-01 -0.10538526187E+00  0.78435583922E+00  0.17130183341E+03  0.17130000000E+03 0.  1.
      622    1    1    2    0    0 -0.19583527848E+00 -0.11067445467E+00  0.31971360293E+01  0.36759052057E+01  0.18000000000E+01 0.  1.
</event>
<event>
 5   0  0.7764500E-01  0.9118800E+02  0.7818608E-02  0.1180000E+00
       11   -1    0    0    0    0  0.00000000000E+00  0.00000000000E+00  0.39999999673E+01  0.40000000000E+01  0.51109989000E-03 0.  1.
     -623   -1    0    0    0    0  0.00000000000E+00  0.00000000000E+00  0.12525980253E-10  0.17130000000E+03  0.17130000000E+03 0.  1.
       11    1    1    2    0    0  0.42447232571E-01  0.13620055490E+00  0.15961021389E-01  0.14355268766E+00  0.51109989000E-03 0.  1.
     -623    1    1    2    0    0 -0.60210897752E-01 -0.41089346140E-01  0.57592535245E+00  0.17130098366E+03  0.17130000000E+03 0.  1.
      622    1    1    2    0    0  0.17763665181E-01 -0.95111208761E-01  0.34081135935E+01  0.38554636500E+01  0.18000000000E+01 0.  1.
</event>
<event>
 5   0  0.7764500E-01  0.9118800E+02  0.7818608E-02  0.1180000E+00
       11   -1    0    0    0    0  0.00000000000E+00  0.00000000000E+00  0.39999999673E+01  0.40000000000E+01  0.51109989000E-03 0.  1.
     -623   -1    0    0    0    0  0.00000000000E+00  0.00000000000E+00  0.12525980253E-10  0.17130000000E+03  0.17130000000E+03 0. -1.
       11    1    1    2    0    0 -0.88161025216E-02 -0.14121987217E+00 -0.75610578843E-02  0.14169758917E+00  0.51109989000E-03 0.  1.
     -623    1    1    2    0    0  0.53034352404E-01  0.35866612744E+00  0.60372625559E+00  0.17130144757E+03  0.17130000000E+03 0. -1.
      622    1    1    2    0    0 -0.44218249882E-01 -0.21744625528E+00  0.34038347697E+01  0.38568548413E+01  0.18000000000E+01 0.  1.
</event>
<event>
 5   0  0.7764500E-01  0.9118800E+02  0.7818608E-02  0.1180000E+00
       11   -1    0    0    0    0  0.00000000000E+00  0.00000000000E+00  0.39999999673E+01  0.40000000000E+01  0.51109989000E-03 0.  1.
     -623   -1    0    0    0    0  0.00000000000E+00  0.00000000000E+00  0.12525980253E-10  0.17130000000E+03  0.17130000000E+03 0.  1.
       11    1    1    2    0    0  0.12688902001E+00 -0.42769597598E+00  0.32914773597E+00  0.55440343126E+00  0.51109989000E-03 0.  1.
     -623    1    1    2    0    0  0.13381182739E+00  0.29090480134E+00  0.74987811771E+00  0.17130194059E+03  0.17130000000E+03 0.  1.
      622    1    1    2    0    0 -0.26070084740E+00  0.13679117464E+00  0.29209741137E+01  0.34436559831E+01  0.18000000000E+01 0.  1.
</event>
<event>
 5   0  0.7764500E-01  0.9118800E+02  0.7818608E-02  0.1180000E+00
       11   -1    0    0    0    0  0.00000000000E+00  0.00000000000E+00  0.39999999673E+01  0.40000000000E+01  0.51109989000E-03 0. -1.
     -623   -1    0    0    0    0  0.00000000000E+00  0.00000000000E+00  0.12525980253E-10  0.17130000000E+03  0.17130000000E+03 0.  1.
       11    1    1    2    0    0 -0.31658367349E-01 -0.14543552578E-01  0.33453907132E-01  0.48303128981E-01  0.51109989000E-03 0. -1.
     -623    1    1    2    0    0  0.27198835573E+00  0.75864344537E-01  0.45831214812E+00  0.17130084583E+03  0.17130000000E+03 0.  1.
      622    1    1    2    0    0 -0.24032998838E+00 -0.61320791959E-01  0.35082339121E+01  0.39508510381E+01  0.18000000000E+01 0. -1.
</event>
<event>
 5   0  0.7764500E-01  0.9118800E+02  0.7818608E-02  0.1180000E+00
       11   -1    0    0    0    0  0.00000000000E+00  0.00000000000E+00  0.39999999673E+01  0.40000000000E+01  0.51109989000E-03 0.  1.
     -623   -1    0    0    0    0  0.00000000000E+00  0.00000000000E+00  0.12525980253E-10  0.17130000000E+03  0.17130000000E+03 0. -1.
       11    1    1    2    0    0  0.42573360640E-01 -0.16870479348E-01  0.20341434698E+00  0.20850602363E+00  0.51109989000E-03 0.  1.
     -623    1    1    2    0    0 -0.72094401589E-01  0.13736995465E+00  0.46270439499E+00  0.17130069516E+03  0.17130000000E+03 0. -1.
      622    1    1    2    0    0  0.29521040948E-01 -0.12049947530E+00  0.33338812254E+01  0.37907988130E+01  0.18000000000E+01 0.  1.
</event>
<event>
 5   0  0.7764500E-01  0.9118800E+02  0.7818608E-02  0.1180000E+00
       11   -1    0    0    0    0  0.00000000000E+00  0.00000000000E+00  0.39999999673E+01  0.40000000000E+01  0.51109989000E-03 0.  1.
     -623   -1    0    0    0    0  0.00000000000E+00  0.00000000000E+00  0.12525980253E-10  0.17130000000E+03  0.17130000000E+03 0.  1.
       11    1    1    2    0    0 -0.16950251814E+00 -0.42754775841E-02 -0.71235152483E-01  0.18391327178E+00  0.51109989000E-03 0.  1.
     -623    1    1    2    0    0 -0.26728022380E+00 -0.11122085586E-01  0.73689652688E+00  0.17130179386E+03  0.17130000000E+03 0.  1.
      622    1    1    2    0    0  0.43678274193E+00  0.15397563170E-01  0.33343385930E+01  0.38142928704E+01  0.18000000000E+01 0.  1.
</event>
<event>
 5   0  0.7764500E-01  0.9118800E+02  0.7818608E-02  0.1180000E+00
       11   -1    0    0    0    0  0.00000000000E+00  0.00000000000E+00  0.39999999673E+01  0.40000000000E+01  0.51109989000E-03 0.  1.
     -623   -1    0    0    0    0  0.00000000000E+00  0.00000000000E+00  0.12525980253E-10  0.17130000000E+03  0.17130000000E+03 0.  1.
       11    1    1    2    0    0 -0.14004063182E-03  0.20399243247E-01  0.67957541535E-01  0.70955178882E-01  0.51109989000E-03 0.  1.
     -623    1    1    2    0    0 -0.12001248503E+00 -0.17423755631E+00  0.44582595500E+00  0.17130071081E+03  0.17130000000E+03 0.  1.
      622    1    1    2    0    0  0.12015252566E+00  0.15383831307E+00  0.34862164708E+01  0.39283340155E+01  0.18000000000E+01 0.  1.
</event>
<event>
 5   0  0.7764500E-01  0.9118800E+02  0.7818608E-02  0.1180000E+00
       11   -1    0    0    0    0  0.00000000000E+00  0.00000000000E+00  0.39999999673E+01  0.40000000000E+01  0.51109989000E-03 0. -1.
     -623   -1    0    0    0    0  0.00000000000E+00  0.00000000000E+00  0.12525980253E-10  0.17130000000E+03  0.17130000000E+03 0.  1.
       11    1    1    2    0    0  0.20145305642E-01  0.85010274923E-01 -0.31973559668E-01  0.93033058212E-01  0.51109989000E-03 0. -1.
     -623    1    1    2    0    0  0.37637552809E-01 -0.68886656552E-01  0.56594596809E+00  0.17130095288E+03  0.17130000000E+03 0.  1.
      622    1    1    2    0    0 -0.57782858451E-01 -0.16123618371E-01  0.34660275589E+01  0.39060140641E+01  0.18000000000E+01 0. -1.
</event>
<event>
 5   0  0.7764500E-01  0.9118800E+02  0.7818608E-02  0.1180000E+00
       11   -1    0    0    0    0  0.00000000000E+00  0.00000000000E+00  0.39999999673E+01  0.40000000000E+01  0.51109989000E-03 0. -1.
     -623   -1    0    0    0    0  0.00000000000E+00  0.00000000000E+00  0.12525980253E-10  0.17130000000E+03  0.17130000000E+03 0.  1.
       11    1    1    2    0    0 -0.33258023438E-01  0.12315472669E-02  0.36982980326E-01  0.49755551317E-01  0.51109989000E-03 0. -1.
     -623    1    1    2    0    0  0.18240115450E-01  0.22380426720E+00  0.45479341173E+00  0.17130075090E+03  0.17130000000E+03 0.  1.
      622    1    1    2    0    0  0.15017907988E-01 -0.22503581447E+00  0.35082235753E+01  0.39494935510E+01  0.18000000000E+01 0. -1.
</event>
<event>
 5   0  0.7764500E-01  0.9118800E+02  0.7818608E-02  0.1180000E+00
       11   -1    0    0    0    0  0.00000000000E+00  0.00000000000E+00  0.39999999673E+01  0.40000000000E+01  0.51109989000E-03 0. -1.
     -623   -1    0    0    0    0  0.00000000000E+00  0.00000000000E+00  0.12525980253E-10  0.17130000000E+03  0.17130000000E+03 0. -1.
       11    1    1    2    0    0  0.45809646070E-01 -0.40151299996E-01  0.55477062558E-01  0.82393059523E-01  0.51109989000E-03 0. -1.
     -623    1    1    2    0    0  0.13775071362E+00  0.67819932737E-01  0.47068080216E+00  0.17130071545E+03  0.17130000000E+03 0. -1.
      622    1    1    2    0    0 -0.18356035969E+00 -0.27668632741E-01  0.34738421026E+01  0.39168914860E+01  0.18000000000E+01 0. -1.
</event>
<event>
 5   0  0.7764500E-01  0.9118800E+02  0.7818608E-02  0.1180000E+00
       11   -1    0    0    0    0  0.00000000000E+00  0.00000000000E+00  0.39999999673E+01  0.40000000000E+01  0.51109989000E-03 0.  1.
     -623   -1    0    0    0    0  0.00000000000E+00  0.00000000000E+00  0.12525980253E-10  0.17130000000E+03  0.17130000000E+03 0.  1.
       11    1    1    2    0    0  0.93097792497E-01 -0.37430129561E-01  0.96292669548E-02  0.10080276570E+00  0.51109989000E-03 0.  1.
     -623    1    1    2    0    0  0.18947236782E+00  0.10097270029E-01  0.54427369402E+00  0.17130096975E+03  0.17130000000E+03 0.  1.
      622    1    1    2    0    0 -0.28257016031E+00  0.27332859532E-01  0.34460970064E+01  0.38982274893E+01  0.18000000000E+01 0.  1.
</event>
<event>
 5   0  0.7764500E-01  0.9118800E+02  0.7818608E-02  0.1180000E+00
       11   -1    0    0    0    0  0.00000000000E+00  0.00000000000E+00  0.39999999673E+01  0.40000000000E+01  0.51109989000E-03 0.  1.
     -623   -1    0    0    0    0  0.00000000000E+00  0.00000000000E+00  0.12525980253E-10  0.17130000000E+03  0.17130000000E+03 0. -1.
       11    1    1    2    0    0 -0.13044847648E+00  0.18657185347E+00  0.37102507642E+00  0.43529958658E+00  0.51109989000E-03 0.  1.
     -623    1    1    2    0    0  0.13184313247E+00  0.66884848854E+00  0.67666202596E+00  0.17130269295E+03  0.17130000000E+03 0. -1.
      622    1    1    2    0    0 -0.13946559982E-02 -0.85542034201E+00  0.29523128650E+01  0.35620074620E+01  0.18000000000E+01 0.  1.
</event>
<event>
 5   0  0.7764500E-01  0.9118800E+02  0.7818608E-02  0.1180000E+00
       11   -1    0    0    0    0  0.00000000000E+00  0.00000000000E+00  0.39999999673E+01  0.40000000000E+01  0.51109989000E-03 0. -1.
     -623   -1    0    0    0    0  0.00000000000E+00  0.00000000000E+00  0.12525980253E-10  0.17130000000E+03  0.17130000000E+03 0. -1.
       11    1    1    2    0    0  0.82272660328E-01  0.14123649850E+00  0.61503889787E-02  0.16356841887E+00  0.51109989000E-03 0. -1.
     -623    1    1    2    0    0 -0.52109446521E-02 -0.24146979808E-01  0.61003340437E+00  0.17130108800E+03  0.17130000000E+03 0. -1.
      622    1    1    2    0    0 -0.77061715676E-01 -0.11708951869E+00  0.33838161740E+01  0.38353435782E+01  0.18000000000E+01 0. -1.
</event>
<event>
 5   0  0.7764500E-01  0.9118800E+02  0.7818608E-02  0.1180000E+00
       11   -1    0    0    0    0  0.00000000000E+00  0.00000000000E+00  0.39999999673E+01  0.40000000000E+01  0.51109989000E-03 0.  1.
     -623   -1    0    0    0    0  0.00000000000E+00  0.00000000000E+00  0.12525980253E-10  0.17130000000E+03  0.17130000000E+03 0. -1.
       11    1    1    2    0    0 -0.36301405638E-01  0.13995601318E+00  0.88962850980E-01  0.16976491909E+00  0.51109989000E-03 0.  1.
     -623    1    1    2    0    0 -0.22608962789E+00 -0.27847306509E+00  0.54456140909E+00  0.17130124112E+03  0.17130000000E+03 0. -1.
      622    1    1    2    0    0  0.26239103353E+00  0.13851705192E+00  0.33664757073E+01  0.38289939561E+01  0.18000000000E+01 0.  1.
</event>
<event>
 5   0  0.7764500E-01  0.9118800E+02  0.7818608E-02  0.1180000E+00
       11   -1    0    0    0    0  0.00000000000E+00  0.00000000000E+00  0.39999999673E+01  0.40000000000E+01  0.51109989000E-03 0. -1.
     -623   -1    0    0    0    0  0.00000000000E+00  0.00000000000E+00  0.12525980253E-10  0.17130000000E+03  0.17130000000E+03 0.  1.
       11    1    1    2    0    0  0.11189152562E+00  0.69319188764E-01 -0.15477909017E-01  0.13253184646E+00  0.51109989000E-03 0. -1.
     -623    1    1    2    0    0 -0.22843673387E+00 -0.39978752560E-01  0.59588186216E+00  0.17130119339E+03  0.17130000000E+03 0.  1.
      622    1    1    2    0    0  0.11654520825E+00 -0.29340436204E-01  0.34195960142E+01  0.38662747635E+01  0.18000000000E+01 0. -1.
</event>
<event>
 5   0  0.7764500E-01  0.9118800E+02  0.7818608E-02  0.1180000E+00
       11   -1    0    0    0    0  0.00000000000E+00  0.00000000000E+00  0.39999999673E+01  0.40000000000E+01  0.51109989000E-03 0.  1.
     -623   -1    0    0    0    0  0.00000000000E+00  0.00000000000E+00  0.12525980253E-10  0.17130000000E+03  0.17130000000E+03 0. -1.
       11    1    1    2    0    0 -0.47035223401E+00  0.77574154489E-02 -0.81735070738E-01  0.47746443276E+00  0.51109989000E-03 0.  1.
     -623    1    1    2    0    0  0.79461073433E-01 -0.62755775253E+00  0.11498555311E+01  0.17130502710E+03  0.17130000000E+03 0. -1.
      622    1    1    2    0    0  0.39089116058E+00  0.61980033708E+00  0.29318795070E+01  0.35175084649E+01  0.18000000000E+01 0.  1.
</event>
<event>
 5   0  0.7764500E-01  0.9118800E+02  0.7818608E-02  0.1180000E+00
       11   -1    0    0    0    0  0.00000000000E+00  0.00000000000E+00  0.39999999673E+01  0.40000000000E+01  0.51109989000E-03 0.  1.
     -623   -1    0    0    0    0  0.00000000000E+00  0.00000000000E+00  0.12525980253E-10  0.17130000000E+03  0.17130000000E+03 0.  1.
       11    1    1    2    0    0 -0.26078504052E+00  0.10247794651E+00 -0.18101430242E-01  0.28078192584E+00  0.51109989000E-03 0.  1.
     -623    1    1    2    0    0 -0.69521439578E-01 -0.40107144429E+00  0.79677448351E+00  0.17130233665E+03  0.17130000000E+03 0.  1.
      622    1    1    2    0    0  0.33030648010E+00  0.29859349778E+00  0.32213269141E+01  0.37168814260E+01  0.18000000000E+01 0.  1.
</event>
<event>
 5   0  0.7764500E-01  0.9118800E+02  0.7818608E-02  0.1180000E+00
       11   -1    0    0    0    0  0.00000000000E+00  0.00000000000E+00  0.39999999673E+01  0.40000000000E+01  0.51109989000E-03 0. -1.
     -623   -1    0    0    0    0  0.00000000000E+00  0.00000000000E+00  0.12525980253E-10  0.17130000000E+03  0.17130000000E+03 0. -1.
       11    1    1    2    0    0  0.16366292225E+00 -0.17424716115E-01  0.37651973339E-01  0.16884047255E+00  0.51109989000E-03 0. -1.
     -623    1    1    2    0    0 -0.27749879614E+00  0.16138354184E+00  0.58683387251E+00  0.17130130596E+03  0.17130000000E+03 0. -1.
      622    1    1    2    0    0  0.11383587389E+00 -0.14395882572E+00  0.33755141215E+01  0.38298535656E+01  0.18000000000E+01 0. -1.
</event>
<event>
 5   0  0.7764500E-01  0.9118800E+02  0.7818608E-02  0.1180000E+00
       11   -1    0    0    0    0  0.00000000000E+00  0.00000000000E+00  0.39999999673E+01  0.40000000000E+01  0.51109989000E-03 0. -1.
     -623   -1    0    0    0    0  0.00000000000E+00  0.00000000000E+00  0.12525980253E-10  0.17130000000E+03  0.17130000000E+03 0. -1.
       11    1    1    2    0    0 -0.16234969384E+00  0.36286953320E+00  0.37065034574E+00  0.54351969719E+00  0.51109989000E-03 0. -1.
     -623    1    1    2    0    0 -0.88224225930E-01  0.44904303573E-01  0.71944414700E+00  0.17130153940E+03  0.17130000000E+03 0. -1.
      622    1    1    2    0    0  0.25057391977E+00 -0.40777383678E+00  0.29099054746E+01  0.34549409058E+01  0.18000000000E+01 0. -1.
</event>
<event>
 5   0  0.7764500E-01  0.9118800E+02  0.7818608E-02  0.1180000E+00
       11   -1    0    0    0    0  0.00000000000E+00  0.00000000000E+00  0.39999999673E+01  0.40000000000E+01  0.51109989000E-03 0. -1.
     -623   -1    0    0    0    0  0.00000000000E+00  0.00000000000E+00  0.12525980253E-10  0.17130000000E+03  0.17130000000E+03 0. -1.
       11    1    1    2    0    0  0.12527393922E-01  0.23746019102E-01 -0.22220432759E-01  0.34854237547E-01  0.51109989000E-03 0. -1.
     -623    1    1    2    0    0  0.52881872835E-02 -0.18786790595E+00  0.49395413389E+00  0.17130081527E+03  0.17130000000E+03 0. -1.
      622    1    1    2    0    0 -0.17815581205E-01  0.16412188685E+00  0.35282662662E+01  0.39643304900E+01  0.18000000000E+01 0. -1.
</event>
<event>
 5   0  0.7764500E-01  0.9118800E+02  0.7818608E-02  0.1180000E+00
       11   -1    0    0    0    0  0.00000000000E+00  0.00000000000E+00  0.39999999673E+01  0.40000000000E+01  0.51109989000E-03 0. -1.
     -623   -1    0    0    0    0  0.00000000000E+00  0.00000000000E+00  0.12525980253E-10  0.17130000000E+03  0.17130000000E+03 0.  1.
       11    1    1    2    0    0  0.28477734137E-01 -0.21487964968E+00  0.39009760430E-01  0.22024138535E+00  0.51109989000E-03 0. -1.
     -623    1    1    2    0    0  0.17187791142E+00  0.40103887630E-01  0.64951135707E+00  0.17130132228E+03  0.17130000000E+03 0.  1.
      622    1    1    2    0    0 -0.20035564556E+00  0.17477576205E+00  0.33114788499E+01  0.37784363333E+01  0.18000000000E+01 0. -1.
</event>
<event>
 5   0  0.7764500E-01  0.9118800E+02  0.7818608E-02  0.1180000E+00
       11   -1    0    0    0    0  0.00000000000E+00  0.00000000000E+00  0.39999999673E+01  0.40000000000E+01  0.51109989000E-03 0. -1.
     -623   -1    0    0    0    0  0.00000000000E+00  0.00000000000E+00  0.12525980253E-10  0.17130000000E+03  0.17130000000E+03 0.  1.
       11    1    1    2    0    0 -0.37886629471E-01  0.14910215761E-01  0.82484989008E-02  0.41545278720E-01  0.51109989000E-03 0. -1.
     -623    1    1    2    0    0  0.61013136462E+00  0.11579477170E+00  0.51760171152E+00  0.17130190770E+03  0.17130000000E+03 0.  1.
      622    1    1    2    0    0 -0.57224473515E+00 -0.13070498746E+00  0.34741497569E+01  0.39565470254E+01  0.18000000000E+01 0. -1.
</event>
<event>
 5   0  0.7764500E-01  0.9118800E+02  0.7818608E-02  0.1180000E+00
       11   -1    0    0    0    0  0.00000000000E+00  0.00000000000E+00  0.39999999673E+01  0.40000000000E+01  0.51109989000E-03 0.  1.
     -623   -1    0    0    0    0  0.00000000000E+00  0.00000000000E+00  0.12525980253E-10  0.17130000000E+03  0.17130000000E+03 0.  1.
       11    1    1    2    0    0  0.53872656101E-01 -0.48027960411E-01  0.62937382252E-01  0.95761805352E-01  0.51109989000E-03 0.  1.
     -623    1    1    2    0    0  0.68072763582E-01  0.16519152531E+00  0.47750276012E+00  0.17130075870E+03  0.17130000000E+03 0.  1.
      622    1    1    2    0    0 -0.12194541968E+00 -0.11716356490E+00  0.34595598250E+01  0.39034794951E+01  0.18000000000E+01 0.  1.
</event>
<event>
 5   0  0.7764500E-01  0.9118800E+02  0.7818608E-02  0.1180000E+00
       11   -1    0    0    0    0  0.00000000000E+00  0.00000000000E+00  0.39999999673E+01  0.40000000000E+01  0.51109989000E-03 0. -1.
     -623   -1    0    0    0    0  0.00000000000E+00  0.00000000000E+00  0.12525980253E-10  0.17130000000E+03  0.17130000000E+03 0. -1.
       11    1    1    2    0    0 -0.96150267017E-02 -0.51095205393E+00  0.43356827655E+00  0.67018367766E+00  0.51109989000E-03 0. -1.
     -623    1    1    2    0    0 -0.23467114543E+00  0.80350952367E+00  0.79578262609E+00  0.17130389362E+03  0.17130000000E+03 0. -1.
      622    1    1    2    0    0  0.24428617213E+00 -0.29255746974E+00  0.27706490647E+01  0.33259227061E+01  0.18000000000E+01 0. -1.
</event>
<event>
 5   0  0.7764500E-01  0.9118800E+02  0.7818608E-02  0.1180000E+00
       11   -1    0    0    0    0  0.00000000000E+00  0.00000000000E+00  0.39999999673E+01  0.40000000000E+01  0.51109989000E-03 0. -1.
     -623   -1    0    0    0    0  0.00000000000E+00  0.00000000000E+00  0.12525980253E-10  0.17130000000E+03  0.17130000000E+03 0.  1.
       11    1    1    2    0    0  0.11903192652E+00 -0.30106540401E+00  0.71559390178E+00  0.78541955063E+00  0.51109989000E-03 0. -1.
     -623    1    1    2    0    0 -0.13267619152E+00  0.44247084591E-01  0.63498089277E+00  0.17130123398E+03  0.17130000000E+03 0.  1.
      622    1    1    2    0    0  0.13644264995E-01  0.25681831942E+00  0.26494251728E+01  0.32133464739E+01  0.18000000000E+01 0. -1.
</event>
<event>
 5   0  0.7764500E-01  0.9118800E+02  0.7818608E-02  0.1180000E+00
       11   -1    0    0    0    0  0.00000000000E+00  0.00000000000E+00  0.39999999673E+01  0.40000000000E+01  0.51109989000E-03 0. -1.
     -623   -1    0    0    0    0  0.00000000000E+00  0.00000000000E+00  0.12525980253E-10  0.17130000000E+03  0.17130000000E+03 0. -1.
       11    1    1    2    0    0  0.12273296342E+00  0.29663377076E-01  0.85767959118E-01  0.15264239347E+00  0.51109989000E-03 0. -1.
     -623    1    1    2    0    0  0.15987005712E-01 -0.66069083230E-01  0.51784186566E+00  0.17130079621E+03  0.17130000000E+03 0. -1.
      622    1    1    2    0    0 -0.13871996913E+00  0.36405706154E-01  0.33963901426E+01  0.38465614003E+01  0.18000000000E+01 0. -1.
</event>
<event>
 5   0  0.7764500E-01  0.9118800E+02  0.7818608E-02  0.1180000E+00
       11   -1    0    0    0    0  0.00000000000E+00  0.00000000000E+00  0.39999999673E+01  0.40000000000E+01  0.51109989000E-03 0. -1.
     -623   -1    0    0    0    0  0.00000000000E+00  0.00000000000E+00  0.12525980253E-10  0.17130000000E+03  0.17130000000E+03 0. -1.
       11    1    1    2    0    0 -0.70706194303E-01 -0.65441838199E-01  0.52743745269E-01  0.10983698825E+00  0.51109989000E-03 0. -1.
     -623    1    1    2    0    0 -0.31043803909E+00 -0.20905730423E+00  0.53212259648E+00  0.17130123535E+03  0.17130000000E+03 0. -1.
      622    1    1    2    0    0  0.38114423339E+00  0.27449914243E+00  0.34151336256E+01  0.38889276654E+01  0.18000000000E+01 0. -1.
</event>
<event>
 5   0  0.7764500E-01  0.9118800E+02  0.7818608E-02  0.1180000E+00
       11   -1    0    0    0    0  0.00000000000E+00  0.00000000000E+00  0.39999999673E+01  0.40000000000E+01  0.51109989000E-03 0.  1.
     -623   -1    0    0    0    0  0.00000000000E+00  0.00000000000E+00  0.12525980253E-10  0.17130000000E+03  0.17130000000E+03 0.  1.
       11    1    1    2    0    0  0.85574730387E-01  0.19977409724E+00  0.19404969496E+00  0.29135591593E+00  0.51109989000E-03 0.  1.
     -623    1    1    2    0    0  0.47725432021E+00 -0.32053629390E+00  0.61733320064E+00  0.17130207709E+03  0.17130000000E+03 0.  1.
      622    1    1    2    0    0 -0.56282905060E+00  0.12076219666E+00  0.31886170718E+01  0.37065669937E+01  0.18000000000E+01 0.  1.
</event>
<event>
 5   0  0.7764500E-01  0.9118800E+02  0.7818608E-02  0.1180000E+00
       11   -1    0    0    0    0  0.00000000000E+00  0.00000000000E+00  0.39999999673E+01  0.40000000000E+01  0.51109989000E-03 0. -1.
     -623   -1    0    0    0    0  0.00000000000E+00  0.00000000000E+00  0.12525980253E-10  0.17130000000E+03  0.17130000000E+03 0. -1.
       11    1    1    2    0    0  0.10047296593E-01 -0.69981546834E-01  0.10601373532E+00  0.12742659991E+00  0.51109989000E-03 0. -1.
     -623    1    1    2    0    0 -0.12235748849E+00  0.23792450023E+00  0.47209341932E+00  0.17130085946E+03  0.17130000000E+03 0. -1.
      622    1    1    2    0    0  0.11231019190E+00 -0.16794295340E+00  0.34218928127E+01  0.38717139404E+01  0.18000000000E+01 0. -1.
</event>
<event>
 5   0  0.7764500E-01  0.9118800E+02  0.7818608E-02  0.1180000E+00
       11   -1    0    0    0    0  0.00000000000E+00  0.00000000000E+00  0.39999999673E+01  0.40000000000E+01  0.51109989000E-03 0.  1.
     -623   -1    0    0    0    0  0.00000000000E+00  0.00000000000E+00  0.12525980253E-10  0.17130000000E+03  0.17130000000E+03 0.  1.
       11    1    1    2    0    0 -0.15433736590E+00  0.58165482893E-01  0.26504844862E+00  0.31217653219E+00  0.51109989000E-03 0.  1.
     -623    1    1    2    0    0  0.19395378299E+00 -0.20178423976E+00  0.52087000646E+00  0.17130102055E+03  0.17130000000E+03 0.  1.
      622    1    1    2    0    0 -0.39616417095E-01  0.14361875687E+00  0.32140815123E+01  0.36868029206E+01  0.18000000000E+01 0.  1.
</event>
<event>
 5   0  0.7764500E-01  0.9118800E+02  0.7818608E-02  0.1180000E+00
       11   -1    0    0    0    0  0.00000000000E+00  0.00000000000E+00  0.39999999673E+01  0.40000000000E+01  0.51109989000E-03 0.  1.
     -623   -1    0    0    0    0  0.00000000000E+00  0.00000000000E+00  0.12525980253E-10  0.17130000000E+03  0.17130000000E+03 0. -1.
       11    1    1    2    0    0  0.13142589325E+00  0.10757842700E+00  0.17119489176E+00  0.24115106378E+00  0.51109989000E-03 0.  1.
     -623    1    1    2    0    0  0.24158822202E+00 -0.32494444459E-02  0.55299506793E+00  0.17130106298E+03  0.17130000000E+03 0. -1.
      622    1    1    2    0    0 -0.37301411527E+00 -0.10432898256E+00  0.32758100077E+01  0.37577859536E+01  0.18000000000E+01 0.  1.
</event>
<event>
 5   0  0.7764500E-01  0.9118800E+02  0.7818608E-02  0.1180000E+00
       11   -1    0    0    0    0  0.00000000000E+00  0.00000000000E+00  0.39999999673E+01  0.40000000000E+01  0.51109989000E-03 0.  1.
     -623   -1    0    0    0    0  0.00000000000E+00  0.00000000000E+00  0.12525980253E-10  0.17130000000E+03  0.17130000000E+03 0. -1.
       11    1    1    2    0    0  0.59586284993E+00 -0.51980957407E-01  0.47829601912E-01  0.60003540554E+00  0.51109989000E-03 0.  1.
     -623    1    1    2    0    0 -0.78747049547E+00  0.43306297639E+00  0.11065553843E+01  0.17130593136E+03  0.17130000000E+03 0. -1.
      622    1    1    2    0    0  0.19160764554E+00 -0.38108201898E+00  0.28456149811E+01  0.33940332373E+01  0.18000000000E+01 0.  1.
</event>
<event>
 5   0  0.7764500E-01  0.9118800E+02  0.7818608E-02  0.1180000E+00
       11   -1    0    0    0    0  0.00000000000E+00  0.00000000000E+00  0.39999999673E+01  0.40000000000E+01  0.51109989000E-03 0. -1.
     -623   -1    0    0    0    0  0.00000000000E+00  0.00000000000E+00  0.12525980253E-10  0.17130000000E+03  0.17130000000E+03 0.  1.
       11    1    1    2    0    0 -0.25394082444E-01  0.63491383489E-01 -0.32395716748E-01  0.75668744454E-01  0.51109989000E-03 0. -1.
     -623    1    1    2    0    0  0.10838287311E+00 -0.52894449016E-01  0.54725824984E+00  0.17130091662E+03  0.17130000000E+03 0.  1.
      622    1    1    2    0    0 -0.82988790667E-01 -0.10596934473E-01  0.34851374343E+01  0.39234146314E+01  0.18000000000E+01 0. -1.
</event>
<event>
 5   0  0.7764500E-01  0.9118800E+02  0.7818608E-02  0.1180000E+00
       11   -1    0    0    0    0  0.00000000000E+00  0.00000000000E+00  0.39999999673E+01  0.40000000000E+01  0.51109989000E-03 0. -1.
     -623   -1    0    0    0    0  0.00000000000E+00  0.00000000000E+00  0.12525980253E-10  0.17130000000E+03  0.17130000000E+03 0.  1.
       11    1    1    2    0    0 -0.16716445786E-01 -0.67887833682E-01  0.35841794360E-01  0.78569033135E-01  0.51109989000E-03 0. -1.
     -623    1    1    2    0    0  0.19441245539E+00  0.36161857180E+00  0.49858184337E+00  0.17130121759E+03  0.17130000000E+03 0.  1.
      622    1    1    2    0    0 -0.17769600960E+00 -0.29373073812E+00  0.34655763296E+01  0.39202133762E+01  0.18000000000E+01 0. -1.
</event>
<event>
 5   0  0.7764500E-01  0.9118800E+02  0.7818608E-02  0.1180000E+00
       11   -1    0    0    0    0  0.00000000000E+00  0.00000000000E+00  0.39999999673E+01  0.40000000000E+01  0.51109989000E-03 0. -1.
     -623   -1    0    0    0    0  0.00000000000E+00  0.00000000000E+00  0.12525980253E-10  0.17130000000E+03  0.17130000000E+03 0. -1.
       11    1    1    2    0    0 -0.23600520685E+00 -0.36113602388E+00  0.10678390317E+00  0.44443306425E+00  0.51109989000E-03 0. -1.
     -623    1    1    2    0    0  0.27775597214E+00 -0.13857381122E+00  0.87115427867E+00  0.17130249636E+03  0.17130000000E+03 0. -1.
      622    1    1    2    0    0 -0.41750765289E-01  0.49970983509E+00  0.30220617855E+01  0.35530705708E+01  0.18000000000E+01 0. -1.
</event>
<event>
 5   0  0.7764500E-01  0.9118800E+02  0.7818608E-02  0.1180000E+00
       11   -1    0    0    0    0  0.00000000000E+00  0.00000000000E+00  0.39999999673E+01  0.40000000000E+01  0.51109989000E-03 0.  1.
     -623   -1    0    0    0    0  0.00000000000E+00  0.00000000000E+00  0.12525980253E-10  0.17130000000E+03  0.17130000000E+03 0.  1.
       11    1    1    2    0    0  0.29963307501E-01 -0.88322175928E-01 -0.22866029320E-01  0.96029803067E-01  0.51109989000E-03 0.  1.
     -623    1    1    2    0    0 -0.21236189337E+00  0.34549412572E-01  0.56504989157E+00  0.17130106705E+03  0.17130000000E+03 0.  1.
      622    1    1    2    0    0  0.18239858587E+00  0.53772763356E-01  0.34578161051E+01  0.39029031465E+01  0.18000000000E+01 0.  1.
</event>
<event>
 5   0  0.7764500E-01  0.9118800E+02  0.7818608E-02  0.1180000E+00
       11   -1    0    0    0    0  0.00000000000E+00  0.00000000000E+00  0.39999999673E+01  0.40000000000E+01  0.51109989000E-03 0. -1.
     -623   -1    0    0    0    0  0.00000000000E+00  0.00000000000E+00  0.12525980253E-10  0.17130000000E+03  0.17130000000E+03 0.  1.
       11    1    1    2    0    0  0.59774905258E+00 -0.64351854703E+00 -0.19820224435E+00  0.90039127112E+00  0.51109989000E-03 0. -1.
     -623    1    1    2    0    0 -0.74819061884E+00  0.32749315104E+00  0.17122288553E+01  0.17131050396E+03  0.17130000000E+03 0.  1.
      622    1    1    2    0    0  0.15044156626E+00  0.31602539599E+00  0.24859733564E+01  0.30891047642E+01  0.18000000000E+01 0. -1.
</event>
<event>
 5   0  0.7764500E-01  0.9118800E+02  0.7818608E-02  0.1180000E+00
       11   -1    0    0    0    0  0.00000000000E+00  0.00000000000E+00  0.39999999673E+01  0.40000000000E+01  0.51109989000E-03 0.  1.
     -623   -1    0    0    0    0  0.00000000000E+00  0.00000000000E+00  0.12525980253E-10  0.17130000000E+03  0.17130000000E+03 0. -1.
       11    1    1    2    0    0 -0.11851048435E-01 -0.44596715771E-01 -0.33031947050E-01  0.56751080641E-01  0.51109989000E-03 0.  1.
     -623    1    1    2    0    0  0.41923458866E-01 -0.41985866684E-01  0.52670266401E+00  0.17130082001E+03  0.17130000000E+03 0. -1.
      622    1    1    2    0    0 -0.30072410432E-01  0.86582582455E-01  0.35063292504E+01  0.39424289094E+01  0.18000000000E+01 0.  1.
</event>
<event>
 5   0  0.7764500E-01  0.9118800E+02  0.7818608E-02  0.1180000E+00
       11   -1    0    0    0    0  0.00000000000E+00  0.00000000000E+00  0.39999999673E+01  0.40000000000E+01  0.51109989000E-03 0.  1.
     -623   -1    0    0    0    0  0.00000000000E+00  0.00000000000E+00  0.12525980253E-10  0.17130000000E+03  0.17130000000E+03 0.  1.
       11    1    1    2    0    0  0.17982138031E+00  0.10947172928E+00 -0.12737542846E+00  0.24605802024E+00  0.51109989000E-03 0.  1.
     -623    1    1    2    0    0  0.31779320256E+00  0.23533119419E+00  0.89245688975E+00  0.17130278122E+03  0.17130000000E+03 0.  1.
      622    1    1    2    0    0 -0.49761458287E+00 -0.34480292346E+00  0.32349185061E+01  0.37511607630E+01  0.18000000000E+01 0.  1.
</event>
<event>
 5   0  0.7764500E-01  0.9118800E+02  0.7818608E-02  0.1180000E+00
       11   -1    0    0    0    0  0.00000000000E+00  0.00000000000E+00  0.39999999673E+01  0.40000000000E+01  0.51109989000E-03 0.  1.
     -623   -1    0    0    0    0  0.00000000000E+00  0.00000000000E+00  0.12525980253E-10  0.17130000000E+03  0.17130000000E+03 0. -1.
       11    1    1    2    0    0  0.68125808064E-01  0.35025759821E-01  0.51122235183E-01  0.92096002769E-01  0.51109989000E-03 0.  1.
     -623    1    1    2    0    0 -0.14317587959E+00  0.12635049018E+00  0.48566728242E+00  0.17130079491E+03  0.17130000000E+03 0. -1.
      622    1    1    2    0    0  0.75050071527E-01 -0.16137625000E+00  0.34632104498E+01  0.39071090881E+01  0.18000000000E+01 0.  1.
</event>
<event>
 5   0  0.7764500E-01  0.9118800E+02  0.7818608E-02  0.1180000E+00
       11   -1    0    0    0    0  0.00000000000E+00  0.00000000000E+00  0.39999999673E+01  0.40000000000E+01  0.51109989000E-03 0.  1.
     -623   -1    0    0    0    0  0.00000000000E+00  0.00000000000E+00  0.12525980253E-10  0.17130000000E+03  0.17130000000E+03 0.  1.
       11    1    1    2    0    0 -0.71315348461E-03  0.24888337596E+00  0.46029002979E+00  0.52326916226E+00  0.51109989000E-03 0.  1.
     -623    1    1    2    0    0 -0.15406074514E+00 -0.13657268981E+00  0.57262813855E+00  0.17130108082E+03  0.17130000000E+03 0.  1.
      622    1    1    2    0    0  0.15477389862E+00 -0.11231068616E+00  0.29670817990E+01  0.34756500186E+01  0.18000000000E+01 0.  1.
</event>
<event>
 5   0  0.7764500E-01  0.9118800E+02  0.7818608E-02  0.1180000E+00
       11   -1    0    0    0    0  0.00000000000E+00  0.00000000000E+00  0.39999999673E+01  0.40000000000E+01  0.51109989000E-03 0. -1.
     -623   -1    0    0    0    0  0.00000000000E+00  0.00000000000E+00  0.12525980253E-10  0.17130000000E+03  0.17130000000E+03 0.  1.
       11    1    1    2    0    0 -0.30670369656E+00  0.15618526797E-01  0.35069347156E+00  0.46615155055E+00  0.51109989000E-03 0. -1.
     -623    1    1    2    0    0  0.46730149318E-01  0.56009543293E+00  0.67725699074E+00  0.17130226084E+03  0.17130000000E+03 0.  1.
      622    1    1    2    0    0  0.25997354724E+00 -0.57571395973E+00  0.29720495051E+01  0.35315876131E+01  0.18000000000E+01 0. -1.
</event>
<event>
 5   0  0.7764500E-01  0.9118800E+02  0.7818608E-02  0.1180000E+00
       11   -1    0    0    0    0  0.00000000000E+00  0.00000000000E+00  0.39999999673E+01  0.40000000000E+01  0.51109989000E-03 0. -1.
     -623   -1    0    0    0    0  0.00000000000E+00  0.00000000000E+00  0.12525980253E-10  0.17130000000E+03  0.17130000000E+03 0. -1.
       11    1    1    2    0    0 -0.15330068986E+00 -0.12560387966E-02  0.30399419577E+00  0.34046352438E+00  0.51109989000E-03 0. -1.
     -623    1    1    2    0    0 -0.10392921431E+00  0.29961369939E+00  0.53550752281E+00  0.17130113058E+03  0.17130000000E+03 0. -1.
      622    1    1    2    0    0  0.25722990417E+00 -0.29835766059E+00  0.31604982488E+01  0.36584058957E+01  0.18000000000E+01 0. -1.
</event>
<event>
 5   0  0.7764500E-01  0.9118800E+02  0.7818608E-02  0.1180000E+00
       11   -1    0    0    0    0  0.00000000000E+00  0.00000000000E+00  0.39999999673E+01  0.40000000000E+01  0.51109989000E-03 0. -1.
     -623   -1    0    0    0    0  0.00000000000E+00  0.00000000000E+00  0.12525980253E-10  0.17130000000E+03  0.17130000000E+03 0. -1.
       11    1    1    2    0    0 -0.60469739880E-01  0.91589466956E-01 -0.71706747488E-02  0.10998590681E+00  0.51109989000E-03 0. -1.
     -623    1    1    2    0    0  0.10442403029E+00 -0.50138841388E-01  0.56026951182E+00  0.17130095540E+03  0.17130000000E+03 0. -1.
      622    1    1    2    0    0 -0.43954290407E-01 -0.41450625567E-01  0.34469011303E+01  0.38890586954E+01  0.18000000000E+01 0. -1.
</event>
<event>
 5   0  0.7764500E-01  0.9118800E+02  0.7818608E-02  0.1180000E+00
       11   -1    0    0    0    0  0.00000000000E+00  0.00000000000E+00  0.39999999673E+01  0.40000000000E+01  0.51109989000E-03 0. -1.
     -623   -1    0    0    0    0  0.00000000000E+00  0.00000000000E+00  0.12525980253E-10  0.17130000000E+03  0.17130000000E+03 0. -1.
       11    1    1    2    0    0 -0.16135842214E+00  0.25020090612E-01  0.61026040146E-01  0.17431862817E+00  0.51109989000E-03 0. -1.
     -623    1    1    2    0    0  0.17847875112E+00 -0.13089480906E+00  0.56612873567E+00  0.17130107848E+03  0.17130000000E+03 0. -1.
      622    1    1    2    0    0 -0.17120328980E-01  0.10587471845E+00  0.33728451915E+01  0.38246028876E+01  0.18000000000E+01 0. -1.
</event>
<event>
 5   0  0.7764500E-01  0.9118800E+02  0.7818608E-02  0.1180000E+00
       11   -1    0    0    0    0  0.00000000000E+00  0.00000000000E+00  0.39999999673E+01  0.40000000000E+01  0.51109989000E-03 0. -1.
     -623   -1    0    0    0    0  0.00000000000E+00  0.00000000000E+00  0.12525980253E-10  0.17130000000E+03  0.17130000000E+03 0.  1.
       11    1    1    2    0    0  0.21134223968E-01 -0.20058880628E-01 -0.78112230603E-01  0.83371433403E-01  0.51109989000E-03 0. -1.
     -623    1    1    2    0    0  0.16645678355E-01  0.49286927945E+00  0.63424110642E+00  0.17130188399E+03  0.17130000000E+03 0.  1.
      622    1    1    2    0    0 -0.37779902324E-01 -0.47281039882E+00  0.34438710915E+01  0.39147445752E+01  0.18000000000E+01 0. -1.
</event>
<event>
 5   0  0.7764500E-01  0.9118800E+02  0.7818608E-02  0.1180000E+00
       11   -1    0    0    0    0  0.00000000000E+00  0.00000000000E+00  0.39999999673E+01  0.40000000000E+01  0.51109989000E-03 0. -1.
     -623   -1    0    0    0    0  0.00000000000E+00  0.00000000000E+00  0.12525980253E-10  0.17130000000E+03  0.17130000000E+03 0. -1.
       11    1    1    2    0    0  0.93108037878E-01 -0.11302502115E+00  0.22225995815E-01  0.14811488189E+00  0.51109989000E-03 0. -1.
     -623    1    1    2    0    0  0.32655637906E+00  0.93897757721E-01  0.59992737597E+00  0.17130138753E+03  0.17130000000E+03 0. -1.
      622    1    1    2    0    0 -0.41966441694E+00  0.19127263428E-01  0.33778465956E+01  0.38504975910E+01  0.18000000000E+01 0. -1.
</event>
<event>
 5   0  0.7764500E-01  0.9118800E+02  0.7818608E-02  0.1180000E+00
       11   -1    0    0    0    0  0.00000000000E+00  0.00000000000E+00  0.39999999673E+01  0.40000000000E+01  0.51109989000E-03 0.  1.
     -623   -1    0    0    0    0  0.00000000000E+00  0.00000000000E+00  0.12525980253E-10  0.17130000000E+03  0.17130000000E+03 0.  1.
       11    1    1    2    0    0 -0.39046768078E+00 -0.99341530138E-01  0.16843489421E+00  0.43669706222E+00  0.51109989000E-03 0.  1.
     -623    1    1    2    0    0  0.31053294486E+00  0.14683036164E+00  0.76008084047E+00  0.17130203067E+03  0.17130000000E+03 0.  1.
      622    1    1    2    0    0  0.79934735925E-01 -0.47488831503E-01  0.30714842327E+01  0.35612722646E+01  0.18000000000E+01 0.  1.
</event>
<event>
 5   0  0.7764500E-01  0.9118800E+02  0.7818608E-02  0.1180000E+00
       11   -1    0    0    0    0  0.00000000000E+00  0.00000000000E+00  0.39999999673E+01  0.40000000000E+01  0.51109989000E-03 0.  1.
     -623   -1    0    0    0    0  0.00000000000E+00  0.00000000000E+00  0.12525980253E-10  0.17130000000E+03  0.17130000000E+03 0. -1.
       11    1    1    2    0    0 -0.23975221790E-01 -0.19264676366E-01  0.11735927289E+00  0.12132353098E+00  0.51109989000E-03 0.  1.
     -623    1    1    2    0    0 -0.12422755391E+00 -0.86847999257E+00  0.57064947882E+00  0.17130319708E+03  0.17130000000E+03 0. -1.
      622    1    1    2    0    0  0.14820277570E+00  0.88774466893E+00  0.33119912157E+01  0.38754793862E+01  0.18000000000E+01 0.  0.
</event>
<event>
 5   0  0.7764500E-01  0.9118800E+02  0.7818608E-02  0.1180000E+00
       11   -1    0    0    0    0  0.00000000000E+00  0.00000000000E+00  0.39999999673E+01  0.40000000000E+01  0.51109989000E-03 0.  1.
     -623   -1    0    0    0    0  0.00000000000E+00  0.00000000000E+00  0.12525980253E-10  0.17130000000E+03  0.17130000000E+03 0. -1.
       11    1    1    2    0    0 -0.65978636322E-01 -0.55052111030E-01  0.32522650148E+00  0.33638735687E+00  0.51109989000E-03 0.  1.
     -623    1    1    2    0    0  0.11729401998E+00 -0.23949545136E+00  0.49895521965E+00  0.17130093424E+03  0.17130000000E+03 0. -1.
      622    1    1    2    0    0 -0.51315383653E-01  0.29454756239E+00  0.31758182462E+01  0.36626784009E+01  0.18000000000E+01 0.  1.
</event>
<event>
 5   0  0.7764500E-01  0.9118800E+02  0.7818608E-02  0.1180000E+00
       11   -1    0    0    0    0  0.00000000000E+00  0.00000000000E+00  0.39999999673E+01  0.40000000000E+01  0.51109989000E-03 0.  1.
     -623   -1    0    0    0    0  0.00000000000E+00  0.00000000000E+00  0.12525980253E-10  0.17130000000E+03  0.17130000000E+03 0. -1.
       11    1    1    2    0    0 -0.22112000700E-02 -0.69951301857E-02 -0.50402736250E-01  0.50936414250E-01  0.51109989000E-03 0.  1.
     -623    1    1    2    0    0  0.50085945942E-01 -0.26379175820E-01  0.53686036309E+00  0.17130085062E+03  0.17130000000E+03 0. -1.
      622    1    1    2    0    0 -0.47874745872E-01  0.33374306005E-01  0.35135423405E+01  0.39482129647E+01  0.18000000000E+01 0.  1.
</event>
<event>
 5   0  0.7764500E-01  0.9118800E+02  0.7818608E-02  0.1180000E+00
       11   -1    0    0    0    0  0.00000000000E+00  0.00000000000E+00  0.39999999673E+01  0.40000000000E+01  0.51109989000E-03 0. -1.
     -623   -1    0    0    0    0  0.00000000000E+00  0.00000000000E+00  0.12525980253E-10  0.17130000000E+03  0.17130000000E+03 0. -1.
       11    1    1    2    0    0  0.15817875249E+00 -0.16414977514E+00 -0.12736497258E+00  0.26112786883E+00  0.51109989000E-03 0. -1.
     -623    1    1    2    0    0 -0.39610222171E-01  0.53785703457E-01  0.85676686766E+00  0.17130215559E+03  0.17130000000E+03 0. -1.
      622    1    1    2    0    0 -0.11856853032E+00  0.11036407168E+00  0.32705980723E+01  0.37367165366E+01  0.18000000000E+01 0. -1.
</event>
<event>
 5   0  0.7764500E-01  0.9118800E+02  0.7818608E-02  0.1180000E+00
       11   -1    0    0    0    0  0.00000000000E+00  0.00000000000E+00  0.39999999673E+01  0.40000000000E+01  0.51109989000E-03 0.  1.
     -623   -1    0    0    0    0  0.00000000000E+00  0.00000000000E+00  0.12525980253E-10  0.17130000000E+03  0.17130000000E+03 0.  1.
       11    1    1    2    0    0 -0.16607686153E-01  0.41737593146E-02 -0.13855873195E-01  0.22033654943E-01  0.51109989000E-03 0.  1.
     -623    1    1    2    0    0 -0.12603456452E+00 -0.15395387283E+00  0.47333131692E+00  0.17130076949E+03  0.17130000000E+03 0.  1.
      622    1    1    2    0    0  0.14264225067E+00  0.14978011351E+00  0.35405245236E+01  0.39771968516E+01  0.18000000000E+01 0.  1.
</event>
<event>
 5   0  0.7764500E-01  0.9118800E+02  0.7818608E-02  0.1180000E+00
       11   -1    0    0    0    0  0.00000000000E+00  0.00000000000E+00  0.39999999673E+01  0.40000000000E+01  0.51109989000E-03 0.  1.
     -623   -1    0    0    0    0  0.00000000000E+00  0.00000000000E+00  0.12525980253E-10  0.17130000000E+03  0.17130000000E+03 0.  1.
       11    1    1    2    0    0  0.13894206457E+00  0.34437402745E+00  0.42041619945E+00  0.56093529936E+00  0.51109989000E-03 0.  1.
     -623    1    1    2    0    0 -0.47858851454E+00 -0.14505742831E+00  0.67823449397E+00  0.17130207264E+03  0.17130000000E+03 0.  1.
      622    1    1    2    0    0  0.33964644997E+00 -0.19931659913E+00  0.29013492739E+01  0.34369920610E+01  0.18000000000E+01 0.  1.
</event>
<event>
 5   0  0.7764500E-01  0.9118800E+02  0.7818608E-02  0.1180000E+00
       11   -1    0    0    0    0  0.00000000000E+00  0.00000000000E+00  0.39999999673E+01  0.40000000000E+01  0.51109989000E-03 0. -1.
     -623   -1    0    0    0    0  0.00000000000E+00  0.00000000000E+00  0.12525980253E-10  0.17130000000E+03  0.17130000000E+03 0.  1.
       11    1    1    2    0    0 -0.48192522309E-01  0.94639670667E-01  0.11629159905E+00  0.15749026542E+00  0.51109989000E-03 0. -1.
     -623    1    1    2    0    0  0.61164716771E-01  0.10667731306E+00  0.49573951468E+00  0.17130076147E+03  0.17130000000E+03 0.  1.
      622    1    1    2    0    0 -0.12972194462E-01 -0.20131698373E+00  0.33879688536E+01  0.38417482686E+01  0.18000000000E+01 0. -1.
</event>
<event>
 5   0  0.7764500E-01  0.9118800E+02  0.7818608E-02  0.1180000E+00
       11   -1    0    0    0    0  0.00000000000E+00  0.00000000000E+00  0.39999999673E+01  0.40000000000E+01  0.51109989000E-03 0.  1.
     -623   -1    0    0    0    0  0.00000000000E+00  0.00000000000E+00  0.12525980253E-10  0.17130000000E+03  0.17130000000E+03 0.  1.
       11    1    1    2    0    0 -0.59174633232E-03  0.12193975743E+00  0.29201150324E-01  0.12538988399E+00  0.51109989000E-03 0.  1.
     -623    1    1    2    0    0  0.31612103928E+00 -0.49743326173E+00  0.57717815625E+00  0.17130198629E+03  0.17130000000E+03 0.  1.
      622    1    1    2    0    0 -0.31552929295E+00  0.37549350430E+00  0.33936206608E+01  0.38726238258E+01  0.18000000000E+01 0.  1.
</event>
<event>
 5   0  0.7764500E-01  0.9118800E+02  0.7818608E-02  0.1180000E+00
       11   -1    0    0    0    0  0.00000000000E+00  0.00000000000E+00  0.39999999673E+01  0.40000000000E+01  0.51109989000E-03 0.  1.
     -623   -1    0    0    0    0  0.00000000000E+00  0.00000000000E+00  0.12525980253E-10  0.17130000000E+03  0.17130000000E+03 0.  1.
       11    1    1    2    0    0  0.42757901961E-01  0.33236547552E-01  0.15677361050E-01  0.56382152725E-01  0.51109989000E-03 0.  1.
     -623    1    1    2    0    0 -0.19393945883E+00  0.67601601309E-01  0.48106708331E+00  0.17130079862E+03  0.17130000000E+03 0.  1.
      622    1    1    2    0    0  0.15118155687E+00 -0.10083814886E+00  0.35032555230E+01  0.39428192268E+01  0.18000000000E+01 0.  1.
</event>
<event>
 5   0  0.7764500E-01  0.9118800E+02  0.7818608E-02  0.1180000E+00
       11   -1    0    0    0    0  0.00000000000E+00  0.00000000000E+00  0.39999999673E+01  0.40000000000E+01  0.51109989000E-03 0.  1.
     -623   -1    0    0    0    0  0.00000000000E+00  0.00000000000E+00  0.12525980253E-10  0.17130000000E+03  0.17130000000E+03 0.  1.
       11    1    1    2    0    0 -0.61535532498E-01  0.12615300313E+00  0.11506685071E+00  0.18149887964E+00  0.51109989000E-03 0.  1.
     -623    1    1    2    0    0  0.33565986360E-01  0.12772160533E-01  0.52118742506E+00  0.17130079663E+03  0.17130000000E+03 0.  1.
      622    1    1    2    0    0  0.27969546138E-01 -0.13892516367E+00  0.33637456916E+01  0.38177044902E+01  0.18000000000E+01 0.  1.
</event>
<event>
 5   0  0.7764500E-01  0.9118800E+02  0.7818608E-02  0.1180000E+00
       11   -1    0    0    0    0  0.00000000000E+00  0.00000000000E+00  0.39999999673E+01  0.40000000000E+01  0.51109989000E-03 0. -1.
     -623   -1    0    0    0    0  0.00000000000E+00  0.00000000000E+00  0.12525980253E-10  0.17130000000E+03  0.17130000000E+03 0. -1.
       11    1    1    2    0    0  0.12650605583E+00 -0.26127995847E-01  0.29822152653E+00  0.32499660681E+00  0.51109989000E-03 0. -1.
     -623    1    1    2    0    0 -0.26873643989E+00  0.15564109813E+00  0.50473082593E+00  0.17130102509E+03  0.17130000000E+03 0. -1.
      622    1    1    2    0    0  0.14223038406E+00 -0.12951310229E+00  0.31970476149E+01  0.36739783039E+01  0.18000000000E+01 0. -1.
</event>
<event>
 5   0  0.7764500E-01  0.9118800E+02  0.7818608E-02  0.1180000E+00
       11   -1    0    0    0    0  0.00000000000E+00  0.00000000000E+00  0.39999999673E+01  0.40000000000E+01  0.51109989000E-03 0. -1.
     -623   -1    0    0    0    0  0.00000000000E+00  0.00000000000E+00  0.12525980253E-10  0.17130000000E+03  0.17130000000E+03 0.  1.
       11    1    1    2    0    0  0.24081389369E+00 -0.54736677349E-01  0.47474835236E+00  0.53513894881E+00  0.51109989000E-03 0. -1.
     -623    1    1    2    0    0 -0.24554387671E+00  0.11587276862E+00  0.56661705789E+00  0.17130115228E+03  0.17130000000E+03 0.  1.
      622    1    1    2    0    0  0.47299830223E-02 -0.61136091270E-01  0.29586345571E+01  0.34637087691E+01  0.18000000000E+01 0. -1.
</event>
<event>
 5   0  0.7764500E-01  0.9118800E+02  0.7818608E-02  0.1180000E+00
       11   -1    0    0    0    0  0.00000000000E+00  0.00000000000E+00  0.39999999673E+01  0.40000000000E+01  0.51109989000E-03 0. -1.
     -623   -1    0    0    0    0  0.00000000000E+00  0.00000000000E+00  0.12525980253E-10  0.17130000000E+03  0.17130000000E+03 0. -1.
       11    1    1    2    0    0 -0.21019596014E-01 -0.22036057331E+00  0.22273185980E+00  0.31402284675E+00  0.51109989000E-03 0. -1.
     -623    1    1    2    0    0  0.10991900056E+00  0.25489599007E+00  0.56341612235E+00  0.17130115146E+03  0.17130000000E+03 0. -1.
      622    1    1    2    0    0 -0.88899404548E-01 -0.34535416757E-01  0.32138519852E+01  0.36848256922E+01  0.18000000000E+01 0. -1.
</event>
<event>
 5   0  0.7764500E-01  0.9118800E+02  0.7818608E-02  0.1180000E+00
       11   -1    0    0    0    0  0.00000000000E+00  0.00000000000E+00  0.39999999673E+01  0.40000000000E+01  0.51109989000E-03 0.  1.
     -623   -1    0    0    0    0  0.00000000000E+00  0.00000000000E+00  0.12525980253E-10  0.17130000000E+03  0.17130000000E+03 0.  1.
       11    1    1    2    0    0 -0.16973109218E+00  0.33226859121E-01  0.32181360860E+00  0.36534494347E+00  0.51109989000E-03 0.  1.
     -623    1    1    2    0    0  0.14481652517E+00  0.38522364042E+00  0.55009053248E+00  0.17130137760E+03  0.17130000000E+03 0.  1.
      622    1    1    2    0    0  0.24914567007E-01 -0.41845049954E+00  0.31280958263E+01  0.36332774536E+01  0.18000000000E+01 0.  0.
</event>
<event>
 5   0  0.7764500E-01  0.9118800E+02  0.7818608E-02  0.1180000E+00
       11   -1    0    0    0    0  0.00000000000E+00  0.00000000000E+00  0.39999999673E+01  0.40000000000E+01  0.51109989000E-03 0. -1.
     -623   -1    0    0    0    0  0.00000000000E+00  0.00000000000E+00  0.12525980253E-10  0.17130000000E+03  0.17130000000E+03 0. -1.
       11    1    1    2    0    0  0.33955981466E+00 -0.18957407305E+00  0.37328952049E+00  0.53905892465E+00  0.51109989000E-03 0. -1.
     -623    1    1    2    0    0 -0.20506147269E+00  0.27131917842E+00  0.67683732672E+00  0.17130167475E+03  0.17130000000E+03 0. -1.
      622    1    1    2    0    0 -0.13449834198E+00 -0.81745105370E-01  0.29498731201E+01  0.34592663227E+01  0.18000000000E+01 0. -1.
</event>
<event>
 5   0  0.7764500E-01  0.9118800E+02  0.7818608E-02  0.1180000E+00
       11   -1    0    0    0    0  0.00000000000E+00  0.00000000000E+00  0.39999999673E+01  0.40000000000E+01  0.51109989000E-03 0. -1.
     -623   -1    0    0    0    0  0.00000000000E+00  0.00000000000E+00  0.12525980253E-10  0.17130000000E+03  0.17130000000E+03 0.  1.
       11    1    1    2    0    0 -0.15260195021E+00  0.61639315364E-01  0.25581669035E-01  0.16655762792E+00  0.51109989000E-03 0. -1.
     -623    1    1    2    0    0  0.94805317391E-01  0.21492610364E+00  0.60305661092E+00  0.17130122258E+03  0.17130000000E+03 0.  1.
      622    1    1    2    0    0  0.57796632816E-01 -0.27656541900E+00  0.33713616874E+01  0.38322197887E+01  0.18000000000E+01 0. -1.
</event>
<event>
 5   0  0.7764500E-01  0.9118800E+02  0.7818608E-02  0.1180000E+00
       11   -1    0    0    0    0  0.00000000000E+00  0.00000000000E+00  0.39999999673E+01  0.40000000000E+01  0.51109989000E-03 0.  1.
     -623   -1    0    0    0    0  0.00000000000E+00  0.00000000000E+00  0.12525980253E-10  0.17130000000E+03  0.17130000000E+03 0. -1.
       11    1    1    2    0    0  0.31534686651E-01 -0.91245234720E-01  0.38665639603E-01  0.10399722222E+00  0.51109989000E-03 0.  1.
     -623    1    1    2    0    0  0.11702925441E+00  0.40676308069E+00  0.52522198105E+00  0.17130132810E+03  0.17130000000E+03 0. -1.
      622    1    1    2    0    0 -0.14856394106E+00 -0.31551784597E+00  0.34361123467E+01  0.38946746738E+01  0.18000000000E+01 0.  1.
</event>
<event>
 5   0  0.7764500E-01  0.9118800E+02  0.7818608E-02  0.1180000E+00
       11   -1    0    0    0    0  0.00000000000E+00  0.00000000000E+00  0.39999999673E+01  0.40000000000E+01  0.51109989000E-03 0. -1.
     -623   -1    0    0    0    0  0.00000000000E+00  0.00000000000E+00  0.12525980253E-10  0.17130000000E+03  0.17130000000E+03 0. -1.
       11    1    1    2    0    0 -0.24587574645E+00 -0.58460101557E+00  0.29054050718E+00  0.69758675277E+00  0.51109989000E-03 0. -1.
     -623    1    1    2    0    0  0.44428015529E+00  0.46420861787E+00  0.95509122378E+00  0.17130386766E+03  0.17130000000E+03 0. -1.
      622    1    1    2    0    0 -0.19840440884E+00  0.12039239770E+00  0.27543682364E+01  0.32985455917E+01  0.18000000000E+01 0. -1.
</event>
<event>
 5   0  0.7764500E-01  0.9118800E+02  0.7818608E-02  0.1180000E+00
       11   -1    0    0    0    0  0.00000000000E+00  0.00000000000E+00  0.39999999673E+01  0.40000000000E+01  0.51109989000E-03 0. -1.
     -623   -1    0    0    0    0  0.00000000000E+00  0.00000000000E+00  0.12525980253E-10  0.17130000000E+03  0.17130000000E+03 0. -1.
       11    1    1    2    0    0 -0.88547590400E-02  0.30084153591E-01 -0.78030740118E-01  0.84098279888E-01  0.51109989000E-03 0. -1.
     -623    1    1    2    0    0  0.13464185555E+00  0.94964850084E-01  0.60617130764E+00  0.17130115175E+03  0.17130000000E+03 0. -1.
      622    1    1    2    0    0 -0.12578709651E+00 -0.12504900368E+00  0.34718593998E+01  0.39147499715E+01  0.18000000000E+01 0. -1.
</event>
<event>
 5   0  0.7764500E-01  0.9118800E+02  0.7818608E-02  0.1180000E+00
       11   -1    0    0    0    0  0.00000000000E+00  0.00000000000E+00  0.39999999673E+01  0.40000000000E+01  0.51109989000E-03 0.  1.
     -623   -1    0    0    0    0  0.00000000000E+00  0.00000000000E+00  0.12525980253E-10  0.17130000000E+03  0.17130000000E+03 0. -1.
       11    1    1    2    0    0  0.96767101105E-01  0.33590035903E-01  0.57674228681E-01  0.11755313796E+00  0.51109989000E-03 0.  1.
     -623    1    1    2    0    0  0.30934880616E-01  0.83323209284E-01  0.50759151496E+00  0.17130077510E+03  0.17130000000E+03 0. -1.
      622    1    1    2    0    0 -0.12770198172E+00 -0.11691324519E+00  0.34347342237E+01  0.38816717649E+01  0.18000000000E+01 0.  1.
</event>
<event>
 5   0  0.7764500E-01  0.9118800E+02  0.7818608E-02  0.1180000E+00
       11   -1    0    0    0    0  0.00000000000E+00  0.00000000000E+00  0.39999999673E+01  0.40000000000E+01  0.51109989000E-03 0.  1.
     -623   -1    0    0    0    0  0.00000000000E+00  0.00000000000E+00  0.12525980253E-10  0.17130000000E+03  0.17130000000E+03 0. -1.
       11    1    1    2    0    0 -0.33346681827E+00 -0.11971309345E+00  0.57102170570E+00  0.67200996513E+00  0.51109989000E-03 0.  1.
     -623    1    1    2    0    0  0.28796954585E+00  0.41757209075E-01  0.63291941120E+00  0.17130141639E+03  0.17130000000E+03 0. -1.
      622    1    1    2    0    0  0.45497272425E-01  0.77955884374E-01  0.27960588505E+01  0.33265736452E+01  0.18000000000E+01 0.  1.
</event>
<event>
 5   0  0.7764500E-01  0.9118800E+02  0.7818608E-02  0.1180000E+00
       11   -1    0    0    0    0  0.00000000000E+00  0.00000000000E+00  0.39999999673E+01  0.40000000000E+01  0.51109989000E-03 0.  1.
     -623   -1    0    0    0    0  0.00000000000E+00  0.00000000000E+00  0.12525980253E-10  0.17130000000E+03  0.17130000000E+03 0. -1.
       11    1    1    2    0    0 -0.36196826351E-01 -0.13312335528E+00  0.17123662592E+00  0.21989606918E+00  0.51109989000E-03 0.  1.
     -623    1    1    2    0    0 -0.14841562783E+00  0.20578912181E+00  0.51174283857E+00  0.17130095229E+03  0.17130000000E+03 0. -1.
      622    1    1    2    0    0  0.18461245418E+00 -0.72665766527E-01  0.33170205029E+01  0.37791516361E+01  0.18000000000E+01 0.  1.
</event>
<event>
 5   0  0.7764500E-01  0.9118800E+02  0.7818608E-02  0.1180000E+00
       11   -1    0    0    0    0  0.00000000000E+00  0.00000000000E+00  0.39999999673E+01  0.40000000000E+01  0.51109989000E-03 0.  1.
     -623   -1    0    0    0    0  0.00000000000E+00  0.00000000000E+00  0.12525980253E-10  0.17130000000E+03  0.17130000000E+03 0.  1.
       11    1    1    2    0    0 -0.13736276473E+00  0.65925732490E-01  0.16486516873E+00  0.22448945727E+00  0.51109989000E-03 0.  1.
     -623    1    1    2    0    0  0.14897499798E+00 -0.21789675714E+00  0.52096319458E+00  0.17130099555E+03  0.17130000000E+03 0.  1.
      622    1    1    2    0    0 -0.11612233244E-01  0.15197102465E+00  0.33141716040E+01  0.37745149963E+01  0.18000000000E+01 0.  1.
</event>
<event>
 5   0  0.7764500E-01  0.9118800E+02  0.7818608E-02  0.1180000E+00
       11   -1    0    0    0    0  0.00000000000E+00  0.00000000000E+00  0.39999999673E+01  0.40000000000E+01  0.51109989000E-03 0.  1.
     -623   -1    0    0    0    0  0.00000000000E+00  0.00000000000E+00  0.12525980253E-10  0.17130000000E+03  0.17130000000E+03 0. -1.
       11    1    1    2    0    0 -0.35538718755E-01  0.21405954759E-01 -0.15181144441E-01  0.44180808045E-01  0.51109989000E-03 0.  1.
     -623    1    1    2    0    0  0.15860663301E+00 -0.52334398009E+00  0.53265859568E+00  0.17130170101E+03  0.17130000000E+03 0. -1.
      622    1    1    2    0    0 -0.12306791425E+00  0.50193802534E+00  0.34825225161E+01  0.39541181783E+01  0.18000000000E+01 0.  1.
</event>
<event>
 5   0  0.7764500E-01  0.9118800E+02  0.7818608E-02  0.1180000E+00
       11   -1    0    0    0    0  0.00000000000E+00  0.00000000000E+00  0.39999999673E+01  0.40000000000E+01  0.51109989000E-03 0.  1.
     -623   -1    0    0    0    0  0.00000000000E+00  0.00000000000E+00  0.12525980253E-10  0.17130000000E+03  0.17130000000E+03 0. -1.
       11    1    1    2    0    0  0.58440843245E+00  0.42942713370E+00  0.31873788498E+00  0.79217105453E+00  0.51109989000E-03 0.  1.
     -623    1    1    2    0    0 -0.11378954121E+01  0.20007088151E+00  0.11718995847E+01  0.17130790461E+03  0.17130000000E+03 0. -1.
      622    1    1    2    0    0  0.55348697961E+00 -0.62949801521E+00  0.25093624976E+01  0.31999243323E+01  0.18000000000E+01 0.  1.
</event>
<event>
 5   0  0.7764500E-01  0.9118800E+02  0.7818608E-02  0.1180000E+00
       11   -1    0    0    0    0  0.00000000000E+00  0.00000000000E+00  0.39999999673E+01  0.40000000000E+01  0.51109989000E-03 0.  1.
     -623   -1    0    0    0    0  0.00000000000E+00  0.00000000000E+00  0.12525980253E-10  0.17130000000E+03  0.17130000000E+03 0.  1.
       11    1    1    2    0    0 -0.73340339529E-01  0.42921604709E+00  0.26645706813E+00  0.51049471189E+00  0.51109989000E-03 0.  1.
     -623    1    1    2    0    0  0.11334016272E+00 -0.24212366680E+00  0.75242591512E+00  0.17130186110E+03  0.17130000000E+03 0.  1.
      622    1    1    2    0    0 -0.39999823190E-01 -0.18709238029E+00  0.29811169841E+01  0.34876441931E+01  0.18000000000E+01 0.  1.
</event>
<event>
 5   0  0.7764500E-01  0.9118800E+02  0.7818608E-02  0.1180000E+00
       11   -1    0    0    0    0  0.00000000000E+00  0.00000000000E+00  0.39999999673E+01  0.40000000000E+01  0.51109989000E-03 0.  1.
     -623   -1    0    0    0    0  0.00000000000E+00  0.00000000000E+00  0.12525980253E-10  0.17130000000E+03  0.17130000000E+03 0.  1.
       11    1    1    2    0    0  0.12727508626E+00  0.14509981666E+00 -0.16097480432E+00  0.25132857622E+00  0.51109989000E-03 0.  1.
     -623    1    1    2    0    0 -0.13497287526E+00 -0.19610256942E+00  0.87587900071E+00  0.17130240465E+03  0.17130000000E+03 0.  1.
      622    1    1    2    0    0  0.76977889974E-02  0.51002752758E-01  0.32850957710E+01  0.37462667766E+01  0.18000000000E+01 0.  1.
</event>
<event>
 5   0  0.7764500E-01  0.9118800E+02  0.7818608E-02  0.1180000E+00
       11   -1    0    0    0    0  0.00000000000E+00  0.00000000000E+00  0.39999999673E+01  0.40000000000E+01  0.51109989000E-03 0. -1.
     -623   -1    0    0    0    0  0.00000000000E+00  0.00000000000E+00  0.12525980253E-10  0.17130000000E+03  0.17130000000E+03 0. -1.
       11    1    1    2    0    0  0.22131230573E-01 -0.89303973284E-01  0.73163582175E-01  0.11755067838E+00  0.51109989000E-03 0. -1.
     -623    1    1    2    0    0  0.74852339216E-01  0.34289044004E+00  0.49882373184E+00  0.17130108582E+03  0.17130000000E+03 0. -1.
      622    1    1    2    0    0 -0.96983569789E-01 -0.25358646676E+00  0.34280126533E+01  0.38813635053E+01  0.18000000000E+01 0. -1.
</event>
<event>
 5   0  0.7764500E-01  0.9118800E+02  0.7818608E-02  0.1180000E+00
       11   -1    0    0    0    0  0.00000000000E+00  0.00000000000E+00  0.39999999673E+01  0.40000000000E+01  0.51109989000E-03 0.  1.
     -623   -1    0    0    0    0  0.00000000000E+00  0.00000000000E+00  0.12525980253E-10  0.17130000000E+03  0.17130000000E+03 0. -1.
       11    1    1    2    0    0  0.82995005631E-01  0.17661707329E+00  0.58227693638E+00  0.61410785160E+00  0.51109989000E-03 0.  1.
     -623    1    1    2    0    0  0.10924456347E+00 -0.20863331265E-01  0.56175220250E+00  0.17130095719E+03  0.17130000000E+03 0. -1.
      622    1    1    2    0    0 -0.19223956910E+00 -0.15575374202E+00  0.28559708285E+01  0.33849349555E+01  0.18000000000E+01 0.  1.
</event>
<event>
 5   0  0.7764500E-01  0.9118800E+02  0.7818608E-02  0.1180000E+00
       11   -1    0    0    0    0  0.00000000000E+00  0.00000000000E+00  0.39999999673E+01  0.40000000000E+01  0.51109989000E-03 0. -1.
     -623   -1    0    0    0    0  0.00000000000E+00  0.00000000000E+00  0.12525980253E-10  0.17130000000E+03  0.17130000000E+03 0.  1.
       11    1    1    2    0    0  0.85063107793E-02 -0.10686606481E+00 -0.11777821905E+00  0.15926293741E+00  0.51109989000E-03 0. -1.
     -623    1    1    2    0    0  0.27015230433E+00  0.52282297376E-01  0.73891817477E+00  0.17130181469E+03  0.17130000000E+03 0.  1.
      622    1    1    2    0    0 -0.27865861511E+00  0.54583767430E-01  0.33788600116E+01  0.38389223735E+01  0.18000000000E+01 0. -1.
</event>
<event>
 5   0  0.7764500E-01  0.9118800E+02  0.7818608E-02  0.1180000E+00
       11   -1    0    0    0    0  0.00000000000E+00  0.00000000000E+00  0.39999999673E+01  0.40000000000E+01  0.51109989000E-03 0. -1.
     -623   -1    0    0    0    0  0.00000000000E+00  0.00000000000E+00  0.12525980253E-10  0.17130000000E+03  0.17130000000E+03 0. -1.
       11    1    1    2    0    0 -0.10226385234E+00 -0.86039202199E-01  0.10222457704E+00  0.16825803156E+00  0.51109989000E-03 0. -1.
     -623    1    1    2    0    0  0.37810138519E+00  0.14201404424E+00  0.52833391886E+00  0.17130129090E+03  0.17130000000E+03 0. -1.
      622    1    1    2    0    0 -0.27583753285E+00 -0.55974842040E-01  0.33694414715E+01  0.38304510644E+01  0.18000000000E+01 0. -1.
</event>
<event>
 5   0  0.7764500E-01  0.9118800E+02  0.7818608E-02  0.1180000E+00
       11   -1    0    0    0    0  0.00000000000E+00  0.00000000000E+00  0.39999999673E+01  0.40000000000E+01  0.51109989000E-03 0.  1.
     -623   -1    0    0    0    0  0.00000000000E+00  0.00000000000E+00  0.12525980253E-10  0.17130000000E+03  0.17130000000E+03 0. -1.
       11    1    1    2    0    0 -0.50086450980E-01 -0.31217525447E-01  0.94528950585E-01  0.11144133070E+00  0.51109989000E-03 0.  1.
     -623    1    1    2    0    0  0.19816994141E+00  0.18289025886E+00  0.46608533881E+00  0.17130084634E+03  0.17130000000E+03 0. -1.
      622    1    1    2    0    0 -0.14808349043E+00 -0.15167273342E+00  0.34393856780E+01  0.38877123325E+01  0.18000000000E+01 0.  1.
</event>
<event>
 5   0  0.7764500E-01  0.9118800E+02  0.7818608E-02  0.1180000E+00
       11   -1    0    0    0    0  0.00000000000E+00  0.00000000000E+00  0.39999999673E+01  0.40000000000E+01  0.51109989000E-03 0.  1.
     -623   -1    0    0    0    0  0.00000000000E+00  0.00000000000E+00  0.12525980253E-10  0.17130000000E+03  0.17130000000E+03 0. -1.
       11    1    1    2    0    0 -0.16422517144E+00  0.70814182945E-02  0.29026494406E+00  0.33357765571E+00  0.51109989000E-03 0.  1.
     -623    1    1    2    0    0  0.19105799801E+00 -0.36702139819E+00  0.53758625389E+00  0.17130134327E+03  0.17130000000E+03 0. -1.
      622    1    1    2    0    0 -0.26832826568E-01  0.35993997989E+00  0.31721487694E+01  0.36650790721E+01  0.18000000000E+01 0.  1.
</event>
<event>
 5   0  0.7764500E-01  0.9118800E+02  0.7818608E-02  0.1180000E+00
       11   -1    0    0    0    0  0.00000000000E+00  0.00000000000E+00  0.39999999673E+01  0.40000000000E+01  0.51109989000E-03 0.  1.
     -623   -1    0    0    0    0  0.00000000000E+00  0.00000000000E+00  0.12525980253E-10  0.17130000000E+03  0.17130000000E+03 0. -1.
       11    1    1    2    0    0 -0.10979583069E-01 -0.13333525524E-01 -0.16308731692E+00  0.16400020826E+00  0.51109989000E-03 0.  1.
     -623    1    1    2    0    0  0.12029545204E+00  0.15168788567E+00  0.78236845069E+00  0.17130189602E+03  0.17130000000E+03 0. -1.
      622    1    1    2    0    0 -0.10931586897E+00 -0.13835436015E+00  0.33807188336E+01  0.38341037701E+01  0.18000000000E+01 0.  1.
</event>
<event>
 5   0  0.7764500E-01  0.9118800E+02  0.7818608E-02  0.1180000E+00
       11   -1    0    0    0    0  0.00000000000E+00  0.00000000000E+00  0.39999999673E+01  0.40000000000E+01  0.51109989000E-03 0. -1.
     -623   -1    0    0    0    0  0.00000000000E+00  0.00000000000E+00  0.12525980253E-10  0.17130000000E+03  0.17130000000E+03 0.  1.
       11    1    1    2    0    0  0.55504973067E+00  0.74094638451E-01  0.61791596793E+00  0.83390084759E+00  0.51109989000E-03 0. -1.
     -623    1    1    2    0    0 -0.38159087601E+00  0.10186481646E-01  0.78731084537E+00  0.17130223458E+03  0.17130000000E+03 0.  1.
      622    1    1    2    0    0 -0.17345885466E+00 -0.84281120097E-01  0.25947731541E+01  0.31638645677E+01  0.18000000000E+01 0. -1.
</event>
<event>
 5   0  0.7764500E-01  0.9118800E+02  0.7818608E-02  0.1180000E+00
       11   -1    0    0    0    0  0.00000000000E+00  0.00000000000E+00  0.39999999673E+01  0.40000000000E+01  0.51109989000E-03 0. -1.
     -623   -1    0    0    0    0  0.00000000000E+00  0.00000000000E+00  0.12525980253E-10  0.17130000000E+03  0.17130000000E+03 0. -1.
       11    1    1    2    0    0 -0.81217662306E-01  0.22100945211E+00 -0.59895913118E-01  0.24295939624E+00  0.51109989000E-03 0. -1.
     -623    1    1    2    0    0 -0.66379524120E+00 -0.37011775842E-01  0.85666673916E+00  0.17130343217E+03  0.17130000000E+03 0. -1.
      622    1    1    2    0    0  0.74501290351E+00 -0.18399767627E+00  0.32032291413E+01  0.37536084376E+01  0.18000000000E+01 0. -1.
</event>
<event>
 5   0  0.7764500E-01  0.9118800E+02  0.7818608E-02  0.1180000E+00
       11   -1    0    0    0    0  0.00000000000E+00  0.00000000000E+00  0.39999999673E+01  0.40000000000E+01  0.51109989000E-03 0. -1.
     -623   -1    0    0    0    0  0.00000000000E+00  0.00000000000E+00  0.12525980253E-10  0.17130000000E+03  0.17130000000E+03 0. -1.
       11    1    1    2    0    0 -0.78061512328E-01 -0.51618888152E-01 -0.42708130001E-01  0.10287057360E+00  0.51109989000E-03 0. -1.
     -623    1    1    2    0    0  0.18964711000E+00 -0.46544285369E+00  0.62904905239E+00  0.17130189230E+03  0.17130000000E+03 0. -1.
      622    1    1    2    0    0 -0.11158559768E+00  0.51706174184E+00  0.34136590450E+01  0.38952371257E+01  0.18000000000E+01 0. -1.
</event>
<event>
 5   0  0.7764500E-01  0.9118800E+02  0.7818608E-02  0.1180000E+00
       11   -1    0    0    0    0  0.00000000000E+00  0.00000000000E+00  0.39999999673E+01  0.40000000000E+01  0.51109989000E-03 0.  1.
     -623   -1    0    0    0    0  0.00000000000E+00  0.00000000000E+00  0.12525980253E-10  0.17130000000E+03  0.17130000000E+03 0.  1.
       11    1    1    2    0    0 -0.92699725647E-01 -0.47162999919E-01  0.17238297604E+00  0.20132992661E+00  0.51109989000E-03 0.  1.
     -623    1    1    2    0    0  0.11794784292E+00 -0.17157268682E+00  0.49068550845E+00  0.17130082931E+03  0.17130000000E+03 0.  1.
      622    1    1    2    0    0 -0.25248117268E-01  0.21873568674E+00  0.33369314829E+01  0.37978407667E+01  0.18000000000E+01 0.  1.
</event>
<event>
 5   0  0.7764500E-01  0.9118800E+02  0.7818608E-02  0.1180000E+00
       11   -1    0    0    0    0  0.00000000000E+00  0.00000000000E+00  0.39999999673E+01  0.40000000000E+01  0.51109989000E-03 0.  1.
     -623   -1    0    0    0    0  0.00000000000E+00  0.00000000000E+00  0.12525980253E-10  0.17130000000E+03  0.17130000000E+03 0.  1.
       11    1    1    2    0    0 -0.25534143742E+00  0.38727931414E+00  0.43757048810E+00  0.63769327274E+00  0.51109989000E-03 0.  1.
     -623    1    1    2    0    0  0.11217345708E+01 -0.80189542795E-01  0.88286264872E+00  0.17130596652E+03  0.17130000000E+03 0.  1.
      622    1    1    2    0    0 -0.86639313335E+00 -0.30708977134E+00  0.26795668305E+01  0.33563402075E+01  0.18000000000E+01 0.  1.
</event>
<event>
 5   0  0.7764500E-01  0.9118800E+02  0.7818608E-02  0.1180000E+00
       11   -1    0    0    0    0  0.00000000000E+00  0.00000000000E+00  0.39999999673E+01  0.40000000000E+01  0.51109989000E-03 0.  1.
     -623   -1    0    0    0    0  0.00000000000E+00  0.00000000000E+00  0.12525980253E-10  0.17130000000E+03  0.17130000000E+03 0. -1.
       11    1    1    2    0    0  0.23085694434E+00 -0.44542995193E-01  0.31707590627E+00  0.39473585944E+00  0.51109989000E-03 0.  1.
     -623    1    1    2    0    0 -0.17552717524E+00  0.15911196653E+00  0.56300566187E+00  0.17130108903E+03  0.17130000000E+03 0. -1.
      622    1    1    2    0    0 -0.55329769096E-01 -0.11456897134E+00  0.31199183992E+01  0.36041751137E+01  0.18000000000E+01 0.  1.
</event>
<event>
 5   0  0.7764500E-01  0.9118800E+02  0.7818608E-02  0.1180000E+00
       11   -1    0    0    0    0  0.00000000000E+00  0.00000000000E+00  0.39999999673E+01  0.40000000000E+01  0.51109989000E-03 0.  1.
     -623   -1    0    0    0    0  0.00000000000E+00  0.00000000000E+00  0.12525980253E-10  0.17130000000E+03  0.17130000000E+03 0. -1.
       11    1    1    2    0    0  0.22319929919E-01  0.69055512689E-01  0.10585779563E+00  0.12834709667E+00  0.51109989000E-03 0.  1.
     -623    1    1    2    0    0 -0.35763480142E+00 -0.76265192434E-01  0.48402605211E+00  0.17130107414E+03  0.17130000000E+03 0. -1.
      622    1    1    2    0    0  0.33531487150E+00  0.72096797450E-02  0.34101161196E+01  0.38705787670E+01  0.18000000000E+01 0.  1.
</event>
<event>
 5   0  0.7764500E-01  0.9118800E+02  0.7818608E-02  0.1180000E+00
       11   -1    0    0    0    0  0.00000000000E+00  0.00000000000E+00  0.39999999673E+01  0.40000000000E+01  0.51109989000E-03 0.  1.
     -623   -1    0    0    0    0  0.00000000000E+00  0.00000000000E+00  0.12525980253E-10  0.17130000000E+03  0.17130000000E+03 0.  1.
       11    1    1    2    0    0  0.12086714474E+00  0.92563804354E-01  0.18420781601E-01  0.15335094057E+00  0.51109989000E-03 0.  1.
     -623    1    1    2    0    0 -0.24319364775E+00 -0.46783092538E-01  0.58591066549E+00  0.17130118103E+03  0.17130000000E+03 0.  1.
      622    1    1    2    0    0  0.12232650301E+00 -0.45780711817E-01  0.33956685203E+01  0.38454680270E+01  0.18000000000E+01 0.  1.
</event>
<event>
 5   0  0.7764500E-01  0.9118800E+02  0.7818608E-02  0.1180000E+00
       11   -1    0    0    0    0  0.00000000000E+00  0.00000000000E+00  0.39999999673E+01  0.40000000000E+01  0.51109989000E-03 0.  1.
     -623   -1    0    0    0    0  0.00000000000E+00  0.00000000000E+00  0.12525980253E-10  0.17130000000E+03  0.17130000000E+03 0. -1.
       11    1    1    2    0    0  0.12712269786E-02  0.94749115409E-01 -0.92667679524E-01  0.13253894122E+00  0.51109989000E-03 0.  1.
     -623    1    1    2    0    0 -0.16498586762E+00  0.12871869257E+00  0.68253411325E+00  0.17130148756E+03  0.17130000000E+03 0. -1.
      622    1    1    2    0    0  0.16371464064E+00 -0.22346780798E+00  0.34101335336E+01  0.38659734947E+01  0.18000000000E+01 0.  1.
</event>
<event>
 5   0  0.7764500E-01  0.9118800E+02  0.7818608E-02  0.1180000E+00
       11   -1    0    0    0    0  0.00000000000E+00  0.00000000000E+00  0.39999999673E+01  0.40000000000E+01  0.51109989000E-03 0. -1.
     -623   -1    0    0    0    0  0.00000000000E+00  0.00000000000E+00  0.12525980253E-10  0.17130000000E+03  0.17130000000E+03 0. -1.
       11    1    1    2    0    0 -0.19839285678E-01  0.22912310283E+00  0.45473970915E+00  0.50958753694E+00  0.51109989000E-03 0. -1.
     -623    1    1    2    0    0 -0.43983558247E+00 -0.26129351047E+00  0.59260759120E+00  0.17130178900E+03  0.17130000000E+03 0. -1.
      622    1    1    2    0    0  0.45967486815E+00  0.32170407645E-01  0.29526526670E+01  0.34886234666E+01  0.18000000000E+01 0. -1.
</event>
<event>
 5   0  0.7764500E-01  0.9118800E+02  0.7818608E-02  0.1180000E+00
       11   -1    0    0    0    0  0.00000000000E+00  0.00000000000E+00  0.39999999673E+01  0.40000000000E+01  0.51109989000E-03 0.  1.
     -623   -1    0    0    0    0  0.00000000000E+00  0.00000000000E+00  0.12525980253E-10  0.17130000000E+03  0.17130000000E+03 0. -1.
       11    1    1    2    0    0  0.12104449272E+00 -0.10361675992E+00 -0.18092953400E-01  0.16036152387E+00  0.51109989000E-03 0.  1.
     -623    1    1    2    0    0  0.51378155835E+00  0.13386597215E+00  0.68913722843E+00  0.17130220898E+03  0.17130000000E+03 0. -1.
      622    1    1    2    0    0 -0.63482605107E+00 -0.30249212232E-01  0.33289556923E+01  0.38374294953E+01  0.18000000000E+01 0. -1.
</event>
<event>
 5   0  0.7764500E-01  0.9118800E+02  0.7818608E-02  0.1180000E+00
       11   -1    0    0    0    0  0.00000000000E+00  0.00000000000E+00  0.39999999673E+01  0.40000000000E+01  0.51109989000E-03 0. -1.
     -623   -1    0    0    0    0  0.00000000000E+00  0.00000000000E+00  0.12525980253E-10  0.17130000000E+03  0.17130000000E+03 0.  1.
       11    1    1    2    0    0 -0.11085162625E+00 -0.67064859784E-01  0.10136684862E+00  0.16450312362E+00  0.51109989000E-03 0. -1.
     -623    1    1    2    0    0 -0.59693048183E-01  0.36709968982E+00  0.53076635163E+00  0.17130122603E+03  0.17130000000E+03 0.  1.
      622    1    1    2    0    0  0.17054467443E+00 -0.30003483004E+00  0.33678667671E+01  0.38342708494E+01  0.18000000000E+01 0. -1.
</event>
<event>
 5   0  0.7764500E-01  0.9118800E+02  0.7818608E-02  0.1180000E+00
       11   -1    0    0    0    0  0.00000000000E+00  0.00000000000E+00  0.39999999673E+01  0.40000000000E+01  0.51109989000E-03 0. -1.
     -623   -1    0    0    0    0  0.00000000000E+00  0.00000000000E+00  0.12525980253E-10  0.17130000000E+03  0.17130000000E+03 0.  1.
       11    1    1    2    0    0  0.79941021397E-01  0.73496005850E-01  0.13592562057E+00  0.17397777251E+00  0.51109989000E-03 0. -1.
     -623    1    1    2    0    0 -0.19191426157E+00  0.23758480527E+00  0.50530200596E+00  0.17130101753E+03  0.17130000000E+03 0.  1.
      622    1    1    2    0    0  0.11197324018E+00 -0.31108081112E+00  0.33587723408E+01  0.38250046948E+01  0.18000000000E+01 0.  0.
</event>
<event>
 5   0  0.7764500E-01  0.9118800E+02  0.7818608E-02  0.1180000E+00
       11   -1    0    0    0    0  0.00000000000E+00  0.00000000000E+00  0.39999999673E+01  0.40000000000E+01  0.51109989000E-03 0. -1.
     -623   -1    0    0    0    0  0.00000000000E+00  0.00000000000E+00  0.12525980253E-10  0.17130000000E+03  0.17130000000E+03 0. -1.
       11    1    1    2    0    0  0.22436250768E-02  0.20801958927E-02 -0.10289493607E+00  0.10294168329E+00  0.51109989000E-03 0. -1.
     -623    1    1    2    0    0 -0.16223842511E+00 -0.84217139687E-01  0.65263833810E+00  0.17130134077E+03  0.17130000000E+03 0. -1.
      622    1    1    2    0    0  0.15999480003E+00  0.82136943795E-01  0.34502565653E+01  0.38957175437E+01  0.18000000000E+01 0. -1.
</event>
<event>
 5   0  0.7764500E-01  0.9118800E+02  0.7818608E-02  0.1180000E+00
       11   -1    0    0    0    0  0.00000000000E+00  0.00000000000E+00  0.39999999673E+01  0.40000000000E+01  0.51109989000E-03 0.  1.
     -623   -1    0    0    0    0  0.00000000000E+00  0.00000000000E+00  0.12525980253E-10  0.17130000000E+03  0.17130000000E+03 0. -1.
       11    1    1    2    0    0 -0.21333354825E-01  0.15198213683E+00  0.52593159983E+00  0.54786676379E+00  0.51109989000E-03 0.  1.
     -623    1    1    2    0    0 -0.34476845389E+00 -0.60809272591E+00  0.58992171226E+00  0.17130244204E+03  0.17130000000E+03 0. -1.
      622    1    1    2    0    0  0.36610180872E+00  0.45611058908E+00  0.28841466553E+01  0.34496911939E+01  0.18000000000E+01 0.  1.
</event>
<event>
 5   0  0.7764500E-01  0.9118800E+02  0.7818608E-02  0.1180000E+00
       11   -1    0    0    0    0  0.00000000000E+00  0.00000000000E+00  0.39999999673E+01  0.40000000000E+01  0.51109989000E-03 0. -1.
     -623   -1    0    0    0    0  0.00000000000E+00  0.00000000000E+00  0.12525980253E-10  0.17130000000E+03  0.17130000000E+03 0. -1.
       11    1    1    2    0    0 -0.11730036014E+00  0.39168824199E+00  0.69771642957E+00  0.80869495529E+00  0.51109989000E-03 0. -1.
     -623    1    1    2    0    0  0.16300820141E+00 -0.23741307925E+00  0.67387426825E+00  0.17130156754E+03  0.17130000000E+03 0. -1.
      622    1    1    2    0    0 -0.45707841267E-01 -0.15427516274E+00  0.26284092695E+01  0.31897375003E+01  0.18000000000E+01 0. -1.
</event>
<event>
 5   0  0.7764500E-01  0.9118800E+02  0.7818608E-02  0.1180000E+00
       11   -1    0    0    0    0  0.00000000000E+00  0.00000000000E+00  0.39999999673E+01  0.40000000000E+01  0.51109989000E-03 0.  1.
     -623   -1    0    0    0    0  0.00000000000E+00  0.00000000000E+00  0.12525980253E-10  0.17130000000E+03  0.17130000000E+03 0. -1.
       11    1    1    2    0    0 -0.19096169522E+00 -0.14807981589E+00  0.68865100101E-01  0.25127010198E+00  0.51109989000E-03 0.  1.
     -623    1    1    2    0    0 -0.53752504564E-01 -0.41268132652E-01  0.65888198348E+00  0.17130128055E+03  0.17130000000E+03 0. -1.
      622    1    1    2    0    0  0.24471419978E+00  0.18934794855E+00  0.32722528838E+01  0.37474493486E+01  0.18000000000E+01 0.  1.
</event>
<event>
 5   0  0.7764500E-01  0.9118800E+02  0.7818608E-02  0.1180000E+00
       11   -1    0    0    0    0  0.00000000000E+00  0.00000000000E+00  0.39999999673E+01  0.40000000000E+01  0.51109989000E-03 0.  1.
     -623   -1    0    0    0    0  0.00000000000E+00  0.00000000000E+00  0.12525980253E-10  0.17130000000E+03  0.17130000000E+03 0.  1.
       11    1    1    2    0    0  0.22696073369E-01 -0.24249617745E-01  0.13793755126E+00  0.14188088306E+00  0.51109989000E-03 0.  1.
     -623    1    1    2    0    0 -0.21560687512E+00 -0.21723165497E+00  0.46462451908E+00  0.17130090353E+03  0.17130000000E+03 0.  1.
      622    1    1    2    0    0  0.19291080175E+00  0.24148127271E+00  0.33974378970E+01  0.38572155821E+01  0.18000000000E+01 0.  1.
</event>
<event>
 5   0  0.7764500E-01  0.9118800E+02  0.7818608E-02  0.1180000E+00
       11   -1    0    0    0    0  0.00000000000E+00  0.00000000000E+00  0.39999999673E+01  0.40000000000E+01  0.51109989000E-03 0.  1.
     -623   -1    0    0    0    0  0.00000000000E+00  0.00000000000E+00  0.12525980253E-10  0.17130000000E+03  0.17130000000E+03 0.  1.
       11    1    1    2    0    0  0.14040092694E+00 -0.17001020571E+00  0.34351850339E+00  0.40819249592E+00  0.51109989000E-03 0.  1.
     -623    1    1    2    0    0  0.22224620663E+00  0.23848135827E-01  0.57423481277E+00  0.17130110831E+03  0.17130000000E+03 0.  1.
      622    1    1    2    0    0 -0.36264713356E+00  0.14616206988E+00  0.30822466512E+01  0.35906991956E+01  0.18000000000E+01 0.  1.
</event>
<event>
 5   0  0.7764500E-01  0.9118800E+02  0.7818608E-02  0.1180000E+00
       11   -1    0    0    0    0  0.00000000000E+00  0.00000000000E+00  0.39999999673E+01  0.40000000000E+01  0.51109989000E-03 0. -1.
     -623   -1    0    0    0    0  0.00000000000E+00  0.00000000000E+00  0.12525980253E-10  0.17130000000E+03  0.17130000000E+03 0. -1.
       11    1    1    2    0    0  0.91276171552E-01  0.18691560256E+00 -0.92278985601E-01  0.22756197920E+00  0.51109989000E-03 0. -1.
     -623    1    1    2    0    0 -0.17102865670E+00  0.75132308648E-01  0.79050174805E+00  0.17130192582E+03  0.17130000000E+03 0. -1.
      622    1    1    2    0    0  0.79752485151E-01 -0.26204791121E+00  0.33017772049E+01  0.37705122036E+01  0.18000000000E+01 0. -1.
</event>
<event>
 5   0  0.7764500E-01  0.9118800E+02  0.7818608E-02  0.1180000E+00
       11   -1    0    0    0    0  0.00000000000E+00  0.00000000000E+00  0.39999999673E+01  0.40000000000E+01  0.51109989000E-03 0.  1.
     -623   -1    0    0    0    0  0.00000000000E+00  0.00000000000E+00  0.12525980253E-10  0.17130000000E+03  0.17130000000E+03 0.  1.
       11    1    1    2    0    0  0.14266613161E-01 -0.78350765885E-01 -0.36041317224E-01  0.87416340213E-01  0.51109989000E-03 0.  1.
     -623    1    1    2    0    0  0.29543831654E+00 -0.14397595181E+00  0.58456416410E+00  0.17130131269E+03  0.17130000000E+03 0.  1.
      622    1    1    2    0    0 -0.30970492970E+00  0.22232671770E+00  0.34514771205E+01  0.39112709732E+01  0.18000000000E+01 0.  1.
</event>
<event>
 5   0  0.7764500E-01  0.9118800E+02  0.7818608E-02  0.1180000E+00
       11   -1    0    0    0    0  0.00000000000E+00  0.00000000000E+00  0.39999999673E+01  0.40000000000E+01  0.51109989000E-03 0.  1.
     -623   -1    0    0    0    0  0.00000000000E+00  0.00000000000E+00  0.12525980253E-10  0.17130000000E+03  0.17130000000E+03 0.  1.
       11    1    1    2    0    0 -0.66157464994E-01 -0.16794421240E+00  0.16977690036E+00  0.24780340145E+00  0.51109989000E-03 0.  1.
     -623    1    1    2    0    0  0.49025388180E+00  0.14750756214E+00  0.56741548809E+00  0.17130170480E+03  0.17130000000E+03 0.  1.
      622    1    1    2    0    0 -0.42409641681E+00  0.20436650263E-01  0.32628075789E+01  0.37504917977E+01  0.18000000000E+01 0.  1.
</event>
<event>
 5   0  0.7764500E-01  0.9118800E+02  0.7818608E-02  0.1180000E+00
       11   -1    0    0    0    0  0.00000000000E+00  0.00000000000E+00  0.39999999673E+01  0.40000000000E+01  0.51109989000E-03 0. -1.
     -623   -1    0    0    0    0  0.00000000000E+00  0.00000000000E+00  0.12525980253E-10  0.17130000000E+03  0.17130000000E+03 0. -1.
       11    1    1    2    0    0 -0.13602116713E+00  0.12374094244E+00  0.17321734879E+00  0.25262242555E+00  0.51109989000E-03 0. -1.
     -623    1    1    2    0    0  0.37009761584E+00 -0.27895549204E+00  0.55377938053E+00  0.17130152206E+03  0.17130000000E+03 0. -1.
      622    1    1    2    0    0 -0.23407644871E+00  0.15521454961E+00  0.32730032380E+01  0.37458555146E+01  0.18000000000E+01 0. -1.
</event>
<event>
 5   0  0.7764500E-01  0.9118800E+02  0.7818608E-02  0.1180000E+00
       11   -1    0    0    0    0  0.00000000000E+00  0.00000000000E+00  0.39999999673E+01  0.40000000000E+01  0.51109989000E-03 0.  1.
     -623   -1    0    0    0    0  0.00000000000E+00  0.00000000000E+00  0.12525980253E-10  0.17130000000E+03  0.17130000000E+03 0. -1.
       11    1    1    2    0    0 -0.53540949618E-01 -0.19523725887E+00  0.53401609857E-01  0.20937099535E+00  0.51109989000E-03 0.  1.
     -623    1    1    2    0    0  0.19088957472E+00  0.41469914148E-01  0.61837742361E+00  0.17130122752E+03  0.17130000000E+03 0. -1.
      622    1    1    2    0    0 -0.13734862510E+00  0.15376734473E+00  0.33282209339E+01  0.37894014865E+01  0.18000000000E+01 0.  1.
</event>
<event>
 5   0  0.7764500E-01  0.9118800E+02  0.7818608E-02  0.1180000E+00
       11   -1    0    0    0    0  0.00000000000E+00  0.00000000000E+00  0.39999999673E+01  0.40000000000E+01  0.51109989000E-03 0.  1.
     -623   -1    0    0    0    0  0.00000000000E+00  0.00000000000E+00  0.12525980253E-10  0.17130000000E+03  0.17130000000E+03 0. -1.
       11    1    1    2    0    0 -0.47837259062E-01  0.22666287989E+00 -0.37335316954E-02  0.23168656619E+00  0.51109989000E-03 0.  1.
     -623    1    1    2    0    0  0.13987920833E+00 -0.14205827473E+00  0.69722618785E+00  0.17130153494E+03  0.17130000000E+03 0. -1.
      622    1    1    2    0    0 -0.92041949273E-01 -0.84604605158E-01  0.33065073112E+01  0.37667784988E+01  0.18000000000E+01 0.  1.
</event>
<event>
 5   0  0.7764500E-01  0.9118800E+02  0.7818608E-02  0.1180000E+00
       11   -1    0    0    0    0  0.00000000000E+00  0.00000000000E+00  0.39999999673E+01  0.40000000000E+01  0.51109989000E-03 0. -1.
     -623   -1    0    0    0    0  0.00000000000E+00  0.00000000000E+00  0.12525980253E-10  0.17130000000E+03  0.17130000000E+03 0. -1.
       11    1    1    2    0    0 -0.15095752761E+00  0.25465048299E+00  0.17206019603E+00  0.34240329424E+00  0.51109989000E-03 0. -1.
     -623    1    1    2    0    0 -0.40795692997E-01 -0.26143622302E+00  0.65136198067E+00  0.17130144274E+03  0.17130000000E+03 0. -1.
      622    1    1    2    0    0  0.19175322061E+00  0.67857400258E-02  0.31765777907E+01  0.36561539634E+01  0.18000000000E+01 0. -1.
</event>
<event>
 5   0  0.7764500E-01  0.9118800E+02  0.7818608E-02  0.1180000E+00
       11   -1    0    0    0    0  0.00000000000E+00  0.00000000000E+00  0.39999999673E+01  0.40000000000E+01  0.51109989000E-03 0. -1.
     -623   -1    0    0    0    0  0.00000000000E+00  0.00000000000E+00  0.12525980253E-10  0.17130000000E+03  0.17130000000E+03 0. -1.
       11    1    1    2    0    0  0.15519065231E+00  0.20943496765E+00  0.28970966794E+00  0.38971668833E+00  0.51109989000E-03 0. -1.
     -623    1    1    2    0    0  0.18058119555E+00 -0.76738103469E-01  0.60298900171E+00  0.17130117365E+03  0.17130000000E+03 0. -1.
      622    1    1    2    0    0 -0.33577184786E+00 -0.13269686418E+00  0.31073012977E+01  0.36091096612E+01  0.18000000000E+01 0. -1.
</event>
<event>
 5   0  0.7764500E-01  0.9118800E+02  0.7818608E-02  0.1180000E+00
       11   -1    0    0    0    0  0.00000000000E+00  0.00000000000E+00  0.39999999673E+01  0.40000000000E+01  0.51109989000E-03 0. -1.
     -623   -1    0    0    0    0  0.00000000000E+00  0.00000000000E+00  0.12525980253E-10  0.17130000000E+03  0.17130000000E+03 0.  1.
       11    1    1    2    0    0 -0.18296802756E-01 -0.10821896035E+00  0.31340662277E+00  0.33206940357E+00  0.51109989000E-03 0. -1.
     -623    1    1    2    0    0 -0.64997413610E-01  0.15178629370E+00  0.49299167727E+00  0.17130078898E+03  0.17130000000E+03 0.  1.
      622    1    1    2    0    0  0.83294216366E-01 -0.43567333351E-01  0.31936016673E+01  0.36671416183E+01  0.18000000000E+01 0. -1.
</event>
<event>
 5   0  0.7764500E-01  0.9118800E+02  0.7818608E-02  0.1180000E+00
       11   -1    0    0    0    0  0.00000000000E+00  0.00000000000E+00  0.39999999673E+01  0.40000000000E+01  0.51109989000E-03 0. -1.
     -623   -1    0    0    0    0  0.00000000000E+00  0.00000000000E+00  0.12525980253E-10  0.17130000000E+03  0.17130000000E+03 0. -1.
       11    1    1    2    0    0 -0.42537976944E-01 -0.37697470174E+00  0.94978148184E+00  0.10227436285E+01  0.51109989000E-03 0. -1.
     -623    1    1    2    0    0  0.16891991003E+00  0.30202383454E+00  0.68543063220E+00  0.17130172085E+03  0.17130000000E+03 0. -1.
      622    1    1    2    0    0 -0.12638193309E+00  0.74950867197E-01  0.23647878533E+01  0.29755355176E+01  0.18000000000E+01 0. -1.
</event>
<event>
 5   0  0.7764500E-01  0.9118800E+02  0.7818608E-02  0.1180000E+00
       11   -1    0    0    0    0  0.00000000000E+00  0.00000000000E+00  0.39999999673E+01  0.40000000000E+01  0.51109989000E-03 0. -1.
     -623   -1    0    0    0    0  0.00000000000E+00  0.00000000000E+00  0.12525980253E-10  0.17130000000E+03  0.17130000000E+03 0. -1.
       11    1    1    2    0    0  0.46726831529E-01  0.15974741468E+00  0.51731744561E+00  0.54343374393E+00  0.51109989000E-03 0. -1.
     -623    1    1    2    0    0 -0.15684406030E+00 -0.60435747384E+00  0.57001571020E+00  0.17130208629E+03  0.17130000000E+03 0. -1.
      622    1    1    2    0    0  0.11011722877E+00  0.44461005916E+00  0.29126668115E+01  0.34544799701E+01  0.18000000000E+01 0. -1.
</event>
<event>
 5   0  0.7764500E-01  0.9118800E+02  0.7818608E-02  0.1180000E+00
       11   -1    0    0    0    0  0.00000000000E+00  0.00000000000E+00  0.39999999673E+01  0.40000000000E+01  0.51109989000E-03 0. -1.
     -623   -1    0    0    0    0  0.00000000000E+00  0.00000000000E+00  0.12525980253E-10  0.17130000000E+03  0.17130000000E+03 0.  1.
       11    1    1    2    0    0  0.25273420425E+00  0.94197560873E-01  0.16524138035E+00  0.31631113397E+00  0.51109989000E-03 0. -1.
     -623    1    1    2    0    0 -0.19994735089E+00  0.23952148904E-01  0.62484402658E+00  0.17130125797E+03  0.17130000000E+03 0.  1.
      622    1    1    2    0    0 -0.52786853360E-01 -0.11814970978E+00  0.32099145604E+01  0.36824308943E+01  0.18000000000E+01 0. -1.
</event>
<event>
 5   0  0.7764500E-01  0.9118800E+02  0.7818608E-02  0.1180000E+00
       11   -1    0    0    0    0  0.00000000000E+00  0.00000000000E+00  0.39999999673E+01  0.40000000000E+01  0.51109989000E-03 0.  1.
     -623   -1    0    0    0    0  0.00000000000E+00  0.00000000000E+00  0.12525980253E-10  0.17130000000E+03  0.17130000000E+03 0.  1.
       11    1    1    2    0    0 -0.12054766971E-01  0.25148027647E-01  0.38466370914E+00  0.38567365875E+00  0.51109989000E-03 0.  1.
     -623    1    1    2    0    0  0.33466301387E+00 -0.29830704143E-01  0.49898861920E+00  0.17130105627E+03  0.17130000000E+03 0.  1.
      622    1    1    2    0    0 -0.32260824689E+00  0.46826764961E-02  0.31163476390E+01  0.36132700723E+01  0.18000000000E+01 0.  1.
</event>
<event>
 5   0  0.7764500E-01  0.9118800E+02  0.7818608E-02  0.1180000E+00
       11   -1    0    0    0    0  0.00000000000E+00  0.00000000000E+00  0.39999999673E+01  0.40000000000E+01  0.51109989000E-03 0.  1.
     -623   -1    0    0    0    0  0.00000000000E+00  0.00000000000E+00  0.12525980253E-10  0.17130000000E+03  0.17130000000E+03 0.  1.
       11    1    1    2    0    0 -0.35158294866E+00  0.22813766441E+00  0.34480711614E+00  0.54272421382E+00  0.51109989000E-03 0.  1.
     -623    1    1    2    0    0  0.19752967462E+00 -0.56081371703E+00  0.72936215671E+00  0.17130258462E+03  0.17130000000E+03 0.  1.
      622    1    1    2    0    0  0.15405327404E+00  0.33267605263E+00  0.29258306945E+01  0.34546911613E+01  0.18000000000E+01 0.  1.
</event>
<event>
 5   0  0.7764500E-01  0.9118800E+02  0.7818608E-02  0.1180000E+00
       11   -1    0    0    0    0  0.00000000000E+00  0.00000000000E+00  0.39999999673E+01  0.40000000000E+01  0.51109989000E-03 0.  1.
     -623   -1    0    0    0    0  0.00000000000E+00  0.00000000000E+00  0.12525980253E-10  0.17130000000E+03  0.17130000000E+03 0. -1.
       11    1    1    2    0    0  0.17611785093E+00 -0.39148457006E-01  0.35608318798E+00  0.39918115823E+00  0.51109989000E-03 0.  1.
     -623    1    1    2    0    0 -0.49210154634E-01 -0.45245239660E-01  0.52996892074E+00  0.17130083285E+03  0.17130000000E+03 0. -1.
      622    1    1    2    0    0 -0.12690769629E+00  0.84393696666E-01  0.31139478586E+01  0.35999859897E+01  0.18000000000E+01 0.  1.
</event>
<event>
 5   0  0.7764500E-01  0.9118800E+02  0.7818608E-02  0.1180000E+00
       11   -1    0    0    0    0  0.00000000000E+00  0.00000000000E+00  0.39999999673E+01  0.40000000000E+01  0.51109989000E-03 0.  1.
     -623   -1    0    0    0    0  0.00000000000E+00  0.00000000000E+00  0.12525980253E-10  0.17130000000E+03  0.17130000000E+03 0.  1.
       11    1    1    2    0    0 -0.39191544716E-02 -0.22960047630E-02 -0.56889741615E-01  0.57073070118E-01  0.51109989000E-03 0.  1.
     -623    1    1    2    0    0 -0.10708128673E-01 -0.47230818972E-01  0.55018395684E+00  0.17130089039E+03  0.17130000000E+03 0.  1.
      622    1    1    2    0    0  0.14627283144E-01  0.49526823735E-01  0.35067057521E+01  0.39420365417E+01  0.18000000000E+01 0.  1.
</event>
<event>
 5   0  0.7764500E-01  0.9118800E+02  0.7818608E-02  0.1180000E+00
       11   -1    0    0    0    0  0.00000000000E+00  0.00000000000E+00  0.39999999673E+01  0.40000000000E+01  0.51109989000E-03 0.  1.
     -623   -1    0    0    0    0  0.00000000000E+00  0.00000000000E+00  0.12525980253E-10  0.17130000000E+03  0.17130000000E+03 0. -1.
       11    1    1    2    0    0  0.91795478086E-01  0.13727920257E+00  0.58933292617E+00  0.61203394378E+00  0.51109989000E-03 0.  1.
     -623    1    1    2    0    0 -0.22416365704E+00 -0.38150372692E+00  0.55564153529E+00  0.17130147265E+03  0.17130000000E+03 0. -1.
      622    1    1    2    0    0  0.13236817895E+00  0.24422452435E+00  0.28550255059E+01  0.33864934065E+01  0.18000000000E+01 0.  1.
</event>
<event>
 5   0  0.7764500E-01  0.9118800E+02  0.7818608E-02  0.1180000E+00
       11   -1    0    0    0    0  0.00000000000E+00  0.00000000000E+00  0.39999999673E+01  0.40000000000E+01  0.51109989000E-03 0. -1.
     -623   -1    0    0    0    0  0.00000000000E+00  0.00000000000E+00  0.12525980253E-10  0.17130000000E+03  0.17130000000E+03 0.  1.
       11    1    1    2    0    0  0.21420943141E+00  0.39450968334E-02  0.71622254381E+00  0.74758025508E+00  0.51109989000E-03 0. -1.
     -623    1    1    2    0    0  0.21179695379E+00 -0.33319948767E+00  0.63088649382E+00  0.17130161674E+03  0.17130000000E+03 0.  1.
      622    1    1    2    0    0 -0.42600638520E+00  0.32925439084E+00  0.26528909297E+01  0.32508030053E+01  0.18000000000E+01 0. -1.
</event>
<event>
 5   0  0.7764500E-01  0.9118800E+02  0.7818608E-02  0.1180000E+00
       11   -1    0    0    0    0  0.00000000000E+00  0.00000000000E+00  0.39999999673E+01  0.40000000000E+01  0.51109989000E-03 0.  1.
     -623   -1    0    0    0    0  0.00000000000E+00  0.00000000000E+00  0.12525980253E-10  0.17130000000E+03  0.17130000000E+03 0. -1.
       11    1    1    2    0    0  0.74473188623E-01  0.29647039733E+00  0.22061617572E+00  0.37697839530E+00  0.51109989000E-03 0.  1.
     -623    1    1    2    0    0 -0.30831824017E+00 -0.52079982877E+00  0.65456784183E+00  0.17130231975E+03  0.17130000000E+03 0. -1.
      622    1    1    2    0    0  0.23384505154E+00  0.22432943144E+00  0.31248159498E+01  0.36207018549E+01  0.18000000000E+01 0.  1.
</event>
<event>
 5   0  0.7764500E-01  0.9118800E+02  0.7818608E-02  0.1180000E+00
       11   -1    0    0    0    0  0.00000000000E+00  0.00000000000E+00  0.39999999673E+01  0.40000000000E+01  0.51109989000E-03 0.  1.
     -623   -1    0    0    0    0  0.00000000000E+00  0.00000000000E+00  0.12525980253E-10  0.17130000000E+03  0.17130000000E+03 0. -1.
       11    1    1    2    0    0  0.94636558919E-01 -0.33322881873E+00  0.26891995944E+00  0.43853817362E+00  0.51109989000E-03 0.  1.
     -623    1    1    2    0    0  0.32766389491E+00  0.11627789520E+00  0.69694154207E+00  0.17130177060E+03  0.17130000000E+03 0. -1.
      622    1    1    2    0    0 -0.42230045382E+00  0.21695092353E+00  0.30341384658E+01  0.35596912235E+01  0.18000000000E+01 0.  1.
</event>
<event>
 5   0  0.7764500E-01  0.9118800E+02  0.7818608E-02  0.1180000E+00
       11   -1    0    0    0    0  0.00000000000E+00  0.00000000000E+00  0.39999999673E+01  0.40000000000E+01  0.51109989000E-03 0.  1.
     -623   -1    0    0    0    0  0.00000000000E+00  0.00000000000E+00  0.12525980253E-10  0.17130000000E+03  0.17130000000E+03 0.  1.
       11    1    1    2    0    0 -0.14737701402E+00  0.25696783392E+00  0.23666420997E+00  0.37916046923E+00  0.51109989000E-03 0.  1.
     -623    1    1    2    0    0 -0.23377375804E+00 -0.21845824187E+00  0.64681281548E+00  0.17130151996E+03  0.17130000000E+03 0.  1.
      622    1    1    2    0    0  0.38115077206E+00 -0.38509592040E-01  0.31165229419E+01  0.36193195696E+01  0.18000000000E+01 0.  1.
</event>
<event>
 5   0  0.7764500E-01  0.9118800E+02  0.7818608E-02  0.1180000E+00
       11   -1    0    0    0    0  0.00000000000E+00  0.00000000000E+00  0.39999999673E+01  0.40000000000E+01  0.51109989000E-03 0.  1.
     -623   -1    0    0    0    0  0.00000000000E+00  0.00000000000E+00  0.12525980253E-10  0.17130000000E+03  0.17130000000E+03 0. -1.
       11    1    1    2    0    0 -0.25289894844E-01 -0.13917059579E+00  0.22890669208E+00  0.26908468632E+00  0.51109989000E-03 0.  1.
     -623    1    1    2    0    0  0.25397842048E-01  0.24493919349E+00  0.50587529186E+00  0.17130092396E+03  0.17130000000E+03 0. -1.
      622    1    1    2    0    0 -0.10794720487E-03 -0.10576859770E+00  0.32652179834E+01  0.37299913522E+01  0.18000000000E+01 0.  1.
</event>
<event>
 5   0  0.7764500E-01  0.9118800E+02  0.7818608E-02  0.1180000E+00
       11   -1    0    0    0    0  0.00000000000E+00  0.00000000000E+00  0.39999999673E+01  0.40000000000E+01  0.51109989000E-03 0.  1.
     -623   -1    0    0    0    0  0.00000000000E+00  0.00000000000E+00  0.12525980253E-10  0.17130000000E+03  0.17130000000E+03 0.  1.
       11    1    1    2    0    0 -0.27472755926E+00 -0.14145513772E+00  0.29757584817E+00  0.42899467880E+00  0.51109989000E-03 0.  1.
     -623    1    1    2    0    0  0.31907275301E+00  0.26306038356E+00  0.62286655318E+00  0.17130163155E+03  0.17130000000E+03 0.  1.
      622    1    1    2    0    0 -0.44345193754E-01 -0.12160524584E+00  0.30795575660E+01  0.35693737734E+01  0.18000000000E+01 0.  1.
</event>
<event>
 5   0  0.7764500E-01  0.9118800E+02  0.7818608E-02  0.1180000E+00
       11   -1    0    0    0    0  0.00000000000E+00  0.00000000000E+00  0.39999999673E+01  0.40000000000E+01  0.51109989000E-03 0. -1.
     -623   -1    0    0    0    0  0.00000000000E+00  0.00000000000E+00  0.12525980253E-10  0.17130000000E+03  0.17130000000E+03 0. -1.
       11    1    1    2    0    0  0.17745938274E+00 -0.58023152480E-01 -0.30096826225E-01  0.18911530588E+00  0.51109989000E-03 0. -1.
     -623    1    1    2    0    0 -0.10204441922E+00  0.21161236219E-01  0.67369108974E+00  0.17130135645E+03  0.17130000000E+03 0. -1.
      622    1    1    2    0    0 -0.75414963521E-01  0.36861916261E-01  0.33564057038E+01  0.38095282472E+01  0.18000000000E+01 0. -1.
</event>
<event>
 5   0  0.7764500E-01  0.9118800E+02  0.7818608E-02  0.1180000E+00
       11   -1    0    0    0    0  0.00000000000E+00  0.00000000000E+00  0.39999999673E+01  0.40000000000E+01  0.51109989000E-03 0. -1.
     -623   -1    0    0    0    0  0.00000000000E+00  0.00000000000E+00  0.12525980253E-10  0.17130000000E+03  0.17130000000E+03 0.  1.
       11    1    1    2    0    0 -0.25594875898E-01  0.61167145647E-01  0.13938892506E+00  0.15435689499E+00  0.51109989000E-03 0. -1.
     -623    1    1    2    0    0  0.17767216724E+00 -0.10849368599E+00  0.46683162502E+00  0.17130076261E+03  0.17130000000E+03 0.  1.
      622    1    1    2    0    0 -0.15207729134E+00  0.47326540346E-01  0.33937794173E+01  0.38448804971E+01  0.18000000000E+01 0. -1.
</event>
<event>
 5   0  0.7764500E-01  0.9118800E+02  0.7818608E-02  0.1180000E+00
       11   -1    0    0    0    0  0.00000000000E+00  0.00000000000E+00  0.39999999673E+01  0.40000000000E+01  0.51109989000E-03 0. -1.
     -623   -1    0    0    0    0  0.00000000000E+00  0.00000000000E+00  0.12525980253E-10  0.17130000000E+03  0.17130000000E+03 0. -1.
       11    1    1    2    0    0  0.40455559294E+00  0.18545848200E+00  0.37436999265E+00  0.58156102770E+00  0.51109989000E-03 0. -1.
     -623    1    1    2    0    0 -0.22051688101E+00 -0.16565800738E+00  0.72746034128E+00  0.17130176668E+03  0.17130000000E+03 0. -1.
      622    1    1    2    0    0 -0.18403871193E+00 -0.19800474626E-01  0.28981696334E+01  0.34166722890E+01  0.18000000000E+01 0. -1.
</event>
<event>
 5   0  0.7764500E-01  0.9118800E+02  0.7818608E-02  0.1180000E+00
       11   -1    0    0    0    0  0.00000000000E+00  0.00000000000E+00  0.39999999673E+01  0.40000000000E+01  0.51109989000E-03 0.  1.
     -623   -1    0    0    0    0  0.00000000000E+00  0.00000000000E+00  0.12525980253E-10  0.17130000000E+03  0.17130000000E+03 0. -1.
       11    1    1    2    0    0 -0.22017420180E-01 -0.53627473526E-01 -0.14138470003E-01  0.59672692794E-01  0.51109989000E-03 0.  1.
     -623    1    1    2    0    0 -0.86150331688E-01  0.12011890307E+00  0.51220737676E+00  0.17130082956E+03  0.17130000000E+03 0. -1.
      622    1    1    2    0    0  0.10816775187E+00 -0.66491429540E-01  0.35019310606E+01  0.39394977505E+01  0.18000000000E+01 0.  1.
</event>
<event>
 5   0  0.7764500E-01  0.9118800E+02  0.7818608E-02  0.1180000E+00
       11   -1    0    0    0    0  0.00000000000E+00  0.00000000000E+00  0.39999999673E+01  0.40000000000E+01  0.51109989000E-03 0.  1.
     -623   -1    0    0    0    0  0.00000000000E+00  0.00000000000E+00  0.12525980253E-10  0.17130000000E+03  0.17130000000E+03 0. -1.
       11    1    1    2    0    0 -0.91590059030E-01 -0.13623428856E+00 -0.47395967548E-01  0.17086591016E+00  0.51109989000E-03 0.  1.
     -623    1    1    2    0    0 -0.28302420777E+00  0.25094731874E+00  0.69257012833E+00  0.17130181765E+03  0.17130000000E+03 0. -1.
      622    1    1    2    0    0  0.37461426680E+00 -0.11471303019E+00  0.33548258066E+01  0.38273164385E+01  0.18000000000E+01 0.  1.
</event>
<event>
 5   0  0.7764500E-01  0.9118800E+02  0.7818608E-02  0.1180000E+00
       11   -1    0    0    0    0  0.00000000000E+00  0.00000000000E+00  0.39999999673E+01  0.40000000000E+01  0.51109989000E-03 0.  1.
     -623   -1    0    0    0    0  0.00000000000E+00  0.00000000000E+00  0.12525980253E-10  0.17130000000E+03  0.17130000000E+03 0.  1.
       11    1    1    2    0    0 -0.22612743256E-01  0.75917048471E-02 -0.38642607419E-01  0.45414562327E-01  0.51109989000E-03 0.  1.
     -623    1    1    2    0    0 -0.66398572073E-01 -0.21101550663E+00  0.52553327103E+00  0.17130094898E+03  0.17130000000E+03 0.  1.
      622    1    1    2    0    0  0.89011315329E-01  0.20342380179E+00  0.35131093038E+01  0.39536364574E+01  0.18000000000E+01 0.  1.
</event>
<event>
 5   0  0.7764500E-01  0.9118800E+02  0.7818608E-02  0.1180000E+00
       11   -1    0    0    0    0  0.00000000000E+00  0.00000000000E+00  0.39999999673E+01  0.40000000000E+01  0.51109989000E-03 0. -1.
     -623   -1    0    0    0    0  0.00000000000E+00  0.00000000000E+00  0.12525980253E-10  0.17130000000E+03  0.17130000000E+03 0.  1.
       11    1    1    2    0    0 -0.30861577559E+00 -0.74932518443E-01  0.80465371205E+00  0.86505863201E+00  0.51109989000E-03 0. -1.
     -623    1    1    2    0    0  0.49745321693E-02  0.69431013473E-01  0.64821999844E+00  0.17130124061E+03  0.17130000000E+03 0.  1.
      622    1    1    2    0    0  0.30364124342E+00  0.55015049693E-02  0.25471262569E+01  0.31337007578E+01  0.18000000000E+01 0. -1.
</event>
<event>
 5   0  0.7764500E-01  0.9118800E+02  0.7818608E-02  0.1180000E+00
       11   -1    0    0    0    0  0.00000000000E+00  0.00000000000E+00  0.39999999673E+01  0.40000000000E+01  0.51109989000E-03 0. -1.
     -623   -1    0    0    0    0  0.00000000000E+00  0.00000000000E+00  0.12525980253E-10  0.17130000000E+03  0.17130000000E+03 0.  1.
       11    1    1    2    0    0  0.13573347722E+00  0.73144546036E-01  0.93401075855E-01  0.18027125020E+00  0.51109989000E-03 0. -1.
     -623    1    1    2    0    0 -0.69595393196E+00  0.32055140762E+00  0.61113647465E+00  0.17130280381E+03  0.17130000000E+03 0.  1.
      622    1    1    2    0    0  0.56022045474E+00 -0.39369595365E+00  0.32954624169E+01  0.38169249407E+01  0.18000000000E+01 0. -1.
</event>
<event>
 5   0  0.7764500E-01  0.9118800E+02  0.7818608E-02  0.1180000E+00
       11   -1    0    0    0    0  0.00000000000E+00  0.00000000000E+00  0.39999999673E+01  0.40000000000E+01  0.51109989000E-03 0.  1.
     -623   -1    0    0    0    0  0.00000000000E+00  0.00000000000E+00  0.12525980253E-10  0.17130000000E+03  0.17130000000E+03 0. -1.
       11    1    1    2    0    0 -0.44964557920E-01  0.13523772883E+00  0.80442898617E-01  0.16365321851E+00  0.51109989000E-03 0.  1.
     -623    1    1    2    0    0 -0.28977408671E+00  0.22094839680E+00  0.56867306077E+00  0.17130133151E+03  0.17130000000E+03 0. -1.
      622    1    1    2    0    0  0.33473864463E+00 -0.35618612563E+00  0.33508840080E+01  0.38350152739E+01  0.18000000000E+01 0.  1.
</event>
<event>
 5   0  0.7764500E-01  0.9118800E+02  0.7818608E-02  0.1180000E+00
       11   -1    0    0    0    0  0.00000000000E+00  0.00000000000E+00  0.39999999673E+01  0.40000000000E+01  0.51109989000E-03 0. -1.
     -623   -1    0    0    0    0  0.00000000000E+00  0.00000000000E+00  0.12525980253E-10  0.17130000000E+03  0.17130000000E+03 0.  1.
       11    1    1    2    0    0 -0.68933537916E-01  0.27318110218E-02  0.57443189146E-01  0.89773474052E-01  0.51109989000E-03 0. -1.
     -623    1    1    2    0    0 -0.18572944509E+00 -0.33029727047E-02  0.48149642905E+00  0.17130077742E+03  0.17130000000E+03 0.  1.
      622    1    1    2    0    0  0.25466298301E+00  0.57116168296E-03  0.34610603492E+01  0.39094491046E+01  0.18000000000E+01 0. -1.
</event>
<event>
 5   0  0.7764500E-01  0.9118800E+02  0.7818608E-02  0.1180000E+00
       11   -1    0    0    0    0  0.00000000000E+00  0.00000000000E+00  0.39999999673E+01  0.40000000000E+01  0.51109989000E-03 0.  1.
     -623   -1    0    0    0    0  0.00000000000E+00  0.00000000000E+00  0.12525980253E-10  0.17130000000E+03  0.17130000000E+03 0.  1.
       11    1    1    2    0    0 -0.31131359057E+00  0.77139450238E-01  0.19978382425E+00  0.37786304941E+00  0.51109989000E-03 0.  1.
     -623    1    1    2    0    0  0.53783063176E+00  0.80270564521E+00  0.79666842679E+00  0.17130457752E+03  0.17130000000E+03 0.  1.
      622    1    1    2    0    0 -0.22651704118E+00 -0.87984509544E+00  0.30035477163E+01  0.36175594323E+01  0.18000000000E+01 0.  1.
</event>
<event>
 5   0  0.7764500E-01  0.9118800E+02  0.7818608E-02  0.1180000E+00
       11   -1    0    0    0    0  0.00000000000E+00  0.00000000000E+00  0.39999999673E+01  0.40000000000E+01  0.51109989000E-03 0. -1.
     -623   -1    0    0    0    0  0.00000000000E+00  0.00000000000E+00  0.12525980253E-10  0.17130000000E+03  0.17130000000E+03 0.  1.
       11    1    1    2    0    0  0.44702799866E-01  0.79237953030E-01  0.22278047967E+00  0.24064163575E+00  0.51109989000E-03 0. -1.
     -623    1    1    2    0    0  0.19051547082E+00 -0.35541732443E+00  0.49817102227E+00  0.17130119904E+03  0.17130000000E+03 0.  1.
      622    1    1    2    0    0 -0.23521827068E+00  0.27617937140E+00  0.32790484654E+01  0.37581593259E+01  0.18000000000E+01 0. -1.
</event>
<event>
 5   0  0.7764500E-01  0.9118800E+02  0.7818608E-02  0.1180000E+00
       11   -1    0    0    0    0  0.00000000000E+00  0.00000000000E+00  0.39999999673E+01  0.40000000000E+01  0.51109989000E-03 0. -1.
     -623   -1    0    0    0    0  0.00000000000E+00  0.00000000000E+00  0.12525980253E-10  0.17130000000E+03  0.17130000000E+03 0. -1.
       11    1    1    2    0    0  0.50545529802E-02  0.72374516928E-01 -0.11173193946E-01  0.73407906198E-01  0.51109989000E-03 0. -1.
     -623    1    1    2    0    0  0.61858593086E+00  0.98666255090E-01  0.58434864036E+00  0.17130214198E+03  0.17130000000E+03 0. -1.
      622    1    1    2    0    0 -0.62364048384E+00 -0.17104077202E+00  0.34268245209E+01  0.39244501139E+01  0.18000000000E+01 0. -1.
</event>
<event>
 5   0  0.7764500E-01  0.9118800E+02  0.7818608E-02  0.1180000E+00
       11   -1    0    0    0    0  0.00000000000E+00  0.00000000000E+00  0.39999999673E+01  0.40000000000E+01  0.51109989000E-03 0. -1.
     -623   -1    0    0    0    0  0.00000000000E+00  0.00000000000E+00  0.12525980253E-10  0.17130000000E+03  0.17130000000E+03 0. -1.
       11    1    1    2    0    0  0.40092832266E-01  0.92353722414E-01 -0.83919879621E-01  0.13107041108E+00  0.51109989000E-03 0. -1.
     -623    1    1    2    0    0 -0.76702411361E+00  0.57945061198E+00  0.81082222606E+00  0.17130461617E+03  0.17130000000E+03 0. -1.
      622    1    1    2    0    0  0.72693128134E+00 -0.67180433440E+00  0.32730976209E+01  0.38643134174E+01  0.18000000000E+01 0. -1.
</event>
<event>
 5   0  0.7764500E-01  0.9118800E+02  0.7818608E-02  0.1180000E+00
       11   -1    0    0    0    0  0.00000000000E+00  0.00000000000E+00  0.39999999673E+01  0.40000000000E+01  0.51109989000E-03 0. -1.
     -623   -1    0    0    0    0  0.00000000000E+00  0.00000000000E+00  0.12525980253E-10  0.17130000000E+03  0.17130000000E+03 0.  1.
       11    1    1    2    0    0 -0.18424958481E+00  0.16621053746E-01  0.14019561326E+00  0.23211902147E+00  0.51109989000E-03 0. -1.
     -623    1    1    2    0    0  0.48266201005E-01  0.12341775361E+00  0.55652920246E+00  0.17130095530E+03  0.17130000000E+03 0.  1.
      622    1    1    2    0    0  0.13598338380E+00 -0.14003880736E+00  0.33032751516E+01  0.37669256796E+01  0.18000000000E+01 0. -1.
</event>
<event>
 5   0  0.7764500E-01  0.9118800E+02  0.7818608E-02  0.1180000E+00
       11   -1    0    0    0    0  0.00000000000E+00  0.00000000000E+00  0.39999999673E+01  0.40000000000E+01  0.51109989000E-03 0. -1.
     -623   -1    0    0    0    0  0.00000000000E+00  0.00000000000E+00  0.12525980253E-10  0.17130000000E+03  0.17130000000E+03 0.  1.
       11    1    1    2    0    0  0.29772384586E-01 -0.18673836349E+00  0.19966281489E-01  0.19014869156E+00  0.51109989000E-03 0. -1.
     -623    1    1    2    0    0 -0.65207539345E+00  0.21433215491E+00  0.68366014797E+00  0.17130273942E+03  0.17130000000E+03 0.  1.
      622    1    1    2    0    0  0.62230300886E+00 -0.27593791423E-01  0.32963735379E+01  0.38071118914E+01  0.18000000000E+01 0. -1.
</event>
<event>
 5   0  0.7764500E-01  0.9118800E+02  0.7818608E-02  0.1180000E+00
       11   -1    0    0    0    0  0.00000000000E+00  0.00000000000E+00  0.39999999673E+01  0.40000000000E+01  0.51109989000E-03 0.  1.
     -623   -1    0    0    0    0  0.00000000000E+00  0.00000000000E+00  0.12525980253E-10  0.17130000000E+03  0.17130000000E+03 0. -1.
       11    1    1    2    0    0 -0.18747858360E+00  0.50037891726E-02  0.44333280958E-01  0.19271470685E+00  0.51109989000E-03 0.  1.
     -623    1    1    2    0    0 -0.54833443874E-01 -0.11735189672E+01  0.82750089417E+00  0.17130602707E+03  0.17130000000E+03 0. -1.
      622    1    1    2    0    0  0.24231202747E+00  0.11685151780E+01  0.31281657922E+01  0.38012582211E+01  0.18000000000E+01 0.  1.
</event>
<event>
 5   0  0.7764500E-01  0.9118800E+02  0.7818608E-02  0.1180000E+00
       11   -1    0    0    0    0  0.00000000000E+00  0.00000000000E+00  0.39999999673E+01  0.40000000000E+01  0.51109989000E-03 0. -1.
     -623   -1    0    0    0    0  0.00000000000E+00  0.00000000000E+00  0.12525980253E-10  0.17130000000E+03  0.17130000000E+03 0. -1.
       11    1    1    2    0    0  0.12347713179E-01 -0.61518480262E-01 -0.57360001164E-01  0.85014236397E-01  0.51109989000E-03 0. -1.
     -623    1    1    2    0    0 -0.62366289911E-01  0.25878813550E+00  0.58804080612E+00  0.17130121615E+03  0.17130000000E+03 0. -1.
      622    1    1    2    0    0  0.50018576732E-01 -0.19726965524E+00  0.34693191624E+01  0.39137696183E+01  0.18000000000E+01 0. -1.
</event>
<event>
 5   0  0.7764500E-01  0.9118800E+02  0.7818608E-02  0.1180000E+00
       11   -1    0    0    0    0  0.00000000000E+00  0.00000000000E+00  0.39999999673E+01  0.40000000000E+01  0.51109989000E-03 0.  1.
     -623   -1    0    0    0    0  0.00000000000E+00  0.00000000000E+00  0.12525980253E-10  0.17130000000E+03  0.17130000000E+03 0. -1.
       11    1    1    2    0    0  0.53216265790E-01 -0.26483505125E-01  0.32561621298E-01  0.67778074554E-01  0.51109989000E-03 0.  1.
     -623    1    1    2    0    0  0.16929863071E+00  0.40209615159E-01  0.47935882199E+00  0.17130075909E+03  0.17130000000E+03 0. -1.
      622    1    1    2    0    0 -0.22251489650E+00 -0.13726110034E-01  0.34880795241E+01  0.39314628386E+01  0.18000000000E+01 0.  1.
</event>
<event>
 5   0  0.7764500E-01  0.9118800E+02  0.7818608E-02  0.1180000E+00
       11   -1    0    0    0    0  0.00000000000E+00  0.00000000000E+00  0.39999999673E+01  0.40000000000E+01  0.51109989000E-03 0.  1.
     -623   -1    0    0    0    0  0.00000000000E+00  0.00000000000E+00  0.12525980253E-10  0.17130000000E+03  0.17130000000E+03 0.  1.
       11    1    1    2    0    0  0.12426678106E+00 -0.31305529976E+00  0.52724836421E+00  0.62564922470E+00  0.51109989000E-03 0.  1.
     -623    1    1    2    0    0  0.57860437851E+00  0.27231086058E+00  0.71003991480E+00  0.17130266517E+03  0.17130000000E+03 0.  1.
      622    1    1    2    0    0 -0.70287115957E+00  0.40744439175E-01  0.27627116883E+01  0.33716856095E+01  0.18000000000E+01 0.  1.
</event>
<event>
 5   0  0.7764500E-01  0.9118800E+02  0.7818608E-02  0.1180000E+00
       11   -1    0    0    0    0  0.00000000000E+00  0.00000000000E+00  0.39999999673E+01  0.40000000000E+01  0.51109989000E-03 0.  1.
     -623   -1    0    0    0    0  0.00000000000E+00  0.00000000000E+00  0.12525980253E-10  0.17130000000E+03  0.17130000000E+03 0.  1.
       11    1    1    2    0    0  0.70204196332E-01 -0.28549198059E+00  0.12969054292E+00  0.32133191299E+00  0.51109989000E-03 0.  1.
     -623    1    1    2    0    0 -0.56267511491E+00 -0.16849226489E-01  0.71740450608E+00  0.17130242718E+03  0.17130000000E+03 0.  1.
      622    1    1    2    0    0  0.49247091858E+00  0.30234120708E+00  0.31529049184E+01  0.36762409110E+01  0.18000000000E+01 0.  1.
</event>
<event>
 5   0  0.7764500E-01  0.9118800E+02  0.7818608E-02  0.1180000E+00
       11   -1    0    0    0    0  0.00000000000E+00  0.00000000000E+00  0.39999999673E+01  0.40000000000E+01  0.51109989000E-03 0.  1.
     -623   -1    0    0    0    0  0.00000000000E+00  0.00000000000E+00  0.12525980253E-10  0.17130000000E+03  0.17130000000E+03 0. -1.
       11    1    1    2    0    0  0.88294669413E-01  0.72500024897E-01  0.13376702736E-01  0.11502782123E+00  0.51109989000E-03 0.  1.
     -623    1    1    2    0    0  0.13200790712E+00  0.26913398449E-01  0.55336867842E+00  0.17130094678E+03  0.17130000000E+03 0. -1.
      622    1    1    2    0    0 -0.22030257653E+00 -0.99413423346E-01  0.34332545862E+01  0.38840254000E+01  0.18000000000E+01 0.  1.
</event>
<event>
 5   0  0.7764500E-01  0.9118800E+02  0.7818608E-02  0.1180000E+00
       11   -1    0    0    0    0  0.00000000000E+00  0.00000000000E+00  0.39999999673E+01  0.40000000000E+01  0.51109989000E-03 0. -1.
     -623   -1    0    0    0    0  0.00000000000E+00  0.00000000000E+00  0.12525980253E-10  0.17130000000E+03  0.17130000000E+03 0. -1.
       11    1    1    2    0    0 -0.55689671286E-01  0.44578036553E-01  0.28193477075E+00  0.29081956092E+00  0.51109989000E-03 0. -1.
     -623    1    1    2    0    0 -0.22032885305E+00  0.71331454644E-01  0.48974609951E+00  0.17130085664E+03  0.17130000000E+03 0. -1.
      622    1    1    2    0    0  0.27601852434E+00 -0.11590949120E+00  0.32283190971E+01  0.37083238031E+01  0.18000000000E+01 0. -1.
</event>
<event>
 5   0  0.7764500E-01  0.9118800E+02  0.7818608E-02  0.1180000E+00
       11   -1    0    0    0    0  0.00000000000E+00  0.00000000000E+00  0.39999999673E+01  0.40000000000E+01  0.51109989000E-03 0.  1.
     -623   -1    0    0    0    0  0.00000000000E+00  0.00000000000E+00  0.12525980253E-10  0.17130000000E+03  0.17130000000E+03 0. -1.
       11    1    1    2    0    0  0.65784430024E-01 -0.15873485894E+00  0.74408287628E+00  0.76366480518E+00  0.51109989000E-03 0.  1.
     -623    1    1    2    0    0 -0.23308938601E+00  0.72138303367E+00  0.63468814974E+00  0.17130285331E+03  0.17130000000E+03 0. -1.
      622    1    1    2    0    0  0.16730495599E+00 -0.56264817473E+00  0.26212289413E+01  0.32334818818E+01  0.18000000000E+01 0.  0.
</event>
<event>
 5   0  0.7764500E-01  0.9118800E+02  0.7818608E-02  0.1180000E+00
       11   -1    0    0    0    0  0.00000000000E+00  0.00000000000E+00  0.39999999673E+01  0.40000000000E+01  0.51109989000E-03 0.  1.
     -623   -1    0    0    0    0  0.00000000000E+00  0.00000000000E+00  0.12525980253E-10  0.17130000000E+03  0.17130000000E+03 0.  1.
       11    1    1    2    0    0  0.56643873879E-01  0.28887766991E-01 -0.34878572280E-01  0.72524530726E-01  0.51109989000E-03 0.  1.
     -623    1    1    2    0    0  0.15186341628E+00  0.18538212011E+00  0.55821102856E+00  0.17130107714E+03  0.17130000000E+03 0.  1.
      622    1    1    2    0    0 -0.20850729016E+00 -0.21426988710E+00  0.34766675111E+01  0.39263983314E+01  0.18000000000E+01 0.  1.
</event>
<event>
 5   0  0.7764500E-01  0.9118800E+02  0.7818608E-02  0.1180000E+00
       11   -1    0    0    0    0  0.00000000000E+00  0.00000000000E+00  0.39999999673E+01  0.40000000000E+01  0.51109989000E-03 0. -1.
     -623   -1    0    0    0    0  0.00000000000E+00  0.00000000000E+00  0.12525980253E-10  0.17130000000E+03  0.17130000000E+03 0. -1.
       11    1    1    2    0    0 -0.11817623767E+00  0.14164376346E+00  0.67368961553E+00  0.69848875308E+00  0.51109989000E-03 0. -1.
     -623    1    1    2    0    0 -0.21886720435E+00 -0.33623597259E+00  0.58792575125E+00  0.17130147873E+03  0.17130000000E+03 0. -1.
      622    1    1    2    0    0  0.33704344202E+00  0.19459220913E+00  0.27383846006E+01  0.33000325196E+01  0.18000000000E+01 0. -1.
</event>
<event>
 5   0  0.7764500E-01  0.9118800E+02  0.7818608E-02  0.1180000E+00
       11   -1    0    0    0    0  0.00000000000E+00  0.00000000000E+00  0.39999999673E+01  0.40000000000E+01  0.51109989000E-03 0.  1.
     -623   -1    0    0    0    0  0.00000000000E+00  0.00000000000E+00  0.12525980253E-10  0.17130000000E+03  0.17130000000E+03 0. -1.
       11    1    1    2    0    0  0.11361965796E+00  0.77100451159E-01  0.83836439269E-01  0.16088106170E+00  0.51109989000E-03 0.  1.
     -623    1    1    2    0    0 -0.35803630669E+00 -0.40375685965E-01  0.53557044789E+00  0.17130121615E+03  0.17130000000E+03 0. -1.
      622    1    1    2    0    0  0.24441664873E+00 -0.36724765194E-01  0.33805930802E+01  0.38379027841E+01  0.18000000000E+01 0.  1.
</event>
<event>
 5   0  0.7764500E-01  0.9118800E+02  0.7818608E-02  0.1180000E+00
       11   -1    0    0    0    0  0.00000000000E+00  0.00000000000E+00  0.39999999673E+01  0.40000000000E+01  0.51109989000E-03 0. -1.
     -623   -1    0    0    0    0  0.00000000000E+00  0.00000000000E+00  0.12525980253E-10  0.17130000000E+03  0.17130000000E+03 0. -1.
       11    1    1    2    0    0  0.51776616895E-01 -0.54350480448E-01 -0.58598058870E-01  0.95230176459E-01  0.51109989000E-03 0. -1.
     -623    1    1    2    0    0 -0.47192896052E+00  0.91031071660E-01  0.62125988305E+00  0.17130180083E+03  0.17130000000E+03 0. -1.
      622    1    1    2    0    0  0.42015234362E+00 -0.36680591212E-01  0.34373381432E+01  0.39029689940E+01  0.18000000000E+01 0. -1.
</event>
<event>
 5   0  0.7764500E-01  0.9118800E+02  0.7818608E-02  0.1180000E+00
       11   -1    0    0    0    0  0.00000000000E+00  0.00000000000E+00  0.39999999673E+01  0.40000000000E+01  0.51109989000E-03 0.  1.
     -623   -1    0    0    0    0  0.00000000000E+00  0.00000000000E+00  0.12525980253E-10  0.17130000000E+03  0.17130000000E+03 0.  1.
       11    1    1    2    0    0  0.19240057287E+00 -0.37922907979E+00  0.21355960257E+00  0.47585779438E+00  0.51109989000E-03 0.  1.
     -623    1    1    2    0    0  0.22572414511E+00  0.14363013340E+00  0.79734427034E+00  0.17130206461E+03  0.17130000000E+03 0.  1.
      622    1    1    2    0    0 -0.41812471798E+00  0.23559894639E+00  0.29890960944E+01  0.35220775978E+01  0.18000000000E+01 0.  1.
</event>
<event>
 5   0  0.7764500E-01  0.9118800E+02  0.7818608E-02  0.1180000E+00
       11   -1    0    0    0    0  0.00000000000E+00  0.00000000000E+00  0.39999999673E+01  0.40000000000E+01  0.51109989000E-03 0. -1.
     -623   -1    0    0    0    0  0.00000000000E+00  0.00000000000E+00  0.12525980253E-10  0.17130000000E+03  0.17130000000E+03 0. -1.
       11    1    1    2    0    0  0.19768268208E+00  0.17517702908E+00  0.36787716988E+00  0.45287891058E+00  0.51109989000E-03 0. -1.
     -623    1    1    2    0    0  0.10988762299E+00 -0.16906380477E+00  0.59249760670E+00  0.17130114334E+03  0.17130000000E+03 0. -1.
      622    1    1    2    0    0 -0.30757030507E+00 -0.61132243070E-02  0.30396251908E+01  0.35459777445E+01  0.18000000000E+01 0. -1.
</event>
<event>
 5   0  0.7764500E-01  0.9118800E+02  0.7818608E-02  0.1180000E+00
       11   -1    0    0    0    0  0.00000000000E+00  0.00000000000E+00  0.39999999673E+01  0.40000000000E+01  0.51109989000E-03 0. -1.
     -623   -1    0    0    0    0  0.00000000000E+00  0.00000000000E+00  0.12525980253E-10  0.17130000000E+03  0.17130000000E+03 0.  1.
       11    1    1    2    0    0  0.77463828156E-01 -0.91605302604E-01  0.68727174876E-01  0.13826012413E+00  0.51109989000E-03 0. -1.
     -623    1    1    2    0    0 -0.73119886277E-01  0.24304917031E+00  0.51915417443E+00  0.17130097472E+03  0.17130000000E+03 0.  1.
      622    1    1    2    0    0 -0.43439418782E-02 -0.15144386771E+00  0.34121186181E+01  0.38607651545E+01  0.18000000000E+01 0. -1.
</event>
<event>
 5   0  0.7764500E-01  0.9118800E+02  0.7818608E-02  0.1180000E+00
       11   -1    0    0    0    0  0.00000000000E+00  0.00000000000E+00  0.39999999673E+01  0.40000000000E+01  0.51109989000E-03 0. -1.
     -623   -1    0    0    0    0  0.00000000000E+00  0.00000000000E+00  0.12525980253E-10  0.17130000000E+03  0.17130000000E+03 0.  1.
       11    1    1    2    0    0  0.89568566498E-01  0.99343307619E-01  0.31466058044E+00  0.34191104541E+00  0.51109989000E-03 0. -1.
     -623    1    1    2    0    0 -0.22599372603E+00 -0.24901352017E+00  0.50844347613E+00  0.17130108463E+03  0.17130000000E+03 0.  1.
      622    1    1    2    0    0  0.13642515953E+00  0.14967021255E+00  0.31768959108E+01  0.36570043239E+01  0.18000000000E+01 0. -1.
</event>
<event>
 5   0  0.7764500E-01  0.9118800E+02  0.7818608E-02  0.1180000E+00
       11   -1    0    0    0    0  0.00000000000E+00  0.00000000000E+00  0.39999999673E+01  0.40000000000E+01  0.51109989000E-03 0.  1.
     -623   -1    0    0    0    0  0.00000000000E+00  0.00000000000E+00  0.12525980253E-10  0.17130000000E+03  0.17130000000E+03 0. -1.
       11    1    1    2    0    0 -0.26877580765E-01 -0.26142794737E-01  0.53428370051E-01  0.65274053144E-01  0.51109989000E-03 0.  1.
     -623    1    1    2    0    0 -0.82213097023E-01  0.12403875003E+00  0.45151897497E+00  0.17130065970E+03  0.17130000000E+03 0. -1.
      622    1    1    2    0    0  0.10909067779E+00 -0.97895955289E-01  0.34950526223E+01  0.39340662459E+01  0.18000000000E+01 0.  1.
</event>
<event>
 5   0  0.7764500E-01  0.9118800E+02  0.7818608E-02  0.1180000E+00
       11   -1    0    0    0    0  0.00000000000E+00  0.00000000000E+00  0.39999999673E+01  0.40000000000E+01  0.51109989000E-03 0.  1.
     -623   -1    0    0    0    0  0.00000000000E+00  0.00000000000E+00  0.12525980253E-10  0.17130000000E+03  0.17130000000E+03 0.  1.
       11    1    1    2    0    0 -0.55545650570E-01 -0.80024576886E-02  0.20522958163E-01  0.59756268802E-01  0.51109989000E-03 0.  1.
     -623    1    1    2    0    0 -0.86362469123E-01  0.59172907375E+00  0.52838994950E+00  0.17130185871E+03  0.17130000000E+03 0.  1.
      622    1    1    2    0    0  0.14190811969E+00 -0.58372661606E+00  0.34510870597E+01  0.39383850206E+01  0.18000000000E+01 0.  1.
</event>
<event>
 5   0  0.7764500E-01  0.9118800E+02  0.7818608E-02  0.1180000E+00
       11   -1    0    0    0    0  0.00000000000E+00  0.00000000000E+00  0.39999999673E+01  0.40000000000E+01  0.51109989000E-03 0.  1.
     -623   -1    0    0    0    0  0.00000000000E+00  0.00000000000E+00  0.12525980253E-10  0.17130000000E+03  0.17130000000E+03 0. -1.
       11    1    1    2    0    0 -0.15672783252E+00 -0.29907825929E+00  0.58392775802E+00  0.67452450398E+00  0.51109989000E-03 0.  1.
     -623    1    1    2    0    0  0.40424952556E+00  0.26741305591E+00  0.63323624975E+00  0.17130185614E+03  0.17130000000E+03 0. -1.
      622    1    1    2    0    0 -0.24752169305E+00  0.31665203373E-01  0.27828359596E+01  0.33236193602E+01  0.18000000000E+01 0.  1.
</event>
<event>
 5   0  0.7764500E-01  0.9118800E+02  0.7818608E-02  0.1180000E+00
       11   -1    0    0    0    0  0.00000000000E+00  0.00000000000E+00  0.39999999673E+01  0.40000000000E+01  0.51109989000E-03 0.  1.
     -623   -1    0    0    0    0  0.00000000000E+00  0.00000000000E+00  0.12525980253E-10  0.17130000000E+03  0.17130000000E+03 0.  1.
       11    1    1    2    0    0  0.25912824056E-01  0.36123890900E+00  0.19076475218E+00  0.40933662885E+00  0.51109989000E-03 0.  1.
     -623    1    1    2    0    0  0.45800017618E+00 -0.12527642796E+00  0.75204075733E+00  0.17130230887E+03  0.17130000000E+03 0.  1.
      622    1    1    2    0    0 -0.48391300023E+00 -0.23596248104E+00  0.30571944578E+01  0.35883545027E+01  0.18000000000E+01 0.  1.
</event>
<event>
 5   0  0.7764500E-01  0.9118800E+02  0.7818608E-02  0.1180000E+00
       11   -1    0    0    0    0  0.00000000000E+00  0.00000000000E+00  0.39999999673E+01  0.40000000000E+01  0.51109989000E-03 0.  1.
     -623   -1    0    0    0    0  0.00000000000E+00  0.00000000000E+00  0.12525980253E-10  0.17130000000E+03  0.17130000000E+03 0. -1.
       11    1    1    2    0    0 -0.97998381031E-01  0.29315430612E+00  0.52447983531E+00  0.60878772060E+00  0.51109989000E-03 0.  1.
     -623    1    1    2    0    0  0.36115600999E+00 -0.36164001743E+00  0.61655437758E+00  0.17130187202E+03  0.17130000000E+03 0. -1.
      622    1    1    2    0    0 -0.26315762896E+00  0.68485711307E-01  0.28589657545E+01  0.33893402626E+01  0.18000000000E+01 0.  1.
</event>
<event>
 5   0  0.7764500E-01  0.9118800E+02  0.7818608E-02  0.1180000E+00
       11   -1    0    0    0    0  0.00000000000E+00  0.00000000000E+00  0.39999999673E+01  0.40000000000E+01  0.51109989000E-03 0.  1.
     -623   -1    0    0    0    0  0.00000000000E+00  0.00000000000E+00  0.12525980253E-10  0.17130000000E+03  0.17130000000E+03 0.  1.
       11    1    1    2    0    0 -0.65092306956E-01 -0.34450909149E+00  0.50126693214E+00  0.61171261310E+00  0.51109989000E-03 0.  1.
     -623    1    1    2    0    0 -0.81848479455E-01  0.19618621506E+00  0.63726920236E+00  0.17130131728E+03  0.17130000000E+03 0.  1.
      622    1    1    2    0    0  0.14694078641E+00  0.14832287643E+00  0.28614638329E+01  0.33869701116E+01  0.18000000000E+01 0.  1.
</event>
<event>
 5   0  0.7764500E-01  0.9118800E+02  0.7818608E-02  0.1180000E+00
       11   -1    0    0    0    0  0.00000000000E+00  0.00000000000E+00  0.39999999673E+01  0.40000000000E+01  0.51109989000E-03 0.  1.
     -623   -1    0    0    0    0  0.00000000000E+00  0.00000000000E+00  0.12525980253E-10  0.17130000000E+03  0.17130000000E+03 0. -1.
       11    1    1    2    0    0  0.31237728115E+00  0.28543890738E+00  0.63930239803E+00  0.76665686782E+00  0.51109989000E-03 0.  1.
     -623    1    1    2    0    0 -0.50189078310E+00  0.16618793071E+00  0.72261128315E+00  0.17130233997E+03  0.17130000000E+03 0. -1.
      622    1    1    2    0    0  0.18951350195E+00 -0.45162683808E+00  0.26380862862E+01  0.32310031603E+01  0.18000000000E+01 0.  1.
</event>
<event>
 5   0  0.7764500E-01  0.9118800E+02  0.7818608E-02  0.1180000E+00
       11   -1    0    0    0    0  0.00000000000E+00  0.00000000000E+00  0.39999999673E+01  0.40000000000E+01  0.51109989000E-03 0. -1.
     -623   -1    0    0    0    0  0.00000000000E+00  0.00000000000E+00  0.12525980253E-10  0.17130000000E+03  0.17130000000E+03 0. -1.
       11    1    1    2    0    0  0.20421925518E+00 -0.17802059159E+00  0.10966466157E+00  0.29227287667E+00  0.51109989000E-03 0. -1.
     -623    1    1    2    0    0 -0.97504080199E-01  0.10051170189E+00  0.65302286550E+00  0.17130130195E+03  0.17130000000E+03 0. -1.
      622    1    1    2    0    0 -0.10671517498E+00  0.77508889699E-01  0.32373124403E+01  0.37064251770E+01  0.18000000000E+01 0. -1.
</event>
<event>
 5   0  0.7764500E-01  0.9118800E+02  0.7818608E-02  0.1180000E+00
       11   -1    0    0    0    0  0.00000000000E+00  0.00000000000E+00  0.39999999673E+01  0.40000000000E+01  0.51109989000E-03 0. -1.
     -623   -1    0    0    0    0  0.00000000000E+00  0.00000000000E+00  0.12525980253E-10  0.17130000000E+03  0.17130000000E+03 0.  1.
       11    1    1    2    0    0 -0.73832102295E-01 -0.12407757629E+00  0.37951735703E+00  0.40605431875E+00  0.51109989000E-03 0. -1.
     -623    1    1    2    0    0  0.28997142490E+00 -0.11970871604E+00  0.52817259233E+00  0.17130110151E+03  0.17130000000E+03 0.  1.
      622    1    1    2    0    0 -0.21613932261E+00  0.24378629233E+00  0.30923100180E+01  0.35928441673E+01  0.18000000000E+01 0. -1.
</event>
<event>
 5   0  0.7764500E-01  0.9118800E+02  0.7818608E-02  0.1180000E+00
       11   -1    0    0    0    0  0.00000000000E+00  0.00000000000E+00  0.39999999673E+01  0.40000000000E+01  0.51109989000E-03 0. -1.
     -623   -1    0    0    0    0  0.00000000000E+00  0.00000000000E+00  0.12525980253E-10  0.17130000000E+03  0.17130000000E+03 0. -1.
       11    1    1    2    0    0  0.24113160740E+00  0.13851772680E-01  0.30489915679E+00  0.38897311054E+00  0.51109989000E-03 0. -1.
     -623    1    1    2    0    0 -0.31201954611E+00 -0.58116222570E-01  0.56722189804E+00  0.17130123314E+03  0.17130000000E+03 0. -1.
      622    1    1    2    0    0  0.70887938718E-01  0.44264449890E-01  0.31278789125E+01  0.36097937521E+01  0.18000000000E+01 0. -1.
</event>
<event>
 5   0  0.7764500E-01  0.9118800E+02  0.7818608E-02  0.1180000E+00
       11   -1    0    0    0    0  0.00000000000E+00  0.00000000000E+00  0.39999999673E+01  0.40000000000E+01  0.51109989000E-03 0.  1.
     -623   -1    0    0    0    0  0.00000000000E+00  0.00000000000E+00  0.12525980253E-10  0.17130000000E+03  0.17130000000E+03 0.  1.
       11    1    1    2    0    0 -0.35356902294E-01  0.87470533244E-02 -0.15572850105E-01  0.39615607596E-01  0.51109989000E-03 0.  1.
     -623    1    1    2    0    0 -0.16909127562E+00  0.19249241259E-01  0.49481550018E+00  0.17130079919E+03  0.17130000000E+03 0.  1.
      622    1    1    2    0    0  0.20444817792E+00 -0.27996294583E-01  0.35207573173E+01  0.39595851976E+01  0.18000000000E+01 0.  1.
</event>
<event>
 5   0  0.7764500E-01  0.9118800E+02  0.7818608E-02  0.1180000E+00
       11   -1    0    0    0    0  0.00000000000E+00  0.00000000000E+00  0.39999999673E+01  0.40000000000E+01  0.51109989000E-03 0.  1.
     -623   -1    0    0    0    0  0.00000000000E+00  0.00000000000E+00  0.12525980253E-10  0.17130000000E+03  0.17130000000E+03 0. -1.
       11    1    1    2    0    0  0.10677119218E+00 -0.77345566041E-01 -0.35229813850E-01  0.13646913597E+00  0.51109989000E-03 0.  1.
     -623    1    1    2    0    0  0.23297870053E+00 -0.74383510022E-01  0.63848465796E+00  0.17130136449E+03  0.17130000000E+03 0. -1.
      622    1    1    2    0    0 -0.33974989271E+00  0.15172907606E+00  0.33967451232E+01  0.38621663784E+01  0.18000000000E+01 0.  1.
</event>
<event>
 5   0  0.7764500E-01  0.9118800E+02  0.7818608E-02  0.1180000E+00
       11   -1    0    0    0    0  0.00000000000E+00  0.00000000000E+00  0.39999999673E+01  0.40000000000E+01  0.51109989000E-03 0.  1.
     -623   -1    0    0    0    0  0.00000000000E+00  0.00000000000E+00  0.12525980253E-10  0.17130000000E+03  0.17130000000E+03 0.  1.
       11    1    1    2    0    0 -0.49068731694E-01 -0.26592282376E+00  0.41325707902E+00  0.49386674641E+00  0.51109989000E-03 0.  1.
     -623    1    1    2    0    0 -0.15605266986E-01  0.21079731684E+00  0.58042618176E+00  0.17130111375E+03  0.17130000000E+03 0.  1.
      622    1    1    2    0    0  0.64673998680E-01  0.55125506925E-01  0.30063167066E+01  0.35050194989E+01  0.18000000000E+01 0.  1.
</event>
<event>
 5   0  0.7764500E-01  0.9118800E+02  0.7818608E-02  0.1180000E+00
       11   -1    0    0    0    0  0.00000000000E+00  0.00000000000E+00  0.39999999673E+01  0.40000000000E+01  0.51109989000E-03 0.  1.
     -623   -1    0    0    0    0  0.00000000000E+00  0.00000000000E+00  0.12525980253E-10  0.17130000000E+03  0.17130000000E+03 0. -1.
       11    1    1    2    0    0  0.15624238294E+00  0.10948418397E+00  0.32116726848E+00  0.37356009468E+00  0.51109989000E-03 0.  1.
     -623    1    1    2    0    0 -0.89204249856E-01 -0.16604717758E+00  0.53294511655E+00  0.17130093275E+03  0.17130000000E+03 0. -1.
      622    1    1    2    0    0 -0.67038133088E-01  0.56562993609E-01  0.31458875823E+01  0.36255071596E+01  0.18000000000E+01 0.  1.
</event>
<event>
 5   0  0.7764500E-01  0.9118800E+02  0.7818608E-02  0.1180000E+00
       11   -1    0    0    0    0  0.00000000000E+00  0.00000000000E+00  0.39999999673E+01  0.40000000000E+01  0.51109989000E-03 0.  1.
     -623   -1    0    0    0    0  0.00000000000E+00  0.00000000000E+00  0.12525980253E-10  0.17130000000E+03  0.17130000000E+03 0.  1.
       11    1    1    2    0    0 -0.66709792328E-01 -0.43881462852E-01  0.30206687483E-01  0.85372620707E-01  0.51109989000E-03 0.  1.
     -623    1    1    2    0    0  0.26407003228E+00 -0.14908928679E+00  0.50566641596E+00  0.17130101476E+03  0.17130000000E+03 0.  1.
      622    1    1    2    0    0 -0.19736023995E+00  0.19297074965E+00  0.34641268639E+01  0.39136126155E+01  0.18000000000E+01 0.  1.
</event>
<event>
 5   0  0.7764500E-01  0.9118800E+02  0.7818608E-02  0.1180000E+00
       11   -1    0    0    0    0  0.00000000000E+00  0.00000000000E+00  0.39999999673E+01  0.40000000000E+01  0.51109989000E-03 0.  1.
     -623   -1    0    0    0    0  0.00000000000E+00  0.00000000000E+00  0.12525980253E-10  0.17130000000E+03  0.17130000000E+03 0.  1.
       11    1    1    2    0    0 -0.42725582688E+00  0.78154518774E-01  0.69535832111E+00  0.81986530989E+00  0.51109989000E-03 0.  1.
     -623    1    1    2    0    0  0.38626664516E+00 -0.10732590479E-01  0.68633741361E+00  0.17130181078E+03  0.17130000000E+03 0.  1.
      622    1    1    2    0    0  0.40989181721E-01 -0.67421928295E-01  0.26183042326E+01  0.31783239111E+01  0.18000000000E+01 0.  1.
</event>
<event>
 5   0  0.7764500E-01  0.9118800E+02  0.7818608E-02  0.1180000E+00
       11   -1    0    0    0    0  0.00000000000E+00  0.00000000000E+00  0.39999999673E+01  0.40000000000E+01  0.51109989000E-03 0.  1.
     -623   -1    0    0    0    0  0.00000000000E+00  0.00000000000E+00  0.12525980253E-10  0.17130000000E+03  0.17130000000E+03 0. -1.
       11    1    1    2    0    0 -0.99671495698E-01 -0.41732878322E-01  0.22384334014E-01  0.11035107529E+00  0.51109989000E-03 0.  1.
     -623    1    1    2    0    0  0.27280106412E-01  0.18838492848E+00  0.53446105237E+00  0.17130093952E+03  0.17130000000E+03 0. -1.
      622    1    1    2    0    0  0.72391389286E-01 -0.14665205016E+00  0.34431545810E+01  0.38887094010E+01  0.18000000000E+01 0.  1.
</event>
<event>
 5   0  0.7764500E-01  0.9118800E+02  0.7818608E-02  0.1180000E+00
       11   -1    0    0    0    0  0.00000000000E+00  0.00000000000E+00  0.39999999673E+01  0.40000000000E+01  0.51109989000E-03 0.  1.
     -623   -1    0    0    0    0  0.00000000000E+00  0.00000000000E+00  0.12525980253E-10  0.17130000000E+03  0.17130000000E+03 0. -1.
       11    1    1    2    0    0  0.13937153167E+00 -0.35805108906E-01  0.45006647775E+00  0.47251087318E+00  0.51109989000E-03 0.  1.
     -623    1    1    2    0    0 -0.20792146079E-01  0.31248040234E+00  0.53253211451E+00  0.17130111403E+03  0.17130000000E+03 0. -1.
      622    1    1    2    0    0 -0.11857938559E+00 -0.27667529343E+00  0.30174013751E+01  0.35263751002E+01  0.18000000000E+01 0.  1.
</event>
<event>
 5   0  0.7764500E-01  0.9118800E+02  0.7818608E-02  0.1180000E+00
       11   -1    0    0    0    0  0.00000000000E+00  0.00000000000E+00  0.39999999673E+01  0.40000000000E+01  0.51109989000E-03 0.  1.
     -623   -1    0    0    0    0  0.00000000000E+00  0.00000000000E+00  0.12525980253E-10  0.17130000000E+03  0.17130000000E+03 0.  1.
       11    1    1    2    0    0  0.41759330805E-01 -0.17593545634E+00 -0.16101040502E+00  0.24211926453E+00  0.51109989000E-03 0.  1.
     -623    1    1    2    0    0 -0.58880598056E+00 -0.18791015346E+00  0.93260872898E+00  0.17130365367E+03  0.17130000000E+03 0.  1.
      622    1    1    2    0    0  0.54704664975E+00  0.36384560980E+00  0.32284016434E+01  0.37542270624E+01  0.18000000000E+01 0.  1.
</event>
<event>
 5   0  0.7764500E-01  0.9118800E+02  0.7818608E-02  0.1180000E+00
       11   -1    0    0    0    0  0.00000000000E+00  0.00000000000E+00  0.39999999673E+01  0.40000000000E+01  0.51109989000E-03 0. -1.
     -623   -1    0    0    0    0  0.00000000000E+00  0.00000000000E+00  0.12525980253E-10  0.17130000000E+03  0.17130000000E+03 0. -1.
       11    1    1    2    0    0 -0.64326857580E-01  0.27127294223E-01  0.15068941476E-01  0.71422467881E-01  0.51109989000E-03 0. -1.
     -623    1    1    2    0    0  0.61147933388E-01  0.15194176429E+00  0.49848120608E+00  0.17130080359E+03  0.17130000000E+03 0. -1.
      622    1    1    2    0    0  0.31789241918E-02 -0.17906905851E+00  0.34864498198E+01  0.39277739471E+01  0.18000000000E+01 0. -1.
</event>
<event>
 5   0  0.7764500E-01  0.9118800E+02  0.7818608E-02  0.1180000E+00
       11   -1    0    0    0    0  0.00000000000E+00  0.00000000000E+00  0.39999999673E+01  0.40000000000E+01  0.51109989000E-03 0. -1.
     -623   -1    0    0    0    0  0.00000000000E+00  0.00000000000E+00  0.12525980253E-10  0.17130000000E+03  0.17130000000E+03 0.  1.
       11    1    1    2    0    0 -0.64361682394E-01  0.70498601781E-01 -0.36791676003E-01  0.10230526701E+00  0.51109989000E-03 0. -1.
     -623    1    1    2    0    0  0.22499821324E+00  0.71628151510E-01  0.58760383010E+00  0.17130117055E+03  0.17130000000E+03 0.  1.
      622    1    1    2    0    0 -0.16063653084E+00 -0.14212675329E+00  0.34491878133E+01  0.38965241793E+01  0.18000000000E+01 0. -1.
</event>
<event>
 5   0  0.7764500E-01  0.9118800E+02  0.7818608E-02  0.1180000E+00
       11   -1    0    0    0    0  0.00000000000E+00  0.00000000000E+00  0.39999999673E+01  0.40000000000E+01  0.51109989000E-03 0.  1.
     -623   -1    0    0    0    0  0.00000000000E+00  0.00000000000E+00  0.12525980253E-10  0.17130000000E+03  0.17130000000E+03 0.  1.
       11    1    1    2    0    0  0.18788939407E+00  0.12446564680E+00  0.22637235567E+00  0.31943516756E+00  0.51109989000E-03 0.  1.
     -623    1    1    2    0    0 -0.28350768207E+00 -0.10413449565E+00  0.56611192826E+00  0.17130120170E+03  0.17130000000E+03 0.  1.
      622    1    1    2    0    0  0.95618287994E-01 -0.20331151150E-01  0.32075156834E+01  0.36793631340E+01  0.18000000000E+01 0.  1.
</event>
<event>
 5   0  0.7764500E-01  0.9118800E+02  0.7818608E-02  0.1180000E+00
       11   -1    0    0    0    0  0.00000000000E+00  0.00000000000E+00  0.39999999673E+01  0.40000000000E+01  0.51109989000E-03 0. -1.
     -623   -1    0    0    0    0  0.00000000000E+00  0.00000000000E+00  0.12525980253E-10  0.17130000000E+03  0.17130000000E+03 0.  1.
       11    1    1    2    0    0 -0.82157031946E-01 -0.24369971095E-01  0.10245736984E-01  0.86307066564E-01  0.51109989000E-03 0. -1.
     -623    1    1    2    0    0  0.22862309003E-01 -0.14957478466E-01  0.51616438652E+00  0.17130077984E+03  0.17130000000E+03 0.  1.
      622    1    1    2    0    0  0.59294722943E-01  0.39327449561E-01  0.34735898439E+01  0.39129130984E+01  0.18000000000E+01 0. -1.
</event>
<event>
 5   0  0.7764500E-01  0.9118800E+02  0.7818608E-02  0.1180000E+00
       11   -1    0    0    0    0  0.00000000000E+00  0.00000000000E+00  0.39999999673E+01  0.40000000000E+01  0.51109989000E-03 0.  1.
     -623   -1    0    0    0    0  0.00000000000E+00  0.00000000000E+00  0.12525980253E-10  0.17130000000E+03  0.17130000000E+03 0.  1.
       11    1    1    2    0    0  0.13866467859E-01 -0.37693567870E-01 -0.94081292575E-02  0.41253582982E-01  0.51109989000E-03 0.  1.
     -623    1    1    2    0    0 -0.62328521334E-01  0.23833215188E+00  0.49058654858E+00  0.17130087963E+03  0.17130000000E+03 0.  1.
      622    1    1    2    0    0  0.48462053475E-01 -0.20063858401E+00  0.35188215480E+01  0.39578667864E+01  0.18000000000E+01 0.  1.
</event>
<event>
 5   0  0.7764500E-01  0.9118800E+02  0.7818608E-02  0.1180000E+00
       11   -1    0    0    0    0  0.00000000000E+00  0.00000000000E+00  0.39999999673E+01  0.40000000000E+01  0.51109989000E-03 0.  1.
     -623   -1    0    0    0    0  0.00000000000E+00  0.00000000000E+00  0.12525980253E-10  0.17130000000E+03  0.17130000000E+03 0.  1.
       11    1    1    2    0    0 -0.34425586138E-01  0.43099681092E-01  0.13022169293E+00  0.14142366854E+00  0.51109989000E-03 0.  1.
     -623    1    1    2    0    0  0.51787591995E+00  0.31541348276E+00  0.51237403174E+00  0.17130183948E+03  0.17130000000E+03 0.  1.
      622    1    1    2    0    0 -0.48345033381E+00 -0.35851316386E+00  0.33574042427E+01  0.38567368542E+01  0.18000000000E+01 0.  1.
</event>
<event>
 5   0  0.7764500E-01  0.9118800E+02  0.7818608E-02  0.1180000E+00
       11   -1    0    0    0    0  0.00000000000E+00  0.00000000000E+00  0.39999999673E+01  0.40000000000E+01  0.51109989000E-03 0. -1.
     -623   -1    0    0    0    0  0.00000000000E+00  0.00000000000E+00  0.12525980253E-10  0.17130000000E+03  0.17130000000E+03 0.  1.
       11    1    1    2    0    0  0.93158030387E-01 -0.43945332715E+00  0.19545759030E+00  0.48989955725E+00  0.51109989000E-03 0. -1.
     -623    1    1    2    0    0  0.47775586348E-01  0.32464804426E+00  0.79913473035E+00  0.17130217831E+03  0.17130000000E+03 0.  1.
      622    1    1    2    0    0 -0.14093361674E+00  0.11480528289E+00  0.30054076467E+01  0.35079221286E+01  0.18000000000E+01 0. -1.
</event>
<event>
 5   0  0.7764500E-01  0.9118800E+02  0.7818608E-02  0.1180000E+00
       11   -1    0    0    0    0  0.00000000000E+00  0.00000000000E+00  0.39999999673E+01  0.40000000000E+01  0.51109989000E-03 0.  1.
     -623   -1    0    0    0    0  0.00000000000E+00  0.00000000000E+00  0.12525980253E-10  0.17130000000E+03  0.17130000000E+03 0. -1.
       11    1    1    2    0    0  0.18016911248E+00  0.32441652194E+00  0.86103791391E+00  0.93759988226E+00  0.51109989000E-03 0.  1.
     -623    1    1    2    0    0  0.25772533295E-01 -0.22772551316E+00  0.67370701672E+00  0.17130147811E+03  0.17130000000E+03 0. -1.
      622    1    1    2    0    0 -0.20594164577E+00 -0.96691008783E-01  0.24652550367E+01  0.30609220030E+01  0.18000000000E+01 0.  1.
</event>
<event>
 5   0  0.7764500E-01  0.9118800E+02  0.7818608E-02  0.1180000E+00
       11   -1    0    0    0    0  0.00000000000E+00  0.00000000000E+00  0.39999999673E+01  0.40000000000E+01  0.51109989000E-03 0.  1.
     -623   -1    0    0    0    0  0.00000000000E+00  0.00000000000E+00  0.12525980253E-10  0.17130000000E+03  0.17130000000E+03 0.  1.
       11    1    1    2    0    0  0.36049724476E+00 -0.36923622873E+00  0.37656969571E+00  0.63882599590E+00  0.51109989000E-03 0.  1.
     -623    1    1    2    0    0 -0.15873324106E+00  0.46980319004E+00  0.79687940295E+00  0.17130257128E+03  0.17130000000E+03 0.  1.
      622    1    1    2    0    0 -0.20176400370E+00 -0.10056696131E+00  0.28265508687E+01  0.33586027214E+01  0.18000000000E+01 0.  1.
</event>
<event>
 5   0  0.7764500E-01  0.9118800E+02  0.7818608E-02  0.1180000E+00
       11   -1    0    0    0    0  0.00000000000E+00  0.00000000000E+00  0.39999999673E+01  0.40000000000E+01  0.51109989000E-03 0.  1.
     -623   -1    0    0    0    0  0.00000000000E+00  0.00000000000E+00  0.12525980253E-10  0.17130000000E+03  0.17130000000E+03 0. -1.
       11    1    1    2    0    0  0.33993363254E-01  0.14002470850E+00  0.76984099588E-01  0.16336854210E+00  0.51109989000E-03 0.  1.
     -623    1    1    2    0    0 -0.82225405095E+00 -0.68042720416E+00  0.67793225182E+00  0.17130466624E+03  0.17130000000E+03 0. -1.
      622    1    1    2    0    0  0.78826068770E+00  0.54040249566E+00  0.32450836160E+01  0.38319652195E+01  0.18000000000E+01 0.  1.
</event>
<event>
 5   0  0.7764500E-01  0.9118800E+02  0.7818608E-02  0.1180000E+00
       11   -1    0    0    0    0  0.00000000000E+00  0.00000000000E+00  0.39999999673E+01  0.40000000000E+01  0.51109989000E-03 0. -1.
     -623   -1    0    0    0    0  0.00000000000E+00  0.00000000000E+00  0.12525980253E-10  0.17130000000E+03  0.17130000000E+03 0. -1.
       11    1    1    2    0    0 -0.72417115619E-01 -0.78919318620E-01 -0.23562656584E-01  0.10967204517E+00  0.51109989000E-03 0. -1.
     -623    1    1    2    0    0  0.16144600274E+00  0.24050948864E+00  0.58102823529E+00  0.17130123030E+03  0.17130000000E+03 0. -1.
      622    1    1    2    0    0 -0.89028887119E-01 -0.16159017002E+00  0.34425343887E+01  0.38890976515E+01  0.18000000000E+01 0. -1.
</event>
<event>
 5   0  0.7764500E-01  0.9118800E+02  0.7818608E-02  0.1180000E+00
       11   -1    0    0    0    0  0.00000000000E+00  0.00000000000E+00  0.39999999673E+01  0.40000000000E+01  0.51109989000E-03 0.  1.
     -623   -1    0    0    0    0  0.00000000000E+00  0.00000000000E+00  0.12525980253E-10  0.17130000000E+03  0.17130000000E+03 0. -1.
       11    1    1    2    0    0 -0.17381440973E+00  0.14887262874E+00  0.20656358399E+00  0.30829090818E+00  0.51109989000E-03 0.  1.
     -623    1    1    2    0    0  0.47138403776E-01 -0.33803220342E+00  0.57985067041E+00  0.17130132140E+03  0.17130000000E+03 0. -1.
      622    1    1    2    0    0  0.12667600595E+00  0.18915957468E+00  0.32135857130E+01  0.36903876883E+01  0.18000000000E+01 0.  1.
</event>
<event>
 5   0  0.7764500E-01  0.9118800E+02  0.7818608E-02  0.1180000E+00
       11   -1    0    0    0    0  0.00000000000E+00  0.00000000000E+00  0.39999999673E+01  0.40000000000E+01  0.51109989000E-03 0.  1.
     -623   -1    0    0    0    0  0.00000000000E+00  0.00000000000E+00  0.12525980253E-10  0.17130000000E+03  0.17130000000E+03 0. -1.
       11    1    1    2    0    0 -0.49407538462E+00 -0.59983378501E-01  0.72246325492E+00  0.87730377140E+00  0.51109989000E-03 0.  1.
     -623    1    1    2    0    0 -0.40755662052E-01  0.17040474536E+00  0.78732818372E+00  0.17130189895E+03  0.17130000000E+03 0. -1.
      622    1    1    2    0    0  0.53483104668E+00 -0.11042136685E+00  0.24902085287E+01  0.31207972769E+01  0.18000000000E+01 0.  1.
</event>
<event>
 5   0  0.7764500E-01  0.9118800E+02  0.7818608E-02  0.1180000E+00
       11   -1    0    0    0    0  0.00000000000E+00  0.00000000000E+00  0.39999999673E+01  0.40000000000E+01  0.51109989000E-03 0.  1.
     -623   -1    0    0    0    0  0.00000000000E+00  0.00000000000E+00  0.12525980253E-10  0.17130000000E+03  0.17130000000E+03 0.  1.
       11    1    1    2    0    0  0.14368651075E+00  0.75827509103E-02  0.29409017490E-01  0.14686205438E+00  0.51109989000E-03 0.  1.
     -623    1    1    2    0    0 -0.32115978075E+00  0.43137796440E-01  0.57016007441E+00  0.17130125536E+03  0.17130000000E+03 0.  1.
      622    1    1    2    0    0  0.17747327000E+00 -0.50720547351E-01  0.34004308755E+01  0.38518825883E+01  0.18000000000E+01 0.  1.
</event>
</LesHouchesEvents>
