<LesHouchesEvents version="1.0">
<header>
<!--
#*********************************************************************
#                                                                    *
#                       MadGraph/MadEvent                            *
#                                                                    *
#                      The new web generation                        *
#                                                                    *
#                   http://madgraph.hep.uiuc.edu                     *
#                   http://madgraph.phys.ucl.ac.be                   *
#                   http://madgraph.roma2.infn.it                    *
#                                                                    *
#            CP3 team                      Tim Stelzer               *
#      Universite de Louvain          University of Illinois         *
#                                                                    *
#....................................................................*
#                                                                    *
# This file contains all the information necessary to reproduce      *
# the events generated:                                              *
#                                                                    *
# 1. software version                                                *
# 2. proc_card.dat      : code generation info including model       *
# 3. param_card.dat     : model primary parameters in the LH format  *
# 4. run_card.dat       : running parameters (collider and cuts)     *
# 5. pythia_card.dat    : present only in the pythia event file      *
# 6. pgs_card.dat       : present only in the pgs event file         *
#                                                                    *
#                                                                    *
#*********************************************************************
-->
<MGVersion>
# MG/ME version    : 4.4.17
# madgraph version : 4.4.2
# template version : 2.4.8
# helas version    : 3.5
# model version    : usrmod_1.0.4
</MGVersion>
<MGProcCard>
#*********************************************************************
#                        MadGraph/MadEvent                           *
#                   http://madgraph.hep.uiuc.edu                     *
#                                                                    *
#                          proc_card.dat                             *
#                                                                    *
# This file is used to generate the code for a specific process.     *
# Some notation/conventions:                                         *
#                                                                    *
# 0. Do not modify the TAGS and their order.                         *
# 1. hash/pound is a comment.                                        *
# 2. The number after the @ is used as an identifier for the class   *
#    of processes. It can be any positive integer.                   *
# 3. The number of lines for the max couplings depends on how many   *
#    different classes of couplings are present in the model         *
#    In the SM these are just two: QED (which include EW) and QCD    *
# 4. Write "end_coup" after  the couplings list,                     *
#    to tell MG that the couplings input is over.                    *
# 5. Write "done" after the proc list to                             *
#    to tell MG that the proc input is over.                         *
# 6. Some model names available at present are:                      *
#    sm     =  Standard Model                                        *
#    smckm =  Standard Model with Cabibbo matrix                     *
#    mssm   =  Minimal Supersymmetric Standard Model                 *
#    2hdm   =  Generic Two Higgs Doublet model                       *
#    heft   =  Higgs EFT (+Standard Model)                           *
#    usrmod =  User Model                                            *
# 7. Don't leave spaces between the particles name in the            *
#    definition of the multiparticles.                               *
#*********************************************************************
#*********************************************************************
# Process(es) requested : mg2 input                                  *
#*********************************************************************
# Begin PROCESS # This is TAG. Do not modify this line
e- N+ > e- N+ x      # Radiative
QCD=0             # Max QCD couplings
QED=1             # Max QED couplings
QFD=0 
QND=1
QWD=9
QDS=2
end_coup           # End the couplings input
done               # this tells MG there are no more procs
# End PROCESS  # This is TAG. Do not modify this line
#*********************************************************************
# Model information                                                  *
#*********************************************************************
# Begin MODEL  # This is TAG. Do not modify this line
fixedAP2     
# End   MODEL  # This is TAG. Do not modify this line
#*********************************************************************
# Start multiparticle definitions                                    *
#*********************************************************************
# Begin MULTIPARTICLES # This is TAG. Do not modify this line
P uu~cc~dd~ss~gf+f-
J uu~cc~dd~ss~gf+f-
L+ e+mu+
L- e-mu-
vl vevm
vl~ ve~vm~
# End  MULTIPARTICLES # This is TAG. Do not modify this line
</MGProcCard>
<slha>
#*********************************************************************
#                        MadGraph/MadEvent                           *
#                   http://madgraph.hep.uiuc.edu                     *
#                                                                    *
#                         param_card.dat                             *
#                                                                    *
#   Les Houches friendly file for the SM parameters of MadGraph      *
#        Spectrum and decay widths produced by SMCalc                *
#                                                                    *
#  Please note the following IMPORTANT issues:                       *
#                                                                    *
# 0. REFRAIN from editing this file by hand! Some of the parame-     *
#    ters are not independent                                        *
#    (such as G_Fermi, alpha_em, sin(theta_W),MZ,MW) and serious     *
#    problems might be encountered (such as violation of unitarity   *
#    or gauge invariance).  Always use a calculator.                 *
#                                                                    *
# 1. alpha_S(MZ) has been used in the calculation of the parameters  *
#    but, for consistency, it will be reset by madgraph to the       *
#    value expected IF the pdfs for collisions with hadrons are      *
#    used. This value is KEPT by madgraph when no pdf are used       *
#    lpp(i)=0 .                                                      *
#                                                                    *
#  2. Values of the charm and bottom kinematic (pole) masses are     *
#     those used in the matrix elements and phase space UNLESS they  *
#     are set to ZERO from the start in the model (particles.dat)    *
#     This happens, for example,  when using 5-flavor QCD where      *
#     charm and bottom are treated as partons in the initial state   *
#     and a zero mass might be hardwired in the model definition.    *
#                                                                    *
##********************************************************************
Block MODSEL # Select Model
     0   1   #  0 1 = SM
Block SMINPUTS      # Standard Model inputs
     1         1.27900000E+02   # alpha_em(MZ)(-1) SM MSbar
     2         1.16600000E-05   # G_Fermi
     3         1.18000000E-01   # alpha_s(MZ) SM MSbar
     4         9.15445065E+01   # Z mass (as input parameter)
Block MGYUKAWA     # Yukawa masses m/v=y/sqrt(2)
#    PDG          YMASS
     5         4.20000000E+00   # mbottom for the Yukawa  y_b
     4         1.25000000E+00   # mcharm  for the Yukawa  y_c
     6         1.74300000E+02   # mtop    for the Yukawa  y_t
    15         1.77700000E+00   # mtau    for the Yukawa  y_ta
Block MGCKM     # CKM elements for MadGraph
     1   1     9.75000000E-01   # Vud for Cabibbo matrix
#===========================================================
# QUANTUM NUMBERS OF NEW STATE(S) (NON SM PDG CODE) IF ANY
# (see below for masses and decay tables)
# These blocks are automatically created by the MadGraph
# qnumbers.pl script from the particles.dat model file
#===========================================================
BLOCK QNUMBERS 611 # f-
         1  -3 # 3 times electric charge
         2  2 # number of spin states (2S+1)
         3  1 # colour rep (1: singlet, 3: triplet, 8: octet)
         4  1 # Particle/Antiparticle distinction (0=own anti)
BLOCK QNUMBERS 622 # x
         1  0 # 3 times electric charge
         2  3 # number of spin states (2S+1)
         3  1 # colour rep (1: singlet, 3: triplet, 8: octet)
         4  0 # Particle/Antiparticle distinction (0=own anti)
BLOCK QNUMBERS 623 # N-
         1  0 # 3 times electric charge
         2  2 # number of spin states (2S+1)
         3  1 # colour rep (1: singlet, 3: triplet, 8: octet)
         4  1 # Particle/Antiparticle distinction (0=own anti)
# END of QNUMBERS blocks
#===========================================================
Block MASS      #  Mass spectrum (kinematic masses)
#       PDG       Mass
         4     1.40000000E+00   # charm    pole mass
         5     4.20000000E+00   # bottom   pole mass
         6     1.74300000E+02   # top      pole mass
        11     0.51109989E-03   # electron mass
        13     0.10565837E+00   # muon     mass
        15     1.77700000E+00   # tau      mass
        23     9.15445065E+01   # Z        mass
        24     8.02673592E+01   # W        mass
        25     1.20000000E+02   # H        mass
       611 0.7 # FMASS
       622 2.1 # APMASS
       623     1.71300000e+02   # HPMASS (tungsten)
#            PDG       Width
DECAY       611     0.00000000e+00   # ELWIDTH
DECAY 622 0.063769346025 # APWIDTH
DECAY       623     0.00000000e+00   # HPWIDTH
DECAY         6     1.51013490E+00   # top width
DECAY        23     2.44639985E+00   # Z   width
DECAY        24     2.03535570E+00   # W   width
DECAY        25     6.79485838E-03   # H   width
#        BR           NDA        ID1       ID2
     7.00588389E-02    2           4        -4   # BR( H -> c  cbar  )
     7.61074375E-01    2           5        -5   # BR( H -> b  bbar  )
     0.00000000E+00    2           6        -6   # BR( H -> t  tbar  )
     3.65529942E-02    2          15       -15   # BR( H -> tau- tau+)
     5.84716539E-03    2          23        23   # BR( H -> Z   Z^(*))
     6.31545979E-02    2          24       -24   # BR( H -> W   W^(*))
     2.55499652E-02    2          21        21   # BR( H -> g   g    )
     1.20906932E-03    2          22        22   # BR( H -> A   A    )
BLOCK MGUSER
         1     1.00000000e-00   # epsilon ,mixing coefficient
         2     74.0000000e+00   # Znuc    ,nuclear charge
</slha>
<MGRunCard>
#*********************************************************************
#                       MadGraph/MadEvent                            *
#                  http://madgraph.hep.uiuc.edu                      *
#                                                                    *
#                        run_card.dat                                *
#                                                                    *
#  This file is used to set the parameters of the run.               *
#                                                                    *
#  Some notation/conventions:                                        *
#                                                                    *
#   Lines starting with a '# ' are info or comments                  *
#                                                                    *
#   mind the format:   value    = variable     ! comment             *
#*********************************************************************
#
#*******************                                                 
# Running parameters
#*******************                                                 
#                                                                    
#*********************************************************************
# Tag name for the run (one word)                                    *
#*********************************************************************
  'HPS'     = run_tag ! name of the run 
#*********************************************************************
# Run to generate the grid pack                                      *
#*********************************************************************
  .false.     = gridpack  !True = setting up the grid pack
#*********************************************************************
# Number of events and rnd seed                                      *
#*********************************************************************
   1000      = nevents ! Number of unweighted events requested 
188723 = iseed ! rnd seed (0=assigned automatically=default))
#*********************************************************************
# Collider type and energy                                           *
#*********************************************************************
        0     = lpp1  ! beam 1 type (0=NO PDF)
        0     = lpp2  ! beam 2 type (0=NO PDF)
4 = ebeam1  ! beam 1 energy in GeV
    171.3    = ebeam2  ! beam 2 energy in GeV
    0.000511  = mbeam1  ! beam 1 energy in GeV
    171.3    = mbeam2  ! beam 2 energy in GeV
#*********************************************************************
# Beam polarization from -100 (left-handed) to 100 (right-handed)    *
#*********************************************************************
        0     = polbeam1 ! beam polarization for beam 1
        0     = polbeam2 ! beam polarization for beam 2
#*********************************************************************
# PDF CHOICE: this automatically fixes also alpha_s and its evol.    *
#*********************************************************************
 'cteq6l1'    = pdlabel     ! PDF set                                     
#*********************************************************************
# Renormalization and factorization scales                           *
#*********************************************************************
 F        = fixed_ren_scale  ! if .true. use fixed ren scale
 F        = fixed_fac_scale  ! if .true. use fixed fac scale
 91.1880  = scale            ! fixed ren scale
 91.1880  = dsqrt_q2fact1    ! fixed fact scale for pdf1
 91.1880  = dsqrt_q2fact2    ! fixed fact scale for pdf2
 1        = scalefact        ! scale factor for event-by-event scales
 F        = fixed_couplings  ! if .false. calc. coupl. for every event
#*********************************************************************
# Matching - Warning! ickkw > 0 is still beta
#*********************************************************************
 0        = ickkw            ! 0 no matching, 1 MLM, 2 CKKW matching
#*********************************************************************
#                                                                    
#**********************************
32.9311829414 = bwcutoff*Gamma)
#**********************************
32.9311829414 = bwcutoff
#*******************                                                 
# Fixed-Target Cuts
#*******************                                                 
#
 0.0 = ef        ! minimum E for all f's
 100.0 = efmax     ! maximum E for all f's
 0.0 = thetafmin ! min angle for both f's
 100.0 = thetafmax ! max angle for both f's
 0.0 = thetaxfmin ! min angle (x direction) for both f's
 100.0 = thetaxfmax ! max angle (x direction) for both f's 
 0.0 = thetayfmin ! min angle (y direction) for both f's
 100.0 = thetayfmax ! max angle (y direction) for both f's 
 0.0 = xthetaxfmin ! min angle (x direction) for >=1 f's
 100.0 = xthetaxfmax ! max angle (x direction) for >=1 f's 
 0.0 = xthetayfmin ! min angle (y direction) for >=1 f's
 100.0 = xthetayfmax ! max angle (y direction) for >=1 f's 
 0.0 = mmff      ! min invariant mass of f+f- lepton pair
 100.0 = mmffmax  ! max invariant mass of f+f- lepton pair
 0.0 = xef       ! min. energy for at least one f
 0.0 = xthetaf   ! minimum angle for at least one f
 0.0 = eftot     ! minimum energy for the two f's
 0d0 = efrat     ! min. ratio Emin/Emax for the two f's
 0.0  = el     !!! 0.2 = el  !!! was 0.05 with normal cuts! minimum E for the charged leptons 
 0.0  = drll  !!! was 0.1  ! min distance between leptons 
 0.0  = mmll    ! min invariant mass of l+l- (same flavour) lepton pair
#
#*******************                                                 
# Standard Cuts
#*******************                                                 
#                                                                    
#*********************************************************************
# Minimum and maximum pt's                                           *
#*********************************************************************
  0  = ptj       ! minimum pt for the jets 
  0  = ptb       ! minimum pt for the b 
  0  = pta       ! minimum pt for the photons 
  0  = ptl       ! minimum pt for the charged leptons 
  0  = misset    ! minimum missing Et (sum of neutrino's momenta)
  0  = ptheavy   ! minimum pt for one heavy final state
 1.0 = ptonium   ! minimum pt for the quarkonium states
 1d5 = ptjmax    ! maximum pt for the jets
 1d5 = ptbmax    ! maximum pt for the b
 1d5 = ptamax    ! maximum pt for the photons
 1d9 = ptlmax    ! maximum pt for the charged leptons
 1d9 = missetmax ! maximum missing Et (sum of neutrino's momenta)
#*********************************************************************
# Minimum and maximum E's (in the lab frame)                         *
#*********************************************************************
  0  = ej     ! minimum E for the jets 
  0  = eb     ! minimum E for the b 
  0  = ea     ! minimum E for the photons 
 1d5  = ejmax ! maximum E for the jets
 1d5  = ebmax ! maximum E for the b
 1d5  = eamax ! maximum E for the photons
 1.2  = elmax ! maximum E for the charged leptons
#*********************************************************************
# Maximum and minimum rapidity                                       *
#*********************************************************************
 1d5  = etaj    ! max rap for the jets 
 1d5  = etab    ! max rap for the b 
 1d5  = etaa    ! max rap for the photons 
 1d5  = etal     !!! 1(2) wth cuts ! max rap for the charged leptons 
 1d5  = etafl     !!! 0(1) wth cuts ! max rap for the charged leptons 
 0.0  = etaonium ! max rap for the quarkonium states
 0d0  = etajmin ! min rap for the jets
 0d0  = etabmin ! min rap for the b
 0d0  = etaamin ! min rap for the photons
 0d0  = etalmin ! main rap for the charged lepton
#*********************************************************************
# Minimum and maximum DeltaR distance                                *
#*********************************************************************
 0   = drjj    ! min distance between jets 
 0   = drbb    ! min distance between b's 
 0   = draa    ! min distance between gammas 
 0   = drbj    ! min distance between b and jet 
 0   = draj    ! min distance between gamma and jet 
 0   = drjl    ! min distance between jet and lepton 
 0   = drab    ! min distance between gamma and b 
 0   = drbl    ! min distance between b and lepton 
 0   = dral    ! min distance between gamma and lepton 
 1d2 = drjjmax ! max distance between jets
 1d2 = drbbmax ! max distance between b's
 1d9 = drllmax ! max distance between leptons
 1d2 = draamax ! max distance between gammas
 1d2 = drbjmax ! max distance between b and jet
 1d2 = drajmax ! max distance between gamma and jet
 1d2 = drjlmax ! max distance between jet and lepton
 1d2 = drabmax ! max distance between gamma and b
 1d2 = drblmax ! max distance between b and lepton
 1d2 = dralmax ! maxdistance between gamma and lepton
#*********************************************************************
# Minimum and maximum invariant mass for pairs                       *
#*********************************************************************
 0   = mmjj    ! min invariant mass of a jet pair 
 0   = mmbb    ! min invariant mass of a b pair 
 0   = mmaa    ! min invariant mass of gamma gamma pair
 1d5 = mmjjmax ! max invariant mass of a jet pair
 1d5 = mmbbmax ! max invariant mass of a b pair
 1d5 = mmaamax ! max invariant mass of gamma gamma pair
 1d5 = mmllmax ! max invariant mass of l+l- (same flavour) lepton pair
#*********************************************************************
# Minimum and maximum invariant mass for all letpons                 *
#*********************************************************************
 0   = mmnl    ! min invariant mass for all letpons (l+- and vl) 
 1d9 = mmnlmax ! max invariant mass for all letpons (l+- and vl) 
#*********************************************************************
# Inclusive cuts                                                     *
#*********************************************************************
 0  = xptj ! minimum pt for at least one jet  
 0  = xptb ! minimum pt for at least one b 
 0  = xpta ! minimum pt for at least one photon 
 0  = xptl ! minimum pt for at least one charged lepton 
#*********************************************************************
# Control the pt's of the jets sorted by pt                          *
#*********************************************************************
 0   = ptj1min ! minimum pt for the leading jet in pt
 0   = ptj2min ! minimum pt for the second jet in pt
 0   = ptj3min ! minimum pt for the third jet in pt
 0   = ptj4min ! minimum pt for the fourth jet in pt
 1d5 = ptj1max ! maximum pt for the leading jet in pt 
 1d5 = ptj2max ! maximum pt for the second jet in pt
 1d5 = ptj3max ! maximum pt for the third jet in pt
 1d5 = ptj4max ! maximum pt for the fourth jet in pt
 0   = cutuse  ! reject event if fails any (0) / all (1) jet pt cuts
#*********************************************************************
# Control the Ht(k)=Sum of k leading jets                            *
#*********************************************************************
 0   = htjmin ! minimum jet HT=Sum(jet pt)
 1d5 = htjmax ! maximum jet HT=Sum(jet pt)
 0   = ht2min ! minimum Ht for the two leading jets
 0   = ht3min ! minimum Ht for the three leading jets
 0   = ht4min ! minimum Ht for the four leading jets
 1d5 = ht2max ! maximum Ht for the two leading jets
 1d5 = ht3max ! maximum Ht for the three leading jets
 1d5 = ht4max ! maximum Ht for the four leading jets
#*********************************************************************
# WBF cuts                                                           *
#*********************************************************************
 0   = xetamin ! minimum rapidity for two jets in the WBF case  
 0   = deltaeta ! minimum rapidity for two jets in the WBF case 
#*********************************************************************
# maximal pdg code for quark to be considered as a jet               *
# otherwise b cuts are applied                                       *
#*********************************************************************
 4 = maxjetflavor
#*********************************************************************
# Jet measure cuts                                                   *
#*********************************************************************
 0   = xqcut   ! minimum kt jet measure between partons
#*********************************************************************
</MGRunCard>
<MGGenerationInfo>
#  Number of Events        :        1000
#  Integrated weight (pb)  :  .74626E+01
#  Truncated wgt (pb)      :  .14851E-01
#  Unit wgt                :  .74626E-02
</MGGenerationInfo>
</header>
<init>
       11     -623  0.40000000000E+01  0.17130000000E+03 0 0     0     0 3  1
  0.74625672620E+01  0.92807592857E-01  0.74626000000E-02   0
</init>
<event>
 5   0  0.7462600E-02  0.9118800E+02  0.7818608E-02  0.1180000E+00
       11   -1    0    0    0    0  0.00000000000E+00  0.00000000000E+00  0.39999999673E+01  0.40000000000E+01  0.51109989000E-03 0. -1.
     -623   -1    0    0    0    0  0.00000000000E+00  0.00000000000E+00  0.12525980253E-10  0.17130000000E+03  0.17130000000E+03 0. -1.
       11    1    1    2    0    0 -0.10813527295E+00 -0.21591586021E+00  0.19232078856E+00  0.30870769812E+00  0.51109989000E-03 0. -1.
     -623    1    1    2    0    0  0.98686528650E+00  0.51517142465E+00  0.92517912106E+00  0.17130611566E+03  0.17130000000E+03 0. -1.
      622    1    1    2    0    0 -0.87873001355E+00 -0.29925556445E+00  0.28825000577E+01  0.36851766460E+01  0.21000000000E+01 0. -1.
</event>
<event>
 5   0  0.7462600E-02  0.9118800E+02  0.7818608E-02  0.1180000E+00
       11   -1    0    0    0    0  0.00000000000E+00  0.00000000000E+00  0.39999999673E+01  0.40000000000E+01  0.51109989000E-03 0. -1.
     -623   -1    0    0    0    0  0.00000000000E+00  0.00000000000E+00  0.12525980253E-10  0.17130000000E+03  0.17130000000E+03 0. -1.
       11    1    1    2    0    0  0.11037588516E+00  0.13992740470E+00  0.79837984879E-01  0.19528666023E+00  0.51109989000E-03 0. -1.
     -623    1    1    2    0    0 -0.15626681850E+00 -0.30418629937E+00  0.75448357122E+00  0.17130200289E+03  0.17130000000E+03 0. -1.
      622    1    1    2    0    0  0.45890933345E-01  0.16425889467E+00  0.31656784113E+01  0.38027104499E+01  0.21000000000E+01 0. -1.
</event>
<event>
 5   0  0.7462600E-02  0.9118800E+02  0.7818608E-02  0.1180000E+00
       11   -1    0    0    0    0  0.00000000000E+00  0.00000000000E+00  0.39999999673E+01  0.40000000000E+01  0.51109989000E-03 0.  1.
     -623   -1    0    0    0    0  0.00000000000E+00  0.00000000000E+00  0.12525980253E-10  0.17130000000E+03  0.17130000000E+03 0.  1.
       11    1    1    2    0    0  0.23763207233E+00 -0.30241467107E+00  0.29556281352E+00  0.48505800997E+00  0.51109989000E-03 0.  1.
     -623    1    1    2    0    0  0.17307505351E+00  0.31439145040E+00  0.91947554267E+00  0.17130284362E+03  0.17130000000E+03 0.  1.
      622    1    1    2    0    0 -0.41070712584E+00 -0.11976779329E-01  0.27849616112E+01  0.35120983702E+01  0.21000000000E+01 0.  1.
</event>
<event>
 5   0  0.7462600E-02  0.9118800E+02  0.7818608E-02  0.1180000E+00
       11   -1    0    0    0    0  0.00000000000E+00  0.00000000000E+00  0.39999999673E+01  0.40000000000E+01  0.51109989000E-03 0. -1.
     -623   -1    0    0    0    0  0.00000000000E+00  0.00000000000E+00  0.12525980253E-10  0.17130000000E+03  0.17130000000E+03 0. -1.
       11    1    1    2    0    0  0.21340502944E+00  0.54530961107E-01  0.57731571225E+00  0.61790697126E+00  0.51109989000E-03 0. -1.
     -623    1    1    2    0    0 -0.36094709713E+00  0.60011828673E-01  0.78090720845E+00  0.17130217074E+03  0.17130000000E+03 0. -1.
      622    1    1    2    0    0  0.14754206769E+00 -0.11454278978E+00  0.26417770467E+01  0.33799222886E+01  0.21000000000E+01 0. -1.
</event>
<event>
 5   0  0.7462600E-02  0.9118800E+02  0.7818608E-02  0.1180000E+00
       11   -1    0    0    0    0  0.00000000000E+00  0.00000000000E+00  0.39999999673E+01  0.40000000000E+01  0.51109989000E-03 0. -1.
     -623   -1    0    0    0    0  0.00000000000E+00  0.00000000000E+00  0.12525980253E-10  0.17130000000E+03  0.17130000000E+03 0.  1.
       11    1    1    2    0    0  0.10333336068E+00 -0.78286271705E-01  0.61061992275E-01  0.14330161161E+00  0.51109989000E-03 0. -1.
     -623    1    1    2    0    0  0.11737342769E+00  0.26792536739E+00  0.71933006123E+00  0.17130176005E+03  0.17130000000E+03 0.  1.
      622    1    1    2    0    0 -0.22070678837E+00 -0.18963909568E+00  0.32196079139E+01  0.38549383383E+01  0.21000000000E+01 0. -1.
</event>
<event>
 5   0  0.7462600E-02  0.9118800E+02  0.7818608E-02  0.1180000E+00
       11   -1    0    0    0    0  0.00000000000E+00  0.00000000000E+00  0.39999999673E+01  0.40000000000E+01  0.51109989000E-03 0.  1.
     -623   -1    0    0    0    0  0.00000000000E+00  0.00000000000E+00  0.12525980253E-10  0.17130000000E+03  0.17130000000E+03 0.  1.
       11    1    1    2    0    0  0.47856762949E-01 -0.13928854240E+00  0.16879162156E-01  0.14824552317E+00  0.51109989000E-03 0.  1.
     -623    1    1    2    0    0 -0.40040999730E+00  0.87291026220E-01  0.77661457873E+00  0.17130225065E+03  0.17130000000E+03 0.  1.
      622    1    1    2    0    0  0.35255323436E+00  0.51997516179E-01  0.32065062265E+01  0.38495038258E+01  0.21000000000E+01 0.  1.
</event>
<event>
 5   0  0.7462600E-02  0.9118800E+02  0.7818608E-02  0.1180000E+00
       11   -1    0    0    0    0  0.00000000000E+00  0.00000000000E+00  0.39999999673E+01  0.40000000000E+01  0.51109989000E-03 0.  1.
     -623   -1    0    0    0    0  0.00000000000E+00  0.00000000000E+00  0.12525980253E-10  0.17130000000E+03  0.17130000000E+03 0. -1.
       11    1    1    2    0    0 -0.18173269438E+00  0.13515136602E+00 -0.29116183163E-01  0.22834333204E+00  0.51109989000E-03 0.  1.
     -623    1    1    2    0    0 -0.28084833672E+00  0.18859896035E+00  0.95110209878E+00  0.17130297441E+03  0.17130000000E+03 0. -1.
      622    1    1    2    0    0  0.46258103109E+00 -0.32375032637E+00  0.30780140517E+01  0.37686822613E+01  0.21000000000E+01 0.  0.
</event>
<event>
 5   0  0.7462600E-02  0.9118800E+02  0.7818608E-02  0.1180000E+00
       11   -1    0    0    0    0  0.00000000000E+00  0.00000000000E+00  0.39999999673E+01  0.40000000000E+01  0.51109989000E-03 0. -1.
     -623   -1    0    0    0    0  0.00000000000E+00  0.00000000000E+00  0.12525980253E-10  0.17130000000E+03  0.17130000000E+03 0. -1.
       11    1    1    2    0    0  0.19806058247E-02 -0.26762736827E+00  0.44385341846E-01  0.27129071278E+00  0.51109989000E-03 0. -1.
     -623    1    1    2    0    0  0.22036750988E-01  0.77822978212E-01  0.88322907097E+00  0.17130229606E+03  0.17130000000E+03 0. -1.
      622    1    1    2    0    0 -0.24017356813E-01  0.18980439006E+00  0.30723855545E+01  0.37264132266E+01  0.21000000000E+01 0. -1.
</event>
<event>
 5   0  0.7462600E-02  0.9118800E+02  0.7818608E-02  0.1180000E+00
       11   -1    0    0    0    0  0.00000000000E+00  0.00000000000E+00  0.39999999673E+01  0.40000000000E+01  0.51109989000E-03 0.  1.
     -623   -1    0    0    0    0  0.00000000000E+00  0.00000000000E+00  0.12525980253E-10  0.17130000000E+03  0.17130000000E+03 0.  1.
       11    1    1    2    0    0 -0.31592928516E+00  0.12563907802E+00  0.32458635351E+00  0.47005643625E+00  0.51109989000E-03 0.  1.
     -623    1    1    2    0    0  0.15238494840E+00 -0.45870775279E+00  0.86604388317E+00  0.17130287116E+03  0.17130000000E+03 0.  1.
      622    1    1    2    0    0  0.16354433676E+00  0.33306867477E+00  0.28093697307E+01  0.35270724086E+01  0.21000000000E+01 0.  1.
</event>
<event>
 5   0  0.7462600E-02  0.9118800E+02  0.7818608E-02  0.1180000E+00
       11   -1    0    0    0    0  0.00000000000E+00  0.00000000000E+00  0.39999999673E+01  0.40000000000E+01  0.51109989000E-03 0.  1.
     -623   -1    0    0    0    0  0.00000000000E+00  0.00000000000E+00  0.12525980253E-10  0.17130000000E+03  0.17130000000E+03 0. -1.
       11    1    1    2    0    0 -0.14104839674E+00  0.21411417773E+00  0.10743396870E-01  0.25662270579E+00  0.51109989000E-03 0.  1.
     -623    1    1    2    0    0 -0.94057933345E-01 -0.16933069063E+00  0.90267703274E+00  0.17130248786E+03  0.17130000000E+03 0. -1.
      622    1    1    2    0    0  0.23510633009E+00 -0.44783487096E-01  0.30865795378E+01  0.37408894384E+01  0.21000000000E+01 0.  1.
</event>
<event>
 5   0  0.7462600E-02  0.9118800E+02  0.7818608E-02  0.1180000E+00
       11   -1    0    0    0    0  0.00000000000E+00  0.00000000000E+00  0.39999999673E+01  0.40000000000E+01  0.51109989000E-03 0. -1.
     -623   -1    0    0    0    0  0.00000000000E+00  0.00000000000E+00  0.12525980253E-10  0.17130000000E+03  0.17130000000E+03 0. -1.
       11    1    1    2    0    0  0.11530707784E-01  0.11231544410E+00  0.13754622555E+00  0.17795207667E+00  0.51109989000E-03 0. -1.
     -623    1    1    2    0    0 -0.69818440420E+00  0.38259784555E-01  0.75112012777E+00  0.17130307384E+03  0.17130000000E+03 0. -1.
      622    1    1    2    0    0  0.68665369642E+00 -0.15057522865E+00  0.31113336140E+01  0.38189740842E+01  0.21000000000E+01 0. -1.
</event>
<event>
 5   0  0.7462600E-02  0.9118800E+02  0.7818608E-02  0.1180000E+00
       11   -1    0    0    0    0  0.00000000000E+00  0.00000000000E+00  0.39999999673E+01  0.40000000000E+01  0.51109989000E-03 0.  1.
     -623   -1    0    0    0    0  0.00000000000E+00  0.00000000000E+00  0.12525980253E-10  0.17130000000E+03  0.17130000000E+03 0. -1.
       11    1    1    2    0    0 -0.20361134703E+00 -0.19122336291E+00  0.79941112987E+00  0.84680716279E+00  0.51109989000E-03 0.  1.
     -623    1    1    2    0    0  0.34760077917E+00  0.25576428514E+00  0.85734847433E+00  0.17130268909E+03  0.17130000000E+03 0. -1.
      622    1    1    2    0    0 -0.14398943214E+00 -0.64540922237E-01  0.23432403632E+01  0.31505037513E+01  0.21000000000E+01 0.  1.
</event>
<event>
 5   0  0.7462600E-02  0.9118800E+02  0.7818608E-02  0.1180000E+00
       11   -1    0    0    0    0  0.00000000000E+00  0.00000000000E+00  0.39999999673E+01  0.40000000000E+01  0.51109989000E-03 0. -1.
     -623   -1    0    0    0    0  0.00000000000E+00  0.00000000000E+00  0.12525980253E-10  0.17130000000E+03  0.17130000000E+03 0.  1.
       11    1    1    2    0    0 -0.17115136777E+00  0.32686136302E+00 -0.16605898982E+00  0.40460720538E+00  0.51109989000E-03 0. -1.
     -623    1    1    2    0    0  0.17095281686E+00 -0.38458189587E+00  0.12545659597E+01  0.17130511103E+03  0.17130000000E+03 0.  1.
      622    1    1    2    0    0  0.19855090706E-03  0.57720532851E-01  0.29114929974E+01  0.35902817680E+01  0.21000000000E+01 0. -1.
</event>
<event>
 5   0  0.7462600E-02  0.9118800E+02  0.7818608E-02  0.1180000E+00
       11   -1    0    0    0    0  0.00000000000E+00  0.00000000000E+00  0.39999999673E+01  0.40000000000E+01  0.51109989000E-03 0.  1.
     -623   -1    0    0    0    0  0.00000000000E+00  0.00000000000E+00  0.12525980253E-10  0.17130000000E+03  0.17130000000E+03 0. -1.
       11    1    1    2    0    0 -0.83585452938E-02 -0.19605578376E+00  0.13625256429E+00  0.23889905426E+00  0.51109989000E-03 0.  1.
     -623    1    1    2    0    0  0.11002253824E+00  0.43363067961E-01  0.75094415773E+00  0.17130168681E+03  0.17130000000E+03 0. -1.
      622    1    1    2    0    0 -0.10166399294E+00  0.15269271580E+00  0.31128032453E+01  0.37594141401E+01  0.21000000000E+01 0.  1.
</event>
<event>
 5   0  0.7462600E-02  0.9118800E+02  0.7818608E-02  0.1180000E+00
       11   -1    0    0    0    0  0.00000000000E+00  0.00000000000E+00  0.39999999673E+01  0.40000000000E+01  0.51109989000E-03 0. -1.
     -623   -1    0    0    0    0  0.00000000000E+00  0.00000000000E+00  0.12525980253E-10  0.17130000000E+03  0.17130000000E+03 0. -1.
       11    1    1    2    0    0  0.10377213515E+00 -0.10818128150E+00 -0.10121456898E-01  0.15024829721E+00  0.51109989000E-03 0. -1.
     -623    1    1    2    0    0 -0.15787310370E+00  0.34304725192E+00  0.79529873081E+00  0.17130226241E+03  0.17130000000E+03 0. -1.
      622    1    1    2    0    0  0.54100968547E-01 -0.23486597042E+00  0.32148226934E+01  0.38474892968E+01  0.21000000000E+01 0. -1.
</event>
<event>
 5   0  0.7462600E-02  0.9118800E+02  0.7818608E-02  0.1180000E+00
       11   -1    0    0    0    0  0.00000000000E+00  0.00000000000E+00  0.39999999673E+01  0.40000000000E+01  0.51109989000E-03 0.  1.
     -623   -1    0    0    0    0  0.00000000000E+00  0.00000000000E+00  0.12525980253E-10  0.17130000000E+03  0.17130000000E+03 0. -1.
       11    1    1    2    0    0  0.33246829968E+00 -0.26394874605E+00  0.57915529123E+00  0.71807048639E+00  0.51109989000E-03 0.  1.
     -623    1    1    2    0    0 -0.45526410682E+00 -0.11562089514E+00  0.93469212948E+00  0.17130319402E+03  0.17130000000E+03 0. -1.
      622    1    1    2    0    0  0.12279580714E+00  0.37956964118E+00  0.24861525466E+01  0.32787354892E+01  0.21000000000E+01 0.  1.
</event>
<event>
 5   0  0.7462600E-02  0.9118800E+02  0.7818608E-02  0.1180000E+00
       11   -1    0    0    0    0  0.00000000000E+00  0.00000000000E+00  0.39999999673E+01  0.40000000000E+01  0.51109989000E-03 0.  1.
     -623   -1    0    0    0    0  0.00000000000E+00  0.00000000000E+00  0.12525980253E-10  0.17130000000E+03  0.17130000000E+03 0.  1.
       11    1    1    2    0    0 -0.35730351471E+00  0.17910686177E-01  0.23456370601E+00  0.42779315995E+00  0.51109989000E-03 0.  1.
     -623    1    1    2    0    0  0.45120566095E+00 -0.11487254896E+00  0.88243574842E+00  0.17130290562E+03  0.17130000000E+03 0.  1.
      622    1    1    2    0    0 -0.93902146238E-01  0.96961862787E-01  0.28830005129E+01  0.35693012164E+01  0.21000000000E+01 0.  1.
</event>
<event>
 5   0  0.7462600E-02  0.9118800E+02  0.7818608E-02  0.1180000E+00
       11   -1    0    0    0    0  0.00000000000E+00  0.00000000000E+00  0.39999999673E+01  0.40000000000E+01  0.51109989000E-03 0.  1.
     -623   -1    0    0    0    0  0.00000000000E+00  0.00000000000E+00  0.12525980253E-10  0.17130000000E+03  0.17130000000E+03 0. -1.
       11    1    1    2    0    0  0.23414589472E+00  0.11566324040E+00  0.88647096210E+00  0.92413922818E+00  0.51109989000E-03 0.  1.
     -623    1    1    2    0    0  0.21887415656E+00  0.13559689256E+00  0.93045028987E+00  0.17130272044E+03  0.17130000000E+03 0. -1.
      622    1    1    2    0    0 -0.45302005128E+00 -0.25126013296E+00  0.21830787154E+01  0.30731403318E+01  0.21000000000E+01 0.  1.
</event>
<event>
 5   0  0.7462600E-02  0.9118800E+02  0.7818608E-02  0.1180000E+00
       11   -1    0    0    0    0  0.00000000000E+00  0.00000000000E+00  0.39999999673E+01  0.40000000000E+01  0.51109989000E-03 0. -1.
     -623   -1    0    0    0    0  0.00000000000E+00  0.00000000000E+00  0.12525980253E-10  0.17130000000E+03  0.17130000000E+03 0. -1.
       11    1    1    2    0    0  0.35430006677E-02 -0.42164472912E-01  0.70668961039E-01  0.82369647961E-01  0.51109989000E-03 0. -1.
     -623    1    1    2    0    0  0.38209900451E+00  0.49563589204E+00  0.67910433053E+00  0.17130248929E+03  0.17130000000E+03 0. -1.
      622    1    1    2    0    0 -0.38564200518E+00 -0.45347141912E+00  0.32502266758E+01  0.39151410611E+01  0.21000000000E+01 0. -1.
</event>
<event>
 5   0  0.7462600E-02  0.9118800E+02  0.7818608E-02  0.1180000E+00
       11   -1    0    0    0    0  0.00000000000E+00  0.00000000000E+00  0.39999999673E+01  0.40000000000E+01  0.51109989000E-03 0. -1.
     -623   -1    0    0    0    0  0.00000000000E+00  0.00000000000E+00  0.12525980253E-10  0.17130000000E+03  0.17130000000E+03 0. -1.
       11    1    1    2    0    0  0.96110805657E-01 -0.25118057901E+00  0.90850581844E-02  0.26909435100E+00  0.51109989000E-03 0. -1.
     -623    1    1    2    0    0  0.42008751846E+00  0.16167060485E+00  0.95597209378E+00  0.17130325885E+03  0.17130000000E+03 0. -1.
      622    1    1    2    0    0 -0.51619832412E+00  0.89509974161E-01  0.30349428154E+01  0.37276467963E+01  0.21000000000E+01 0. -1.
</event>
<event>
 5   0  0.7462600E-02  0.9118800E+02  0.7818608E-02  0.1180000E+00
       11   -1    0    0    0    0  0.00000000000E+00  0.00000000000E+00  0.39999999673E+01  0.40000000000E+01  0.51109989000E-03 0.  1.
     -623   -1    0    0    0    0  0.00000000000E+00  0.00000000000E+00  0.12525980253E-10  0.17130000000E+03  0.17130000000E+03 0.  1.
       11    1    1    2    0    0  0.33530518607E-01 -0.26463690000E+00 -0.53533734381E-01  0.27207187738E+00  0.51109989000E-03 0.  1.
     -623    1    1    2    0    0  0.88904186268E-01  0.55300031846E+00  0.99395996656E+00  0.17130379934E+03  0.17130000000E+03 0.  1.
      622    1    1    2    0    0 -0.12243470488E+00 -0.28836341845E+00  0.30595737352E+01  0.37241287785E+01  0.21000000000E+01 0.  1.
</event>
<event>
 5   0  0.7462600E-02  0.9118800E+02  0.7818608E-02  0.1180000E+00
       11   -1    0    0    0    0  0.00000000000E+00  0.00000000000E+00  0.39999999673E+01  0.40000000000E+01  0.51109989000E-03 0.  1.
     -623   -1    0    0    0    0  0.00000000000E+00  0.00000000000E+00  0.12525980253E-10  0.17130000000E+03  0.17130000000E+03 0. -1.
       11    1    1    2    0    0 -0.20449593942E+00 -0.26452214414E+00  0.95789466350E-01  0.34780229594E+00  0.51109989000E-03 0.  1.
     -623    1    1    2    0    0  0.52231803842E+00  0.27482913838E+00  0.93751574139E+00  0.17130358222E+03  0.17130000000E+03 0. -1.
      622    1    1    2    0    0 -0.31782209900E+00 -0.10306994241E-01  0.29666947596E+01  0.36486154795E+01  0.21000000000E+01 0.  1.
</event>
<event>
 5   0  0.7462600E-02  0.9118800E+02  0.7818608E-02  0.1180000E+00
       11   -1    0    0    0    0  0.00000000000E+00  0.00000000000E+00  0.39999999673E+01  0.40000000000E+01  0.51109989000E-03 0.  1.
     -623   -1    0    0    0    0  0.00000000000E+00  0.00000000000E+00  0.12525980253E-10  0.17130000000E+03  0.17130000000E+03 0.  1.
       11    1    1    2    0    0 -0.57095516643E-01  0.67089194434E-01  0.30905680740E-01  0.93361021596E-01  0.51109989000E-03 0.  1.
     -623    1    1    2    0    0 -0.66017947198E-01  0.19806495337E-01  0.67995001897E+00  0.17130136334E+03  0.17130000000E+03 0.  1.
      622    1    1    2    0    0  0.12311346384E+00 -0.86895689771E-01  0.32891442677E+01  0.39052756368E+01  0.21000000000E+01 0.  1.
</event>
<event>
 5   0  0.7462600E-02  0.9118800E+02  0.7818608E-02  0.1180000E+00
       11   -1    0    0    0    0  0.00000000000E+00  0.00000000000E+00  0.39999999673E+01  0.40000000000E+01  0.51109989000E-03 0. -1.
     -623   -1    0    0    0    0  0.00000000000E+00  0.00000000000E+00  0.12525980253E-10  0.17130000000E+03  0.17130000000E+03 0.  1.
       11    1    1    2    0    0  0.18619032903E+00 -0.15664960557E+00  0.99091923957E-01  0.26272686990E+00  0.51109989000E-03 0. -1.
     -623    1    1    2    0    0 -0.21587314258E+00  0.12686460752E-01  0.81544521410E+00  0.17130207738E+03  0.17130000000E+03 0.  1.
      622    1    1    2    0    0  0.29682813546E-01  0.14396314482E+00  0.30854628293E+01  0.37351957549E+01  0.21000000000E+01 0. -1.
</event>
<event>
 5   0  0.7462600E-02  0.9118800E+02  0.7818608E-02  0.1180000E+00
       11   -1    0    0    0    0  0.00000000000E+00  0.00000000000E+00  0.39999999673E+01  0.40000000000E+01  0.51109989000E-03 0.  1.
     -623   -1    0    0    0    0  0.00000000000E+00  0.00000000000E+00  0.12525980253E-10  0.17130000000E+03  0.17130000000E+03 0. -1.
       11    1    1    2    0    0 -0.37703117697E-01 -0.17049696726E+00 -0.15545548600E+00  0.23378924328E+00  0.51109989000E-03 0.  1.
     -623    1    1    2    0    0  0.69823774207E-01  0.29318453184E+00  0.10357296641E+01  0.17130339625E+03  0.17130000000E+03 0. -1.
      622    1    1    2    0    0 -0.32120656510E-01 -0.12268756458E+00  0.31197257892E+01  0.37628145018E+01  0.21000000000E+01 0.  1.
</event>
<event>
 5   0  0.7462600E-02  0.9118800E+02  0.7818608E-02  0.1180000E+00
       11   -1    0    0    0    0  0.00000000000E+00  0.00000000000E+00  0.39999999673E+01  0.40000000000E+01  0.51109989000E-03 0. -1.
     -623   -1    0    0    0    0  0.00000000000E+00  0.00000000000E+00  0.12525980253E-10  0.17130000000E+03  0.17130000000E+03 0. -1.
       11    1    1    2    0    0 -0.87194253541E-01  0.76897007693E-01 -0.34932084724E-01  0.12139398424E+00  0.51109989000E-03 0. -1.
     -623    1    1    2    0    0 -0.35520255188E+00 -0.20405293647E+00  0.80955326712E+00  0.17130240274E+03  0.17130000000E+03 0. -1.
      622    1    1    2    0    0  0.44239680542E+00  0.12715592878E+00  0.32253787850E+01  0.38762032803E+01  0.21000000000E+01 0. -1.
</event>
<event>
 5   0  0.7462600E-02  0.9118800E+02  0.7818608E-02  0.1180000E+00
       11   -1    0    0    0    0  0.00000000000E+00  0.00000000000E+00  0.39999999673E+01  0.40000000000E+01  0.51109989000E-03 0. -1.
     -623   -1    0    0    0    0  0.00000000000E+00  0.00000000000E+00  0.12525980253E-10  0.17130000000E+03  0.17130000000E+03 0.  1.
       11    1    1    2    0    0  0.43296091275E-01  0.85034861899E-01  0.57943954295E-02  0.95599767256E-01  0.51109989000E-03 0. -1.
     -623    1    1    2    0    0 -0.23053598192E+00  0.21112715120E+00  0.72351526932E+00  0.17130181317E+03  0.17130000000E+03 0.  1.
      622    1    1    2    0    0  0.18723989064E+00 -0.29616201310E+00  0.32706903026E+01  0.39025870612E+01  0.21000000000E+01 0. -1.
</event>
<event>
 5   0  0.7462600E-02  0.9118800E+02  0.7818608E-02  0.1180000E+00
       11   -1    0    0    0    0  0.00000000000E+00  0.00000000000E+00  0.39999999673E+01  0.40000000000E+01  0.51109989000E-03 0.  1.
     -623   -1    0    0    0    0  0.00000000000E+00  0.00000000000E+00  0.12525980253E-10  0.17130000000E+03  0.17130000000E+03 0. -1.
       11    1    1    2    0    0  0.11906773406E+00  0.65334881860E-01  0.63916235607E-02  0.13596648909E+00  0.51109989000E-03 0.  1.
     -623    1    1    2    0    0 -0.25833712463E+00 -0.25862730382E+00  0.76128500352E+00  0.17130208166E+03  0.17130000000E+03 0. -1.
      622    1    1    2    0    0  0.13926939057E+00  0.19329242196E+00  0.32323233403E+01  0.38619518510E+01  0.21000000000E+01 0.  1.
</event>
<event>
 5   0  0.7462600E-02  0.9118800E+02  0.7818608E-02  0.1180000E+00
       11   -1    0    0    0    0  0.00000000000E+00  0.00000000000E+00  0.39999999673E+01  0.40000000000E+01  0.51109989000E-03 0.  1.
     -623   -1    0    0    0    0  0.00000000000E+00  0.00000000000E+00  0.12525980253E-10  0.17130000000E+03  0.17130000000E+03 0.  1.
       11    1    1    2    0    0 -0.15284140127E-01 -0.16914005619E-01 -0.97582044452E-01  0.10021080355E+00  0.51109989000E-03 0.  1.
     -623    1    1    2    0    0  0.29324076706E+00 -0.24518578123E+00  0.83673231346E+00  0.17130247000E+03  0.17130000000E+03 0.  1.
      622    1    1    2    0    0 -0.27795662693E+00  0.26209978685E+00  0.32608496984E+01  0.38973191991E+01  0.21000000000E+01 0.  1.
</event>
<event>
 5   0  0.7462600E-02  0.9118800E+02  0.7818608E-02  0.1180000E+00
       11   -1    0    0    0    0  0.00000000000E+00  0.00000000000E+00  0.39999999673E+01  0.40000000000E+01  0.51109989000E-03 0.  1.
     -623   -1    0    0    0    0  0.00000000000E+00  0.00000000000E+00  0.12525980253E-10  0.17130000000E+03  0.17130000000E+03 0.  1.
       11    1    1    2    0    0 -0.13173243681E+00 -0.73937882596E-01 -0.68538561851E-01  0.16588562648E+00  0.51109989000E-03 0.  1.
     -623    1    1    2    0    0  0.39842885326E-01  0.41861244068E+00  0.88392693247E+00  0.17130279668E+03  0.17130000000E+03 0.  1.
      622    1    1    2    0    0  0.91889551481E-01 -0.34467455808E+00  0.31846115967E+01  0.38313176928E+01  0.21000000000E+01 0.  1.
</event>
<event>
 5   0  0.7462600E-02  0.9118800E+02  0.7818608E-02  0.1180000E+00
       11   -1    0    0    0    0  0.00000000000E+00  0.00000000000E+00  0.39999999673E+01  0.40000000000E+01  0.51109989000E-03 0. -1.
     -623   -1    0    0    0    0  0.00000000000E+00  0.00000000000E+00  0.12525980253E-10  0.17130000000E+03  0.17130000000E+03 0.  1.
       11    1    1    2    0    0 -0.77190518023E-01  0.42411430550E-01 -0.34005451704E-01  0.94412591749E-01  0.51109989000E-03 0. -1.
     -623    1    1    2    0    0  0.29822000456E+00  0.29922676235E-01  0.75153608061E+00  0.17130191078E+03  0.17130000000E+03 0.  1.
      622    1    1    2    0    0 -0.22102948653E+00 -0.72334106784E-01  0.32824693384E+01  0.39036766278E+01  0.21000000000E+01 0. -1.
</event>
<event>
 5   0  0.7462600E-02  0.9118800E+02  0.7818608E-02  0.1180000E+00
       11   -1    0    0    0    0  0.00000000000E+00  0.00000000000E+00  0.39999999673E+01  0.40000000000E+01  0.51109989000E-03 0. -1.
     -623   -1    0    0    0    0  0.00000000000E+00  0.00000000000E+00  0.12525980253E-10  0.17130000000E+03  0.17130000000E+03 0.  1.
       11    1    1    2    0    0 -0.18827351799E+00 -0.64226265253E-01  0.19795972043E+00  0.28064255355E+00  0.51109989000E-03 0. -1.
     -623    1    1    2    0    0 -0.15316097747E+00  0.22513661682E+00  0.75785340457E+00  0.17130189283E+03  0.17130000000E+03 0.  1.
      622    1    1    2    0    0  0.34143449546E+00 -0.16091035157E+00  0.30441868424E+01  0.37174646181E+01  0.21000000000E+01 0. -1.
</event>
<event>
 5   0  0.7462600E-02  0.9118800E+02  0.7818608E-02  0.1180000E+00
       11   -1    0    0    0    0  0.00000000000E+00  0.00000000000E+00  0.39999999673E+01  0.40000000000E+01  0.51109989000E-03 0.  1.
     -623   -1    0    0    0    0  0.00000000000E+00  0.00000000000E+00  0.12525980253E-10  0.17130000000E+03  0.17130000000E+03 0. -1.
       11    1    1    2    0    0  0.44701124591E+00  0.11859604553E+00  0.32984143479E+00  0.56804903777E+00  0.51109989000E-03 0.  1.
     -623    1    1    2    0    0 -0.10643352954E+01 -0.14724904732E+00  0.10354268291E+01  0.17130649900E+03  0.17130000000E+03 0. -1.
      622    1    1    2    0    0  0.61732404950E+00  0.28653001792E-01  0.26347317035E+01  0.34254519594E+01  0.21000000000E+01 0.  1.
</event>
<event>
 5   0  0.7462600E-02  0.9118800E+02  0.7818608E-02  0.1180000E+00
       11   -1    0    0    0    0  0.00000000000E+00  0.00000000000E+00  0.39999999673E+01  0.40000000000E+01  0.51109989000E-03 0.  1.
     -623   -1    0    0    0    0  0.00000000000E+00  0.00000000000E+00  0.12525980253E-10  0.17130000000E+03  0.17130000000E+03 0. -1.
       11    1    1    2    0    0  0.94087913672E-01 -0.13182987198E+00 -0.41068681117E-02  0.16201474696E+00  0.51109989000E-03 0.  1.
     -623    1    1    2    0    0 -0.29016427244E+00  0.43865684575E+00  0.81562011407E+00  0.17130274911E+03  0.17130000000E+03 0. -1.
      622    1    1    2    0    0  0.19607635877E+00 -0.30682697376E+00  0.31884867214E+01  0.38352361469E+01  0.21000000000E+01 0.  1.
</event>
<event>
 5   0  0.7462600E-02  0.9118800E+02  0.7818608E-02  0.1180000E+00
       11   -1    0    0    0    0  0.00000000000E+00  0.00000000000E+00  0.39999999673E+01  0.40000000000E+01  0.51109989000E-03 0. -1.
     -623   -1    0    0    0    0  0.00000000000E+00  0.00000000000E+00  0.12525980253E-10  0.17130000000E+03  0.17130000000E+03 0. -1.
       11    1    1    2    0    0  0.63142342877E-01 -0.75764336037E-01 -0.63145482677E-01  0.11711021852E+00  0.51109989000E-03 0. -1.
     -623    1    1    2    0    0 -0.11278878836E+00 -0.46671680072E+00  0.84621633791E+00  0.17130276305E+03  0.17130000000E+03 0. -1.
      622    1    1    2    0    0  0.49646445481E-01  0.54248113675E+00  0.32169291121E+01  0.38801267332E+01  0.21000000000E+01 0. -1.
</event>
<event>
 5   0  0.7462600E-02  0.9118800E+02  0.7818608E-02  0.1180000E+00
       11   -1    0    0    0    0  0.00000000000E+00  0.00000000000E+00  0.39999999673E+01  0.40000000000E+01  0.51109989000E-03 0.  1.
     -623   -1    0    0    0    0  0.00000000000E+00  0.00000000000E+00  0.12525980253E-10  0.17130000000E+03  0.17130000000E+03 0. -1.
       11    1    1    2    0    0  0.40041848714E-01  0.27399992759E-01 -0.11061636445E+00  0.12079052345E+00  0.51109989000E-03 0.  1.
     -623    1    1    2    0    0  0.16207013735E+00  0.13235110728E+00  0.86191088202E+00  0.17130229617E+03  0.17130000000E+03 0. -1.
      622    1    1    2    0    0 -0.20211198606E+00 -0.15975110004E+00  0.32487054498E+01  0.38769133042E+01  0.21000000000E+01 0.  1.
</event>
<event>
 5   0  0.7462600E-02  0.9118800E+02  0.7818608E-02  0.1180000E+00
       11   -1    0    0    0    0  0.00000000000E+00  0.00000000000E+00  0.39999999673E+01  0.40000000000E+01  0.51109989000E-03 0.  1.
     -623   -1    0    0    0    0  0.00000000000E+00  0.00000000000E+00  0.12525980253E-10  0.17130000000E+03  0.17130000000E+03 0. -1.
       11    1    1    2    0    0 -0.15148608141E+00  0.89434426532E-01  0.17754579955E+00  0.24993863580E+00  0.51109989000E-03 0.  1.
     -623    1    1    2    0    0  0.69425649992E+00 -0.45875763384E-01  0.76746132798E+00  0.17130313218E+03  0.17130000000E+03 0. -1.
      622    1    1    2    0    0 -0.54277041851E+00 -0.43558663147E-01  0.30549928398E+01  0.37469291875E+01  0.21000000000E+01 0.  1.
</event>
<event>
 5   0  0.7462600E-02  0.9118800E+02  0.7818608E-02  0.1180000E+00
       11   -1    0    0    0    0  0.00000000000E+00  0.00000000000E+00  0.39999999673E+01  0.40000000000E+01  0.51109989000E-03 0.  1.
     -623   -1    0    0    0    0  0.00000000000E+00  0.00000000000E+00  0.12525980253E-10  0.17130000000E+03  0.17130000000E+03 0. -1.
       11    1    1    2    0    0 -0.13122633982E-01  0.38330827179E-01  0.47659898129E-01  0.62555438983E-01  0.51109989000E-03 0.  1.
     -623    1    1    2    0    0  0.54075277099E-01 -0.40719023572E+00  0.64442313845E+00  0.17130170463E+03  0.17130000000E+03 0. -1.
      622    1    1    2    0    0 -0.40952643117E-01  0.36885940854E+00  0.33079169308E+01  0.39357399308E+01  0.21000000000E+01 0.  1.
</event>
<event>
 5   0  0.7462600E-02  0.9118800E+02  0.7818608E-02  0.1180000E+00
       11   -1    0    0    0    0  0.00000000000E+00  0.00000000000E+00  0.39999999673E+01  0.40000000000E+01  0.51109989000E-03 0.  1.
     -623   -1    0    0    0    0  0.00000000000E+00  0.00000000000E+00  0.12525980253E-10  0.17130000000E+03  0.17130000000E+03 0.  1.
       11    1    1    2    0    0 -0.14287251501E+00 -0.49461724478E-01 -0.80071344338E-01  0.17108681755E+00  0.51109989000E-03 0.  1.
     -623    1    1    2    0    0 -0.16941192520E+00  0.92566519980E-01  0.89693012660E+00  0.17130245694E+03  0.17130000000E+03 0.  1.
      622    1    1    2    0    0  0.31228444021E+00 -0.43104795502E-01  0.31831411851E+01  0.38264562456E+01  0.21000000000E+01 0.  1.
</event>
<event>
 5   0  0.7462600E-02  0.9118800E+02  0.7818608E-02  0.1180000E+00
       11   -1    0    0    0    0  0.00000000000E+00  0.00000000000E+00  0.39999999673E+01  0.40000000000E+01  0.51109989000E-03 0. -1.
     -623   -1    0    0    0    0  0.00000000000E+00  0.00000000000E+00  0.12525980253E-10  0.17130000000E+03  0.17130000000E+03 0.  1.
       11    1    1    2    0    0  0.16095596487E+00 -0.59254594217E-01  0.14891802086E+00  0.22714481663E+00  0.51109989000E-03 0. -1.
     -623    1    1    2    0    0 -0.27784771688E+00  0.49011493277E-01  0.72099114643E+00  0.17130174964E+03  0.17130000000E+03 0.  1.
      622    1    1    2    0    0  0.11689175202E+00  0.10243100940E-01  0.31300908001E+01  0.37711055434E+01  0.21000000000E+01 0. -1.
</event>
<event>
 5   0  0.7462600E-02  0.9118800E+02  0.7818608E-02  0.1180000E+00
       11   -1    0    0    0    0  0.00000000000E+00  0.00000000000E+00  0.39999999673E+01  0.40000000000E+01  0.51109989000E-03 0.  1.
     -623   -1    0    0    0    0  0.00000000000E+00  0.00000000000E+00  0.12525980253E-10  0.17130000000E+03  0.17130000000E+03 0.  1.
       11    1    1    2    0    0 -0.67042235452E-01 -0.23351844020E-01  0.11286351748E+00  0.13333568447E+00  0.51109989000E-03 0.  1.
     -623    1    1    2    0    0  0.14520835514E+00  0.13135567184E-01  0.64289990586E+00  0.17130126847E+03  0.17130000000E+03 0.  1.
      622    1    1    2    0    0 -0.78166119686E-01  0.10216276836E-01  0.32442365440E+01  0.38653958488E+01  0.21000000000E+01 0.  1.
</event>
<event>
 5   0  0.7462600E-02  0.9118800E+02  0.7818608E-02  0.1180000E+00
       11   -1    0    0    0    0  0.00000000000E+00  0.00000000000E+00  0.39999999673E+01  0.40000000000E+01  0.51109989000E-03 0.  1.
     -623   -1    0    0    0    0  0.00000000000E+00  0.00000000000E+00  0.12525980253E-10  0.17130000000E+03  0.17130000000E+03 0.  1.
       11    1    1    2    0    0 -0.12318999584E+00  0.78715715041E-01 -0.79233425192E-01  0.16628329971E+00  0.51109989000E-03 0.  1.
     -623    1    1    2    0    0 -0.12158403343E-01  0.10357666111E+00  0.88264764382E+00  0.17130230571E+03  0.17130000000E+03 0.  1.
      622    1    1    2    0    0  0.13534839919E+00 -0.18229237615E+00  0.31965857487E+01  0.38314109866E+01  0.21000000000E+01 0.  1.
</event>
<event>
 5   0  0.7462600E-02  0.9118800E+02  0.7818608E-02  0.1180000E+00
       11   -1    0    0    0    0  0.00000000000E+00  0.00000000000E+00  0.39999999673E+01  0.40000000000E+01  0.51109989000E-03 0.  1.
     -623   -1    0    0    0    0  0.00000000000E+00  0.00000000000E+00  0.12525980253E-10  0.17130000000E+03  0.17130000000E+03 0.  1.
       11    1    1    2    0    0  0.20519377656E+00 -0.17806983878E+00  0.59665438144E+00  0.65559901276E+00  0.51109989000E-03 0.  1.
     -623    1    1    2    0    0  0.27384633708E-01 -0.57640838446E+00  0.92778641414E+00  0.17130348445E+03  0.17130000000E+03 0.  1.
      622    1    1    2    0    0 -0.23257841026E+00  0.75447822325E+00  0.24755591718E+01  0.33409165388E+01  0.21000000000E+01 0.  1.
</event>
<event>
 5   0  0.7462600E-02  0.9118800E+02  0.7818608E-02  0.1180000E+00
       11   -1    0    0    0    0  0.00000000000E+00  0.00000000000E+00  0.39999999673E+01  0.40000000000E+01  0.51109989000E-03 0. -1.
     -623   -1    0    0    0    0  0.00000000000E+00  0.00000000000E+00  0.12525980253E-10  0.17130000000E+03  0.17130000000E+03 0. -1.
       11    1    1    2    0    0 -0.38444953174E+00  0.39017078612E-01  0.49127573426E+00  0.62504070522E+00  0.51109989000E-03 0. -1.
     -623    1    1    2    0    0  0.40849365202E+00 -0.21349469727E+00  0.87623005925E+00  0.17130286111E+03  0.17130000000E+03 0. -1.
      622    1    1    2    0    0 -0.24044120277E-01  0.17447761866E+00  0.26324941738E+01  0.33720981798E+01  0.21000000000E+01 0. -1.
</event>
<event>
 5   0  0.7462600E-02  0.9118800E+02  0.7818608E-02  0.1180000E+00
       11   -1    0    0    0    0  0.00000000000E+00  0.00000000000E+00  0.39999999673E+01  0.40000000000E+01  0.51109989000E-03 0.  1.
     -623   -1    0    0    0    0  0.00000000000E+00  0.00000000000E+00  0.12525980253E-10  0.17130000000E+03  0.17130000000E+03 0. -1.
       11    1    1    2    0    0  0.20045264458E+00 -0.19637626463E+00  0.51999962147E+00  0.59088473291E+00  0.51109989000E-03 0.  1.
     -623    1    1    2    0    0  0.60941564701E+00  0.49653657353E+00  0.94305204305E+00  0.17130439949E+03  0.17130000000E+03 0. -1.
      622    1    1    2    0    0 -0.80986829159E+00 -0.30016030890E+00  0.25369483028E+01  0.34047157814E+01  0.21000000000E+01 0.  0.
</event>
<event>
 5   0  0.7462600E-02  0.9118800E+02  0.7818608E-02  0.1180000E+00
       11   -1    0    0    0    0  0.00000000000E+00  0.00000000000E+00  0.39999999673E+01  0.40000000000E+01  0.51109989000E-03 0.  1.
     -623   -1    0    0    0    0  0.00000000000E+00  0.00000000000E+00  0.12525980253E-10  0.17130000000E+03  0.17130000000E+03 0. -1.
       11    1    1    2    0    0 -0.42361402975E+00 -0.30955445951E+00  0.39388477697E+00  0.65606271678E+00  0.51109989000E-03 0.  1.
     -623    1    1    2    0    0 -0.26524668865E-01  0.12182061434E+00  0.10542415170E+01  0.17130328943E+03  0.17130000000E+03 0. -1.
      622    1    1    2    0    0  0.45013869862E+00  0.18773384516E+00  0.25518736734E+01  0.33406478548E+01  0.21000000000E+01 0.  1.
</event>
<event>
 5   0  0.7462600E-02  0.9118800E+02  0.7818608E-02  0.1180000E+00
       11   -1    0    0    0    0  0.00000000000E+00  0.00000000000E+00  0.39999999673E+01  0.40000000000E+01  0.51109989000E-03 0. -1.
     -623   -1    0    0    0    0  0.00000000000E+00  0.00000000000E+00  0.12525980253E-10  0.17130000000E+03  0.17130000000E+03 0.  1.
       11    1    1    2    0    0  0.46475778893E-01  0.15837773911E+00  0.14448299679E-01  0.16568802267E+00  0.51109989000E-03 0. -1.
     -623    1    1    2    0    0  0.16030450559E-01 -0.18754995723E+00  0.78043584992E+00  0.17130188123E+03  0.17130000000E+03 0.  1.
      622    1    1    2    0    0 -0.62506229452E-01  0.29172218114E-01  0.32051158178E+01  0.38324307498E+01  0.21000000000E+01 0. -1.
</event>
<event>
 5   0  0.7462600E-02  0.9118800E+02  0.7818608E-02  0.1180000E+00
       11   -1    0    0    0    0  0.00000000000E+00  0.00000000000E+00  0.39999999673E+01  0.40000000000E+01  0.51109989000E-03 0.  1.
     -623   -1    0    0    0    0  0.00000000000E+00  0.00000000000E+00  0.12525980253E-10  0.17130000000E+03  0.17130000000E+03 0.  1.
       11    1    1    2    0    0  0.27158584537E+00  0.19408844680E+00  0.52462426388E+00  0.62181997078E+00  0.51109989000E-03 0.  1.
     -623    1    1    2    0    0 -0.96877705794E-01 -0.21161292005E+00  0.83788408454E+00  0.17130220727E+03  0.17130000000E+03 0.  1.
      622    1    1    2    0    0 -0.17470813958E+00  0.17524473248E-01  0.26374916189E+01  0.33759727607E+01  0.21000000000E+01 0.  1.
</event>
<event>
 5   0  0.7462600E-02  0.9118800E+02  0.7818608E-02  0.1180000E+00
       11   -1    0    0    0    0  0.00000000000E+00  0.00000000000E+00  0.39999999673E+01  0.40000000000E+01  0.51109989000E-03 0.  1.
     -623   -1    0    0    0    0  0.00000000000E+00  0.00000000000E+00  0.12525980253E-10  0.17130000000E+03  0.17130000000E+03 0. -1.
       11    1    1    2    0    0 -0.27923424145E+00 -0.24684923039E-01  0.23664890357E+00  0.36685701821E+00  0.51109989000E-03 0.  1.
     -623    1    1    2    0    0  0.89579878266E+00 -0.15433545843E+00  0.87478832427E+00  0.17130464538E+03  0.17130000000E+03 0. -1.
      622    1    1    2    0    0 -0.61656454121E+00  0.17902038147E+00  0.28885627395E+01  0.36284975996E+01  0.21000000000E+01 0.  1.
</event>
<event>
 5   0  0.7462600E-02  0.9118800E+02  0.7818608E-02  0.1180000E+00
       11   -1    0    0    0    0  0.00000000000E+00  0.00000000000E+00  0.39999999673E+01  0.40000000000E+01  0.51109989000E-03 0.  1.
     -623   -1    0    0    0    0  0.00000000000E+00  0.00000000000E+00  0.12525980253E-10  0.17130000000E+03  0.17130000000E+03 0. -1.
       11    1    1    2    0    0 -0.13583489104E+00  0.38501347008E+00  0.55934901115E+00  0.69250131210E+00  0.51109989000E-03 0.  1.
     -623    1    1    2    0    0 -0.27204367694E+00 -0.60285369383E+00  0.93256302587E+00  0.17130381524E+03  0.17130000000E+03 0. -1.
      622    1    1    2    0    0  0.40787856799E+00  0.21784022375E+00  0.25080879303E+01  0.33036834527E+01  0.21000000000E+01 0.  1.
</event>
<event>
 5   0  0.7462600E-02  0.9118800E+02  0.7818608E-02  0.1180000E+00
       11   -1    0    0    0    0  0.00000000000E+00  0.00000000000E+00  0.39999999673E+01  0.40000000000E+01  0.51109989000E-03 0. -1.
     -623   -1    0    0    0    0  0.00000000000E+00  0.00000000000E+00  0.12525980253E-10  0.17130000000E+03  0.17130000000E+03 0. -1.
       11    1    1    2    0    0 -0.40314673241E+00  0.49025477101E-01  0.36236362977E+00  0.54427791308E+00  0.51109989000E-03 0. -1.
     -623    1    1    2    0    0  0.15497521765E+00 -0.22171809061E+00  0.91324480857E+00  0.17130264794E+03  0.17130000000E+03 0. -1.
      622    1    1    2    0    0  0.24817151476E+00  0.17269261351E+00  0.27243915290E+01  0.34530741438E+01  0.21000000000E+01 0. -1.
</event>
<event>
 5   0  0.7462600E-02  0.9118800E+02  0.7818608E-02  0.1180000E+00
       11   -1    0    0    0    0  0.00000000000E+00  0.00000000000E+00  0.39999999673E+01  0.40000000000E+01  0.51109989000E-03 0.  1.
     -623   -1    0    0    0    0  0.00000000000E+00  0.00000000000E+00  0.12525980253E-10  0.17130000000E+03  0.17130000000E+03 0.  1.
       11    1    1    2    0    0  0.10075523257E+00  0.33734174498E-01  0.10098685689E-01  0.10673263838E+00  0.51109989000E-03 0.  1.
     -623    1    1    2    0    0  0.25871528071E-01 -0.26088267694E+00  0.72395130917E+00  0.17130173039E+03  0.17130000000E+03 0.  1.
      622    1    1    2    0    0 -0.12662676064E+00  0.22714850244E+00  0.32659499725E+01  0.38915369716E+01  0.21000000000E+01 0.  1.
</event>
<event>
 5   0  0.7462600E-02  0.9118800E+02  0.7818608E-02  0.1180000E+00
       11   -1    0    0    0    0  0.00000000000E+00  0.00000000000E+00  0.39999999673E+01  0.40000000000E+01  0.51109989000E-03 0. -1.
     -623   -1    0    0    0    0  0.00000000000E+00  0.00000000000E+00  0.12525980253E-10  0.17130000000E+03  0.17130000000E+03 0.  1.
       11    1    1    2    0    0  0.91555540836E-01 -0.44081062177E-02  0.68830673920E-01  0.11462884171E+00  0.51109989000E-03 0. -1.
     -623    1    1    2    0    0 -0.27033122678E+00  0.85872332844E-01  0.66995647899E+00  0.17130154493E+03  0.17130000000E+03 0.  1.
      622    1    1    2    0    0  0.17877568594E+00 -0.81464226626E-01  0.32612128144E+01  0.38838262303E+01  0.21000000000E+01 0. -1.
</event>
<event>
 5   0  0.7462600E-02  0.9118800E+02  0.7818608E-02  0.1180000E+00
       11   -1    0    0    0    0  0.00000000000E+00  0.00000000000E+00  0.39999999673E+01  0.40000000000E+01  0.51109989000E-03 0. -1.
     -623   -1    0    0    0    0  0.00000000000E+00  0.00000000000E+00  0.12525980253E-10  0.17130000000E+03  0.17130000000E+03 0. -1.
       11    1    1    2    0    0 -0.82505966870E-01  0.56637872465E-01  0.40124339420E-01  0.10782071695E+00  0.51109989000E-03 0. -1.
     -623    1    1    2    0    0 -0.42629532044E-02 -0.94436436714E-01  0.68585472587E+00  0.17130139910E+03  0.17130000000E+03 0. -1.
      622    1    1    2    0    0  0.86768920075E-01  0.37798564250E-01  0.32740209021E+01  0.38907801845E+01  0.21000000000E+01 0. -1.
</event>
<event>
 5   0  0.7462600E-02  0.9118800E+02  0.7818608E-02  0.1180000E+00
       11   -1    0    0    0    0  0.00000000000E+00  0.00000000000E+00  0.39999999673E+01  0.40000000000E+01  0.51109989000E-03 0. -1.
     -623   -1    0    0    0    0  0.00000000000E+00  0.00000000000E+00  0.12525980253E-10  0.17130000000E+03  0.17130000000E+03 0. -1.
       11    1    1    2    0    0 -0.35487114597E+00 -0.11663335915E-01  0.23088528438E+00  0.42353021074E+00  0.51109989000E-03 0. -1.
     -623    1    1    2    0    0  0.54930653471E+00  0.10553446887E+00  0.88612957308E+00  0.17130320517E+03  0.17130000000E+03 0. -1.
      622    1    1    2    0    0 -0.19443538874E+00 -0.93871132959E-01  0.28829851099E+01  0.35732646213E+01  0.21000000000E+01 0. -1.
</event>
<event>
 5   0  0.7462600E-02  0.9118800E+02  0.7818608E-02  0.1180000E+00
       11   -1    0    0    0    0  0.00000000000E+00  0.00000000000E+00  0.39999999673E+01  0.40000000000E+01  0.51109989000E-03 0. -1.
     -623   -1    0    0    0    0  0.00000000000E+00  0.00000000000E+00  0.12525980253E-10  0.17130000000E+03  0.17130000000E+03 0. -1.
       11    1    1    2    0    0 -0.23927834279E-01 -0.24294563143E-02  0.16442704663E+00  0.16617749064E+00  0.51109989000E-03 0. -1.
     -623    1    1    2    0    0  0.14714870468E+00  0.35617180153E+00  0.65201476945E+00  0.17130167435E+03  0.17130000000E+03 0. -1.
      622    1    1    2    0    0 -0.12322087040E+00 -0.35374234522E+00  0.31835581513E+01  0.38321481616E+01  0.21000000000E+01 0. -1.
</event>
<event>
 5   0  0.7462600E-02  0.9118800E+02  0.7818608E-02  0.1180000E+00
       11   -1    0    0    0    0  0.00000000000E+00  0.00000000000E+00  0.39999999673E+01  0.40000000000E+01  0.51109989000E-03 0. -1.
     -623   -1    0    0    0    0  0.00000000000E+00  0.00000000000E+00  0.12525980253E-10  0.17130000000E+03  0.17130000000E+03 0.  1.
       11    1    1    2    0    0  0.16257340333E+00  0.30127233135E+00  0.27511536350E+00  0.43918544326E+00  0.51109989000E-03 0. -1.
     -623    1    1    2    0    0 -0.41570120652E+00 -0.11908863671E+00  0.86961989361E+00  0.17130275313E+03  0.17130000000E+03 0.  1.
      622    1    1    2    0    0  0.25312780319E+00 -0.18218369465E+00  0.28552647102E+01  0.35580614313E+01  0.21000000000E+01 0. -1.
</event>
<event>
 5   0  0.7462600E-02  0.9118800E+02  0.7818608E-02  0.1180000E+00
       11   -1    0    0    0    0  0.00000000000E+00  0.00000000000E+00  0.39999999673E+01  0.40000000000E+01  0.51109989000E-03 0. -1.
     -623   -1    0    0    0    0  0.00000000000E+00  0.00000000000E+00  0.12525980253E-10  0.17130000000E+03  0.17130000000E+03 0. -1.
       11    1    1    2    0    0  0.16147630064E+00  0.15452844820E+00  0.38924902857E+00  0.44885265337E+00  0.51109989000E-03 0. -1.
     -623    1    1    2    0    0 -0.14443630315E+00 -0.18020893608E+00  0.74946611252E+00  0.17130179519E+03  0.17130000000E+03 0. -1.
      622    1    1    2    0    0 -0.17039997486E-01  0.25680487883E-01  0.28612848263E+01  0.35493521530E+01  0.21000000000E+01 0. -1.
</event>
<event>
 5   0  0.7462600E-02  0.9118800E+02  0.7818608E-02  0.1180000E+00
       11   -1    0    0    0    0  0.00000000000E+00  0.00000000000E+00  0.39999999673E+01  0.40000000000E+01  0.51109989000E-03 0.  1.
     -623   -1    0    0    0    0  0.00000000000E+00  0.00000000000E+00  0.12525980253E-10  0.17130000000E+03  0.17130000000E+03 0.  1.
       11    1    1    2    0    0  0.55177705136E-01 -0.48797141824E-01  0.29137568908E+00  0.30054249884E+00  0.51109989000E-03 0.  1.
     -623    1    1    2    0    0  0.31037100662E-01  0.34778032079E+00  0.68099873503E+00  0.17130170949E+03  0.17130000000E+03 0.  1.
      622    1    1    2    0    0 -0.86214805798E-01 -0.29898317897E+00  0.30276255432E+01  0.36977480125E+01  0.21000000000E+01 0.  1.
</event>
<event>
 5   0  0.7462600E-02  0.9118800E+02  0.7818608E-02  0.1180000E+00
       11   -1    0    0    0    0  0.00000000000E+00  0.00000000000E+00  0.39999999673E+01  0.40000000000E+01  0.51109989000E-03 0.  1.
     -623   -1    0    0    0    0  0.00000000000E+00  0.00000000000E+00  0.12525980253E-10  0.17130000000E+03  0.17130000000E+03 0. -1.
       11    1    1    2    0    0 -0.10036931203E+00  0.31252571061E-01  0.78050237748E-02  0.10541300495E+00  0.51109989000E-03 0.  1.
     -623    1    1    2    0    0 -0.13422880783E+00 -0.13493427024E-01  0.72261190732E+00  0.17130157725E+03  0.17130000000E+03 0. -1.
      622    1    1    2    0    0  0.23459811986E+00 -0.17759144036E-01  0.32695830363E+01  0.38930097477E+01  0.21000000000E+01 0.  1.
</event>
<event>
 5   0  0.7462600E-02  0.9118800E+02  0.7818608E-02  0.1180000E+00
       11   -1    0    0    0    0  0.00000000000E+00  0.00000000000E+00  0.39999999673E+01  0.40000000000E+01  0.51109989000E-03 0. -1.
     -623   -1    0    0    0    0  0.00000000000E+00  0.00000000000E+00  0.12525980253E-10  0.17130000000E+03  0.17130000000E+03 0.  1.
       11    1    1    2    0    0  0.25288141700E+00 -0.13993606347E+00  0.29680609750E+00  0.41427675974E+00  0.51109989000E-03 0. -1.
     -623    1    1    2    0    0 -0.10004650917E+00  0.23493309404E+00  0.80490016252E+00  0.17130208133E+03  0.17130000000E+03 0.  1.
      622    1    1    2    0    0 -0.15283490783E+00 -0.94997030568E-01  0.28982937073E+01  0.35836419128E+01  0.21000000000E+01 0. -1.
</event>
<event>
 5   0  0.7462600E-02  0.9118800E+02  0.7818608E-02  0.1180000E+00
       11   -1    0    0    0    0  0.00000000000E+00  0.00000000000E+00  0.39999999673E+01  0.40000000000E+01  0.51109989000E-03 0. -1.
     -623   -1    0    0    0    0  0.00000000000E+00  0.00000000000E+00  0.12525980253E-10  0.17130000000E+03  0.17130000000E+03 0.  1.
       11    1    1    2    0    0 -0.37815244935E-01  0.55900611030E-01  0.63053063692E+00  0.63413249119E+00  0.51109989000E-03 0. -1.
     -623    1    1    2    0    0 -0.25832950860E+00  0.52881367032E+00  0.82599355979E+00  0.17130300244E+03  0.17130000000E+03 0.  1.
      622    1    1    2    0    0  0.29614475353E+00 -0.58471428135E+00  0.25434757707E+01  0.33628650734E+01  0.21000000000E+01 0. -1.
</event>
<event>
 5   0  0.7462600E-02  0.9118800E+02  0.7818608E-02  0.1180000E+00
       11   -1    0    0    0    0  0.00000000000E+00  0.00000000000E+00  0.39999999673E+01  0.40000000000E+01  0.51109989000E-03 0. -1.
     -623   -1    0    0    0    0  0.00000000000E+00  0.00000000000E+00  0.12525980253E-10  0.17130000000E+03  0.17130000000E+03 0.  1.
       11    1    1    2    0    0  0.16141055828E+00 -0.49903276462E-01  0.20890165630E+00  0.26867055765E+00  0.51109989000E-03 0. -1.
     -623    1    1    2    0    0 -0.86022941930E+00  0.25428908577E+00  0.79923018980E+00  0.17130421310E+03  0.17130000000E+03 0.  1.
      622    1    1    2    0    0  0.69881886102E+00 -0.20438580931E+00  0.29918681213E+01  0.37271163404E+01  0.21000000000E+01 0. -1.
</event>
<event>
 5   0  0.7462600E-02  0.9118800E+02  0.7818608E-02  0.1180000E+00
       11   -1    0    0    0    0  0.00000000000E+00  0.00000000000E+00  0.39999999673E+01  0.40000000000E+01  0.51109989000E-03 0. -1.
     -623   -1    0    0    0    0  0.00000000000E+00  0.00000000000E+00  0.12525980253E-10  0.17130000000E+03  0.17130000000E+03 0. -1.
       11    1    1    2    0    0 -0.28986665314E-01  0.13051629763E+00 -0.16700150648E-01  0.13473636096E+00  0.51109989000E-03 0. -1.
     -623    1    1    2    0    0 -0.79142218397E-01 -0.25080198443E+00  0.77804508709E+00  0.17130196881E+03  0.17130000000E+03 0. -1.
      622    1    1    2    0    0  0.10812888371E+00  0.12028568680E+00  0.32386550309E+01  0.38632948258E+01  0.21000000000E+01 0. -1.
</event>
<event>
 5   0  0.7462600E-02  0.9118800E+02  0.7818608E-02  0.1180000E+00
       11   -1    0    0    0    0  0.00000000000E+00  0.00000000000E+00  0.39999999673E+01  0.40000000000E+01  0.51109989000E-03 0. -1.
     -623   -1    0    0    0    0  0.00000000000E+00  0.00000000000E+00  0.12525980253E-10  0.17130000000E+03  0.17130000000E+03 0. -1.
       11    1    1    2    0    0 -0.11284913123E+00 -0.10630636395E-01  0.13029928510E+00  0.17270235022E+00  0.51109989000E-03 0. -1.
     -623    1    1    2    0    0  0.30507026656E+00 -0.34264732728E+00  0.69781242829E+00  0.17130203565E+03  0.17130000000E+03 0. -1.
      622    1    1    2    0    0 -0.19222113533E+00  0.35327796367E+00  0.31718882540E+01  0.38252620015E+01  0.21000000000E+01 0. -1.
</event>
<event>
 5   0  0.7462600E-02  0.9118800E+02  0.7818608E-02  0.1180000E+00
       11   -1    0    0    0    0  0.00000000000E+00  0.00000000000E+00  0.39999999673E+01  0.40000000000E+01  0.51109989000E-03 0.  1.
     -623   -1    0    0    0    0  0.00000000000E+00  0.00000000000E+00  0.12525980253E-10  0.17130000000E+03  0.17130000000E+03 0. -1.
       11    1    1    2    0    0 -0.98126164207E-01  0.43743605097E+00  0.48345836542E+00  0.65932639497E+00  0.51109989000E-03 0.  1.
     -623    1    1    2    0    0 -0.83556216468E-01 -0.62254814327E+00  0.93622163217E+00  0.17130371000E+03  0.17130000000E+03 0. -1.
      622    1    1    2    0    0  0.18168238068E+00  0.18511209231E+00  0.25803199698E+01  0.33369636079E+01  0.21000000000E+01 0.  1.
</event>
<event>
 5   0  0.7462600E-02  0.9118800E+02  0.7818608E-02  0.1180000E+00
       11   -1    0    0    0    0  0.00000000000E+00  0.00000000000E+00  0.39999999673E+01  0.40000000000E+01  0.51109989000E-03 0. -1.
     -623   -1    0    0    0    0  0.00000000000E+00  0.00000000000E+00  0.12525980253E-10  0.17130000000E+03  0.17130000000E+03 0.  1.
       11    1    1    2    0    0  0.17737390153E+00 -0.14839437686E+00  0.10538651420E+00  0.25414360237E+00  0.51109989000E-03 0. -1.
     -623    1    1    2    0    0 -0.47719502930E+00  0.27680333148E+00  0.81338896525E+00  0.17130281941E+03  0.17130000000E+03 0.  1.
      622    1    1    2    0    0  0.29982112777E+00 -0.12840895462E+00  0.30812244879E+01  0.37430369906E+01  0.21000000000E+01 0. -1.
</event>
<event>
 5   0  0.7462600E-02  0.9118800E+02  0.7818608E-02  0.1180000E+00
       11   -1    0    0    0    0  0.00000000000E+00  0.00000000000E+00  0.39999999673E+01  0.40000000000E+01  0.51109989000E-03 0.  1.
     -623   -1    0    0    0    0  0.00000000000E+00  0.00000000000E+00  0.12525980253E-10  0.17130000000E+03  0.17130000000E+03 0. -1.
       11    1    1    2    0    0 -0.97525259908E-01  0.39103763435E-01  0.14647474753E-01  0.10609001072E+00  0.51109989000E-03 0.  1.
     -623    1    1    2    0    0  0.57337020296E+00 -0.17765095052E+00  0.74713707302E+00  0.17130268103E+03  0.17130000000E+03 0. -1.
      622    1    1    2    0    0 -0.47584494305E+00  0.13854718709E+00  0.32382154196E+01  0.38912289622E+01  0.21000000000E+01 0.  1.
</event>
<event>
 5   0  0.7462600E-02  0.9118800E+02  0.7818608E-02  0.1180000E+00
       11   -1    0    0    0    0  0.00000000000E+00  0.00000000000E+00  0.39999999673E+01  0.40000000000E+01  0.51109989000E-03 0. -1.
     -623   -1    0    0    0    0  0.00000000000E+00  0.00000000000E+00  0.12525980253E-10  0.17130000000E+03  0.17130000000E+03 0.  1.
       11    1    1    2    0    0  0.92648226125E-01  0.41474592048E-01  0.10941860776E+00  0.14925323627E+00  0.51109989000E-03 0. -1.
     -623    1    1    2    0    0 -0.15580185863E+00 -0.17044334719E-01  0.66518704197E+00  0.17130136321E+03  0.17130000000E+03 0.  1.
      622    1    1    2    0    0  0.63153632502E-01 -0.24430257329E-01  0.32253943176E+01  0.38493835510E+01  0.21000000000E+01 0. -1.
</event>
<event>
 5   0  0.7462600E-02  0.9118800E+02  0.7818608E-02  0.1180000E+00
       11   -1    0    0    0    0  0.00000000000E+00  0.00000000000E+00  0.39999999673E+01  0.40000000000E+01  0.51109989000E-03 0.  1.
     -623   -1    0    0    0    0  0.00000000000E+00  0.00000000000E+00  0.12525980253E-10  0.17130000000E+03  0.17130000000E+03 0.  1.
       11    1    1    2    0    0 -0.23629378596E-01  0.64542392969E-01  0.22142902893E+00  0.23185155617E+00  0.51109989000E-03 0.  1.
     -623    1    1    2    0    0 -0.10119270926E+00 -0.38428371630E+00  0.67087779923E+00  0.17130177463E+03  0.17130000000E+03 0.  1.
      622    1    1    2    0    0  0.12482208786E+00  0.31974132333E+00  0.31076931392E+01  0.37663738151E+01  0.21000000000E+01 0.  1.
</event>
<event>
 5   0  0.7462600E-02  0.9118800E+02  0.7818608E-02  0.1180000E+00
       11   -1    0    0    0    0  0.00000000000E+00  0.00000000000E+00  0.39999999673E+01  0.40000000000E+01  0.51109989000E-03 0.  1.
     -623   -1    0    0    0    0  0.00000000000E+00  0.00000000000E+00  0.12525980253E-10  0.17130000000E+03  0.17130000000E+03 0. -1.
       11    1    1    2    0    0 -0.20744534971E+00 -0.16272871427E-01  0.35339183690E-01  0.21106278352E+00  0.51109989000E-03 0.  1.
     -623    1    1    2    0    0  0.20464871304E+00 -0.70451851789E+00  0.89925353214E+00  0.17130393132E+03  0.17130000000E+03 0. -1.
      622    1    1    2    0    0  0.27966366728E-02  0.72079138932E+00  0.30654072515E+01  0.37850059004E+01  0.21000000000E+01 0.  1.
</event>
<event>
 5   0  0.7462600E-02  0.9118800E+02  0.7818608E-02  0.1180000E+00
       11   -1    0    0    0    0  0.00000000000E+00  0.00000000000E+00  0.39999999673E+01  0.40000000000E+01  0.51109989000E-03 0.  1.
     -623   -1    0    0    0    0  0.00000000000E+00  0.00000000000E+00  0.12525980253E-10  0.17130000000E+03  0.17130000000E+03 0. -1.
       11    1    1    2    0    0 -0.61800839517E-01  0.20008077878E+00  0.64875649163E-01  0.21922767361E+00  0.51109989000E-03 0.  1.
     -623    1    1    2    0    0  0.56562519115E-02 -0.17281632078E+00  0.79414224672E+00  0.17130192807E+03  0.17130000000E+03 0. -1.
      622    1    1    2    0    0  0.56144587606E-01 -0.27264458000E-01  0.31409820715E+01  0.37788442597E+01  0.21000000000E+01 0.  1.
</event>
<event>
 5   0  0.7462600E-02  0.9118800E+02  0.7818608E-02  0.1180000E+00
       11   -1    0    0    0    0  0.00000000000E+00  0.00000000000E+00  0.39999999673E+01  0.40000000000E+01  0.51109989000E-03 0.  1.
     -623   -1    0    0    0    0  0.00000000000E+00  0.00000000000E+00  0.12525980253E-10  0.17130000000E+03  0.17130000000E+03 0.  1.
       11    1    1    2    0    0 -0.11181422143E+00 -0.10948443064E+00  0.21306982165E+00  0.26436389842E+00  0.51109989000E-03 0.  1.
     -623    1    1    2    0    0 -0.58231058001E-01  0.61297256724E-01  0.70427391928E+00  0.17130146862E+03  0.17130000000E+03 0.  1.
      622    1    1    2    0    0  0.17004527943E+00  0.48187173916E-01  0.30826562264E+01  0.37341674857E+01  0.21000000000E+01 0.  1.
</event>
<event>
 5   0  0.7462600E-02  0.9118800E+02  0.7818608E-02  0.1180000E+00
       11   -1    0    0    0    0  0.00000000000E+00  0.00000000000E+00  0.39999999673E+01  0.40000000000E+01  0.51109989000E-03 0. -1.
     -623   -1    0    0    0    0  0.00000000000E+00  0.00000000000E+00  0.12525980253E-10  0.17130000000E+03  0.17130000000E+03 0. -1.
       11    1    1    2    0    0  0.10259422948E+00 -0.14356705334E+00  0.16575350894E-01  0.17723452882E+00  0.51109989000E-03 0. -1.
     -623    1    1    2    0    0  0.67113701836E+00 -0.12708463489E+00  0.90071139806E+00  0.17130372984E+03  0.17130000000E+03 0. -1.
      622    1    1    2    0    0 -0.77373124784E+00  0.27065168822E+00  0.30827132184E+01  0.38190356331E+01  0.21000000000E+01 0. -1.
</event>
<event>
 5   0  0.7462600E-02  0.9118800E+02  0.7818608E-02  0.1180000E+00
       11   -1    0    0    0    0  0.00000000000E+00  0.00000000000E+00  0.39999999673E+01  0.40000000000E+01  0.51109989000E-03 0. -1.
     -623   -1    0    0    0    0  0.00000000000E+00  0.00000000000E+00  0.12525980253E-10  0.17130000000E+03  0.17130000000E+03 0. -1.
       11    1    1    2    0    0  0.13720174877E+00 -0.26898560713E+00  0.77034494428E+00  0.82741112581E+00  0.51109989000E-03 0. -1.
     -623    1    1    2    0    0 -0.71012554281E-01  0.25696440639E+00  0.85564482472E+00  0.17130234441E+03  0.17130000000E+03 0. -1.
      622    1    1    2    0    0 -0.66189194488E-01  0.12021200743E-01  0.23740101984E+01  0.31702444607E+01  0.21000000000E+01 0. -1.
</event>
<event>
 5   0  0.7462600E-02  0.9118800E+02  0.7818608E-02  0.1180000E+00
       11   -1    0    0    0    0  0.00000000000E+00  0.00000000000E+00  0.39999999673E+01  0.40000000000E+01  0.51109989000E-03 0.  1.
     -623   -1    0    0    0    0  0.00000000000E+00  0.00000000000E+00  0.12525980253E-10  0.17130000000E+03  0.17130000000E+03 0. -1.
       11    1    1    2    0    0  0.71350650538E-01  0.96685706145E-01  0.42818837544E+00  0.44472979121E+00  0.51109989000E-03 0.  1.
     -623    1    1    2    0    0  0.54790276677E+00 -0.13418695126E+00  0.77430828936E+00  0.17130267878E+03  0.17130000000E+03 0. -1.
      622    1    1    2    0    0 -0.61925341730E+00  0.37501245114E-01  0.27975033026E+01  0.35525914297E+01  0.21000000000E+01 0.  1.
</event>
<event>
 5   0  0.7462600E-02  0.9118800E+02  0.7818608E-02  0.1180000E+00
       11   -1    0    0    0    0  0.00000000000E+00  0.00000000000E+00  0.39999999673E+01  0.40000000000E+01  0.51109989000E-03 0.  1.
     -623   -1    0    0    0    0  0.00000000000E+00  0.00000000000E+00  0.12525980253E-10  0.17130000000E+03  0.17130000000E+03 0. -1.
       11    1    1    2    0    0  0.18321077820E+00 -0.36810261181E-01 -0.19936280388E-01  0.18793323569E+00  0.51109989000E-03 0.  1.
     -623    1    1    2    0    0 -0.25770872375E-01 -0.46420579075E+00  0.88564332706E+00  0.17130292033E+03  0.17130000000E+03 0. -1.
      622    1    1    2    0    0 -0.15743990582E+00  0.50101605193E+00  0.31342929207E+01  0.38091464294E+01  0.21000000000E+01 0.  1.
</event>
<event>
 5   0  0.7462600E-02  0.9118800E+02  0.7818608E-02  0.1180000E+00
       11   -1    0    0    0    0  0.00000000000E+00  0.00000000000E+00  0.39999999673E+01  0.40000000000E+01  0.51109989000E-03 0. -1.
     -623   -1    0    0    0    0  0.00000000000E+00  0.00000000000E+00  0.12525980253E-10  0.17130000000E+03  0.17130000000E+03 0. -1.
       11    1    1    2    0    0 -0.15274593927E+00 -0.34436719022E+00  0.36567166107E+00  0.52501057951E+00  0.51109989000E-03 0. -1.
     -623    1    1    2    0    0 -0.11269831437E+00 -0.17335130398E-01  0.90533997420E+00  0.17130243034E+03  0.17130000000E+03 0. -1.
      622    1    1    2    0    0  0.26544425364E+00  0.36170232062E+00  0.27289883321E+01  0.34725590761E+01  0.21000000000E+01 0. -1.
</event>
<event>
 5   0  0.7462600E-02  0.9118800E+02  0.7818608E-02  0.1180000E+00
       11   -1    0    0    0    0  0.00000000000E+00  0.00000000000E+00  0.39999999673E+01  0.40000000000E+01  0.51109989000E-03 0. -1.
     -623   -1    0    0    0    0  0.00000000000E+00  0.00000000000E+00  0.12525980253E-10  0.17130000000E+03  0.17130000000E+03 0. -1.
       11    1    1    2    0    0  0.41616014194E-01  0.24423927494E-01 -0.70891798014E-01  0.85757385217E-01  0.51109989000E-03 0. -1.
     -623    1    1    2    0    0 -0.33430868254E+00 -0.26529254296E+00  0.79230853612E+00  0.17130236395E+03  0.17130000000E+03 0. -1.
      622    1    1    2    0    0  0.29269266834E+00  0.24086861546E+00  0.32785832293E+01  0.39118786637E+01  0.21000000000E+01 0. -1.
</event>
<event>
 5   0  0.7462600E-02  0.9118800E+02  0.7818608E-02  0.1180000E+00
       11   -1    0    0    0    0  0.00000000000E+00  0.00000000000E+00  0.39999999673E+01  0.40000000000E+01  0.51109989000E-03 0.  1.
     -623   -1    0    0    0    0  0.00000000000E+00  0.00000000000E+00  0.12525980253E-10  0.17130000000E+03  0.17130000000E+03 0. -1.
       11    1    1    2    0    0 -0.11971414170E+00 -0.83346286851E-02 -0.21573537800E-01  0.12192875180E+00  0.51109989000E-03 0.  1.
     -623    1    1    2    0    0  0.41953005342E+00  0.67814539536E-03  0.77783928231E+00  0.17130227973E+03  0.17130000000E+03 0. -1.
      622    1    1    2    0    0 -0.29981591171E+00  0.76564832897E-02  0.32437342228E+01  0.38757915206E+01  0.21000000000E+01 0.  1.
</event>
<event>
 5   0  0.7462600E-02  0.9118800E+02  0.7818608E-02  0.1180000E+00
       11   -1    0    0    0    0  0.00000000000E+00  0.00000000000E+00  0.39999999673E+01  0.40000000000E+01  0.51109989000E-03 0. -1.
     -623   -1    0    0    0    0  0.00000000000E+00  0.00000000000E+00  0.12525980253E-10  0.17130000000E+03  0.17130000000E+03 0.  1.
       11    1    1    2    0    0 -0.33973287346E+00  0.28667893995E+00  0.24678816112E+00  0.50843671937E+00  0.51109989000E-03 0. -1.
     -623    1    1    2    0    0  0.39081197975E+00 -0.51960591024E+00  0.97904291559E+00  0.17130403162E+03  0.17130000000E+03 0.  1.
      622    1    1    2    0    0 -0.51079106298E-01  0.23292697030E+00  0.27741688907E+01  0.34875316604E+01  0.21000000000E+01 0. -1.
</event>
<event>
 5   0  0.7462600E-02  0.9118800E+02  0.7818608E-02  0.1180000E+00
       11   -1    0    0    0    0  0.00000000000E+00  0.00000000000E+00  0.39999999673E+01  0.40000000000E+01  0.51109989000E-03 0.  1.
     -623   -1    0    0    0    0  0.00000000000E+00  0.00000000000E+00  0.12525980253E-10  0.17130000000E+03  0.17130000000E+03 0. -1.
       11    1    1    2    0    0 -0.46481238339E-01  0.13681226557E+00 -0.11375034841E+00  0.18389536295E+00  0.51109989000E-03 0.  1.
     -623    1    1    2    0    0 -0.27495843175E+00  0.34051048546E+00  0.98394667581E+00  0.17130338497E+03  0.17130000000E+03 0.  1.
      622    1    1    2    0    0  0.32143967009E+00 -0.47732275103E+00  0.31298036400E+01  0.38127196717E+01  0.21000000000E+01 0.  1.
</event>
<event>
 5   0  0.7462600E-02  0.9118800E+02  0.7818608E-02  0.1180000E+00
       11   -1    0    0    0    0  0.00000000000E+00  0.00000000000E+00  0.39999999673E+01  0.40000000000E+01  0.51109989000E-03 0. -1.
     -623   -1    0    0    0    0  0.00000000000E+00  0.00000000000E+00  0.12525980253E-10  0.17130000000E+03  0.17130000000E+03 0. -1.
       11    1    1    2    0    0  0.17064042123E+00 -0.79229395227E-01  0.17102890174E+00  0.25425695050E+00  0.51109989000E-03 0. -1.
     -623    1    1    2    0    0  0.51114313955E-01  0.86902748478E-01  0.73716661889E+00  0.17130161581E+03  0.17130000000E+03 0. -1.
      622    1    1    2    0    0 -0.22175473518E+00 -0.76733532508E-02  0.30918044467E+01  0.37441272387E+01  0.21000000000E+01 0. -1.
</event>
<event>
 5   0  0.7462600E-02  0.9118800E+02  0.7818608E-02  0.1180000E+00
       11   -1    0    0    0    0  0.00000000000E+00  0.00000000000E+00  0.39999999673E+01  0.40000000000E+01  0.51109989000E-03 0.  1.
     -623   -1    0    0    0    0  0.00000000000E+00  0.00000000000E+00  0.12525980253E-10  0.17130000000E+03  0.17130000000E+03 0.  1.
       11    1    1    2    0    0 -0.12550751351E+00 -0.23880028417E+00  0.48357379024E+00  0.55373421738E+00  0.51109989000E-03 0.  1.
     -623    1    1    2    0    0 -0.32247011051E+00 -0.12718479173E+00  0.84899174012E+00  0.17130245459E+03  0.17130000000E+03 0.  1.
      622    1    1    2    0    0  0.44797762402E+00  0.36598507589E+00  0.26674344370E+01  0.34438111887E+01  0.21000000000E+01 0.  1.
</event>
<event>
 5   0  0.7462600E-02  0.9118800E+02  0.7818608E-02  0.1180000E+00
       11   -1    0    0    0    0  0.00000000000E+00  0.00000000000E+00  0.39999999673E+01  0.40000000000E+01  0.51109989000E-03 0. -1.
     -623   -1    0    0    0    0  0.00000000000E+00  0.00000000000E+00  0.12525980253E-10  0.17130000000E+03  0.17130000000E+03 0.  1.
       11    1    1    2    0    0  0.63282113746E-01  0.10835430463E+00  0.29287414200E+00  0.31862329722E+00  0.51109989000E-03 0. -1.
     -623    1    1    2    0    0  0.36654761516E+00 -0.15437156686E+00  0.71693832269E+00  0.17130196201E+03  0.17130000000E+03 0.  1.
      622    1    1    2    0    0 -0.42982972890E+00  0.46017262221E-01  0.29901875027E+01  0.36794146933E+01  0.21000000000E+01 0. -1.
</event>
<event>
 5   0  0.7462600E-02  0.9118800E+02  0.7818608E-02  0.1180000E+00
       11   -1    0    0    0    0  0.00000000000E+00  0.00000000000E+00  0.39999999673E+01  0.40000000000E+01  0.51109989000E-03 0. -1.
     -623   -1    0    0    0    0  0.00000000000E+00  0.00000000000E+00  0.12525980253E-10  0.17130000000E+03  0.17130000000E+03 0.  1.
       11    1    1    2    0    0  0.39632915628E-01  0.15203583554E-01  0.49086952169E-01  0.64897665986E-01  0.51109989000E-03 0. -1.
     -623    1    1    2    0    0 -0.25920516877E+00 -0.24427250882E+00  0.64001822180E+00  0.17130156590E+03  0.17130000000E+03 0.  1.
      622    1    1    2    0    0  0.21957225314E+00  0.22906892526E+00  0.33108947934E+01  0.39335364343E+01  0.21000000000E+01 0. -1.
</event>
<event>
 5   0  0.7462600E-02  0.9118800E+02  0.7818608E-02  0.1180000E+00
       11   -1    0    0    0    0  0.00000000000E+00  0.00000000000E+00  0.39999999673E+01  0.40000000000E+01  0.51109989000E-03 0.  1.
     -623   -1    0    0    0    0  0.00000000000E+00  0.00000000000E+00  0.12525980253E-10  0.17130000000E+03  0.17130000000E+03 0.  1.
       11    1    1    2    0    0 -0.11560640922E+00 -0.27408398393E-03 -0.37854695402E-01  0.12164767223E+00  0.51109989000E-03 0.  1.
     -623    1    1    2    0    0  0.31470890717E+00 -0.71235364305E-01  0.78662426497E+00  0.17130211001E+03  0.17130000000E+03 0.  1.
      622    1    1    2    0    0 -0.19910249795E+00  0.71509448289E-01  0.32512303978E+01  0.38762423177E+01  0.21000000000E+01 0.  1.
</event>
<event>
 5   0  0.7462600E-02  0.9118800E+02  0.7818608E-02  0.1180000E+00
       11   -1    0    0    0    0  0.00000000000E+00  0.00000000000E+00  0.39999999673E+01  0.40000000000E+01  0.51109989000E-03 0. -1.
     -623   -1    0    0    0    0  0.00000000000E+00  0.00000000000E+00  0.12525980253E-10  0.17130000000E+03  0.17130000000E+03 0.  1.
       11    1    1    2    0    0 -0.64204185750E-01  0.73061659589E-01  0.80780292855E-01  0.12643536098E+00  0.51109989000E-03 0. -1.
     -623    1    1    2    0    0  0.23990021031E+00 -0.40838677675E-01  0.67097734461E+00  0.17130148695E+03  0.17130000000E+03 0.  1.
      622    1    1    2    0    0 -0.17569602456E+00 -0.32222981915E-01  0.32482423299E+01  0.38720776913E+01  0.21000000000E+01 0. -1.
</event>
<event>
 5   0  0.7462600E-02  0.9118800E+02  0.7818608E-02  0.1180000E+00
       11   -1    0    0    0    0  0.00000000000E+00  0.00000000000E+00  0.39999999673E+01  0.40000000000E+01  0.51109989000E-03 0. -1.
     -623   -1    0    0    0    0  0.00000000000E+00  0.00000000000E+00  0.12525980253E-10  0.17130000000E+03  0.17130000000E+03 0.  1.
       11    1    1    2    0    0  0.59572410069E-01  0.14401317668E+00  0.25242906594E-01  0.15788012115E+00  0.51109989000E-03 0. -1.
     -623    1    1    2    0    0  0.75850824905E-01 -0.12686725912E+00  0.76232333849E+00  0.17130176002E+03  0.17130000000E+03 0.  1.
      622    1    1    2    0    0 -0.13542323497E+00 -0.17145917566E-01  0.32124337223E+01  0.38403598601E+01  0.21000000000E+01 0. -1.
</event>
<event>
 5   0  0.7462600E-02  0.9118800E+02  0.7818608E-02  0.1180000E+00
       11   -1    0    0    0    0  0.00000000000E+00  0.00000000000E+00  0.39999999673E+01  0.40000000000E+01  0.51109989000E-03 0. -1.
     -623   -1    0    0    0    0  0.00000000000E+00  0.00000000000E+00  0.12525980253E-10  0.17130000000E+03  0.17130000000E+03 0.  1.
       11    1    1    2    0    0 -0.96055986870E-01 -0.17897958757E+00  0.20782176285E+00  0.29060383981E+00  0.51109989000E-03 0. -1.
     -623    1    1    2    0    0  0.29808189031E+00  0.34508287617E+00  0.74839948804E+00  0.17130224177E+03  0.17130000000E+03 0.  1.
      622    1    1    2    0    0 -0.20202590344E+00 -0.16610328860E+00  0.30437787165E+01  0.37071543862E+01  0.21000000000E+01 0. -1.
</event>
<event>
 5   0  0.7462600E-02  0.9118800E+02  0.7818608E-02  0.1180000E+00
       11   -1    0    0    0    0  0.00000000000E+00  0.00000000000E+00  0.39999999673E+01  0.40000000000E+01  0.51109989000E-03 0. -1.
     -623   -1    0    0    0    0  0.00000000000E+00  0.00000000000E+00  0.12525980253E-10  0.17130000000E+03  0.17130000000E+03 0. -1.
       11    1    1    2    0    0 -0.21856288514E+00 -0.11649498933E-01  0.82599795846E-01  0.23394108891E+00  0.51109989000E-03 0. -1.
     -623    1    1    2    0    0  0.15049003458E+00  0.80982726246E-01  0.79502537474E+00  0.17130193014E+03  0.17130000000E+03 0. -1.
      622    1    1    2    0    0  0.68072850559E-01 -0.69333227313E-01  0.31223747968E+01  0.37641287678E+01  0.21000000000E+01 0. -1.
</event>
<event>
 5   0  0.7462600E-02  0.9118800E+02  0.7818608E-02  0.1180000E+00
       11   -1    0    0    0    0  0.00000000000E+00  0.00000000000E+00  0.39999999673E+01  0.40000000000E+01  0.51109989000E-03 0.  1.
     -623   -1    0    0    0    0  0.00000000000E+00  0.00000000000E+00  0.12525980253E-10  0.17130000000E+03  0.17130000000E+03 0. -1.
       11    1    1    2    0    0 -0.28595856659E+00 -0.25192299919E+00  0.15422746119E+00  0.41112512735E+00  0.51109989000E-03 0.  1.
     -623    1    1    2    0    0  0.34915833125E+00  0.88678080571E-03  0.95068545403E+00  0.17130299389E+03  0.17130000000E+03 0. -1.
      622    1    1    2    0    0 -0.63199764664E-01  0.25103621839E+00  0.28950870521E+01  0.35858809842E+01  0.21000000000E+01 0.  1.
</event>
<event>
 5   0  0.7462600E-02  0.9118800E+02  0.7818608E-02  0.1180000E+00
       11   -1    0    0    0    0  0.00000000000E+00  0.00000000000E+00  0.39999999673E+01  0.40000000000E+01  0.51109989000E-03 0. -1.
     -623   -1    0    0    0    0  0.00000000000E+00  0.00000000000E+00  0.12525980253E-10  0.17130000000E+03  0.17130000000E+03 0.  1.
       11    1    1    2    0    0  0.10570903687E+00  0.46094028646E-01  0.21975209432E+00  0.24817393926E+00  0.51109989000E-03 0. -1.
     -623    1    1    2    0    0 -0.47116240458E+00  0.41741561063E+00  0.73108002818E+00  0.17130271658E+03  0.17130000000E+03 0.  1.
      622    1    1    2    0    0  0.36545336771E+00 -0.46350963928E+00  0.30491678449E+01  0.37491094804E+01  0.21000000000E+01 0. -1.
</event>
<event>
 5   0  0.7462600E-02  0.9118800E+02  0.7818608E-02  0.1180000E+00
       11   -1    0    0    0    0  0.00000000000E+00  0.00000000000E+00  0.39999999673E+01  0.40000000000E+01  0.51109989000E-03 0. -1.
     -623   -1    0    0    0    0  0.00000000000E+00  0.00000000000E+00  0.12525980253E-10  0.17130000000E+03  0.17130000000E+03 0.  1.
       11    1    1    2    0    0  0.85569566581E-01 -0.78913829162E-02  0.14773436230E+00  0.17090970621E+00  0.51109989000E-03 0. -1.
     -623    1    1    2    0    0 -0.37165534678E+00  0.10393009052E+00  0.66673562891E+00  0.17130173223E+03  0.17130000000E+03 0.  1.
      622    1    1    2    0    0  0.28608578020E+00 -0.96038707607E-01  0.31855299762E+01  0.38273580622E+01  0.21000000000E+01 0. -1.
</event>
<event>
 5   0  0.7462600E-02  0.9118800E+02  0.7818608E-02  0.1180000E+00
       11   -1    0    0    0    0  0.00000000000E+00  0.00000000000E+00  0.39999999673E+01  0.40000000000E+01  0.51109989000E-03 0. -1.
     -623   -1    0    0    0    0  0.00000000000E+00  0.00000000000E+00  0.12525980253E-10  0.17130000000E+03  0.17130000000E+03 0.  1.
       11    1    1    2    0    0  0.22844913419E+00 -0.23137439048E+00  0.89074021739E-01  0.33713136617E+00  0.51109989000E-03 0. -1.
     -623    1    1    2    0    0 -0.37219528658E+00  0.20006802011E-02  0.92561898657E+00  0.17130290512E+03  0.17130000000E+03 0.  1.
      622    1    1    2    0    0  0.14374615239E+00  0.22937371028E+00  0.29853069590E+01  0.36599635101E+01  0.21000000000E+01 0. -1.
</event>
<event>
 5   0  0.7462600E-02  0.9118800E+02  0.7818608E-02  0.1180000E+00
       11   -1    0    0    0    0  0.00000000000E+00  0.00000000000E+00  0.39999999673E+01  0.40000000000E+01  0.51109989000E-03 0.  1.
     -623   -1    0    0    0    0  0.00000000000E+00  0.00000000000E+00  0.12525980253E-10  0.17130000000E+03  0.17130000000E+03 0. -1.
       11    1    1    2    0    0 -0.13169226369E-01 -0.42810744582E-02 -0.67484045376E-02  0.15412926671E-01  0.51109989000E-03 0.  1.
     -623    1    1    2    0    0  0.12753811498E+00  0.14347337333E+00  0.62673549767E+00  0.17130125408E+03  0.17130000000E+03 0. -1.
      622    1    1    2    0    0 -0.11436888862E+00 -0.13919229887E+00  0.33800128742E+01  0.39833329975E+01  0.21000000000E+01 0.  1.
</event>
<event>
 5   0  0.7462600E-02  0.9118800E+02  0.7818608E-02  0.1180000E+00
       11   -1    0    0    0    0  0.00000000000E+00  0.00000000000E+00  0.39999999673E+01  0.40000000000E+01  0.51109989000E-03 0.  1.
     -623   -1    0    0    0    0  0.00000000000E+00  0.00000000000E+00  0.12525980253E-10  0.17130000000E+03  0.17130000000E+03 0. -1.
       11    1    1    2    0    0  0.21029884123E+00  0.37453573021E+00  0.61723741783E+00  0.75198730509E+00  0.51109989000E-03 0.  1.
     -623    1    1    2    0    0 -0.92420516306E-01  0.31573969831E+00  0.10104619590E+01  0.17130329613E+03  0.17130000000E+03 0. -1.
      622    1    1    2    0    0 -0.11787832492E+00 -0.69027542852E+00  0.23723005906E+01  0.32447165606E+01  0.21000000000E+01 0.  1.
</event>
<event>
 5   0  0.7462600E-02  0.9118800E+02  0.7818608E-02  0.1180000E+00
       11   -1    0    0    0    0  0.00000000000E+00  0.00000000000E+00  0.39999999673E+01  0.40000000000E+01  0.51109989000E-03 0.  1.
     -623   -1    0    0    0    0  0.00000000000E+00  0.00000000000E+00  0.12525980253E-10  0.17130000000E+03  0.17130000000E+03 0.  1.
       11    1    1    2    0    0  0.12398631310E+00  0.11219113209E+00  0.30742397648E+00  0.34995602365E+00  0.51109989000E-03 0.  1.
     -623    1    1    2    0    0  0.22052991974E-02 -0.21651284011E+00  0.71362211105E+00  0.17130162328E+03  0.17130000000E+03 0.  1.
      622    1    1    2    0    0 -0.12619161229E+00  0.10432170802E+00  0.29789538798E+01  0.36484206939E+01  0.21000000000E+01 0.  1.
</event>
<event>
 5   0  0.7462600E-02  0.9118800E+02  0.7818608E-02  0.1180000E+00
       11   -1    0    0    0    0  0.00000000000E+00  0.00000000000E+00  0.39999999673E+01  0.40000000000E+01  0.51109989000E-03 0. -1.
     -623   -1    0    0    0    0  0.00000000000E+00  0.00000000000E+00  0.12525980253E-10  0.17130000000E+03  0.17130000000E+03 0. -1.
       11    1    1    2    0    0  0.20411592914E+00 -0.94829748622E-01  0.70645631573E+00  0.74144236527E+00  0.51109989000E-03 0. -1.
     -623    1    1    2    0    0 -0.11077870344E+00  0.13118814083E+00  0.80653072796E+00  0.17130198473E+03  0.17130000000E+03 0. -1.
      622    1    1    2    0    0 -0.93337225699E-01 -0.36358392210E-01  0.24870129237E+01  0.32565729000E+01  0.21000000000E+01 0. -1.
</event>
<event>
 5   0  0.7462600E-02  0.9118800E+02  0.7818608E-02  0.1180000E+00
       11   -1    0    0    0    0  0.00000000000E+00  0.00000000000E+00  0.39999999673E+01  0.40000000000E+01  0.51109989000E-03 0. -1.
     -623   -1    0    0    0    0  0.00000000000E+00  0.00000000000E+00  0.12525980253E-10  0.17130000000E+03  0.17130000000E+03 0. -1.
       11    1    1    2    0    0 -0.27432146319E+00 -0.26886905386E+00  0.10469840258E-01  0.38425605014E+00  0.51109989000E-03 0. -1.
     -623    1    1    2    0    0 -0.86504504441E-01 -0.44072267783E-01  0.10894895020E+01  0.17130349212E+03  0.17130000000E+03 0. -1.
      622    1    1    2    0    0  0.36082596763E+00  0.31294132165E+00  0.29000406251E+01  0.36122518291E+01  0.21000000000E+01 0. -1.
</event>
<event>
 5   0  0.7462600E-02  0.9118800E+02  0.7818608E-02  0.1180000E+00
       11   -1    0    0    0    0  0.00000000000E+00  0.00000000000E+00  0.39999999673E+01  0.40000000000E+01  0.51109989000E-03 0.  1.
     -623   -1    0    0    0    0  0.00000000000E+00  0.00000000000E+00  0.12525980253E-10  0.17130000000E+03  0.17130000000E+03 0. -1.
       11    1    1    2    0    0 -0.93079737624E-01  0.12531150872E+00 -0.20988512670E-01  0.15750425601E+00  0.51109989000E-03 0.  1.
     -623    1    1    2    0    0 -0.10511507654E+00 -0.29048730679E+00  0.81612764864E+00  0.17130222268E+03  0.17130000000E+03 0. -1.
      622    1    1    2    0    0  0.19819481416E+00  0.16517579806E+00  0.32048608314E+01  0.38402730602E+01  0.21000000000E+01 0.  1.
</event>
<event>
 5   0  0.7462600E-02  0.9118800E+02  0.7818608E-02  0.1180000E+00
       11   -1    0    0    0    0  0.00000000000E+00  0.00000000000E+00  0.39999999673E+01  0.40000000000E+01  0.51109989000E-03 0. -1.
     -623   -1    0    0    0    0  0.00000000000E+00  0.00000000000E+00  0.12525980253E-10  0.17130000000E+03  0.17130000000E+03 0. -1.
       11    1    1    2    0    0  0.21918381641E+00 -0.24772712150E+00  0.27459164840E+00  0.42989662326E+00  0.51109989000E-03 0. -1.
     -623    1    1    2    0    0  0.38314551972E-01  0.12826269085E+00  0.85496266630E+00  0.17130218586E+03  0.17130000000E+03 0. -1.
      622    1    1    2    0    0 -0.25749836838E+00  0.11946443065E+00  0.28704456527E+01  0.35679175165E+01  0.21000000000E+01 0. -1.
</event>
<event>
 5   0  0.7462600E-02  0.9118800E+02  0.7818608E-02  0.1180000E+00
       11   -1    0    0    0    0  0.00000000000E+00  0.00000000000E+00  0.39999999673E+01  0.40000000000E+01  0.51109989000E-03 0.  1.
     -623   -1    0    0    0    0  0.00000000000E+00  0.00000000000E+00  0.12525980253E-10  0.17130000000E+03  0.17130000000E+03 0.  1.
       11    1    1    2    0    0 -0.28687202148E+00  0.21728546546E+00  0.24238498552E+00  0.43388854864E+00  0.51109989000E-03 0.  1.
     -623    1    1    2    0    0  0.32159001776E+00 -0.22397624926E-01  0.88542296508E+00  0.17130259162E+03  0.17130000000E+03 0.  1.
      622    1    1    2    0    0 -0.34717996279E-01 -0.19488784054E+00  0.28721920168E+01  0.35635198317E+01  0.21000000000E+01 0.  1.
</event>
<event>
 5   0  0.7462600E-02  0.9118800E+02  0.7818608E-02  0.1180000E+00
       11   -1    0    0    0    0  0.00000000000E+00  0.00000000000E+00  0.39999999673E+01  0.40000000000E+01  0.51109989000E-03 0.  1.
     -623   -1    0    0    0    0  0.00000000000E+00  0.00000000000E+00  0.12525980253E-10  0.17130000000E+03  0.17130000000E+03 0.  1.
       11    1    1    2    0    0 -0.49887387151E-01  0.54088845742E-01  0.29618072313E+00  0.30518459432E+00  0.51109989000E-03 0.  1.
     -623    1    1    2    0    0  0.20639590785E+00 -0.21787362968E+00  0.67419943533E+00  0.17130158964E+03  0.17130000000E+03 0.  1.
      622    1    1    2    0    0 -0.15650852070E+00  0.16378478394E+00  0.30296198089E+01  0.36932257660E+01  0.21000000000E+01 0.  1.
</event>
<event>
 5   0  0.7462600E-02  0.9118800E+02  0.7818608E-02  0.1180000E+00
       11   -1    0    0    0    0  0.00000000000E+00  0.00000000000E+00  0.39999999673E+01  0.40000000000E+01  0.51109989000E-03 0.  1.
     -623   -1    0    0    0    0  0.00000000000E+00  0.00000000000E+00  0.12525980253E-10  0.17130000000E+03  0.17130000000E+03 0.  1.
       11    1    1    2    0    0  0.79691017148E-01  0.73707992245E-02  0.50844091137E-01  0.94817560198E-01  0.51109989000E-03 0.  1.
     -623    1    1    2    0    0 -0.85050023846E-02 -0.16168299890E+00  0.66267396958E+00  0.17130135829E+03  0.17130000000E+03 0.  1.
      622    1    1    2    0    0 -0.71186014763E-01  0.15431219967E+00  0.32864819066E+01  0.39038241541E+01  0.21000000000E+01 0.  1.
</event>
<event>
 5   0  0.7462600E-02  0.9118800E+02  0.7818608E-02  0.1180000E+00
       11   -1    0    0    0    0  0.00000000000E+00  0.00000000000E+00  0.39999999673E+01  0.40000000000E+01  0.51109989000E-03 0. -1.
     -623   -1    0    0    0    0  0.00000000000E+00  0.00000000000E+00  0.12525980253E-10  0.17130000000E+03  0.17130000000E+03 0.  1.
       11    1    1    2    0    0 -0.15138825335E+00 -0.37833223953E+00  0.11870096602E+00  0.42443358406E+00  0.51109989000E-03 0. -1.
     -623    1    1    2    0    0 -0.40996845174E-02  0.61217766376E-01  0.10127700898E+01  0.17130300484E+03  0.17130000000E+03 0.  1.
      622    1    1    2    0    0  0.15548793786E+00  0.31711447316E+00  0.28685289115E+01  0.35725615746E+01  0.21000000000E+01 0. -1.
</event>
<event>
 5   0  0.7462600E-02  0.9118800E+02  0.7818608E-02  0.1180000E+00
       11   -1    0    0    0    0  0.00000000000E+00  0.00000000000E+00  0.39999999673E+01  0.40000000000E+01  0.51109989000E-03 0.  1.
     -623   -1    0    0    0    0  0.00000000000E+00  0.00000000000E+00  0.12525980253E-10  0.17130000000E+03  0.17130000000E+03 0. -1.
       11    1    1    2    0    0 -0.15514324369E+00  0.44530875566E+00  0.79498719505E+00  0.92432365298E+00  0.51109989000E-03 0.  1.
     -623    1    1    2    0    0  0.35091801611E+00 -0.13088522578E+00  0.99314070849E+00  0.17130328836E+03  0.17130000000E+03 0. -1.
      622    1    1    2    0    0 -0.19577477242E+00 -0.31442352988E+00  0.22118720638E+01  0.30723879873E+01  0.21000000000E+01 0.  1.
</event>
<event>
 5   0  0.7462600E-02  0.9118800E+02  0.7818608E-02  0.1180000E+00
       11   -1    0    0    0    0  0.00000000000E+00  0.00000000000E+00  0.39999999673E+01  0.40000000000E+01  0.51109989000E-03 0. -1.
     -623   -1    0    0    0    0  0.00000000000E+00  0.00000000000E+00  0.12525980253E-10  0.17130000000E+03  0.17130000000E+03 0. -1.
       11    1    1    2    0    0 -0.54861883661E-01  0.68553201779E-01  0.10759757361E+00  0.13887716451E+00  0.51109989000E-03 0. -1.
     -623    1    1    2    0    0  0.29679671721E+00 -0.20891883009E+00  0.66640515868E+00  0.17130168076E+03  0.17130000000E+03 0. -1.
      622    1    1    2    0    0 -0.24193483355E+00  0.14036562831E+00  0.32259972351E+01  0.38594420755E+01  0.21000000000E+01 0. -1.
</event>
<event>
 5   0  0.7462600E-02  0.9118800E+02  0.7818608E-02  0.1180000E+00
       11   -1    0    0    0    0  0.00000000000E+00  0.00000000000E+00  0.39999999673E+01  0.40000000000E+01  0.51109989000E-03 0.  1.
     -623   -1    0    0    0    0  0.00000000000E+00  0.00000000000E+00  0.12525980253E-10  0.17130000000E+03  0.17130000000E+03 0. -1.
       11    1    1    2    0    0  0.61091229093E-01  0.94702668054E-01 -0.94897776925E-02  0.11309752743E+00  0.51109989000E-03 0.  1.
     -623    1    1    2    0    0 -0.25979799222E+00 -0.18402740404E-01  0.74782152456E+00  0.17130183032E+03  0.17130000000E+03 0. -1.
      622    1    1    2    0    0  0.19870676313E+00 -0.76299927650E-01  0.32616682205E+01  0.38850721534E+01  0.21000000000E+01 0.  1.
</event>
<event>
 5   0  0.7462600E-02  0.9118800E+02  0.7818608E-02  0.1180000E+00
       11   -1    0    0    0    0  0.00000000000E+00  0.00000000000E+00  0.39999999673E+01  0.40000000000E+01  0.51109989000E-03 0.  1.
     -623   -1    0    0    0    0  0.00000000000E+00  0.00000000000E+00  0.12525980253E-10  0.17130000000E+03  0.17130000000E+03 0.  1.
       11    1    1    2    0    0  0.54525677412E-01 -0.57934646123E-01 -0.42113504150E-01  0.90018226896E-01  0.51109989000E-03 0.  1.
     -623    1    1    2    0    0 -0.66766118351E-02 -0.50607092546E+00  0.79599835711E+00  0.17130259708E+03  0.17130000000E+03 0.  1.
      622    1    1    2    0    0 -0.47849065577E-01  0.56400557158E+00  0.32461151144E+01  0.39073846949E+01  0.21000000000E+01 0.  1.
</event>
<event>
 5   0  0.7462600E-02  0.9118800E+02  0.7818608E-02  0.1180000E+00
       11   -1    0    0    0    0  0.00000000000E+00  0.00000000000E+00  0.39999999673E+01  0.40000000000E+01  0.51109989000E-03 0.  1.
     -623   -1    0    0    0    0  0.00000000000E+00  0.00000000000E+00  0.12525980253E-10  0.17130000000E+03  0.17130000000E+03 0. -1.
       11    1    1    2    0    0  0.93071199688E-01 -0.91523542275E-01  0.20044115414E+00  0.23919808631E+00  0.51109989000E-03 0.  1.
     -623    1    1    2    0    0  0.60199433331E-01  0.30564150963E+00  0.69285220560E+00  0.17130168442E+03  0.17130000000E+03 0. -1.
      622    1    1    2    0    0 -0.15327063302E+00 -0.21411796736E+00  0.31067066076E+01  0.37591174944E+01  0.21000000000E+01 0.  1.
</event>
<event>
 5   0  0.7462600E-02  0.9118800E+02  0.7818608E-02  0.1180000E+00
       11   -1    0    0    0    0  0.00000000000E+00  0.00000000000E+00  0.39999999673E+01  0.40000000000E+01  0.51109989000E-03 0. -1.
     -623   -1    0    0    0    0  0.00000000000E+00  0.00000000000E+00  0.12525980253E-10  0.17130000000E+03  0.17130000000E+03 0.  1.
       11    1    1    2    0    0 -0.91880361320E-01 -0.75947277576E-02  0.30827285600E-01  0.97212465481E-01  0.51109989000E-03 0. -1.
     -623    1    1    2    0    0  0.18874124297E+00  0.18273206208E+00  0.68750285946E+00  0.17130158106E+03  0.17130000000E+03 0.  1.
      622    1    1    2    0    0 -0.96860881647E-01 -0.17513733432E+00  0.32816698223E+01  0.39012064722E+01  0.21000000000E+01 0. -1.
</event>
<event>
 5   0  0.7462600E-02  0.9118800E+02  0.7818608E-02  0.1180000E+00
       11   -1    0    0    0    0  0.00000000000E+00  0.00000000000E+00  0.39999999673E+01  0.40000000000E+01  0.51109989000E-03 0. -1.
     -623   -1    0    0    0    0  0.00000000000E+00  0.00000000000E+00  0.12525980253E-10  0.17130000000E+03  0.17130000000E+03 0.  1.
       11    1    1    2    0    0  0.25557130228E+00 -0.24010273649E+00  0.22416372601E+00  0.41619184507E+00  0.51109989000E-03 0. -1.
     -623    1    1    2    0    0 -0.15461916050E+00  0.82999088289E-01  0.88067769707E+00  0.17130235372E+03  0.17130000000E+03 0.  1.
      622    1    1    2    0    0 -0.10095214178E+00  0.15710364820E+00  0.28951585443E+01  0.35814544375E+01  0.21000000000E+01 0. -1.
</event>
<event>
 5   0  0.7462600E-02  0.9118800E+02  0.7818608E-02  0.1180000E+00
       11   -1    0    0    0    0  0.00000000000E+00  0.00000000000E+00  0.39999999673E+01  0.40000000000E+01  0.51109989000E-03 0. -1.
     -623   -1    0    0    0    0  0.00000000000E+00  0.00000000000E+00  0.12525980253E-10  0.17130000000E+03  0.17130000000E+03 0.  1.
       11    1    1    2    0    0 -0.69618017951E-01  0.98323824410E-01 -0.54208609918E-01  0.13211009605E+00  0.51109989000E-03 0. -1.
     -623    1    1    2    0    0  0.43139722143E-01 -0.10599998087E+00  0.80847883961E+00  0.17130194609E+03  0.17130000000E+03 0.  1.
      622    1    1    2    0    0  0.26478295808E-01  0.76761564572E-02  0.32457297377E+01  0.38659438115E+01  0.21000000000E+01 0. -1.
</event>
<event>
 5   0  0.7462600E-02  0.9118800E+02  0.7818608E-02  0.1180000E+00
       11   -1    0    0    0    0  0.00000000000E+00  0.00000000000E+00  0.39999999673E+01  0.40000000000E+01  0.51109989000E-03 0. -1.
     -623   -1    0    0    0    0  0.00000000000E+00  0.00000000000E+00  0.12525980253E-10  0.17130000000E+03  0.17130000000E+03 0. -1.
       11    1    1    2    0    0 -0.19335382305E-01  0.11772834541E+00  0.20298345999E+00  0.23544928663E+00  0.51109989000E-03 0. -1.
     -623    1    1    2    0    0  0.93932763395E-02 -0.21643162376E+00  0.67597021700E+00  0.17130147071E+03  0.17130000000E+03 0. -1.
      622    1    1    2    0    0  0.99421059659E-02  0.98703278351E-01  0.31210462904E+01  0.37630800057E+01  0.21000000000E+01 0. -1.
</event>
<event>
 5   0  0.7462600E-02  0.9118800E+02  0.7818608E-02  0.1180000E+00
       11   -1    0    0    0    0  0.00000000000E+00  0.00000000000E+00  0.39999999673E+01  0.40000000000E+01  0.51109989000E-03 0.  1.
     -623   -1    0    0    0    0  0.00000000000E+00  0.00000000000E+00  0.12525980253E-10  0.17130000000E+03  0.17130000000E+03 0. -1.
       11    1    1    2    0    0  0.13900833100E-02 -0.64131605694E-01 -0.11544461978E-02  0.64159092493E-01  0.51109989000E-03 0.  1.
     -623    1    1    2    0    0 -0.30424877338E+00  0.56451721080E+00  0.72745091916E+00  0.17130274496E+03  0.17130000000E+03 0. -1.
      622    1    1    2    0    0  0.30285869007E+00 -0.50038560511E+00  0.32737034944E+01  0.39330959446E+01  0.21000000000E+01 0.  1.
</event>
<event>
 5   0  0.7462600E-02  0.9118800E+02  0.7818608E-02  0.1180000E+00
       11   -1    0    0    0    0  0.00000000000E+00  0.00000000000E+00  0.39999999673E+01  0.40000000000E+01  0.51109989000E-03 0.  1.
     -623   -1    0    0    0    0  0.00000000000E+00  0.00000000000E+00  0.12525980253E-10  0.17130000000E+03  0.17130000000E+03 0. -1.
       11    1    1    2    0    0  0.73275180934E-01  0.13658282326E+00  0.91456785047E+00  0.92760914942E+00  0.51109989000E-03 0.  1.
     -623    1    1    2    0    0  0.17035617240E+00 -0.20583797366E+00  0.86037448249E+00  0.17130236903E+03  0.17130000000E+03 0. -1.
      622    1    1    2    0    0 -0.24363135333E+00  0.69255150397E-01  0.22250576344E+01  0.30700218222E+01  0.21000000000E+01 0.  1.
</event>
<event>
 5   0  0.7462600E-02  0.9118800E+02  0.7818608E-02  0.1180000E+00
       11   -1    0    0    0    0  0.00000000000E+00  0.00000000000E+00  0.39999999673E+01  0.40000000000E+01  0.51109989000E-03 0.  1.
     -623   -1    0    0    0    0  0.00000000000E+00  0.00000000000E+00  0.12525980253E-10  0.17130000000E+03  0.17130000000E+03 0. -1.
       11    1    1    2    0    0 -0.22956699902E+00  0.63429881509E-01  0.25750304620E+00  0.35075979949E+00  0.51109989000E-03 0.  1.
     -623    1    1    2    0    0  0.29123305374E+00  0.36625897153E+00  0.79284112056E+00  0.17130247389E+03  0.17130000000E+03 0. -1.
      622    1    1    2    0    0 -0.61666054718E-01 -0.42968885304E+00  0.29496558006E+01  0.36467663148E+01  0.21000000000E+01 0.  1.
</event>
<event>
 5   0  0.7462600E-02  0.9118800E+02  0.7818608E-02  0.1180000E+00
       11   -1    0    0    0    0  0.00000000000E+00  0.00000000000E+00  0.39999999673E+01  0.40000000000E+01  0.51109989000E-03 0. -1.
     -623   -1    0    0    0    0  0.00000000000E+00  0.00000000000E+00  0.12525980253E-10  0.17130000000E+03  0.17130000000E+03 0.  1.
       11    1    1    2    0    0 -0.15853087414E+00 -0.15620839219E+00 -0.10417411897E+00  0.24573483296E+00  0.51109989000E-03 0. -1.
     -623    1    1    2    0    0  0.77916857285E-01  0.36766140690E+00  0.10044807605E+01  0.17130335732E+03  0.17130000000E+03 0.  1.
      622    1    1    2    0    0  0.80614016854E-01 -0.21145301471E+00  0.30996933258E+01  0.37509078516E+01  0.21000000000E+01 0. -1.
</event>
<event>
 5   0  0.7462600E-02  0.9118800E+02  0.7818608E-02  0.1180000E+00
       11   -1    0    0    0    0  0.00000000000E+00  0.00000000000E+00  0.39999999673E+01  0.40000000000E+01  0.51109989000E-03 0. -1.
     -623   -1    0    0    0    0  0.00000000000E+00  0.00000000000E+00  0.12525980253E-10  0.17130000000E+03  0.17130000000E+03 0.  1.
       11    1    1    2    0    0  0.27980595990E+00 -0.18456341250E+00  0.21379911082E+00  0.39757433197E+00  0.51109989000E-03 0. -1.
     -623    1    1    2    0    0 -0.77692856301E-01  0.23522415722E+00  0.86954716223E+00  0.17130238609E+03  0.17130000000E+03 0.  1.
      622    1    1    2    0    0 -0.20211310360E+00 -0.50660744716E-01  0.29166536943E+01  0.36000395818E+01  0.21000000000E+01 0. -1.
</event>
<event>
 5   0  0.7462600E-02  0.9118800E+02  0.7818608E-02  0.1180000E+00
       11   -1    0    0    0    0  0.00000000000E+00  0.00000000000E+00  0.39999999673E+01  0.40000000000E+01  0.51109989000E-03 0.  1.
     -623   -1    0    0    0    0  0.00000000000E+00  0.00000000000E+00  0.12525980253E-10  0.17130000000E+03  0.17130000000E+03 0.  1.
       11    1    1    2    0    0  0.98272891636E-01 -0.56950483667E-01 -0.99212144785E-01  0.15081190177E+00  0.51109989000E-03 0.  1.
     -623    1    1    2    0    0 -0.47963090653E-01  0.18751435551E+00  0.87920196052E+00  0.17130236559E+03  0.17130000000E+03 0.  1.
      622    1    1    2    0    0 -0.50309800984E-01 -0.13056387184E+00  0.32200101516E+01  0.38468225040E+01  0.21000000000E+01 0.  1.
</event>
<event>
 5   0  0.7462600E-02  0.9118800E+02  0.7818608E-02  0.1180000E+00
       11   -1    0    0    0    0  0.00000000000E+00  0.00000000000E+00  0.39999999673E+01  0.40000000000E+01  0.51109989000E-03 0.  1.
     -623   -1    0    0    0    0  0.00000000000E+00  0.00000000000E+00  0.12525980253E-10  0.17130000000E+03  0.17130000000E+03 0. -1.
       11    1    1    2    0    0  0.66326424175E-01  0.10372691739E+00  0.44398498162E+00  0.46074004933E+00  0.51109989000E-03 0.  1.
     -623    1    1    2    0    0  0.10402762660E+00 -0.71918755610E+00  0.78383975066E+00  0.17130333464E+03  0.17130000000E+03 0. -1.
      622    1    1    2    0    0 -0.17035405077E+00  0.61546063871E+00  0.27721752351E+01  0.35359253152E+01  0.21000000000E+01 0.  1.
</event>
<event>
 5   0  0.7462600E-02  0.9118800E+02  0.7818608E-02  0.1180000E+00
       11   -1    0    0    0    0  0.00000000000E+00  0.00000000000E+00  0.39999999673E+01  0.40000000000E+01  0.51109989000E-03 0. -1.
     -623   -1    0    0    0    0  0.00000000000E+00  0.00000000000E+00  0.12525980253E-10  0.17130000000E+03  0.17130000000E+03 0. -1.
       11    1    1    2    0    0  0.21214185398E+00 -0.56323487142E-01  0.15854114415E+00  0.27076199332E+00  0.51109989000E-03 0. -1.
     -623    1    1    2    0    0 -0.16741849627E+00 -0.18746518025E+00  0.77202303564E+00  0.17130192407E+03  0.17130000000E+03 0. -1.
      622    1    1    2    0    0 -0.44723357709E-01  0.24378866739E+00  0.30694357876E+01  0.37273139319E+01  0.21000000000E+01 0. -1.
</event>
<event>
 5   0  0.7462600E-02  0.9118800E+02  0.7818608E-02  0.1180000E+00
       11   -1    0    0    0    0  0.00000000000E+00  0.00000000000E+00  0.39999999673E+01  0.40000000000E+01  0.51109989000E-03 0.  1.
     -623   -1    0    0    0    0  0.00000000000E+00  0.00000000000E+00  0.12525980253E-10  0.17130000000E+03  0.17130000000E+03 0.  1.
       11    1    1    2    0    0 -0.36313649732E+00  0.53896794853E-01  0.51947138794E+00  0.63610043569E+00  0.51109989000E-03 0.  1.
     -623    1    1    2    0    0  0.50894082789E+00 -0.61682215041E+00  0.92350103010E+00  0.17130435588E+03  0.17130000000E+03 0.  1.
      622    1    1    2    0    0 -0.14580433057E+00  0.56292535556E+00  0.25570275493E+01  0.33595436813E+01  0.21000000000E+01 0.  1.
</event>
<event>
 5   0  0.7462600E-02  0.9118800E+02  0.7818608E-02  0.1180000E+00
       11   -1    0    0    0    0  0.00000000000E+00  0.00000000000E+00  0.39999999673E+01  0.40000000000E+01  0.51109989000E-03 0.  1.
     -623   -1    0    0    0    0  0.00000000000E+00  0.00000000000E+00  0.12525980253E-10  0.17130000000E+03  0.17130000000E+03 0.  1.
       11    1    1    2    0    0  0.14894937834E+00  0.11157890473E+00 -0.28360452958E-01  0.18825606445E+00  0.51109989000E-03 0.  1.
     -623    1    1    2    0    0 -0.97605380512E-01 -0.10479610970E+00  0.85028390199E+00  0.17130217013E+03  0.17130000000E+03 0.  1.
      622    1    1    2    0    0 -0.51343997830E-01 -0.67827950267E-02  0.31780765183E+01  0.38095738041E+01  0.21000000000E+01 0.  1.
</event>
<event>
 5   0  0.7462600E-02  0.9118800E+02  0.7818608E-02  0.1180000E+00
       11   -1    0    0    0    0  0.00000000000E+00  0.00000000000E+00  0.39999999673E+01  0.40000000000E+01  0.51109989000E-03 0. -1.
     -623   -1    0    0    0    0  0.00000000000E+00  0.00000000000E+00  0.12525980253E-10  0.17130000000E+03  0.17130000000E+03 0. -1.
       11    1    1    2    0    0 -0.10808829402E-01 -0.14757046919E+00  0.49031562840E-01  0.15587889385E+00  0.51109989000E-03 0. -1.
     -623    1    1    2    0    0 -0.52292431629E-02  0.24889036955E+00  0.73487800569E+00  0.17130175720E+03  0.17130000000E+03 0. -1.
      622    1    1    2    0    0  0.16038072565E-01 -0.10131990036E+00  0.32160903988E+01  0.38423639072E+01  0.21000000000E+01 0. -1.
</event>
<event>
 5   0  0.7462600E-02  0.9118800E+02  0.7818608E-02  0.1180000E+00
       11   -1    0    0    0    0  0.00000000000E+00  0.00000000000E+00  0.39999999673E+01  0.40000000000E+01  0.51109989000E-03 0.  1.
     -623   -1    0    0    0    0  0.00000000000E+00  0.00000000000E+00  0.12525980253E-10  0.17130000000E+03  0.17130000000E+03 0. -1.
       11    1    1    2    0    0  0.21638395207E-01 -0.25562522388E+00 -0.14077717635E+00  0.29262766416E+00  0.51109989000E-03 0.  1.
     -623    1    1    2    0    0 -0.26660055119E+00 -0.96711270414E-01  0.11205850617E+01  0.17130389996E+03  0.17130000000E+03 0. -1.
      622    1    1    2    0    0  0.24496215598E+00  0.35233649429E+00  0.30201920820E+01  0.37034723808E+01  0.21000000000E+01 0.  1.
</event>
<event>
 5   0  0.7462600E-02  0.9118800E+02  0.7818608E-02  0.1180000E+00
       11   -1    0    0    0    0  0.00000000000E+00  0.00000000000E+00  0.39999999673E+01  0.40000000000E+01  0.51109989000E-03 0.  1.
     -623   -1    0    0    0    0  0.00000000000E+00  0.00000000000E+00  0.12525980253E-10  0.17130000000E+03  0.17130000000E+03 0. -1.
       11    1    1    2    0    0  0.42584176895E+00  0.49468643364E+00  0.73798516670E+00  0.98523004791E+00  0.51109989000E-03 0.  1.
     -623    1    1    2    0    0 -0.86555331680E-01 -0.83733457184E+00  0.11619868449E+01  0.17130600934E+03  0.17130000000E+03 0. -1.
      622    1    1    2    0    0 -0.33928643727E+00  0.34264813820E+00  0.21000279558E+01  0.30087606166E+01  0.21000000000E+01 0.  1.
</event>
<event>
 5   0  0.7462600E-02  0.9118800E+02  0.7818608E-02  0.1180000E+00
       11   -1    0    0    0    0  0.00000000000E+00  0.00000000000E+00  0.39999999673E+01  0.40000000000E+01  0.51109989000E-03 0.  1.
     -623   -1    0    0    0    0  0.00000000000E+00  0.00000000000E+00  0.12525980253E-10  0.17130000000E+03  0.17130000000E+03 0.  1.
       11    1    1    2    0    0 -0.64099921997E+00  0.37152609388E+00 -0.12582117658E+00  0.75149375788E+00  0.51109989000E-03 0.  1.
     -623    1    1    2    0    0  0.47074048387E+00 -0.23230608006E+00  0.16689004050E+01  0.17130893378E+03  0.17130000000E+03 0.  1.
      622    1    1    2    0    0  0.17025873610E+00 -0.13922001382E+00  0.24569207389E+01  0.32395724667E+01  0.21000000000E+01 0.  1.
</event>
<event>
 5   0  0.7462600E-02  0.9118800E+02  0.7818608E-02  0.1180000E+00
       11   -1    0    0    0    0  0.00000000000E+00  0.00000000000E+00  0.39999999673E+01  0.40000000000E+01  0.51109989000E-03 0.  1.
     -623   -1    0    0    0    0  0.00000000000E+00  0.00000000000E+00  0.12525980253E-10  0.17130000000E+03  0.17130000000E+03 0.  1.
       11    1    1    2    0    0  0.18141133538E+00  0.13286696103E+00 -0.44967621902E-01  0.22931648475E+00  0.51109989000E-03 0.  1.
     -623    1    1    2    0    0 -0.31958341289E+00 -0.11229489179E-01  0.92195404596E+00  0.17130277948E+03  0.17130000000E+03 0.  1.
      622    1    1    2    0    0  0.13817207751E+00 -0.12163747185E+00  0.31230135433E+01  0.37679040313E+01  0.21000000000E+01 0.  1.
</event>
<event>
 5   0  0.7462600E-02  0.9118800E+02  0.7818608E-02  0.1180000E+00
       11   -1    0    0    0    0  0.00000000000E+00  0.00000000000E+00  0.39999999673E+01  0.40000000000E+01  0.51109989000E-03 0. -1.
     -623   -1    0    0    0    0  0.00000000000E+00  0.00000000000E+00  0.12525980253E-10  0.17130000000E+03  0.17130000000E+03 0.  1.
       11    1    1    2    0    0  0.16964825539E+00  0.65150391108E-01  0.90390709001E-01  0.20296759720E+00  0.51109989000E-03 0. -1.
     -623    1    1    2    0    0 -0.26195748774E+00 -0.15595170245E+00  0.75110842006E+00  0.17130191799E+03  0.17130000000E+03 0.  1.
      622    1    1    2    0    0  0.92309232354E-01  0.90801311346E-01  0.31585008383E+01  0.37951144144E+01  0.21000000000E+01 0. -1.
</event>
<event>
 5   0  0.7462600E-02  0.9118800E+02  0.7818608E-02  0.1180000E+00
       11   -1    0    0    0    0  0.00000000000E+00  0.00000000000E+00  0.39999999673E+01  0.40000000000E+01  0.51109989000E-03 0. -1.
     -623   -1    0    0    0    0  0.00000000000E+00  0.00000000000E+00  0.12525980253E-10  0.17130000000E+03  0.17130000000E+03 0.  1.
       11    1    1    2    0    0  0.39791375701E-01 -0.30186421390E-01 -0.78420086744E-01  0.92976044466E-01  0.51109989000E-03 0. -1.
     -623    1    1    2    0    0 -0.23801024318E+00  0.21866081223E+00  0.79769882605E+00  0.17130216223E+03  0.17130000000E+03 0.  1.
      622    1    1    2    0    0  0.19821886748E+00 -0.18847439084E+00  0.32807212281E+01  0.39048617250E+01  0.21000000000E+01 0. -1.
</event>
<event>
 5   0  0.7462600E-02  0.9118800E+02  0.7818608E-02  0.1180000E+00
       11   -1    0    0    0    0  0.00000000000E+00  0.00000000000E+00  0.39999999673E+01  0.40000000000E+01  0.51109989000E-03 0. -1.
     -623   -1    0    0    0    0  0.00000000000E+00  0.00000000000E+00  0.12525980253E-10  0.17130000000E+03  0.17130000000E+03 0.  1.
       11    1    1    2    0    0  0.32382264858E-01  0.13056556401E-01 -0.78798351062E-02  0.35797175402E-01  0.51109989000E-03 0. -1.
     -623    1    1    2    0    0 -0.27926797546E+00 -0.12058793275E+00  0.65821963456E+00  0.17130153468E+03  0.17130000000E+03 0.  1.
      622    1    1    2    0    0  0.24688571060E+00  0.10753137635E+00  0.33496601679E+01  0.39626681405E+01  0.21000000000E+01 0. -1.
</event>
<event>
 5   0  0.7462600E-02  0.9118800E+02  0.7818608E-02  0.1180000E+00
       11   -1    0    0    0    0  0.00000000000E+00  0.00000000000E+00  0.39999999673E+01  0.40000000000E+01  0.51109989000E-03 0. -1.
     -623   -1    0    0    0    0  0.00000000000E+00  0.00000000000E+00  0.12525980253E-10  0.17130000000E+03  0.17130000000E+03 0.  1.
       11    1    1    2    0    0  0.14263245477E+00  0.35738344994E-01  0.60470115529E-01  0.15899101405E+00  0.51109989000E-03 0. -1.
     -623    1    1    2    0    0 -0.38908775685E+00  0.52922220873E+00  0.78677161334E+00  0.17130306616E+03  0.17130000000E+03 0.  1.
      622    1    1    2    0    0  0.24645530209E+00 -0.56496055372E+00  0.31527582385E+01  0.38379428283E+01  0.21000000000E+01 0. -1.
</event>
<event>
 5   0  0.7462600E-02  0.9118800E+02  0.7818608E-02  0.1180000E+00
       11   -1    0    0    0    0  0.00000000000E+00  0.00000000000E+00  0.39999999673E+01  0.40000000000E+01  0.51109989000E-03 0. -1.
     -623   -1    0    0    0    0  0.00000000000E+00  0.00000000000E+00  0.12525980253E-10  0.17130000000E+03  0.17130000000E+03 0. -1.
       11    1    1    2    0    0  0.77219170381E-01  0.71989489819E-01 -0.71793755901E-01  0.12767102853E+00  0.51109989000E-03 0. -1.
     -623    1    1    2    0    0 -0.28556326169E+00 -0.33128628876E+00  0.83851706169E+00  0.17130261063E+03  0.17130000000E+03 0. -1.
      622    1    1    2    0    0  0.20834409131E+00  0.25929679894E+00  0.32332766616E+01  0.38697183438E+01  0.21000000000E+01 0. -1.
</event>
<event>
 5   0  0.7462600E-02  0.9118800E+02  0.7818608E-02  0.1180000E+00
       11   -1    0    0    0    0  0.00000000000E+00  0.00000000000E+00  0.39999999673E+01  0.40000000000E+01  0.51109989000E-03 0. -1.
     -623   -1    0    0    0    0  0.00000000000E+00  0.00000000000E+00  0.12525980253E-10  0.17130000000E+03  0.17130000000E+03 0.  1.
       11    1    1    2    0    0  0.51925961998E-01  0.31958940272E-02  0.20758076331E-01  0.56014982126E-01  0.51109989000E-03 0. -1.
     -623    1    1    2    0    0 -0.30752834012E+00  0.25088560835E+00  0.66240577129E+00  0.17130174050E+03  0.17130000000E+03 0.  1.
      622    1    1    2    0    0  0.25560237813E+00 -0.25408150238E+00  0.33168361197E+01  0.39422445169E+01  0.21000000000E+01 0. -1.
</event>
<event>
 5   0  0.7462600E-02  0.9118800E+02  0.7818608E-02  0.1180000E+00
       11   -1    0    0    0    0  0.00000000000E+00  0.00000000000E+00  0.39999999673E+01  0.40000000000E+01  0.51109989000E-03 0.  1.
     -623   -1    0    0    0    0  0.00000000000E+00  0.00000000000E+00  0.12525980253E-10  0.17130000000E+03  0.17130000000E+03 0.  1.
       11    1    1    2    0    0  0.33322278249E+00  0.38198397854E-03  0.26142068343E+00  0.42353111294E+00  0.51109989000E-03 0.  1.
     -623    1    1    2    0    0  0.21195910722E+00  0.54704489737E+00  0.95324516743E+00  0.17130365688E+03  0.17130000000E+03 0.  1.
      622    1    1    2    0    0 -0.54518188971E+00 -0.54742688135E+00  0.27853341165E+01  0.35728120051E+01  0.21000000000E+01 0.  1.
</event>
<event>
 5   0  0.7462600E-02  0.9118800E+02  0.7818608E-02  0.1180000E+00
       11   -1    0    0    0    0  0.00000000000E+00  0.00000000000E+00  0.39999999673E+01  0.40000000000E+01  0.51109989000E-03 0.  1.
     -623   -1    0    0    0    0  0.00000000000E+00  0.00000000000E+00  0.12525980253E-10  0.17130000000E+03  0.17130000000E+03 0. -1.
       11    1    1    2    0    0  0.56323816179E-01 -0.19004466641E-01  0.14906225154E-01  0.61286203935E-01  0.51109989000E-03 0.  1.
     -623    1    1    2    0    0  0.48788102870E-01  0.37028760913E-01  0.65611338860E+00  0.17130126747E+03  0.17130000000E+03 0. -1.
      622    1    1    2    0    0 -0.10511191905E+00 -0.18024294272E-01  0.33289803536E+01  0.39374463279E+01  0.21000000000E+01 0.  1.
</event>
<event>
 5   0  0.7462600E-02  0.9118800E+02  0.7818608E-02  0.1180000E+00
       11   -1    0    0    0    0  0.00000000000E+00  0.00000000000E+00  0.39999999673E+01  0.40000000000E+01  0.51109989000E-03 0. -1.
     -623   -1    0    0    0    0  0.00000000000E+00  0.00000000000E+00  0.12525980253E-10  0.17130000000E+03  0.17130000000E+03 0.  1.
       11    1    1    2    0    0 -0.21566530485E+00  0.92070888731E-01  0.16317955121E+00  0.28568584043E+00  0.51109989000E-03 0. -1.
     -623    1    1    2    0    0 -0.10673117735E-01 -0.54531827521E-01  0.78393615523E+00  0.17130180280E+03  0.17130000000E+03 0.  1.
      622    1    1    2    0    0  0.22633842259E+00 -0.37539061210E-01  0.30528842609E+01  0.37125113566E+01  0.21000000000E+01 0. -1.
</event>
<event>
 5   0  0.7462600E-02  0.9118800E+02  0.7818608E-02  0.1180000E+00
       11   -1    0    0    0    0  0.00000000000E+00  0.00000000000E+00  0.39999999673E+01  0.40000000000E+01  0.51109989000E-03 0.  1.
     -623   -1    0    0    0    0  0.00000000000E+00  0.00000000000E+00  0.12525980253E-10  0.17130000000E+03  0.17130000000E+03 0.  1.
       11    1    1    2    0    0  0.14219384231E+00  0.30836065310E+00  0.22013548655E+00  0.40467922461E+00  0.51109989000E-03 0.  1.
     -623    1    1    2    0    0  0.26763725855E+00 -0.50298023074E+00  0.90121119614E+00  0.17130331812E+03  0.17130000000E+03 0.  1.
      622    1    1    2    0    0 -0.40983110085E+00  0.19461957764E+00  0.28786532847E+01  0.35920026510E+01  0.21000000000E+01 0.  1.
</event>
<event>
 5   0  0.7462600E-02  0.9118800E+02  0.7818608E-02  0.1180000E+00
       11   -1    0    0    0    0  0.00000000000E+00  0.00000000000E+00  0.39999999673E+01  0.40000000000E+01  0.51109989000E-03 0.  1.
     -623   -1    0    0    0    0  0.00000000000E+00  0.00000000000E+00  0.12525980253E-10  0.17130000000E+03  0.17130000000E+03 0. -1.
       11    1    1    2    0    0 -0.88230206137E-04  0.12742550836E-02 -0.39508550672E-01  0.39532496847E-01  0.51109989000E-03 0.  1.
     -623    1    1    2    0    0 -0.12885219824E+00 -0.55140405796E+00  0.73251264019E+00  0.17130250210E+03  0.17130000000E+03 0. -1.
      622    1    1    2    0    0  0.12894042844E+00  0.55012980288E+00  0.33069958778E+01  0.39579654079E+01  0.21000000000E+01 0.  0.
</event>
<event>
 5   0  0.7462600E-02  0.9118800E+02  0.7818608E-02  0.1180000E+00
       11   -1    0    0    0    0  0.00000000000E+00  0.00000000000E+00  0.39999999673E+01  0.40000000000E+01  0.51109989000E-03 0.  1.
     -623   -1    0    0    0    0  0.00000000000E+00  0.00000000000E+00  0.12525980253E-10  0.17130000000E+03  0.17130000000E+03 0. -1.
       11    1    1    2    0    0  0.26634034321E+00 -0.32416122412E+00  0.41583097506E+00  0.59070579706E+00  0.51109989000E-03 0.  1.
     -623    1    1    2    0    0 -0.23169909870E+00 -0.17720554044E-02  0.92186185121E+00  0.17130263722E+03  0.17130000000E+03 0. -1.
      622    1    1    2    0    0 -0.34641244511E-01  0.32593327952E+00  0.26623071411E+01  0.34066569877E+01  0.21000000000E+01 0.  1.
</event>
<event>
 5   0  0.7462600E-02  0.9118800E+02  0.7818608E-02  0.1180000E+00
       11   -1    0    0    0    0  0.00000000000E+00  0.00000000000E+00  0.39999999673E+01  0.40000000000E+01  0.51109989000E-03 0. -1.
     -623   -1    0    0    0    0  0.00000000000E+00  0.00000000000E+00  0.12525980253E-10  0.17130000000E+03  0.17130000000E+03 0. -1.
       11    1    1    2    0    0 -0.15157692458E+00  0.42984537170E-01 -0.45345844465E-01  0.16395042341E+00  0.51109989000E-03 0. -1.
     -623    1    1    2    0    0 -0.14981614654E+00 -0.77080108226E+00  0.93870760952E+00  0.17130437166E+03  0.17130000000E+03 0. -1.
      622    1    1    2    0    0  0.30139307113E+00  0.72781654509E+00  0.31066382023E+01  0.38316779127E+01  0.21000000000E+01 0.  0.
</event>
<event>
 5   0  0.7462600E-02  0.9118800E+02  0.7818608E-02  0.1180000E+00
       11   -1    0    0    0    0  0.00000000000E+00  0.00000000000E+00  0.39999999673E+01  0.40000000000E+01  0.51109989000E-03 0.  1.
     -623   -1    0    0    0    0  0.00000000000E+00  0.00000000000E+00  0.12525980253E-10  0.17130000000E+03  0.17130000000E+03 0. -1.
       11    1    1    2    0    0  0.24851229640E+00  0.14895643650E+00  0.20834210459E+00  0.35686562626E+00  0.51109989000E-03 0.  1.
     -623    1    1    2    0    0 -0.64146017633E+00  0.50989064622E+00  0.92083099228E+00  0.17130443482E+03  0.17130000000E+03 0. -1.
      622    1    1    2    0    0  0.39294787993E+00 -0.65884708272E+00  0.28708268705E+01  0.36386995527E+01  0.21000000000E+01 0.  1.
</event>
<event>
 5   0  0.7462600E-02  0.9118800E+02  0.7818608E-02  0.1180000E+00
       11   -1    0    0    0    0  0.00000000000E+00  0.00000000000E+00  0.39999999673E+01  0.40000000000E+01  0.51109989000E-03 0.  1.
     -623   -1    0    0    0    0  0.00000000000E+00  0.00000000000E+00  0.12525980253E-10  0.17130000000E+03  0.17130000000E+03 0. -1.
       11    1    1    2    0    0  0.84874993027E-01  0.10600725586E+00  0.68431354043E-02  0.13597202823E+00  0.51109989000E-03 0.  1.
     -623    1    1    2    0    0 -0.56274995671E-01  0.95545940079E-02  0.75376600769E+00  0.17130166789E+03  0.17130000000E+03 0. -1.
      622    1    1    2    0    0 -0.28599997356E-01 -0.11556184986E+00  0.32393908243E+01  0.38623600833E+01  0.21000000000E+01 0.  1.
</event>
<event>
 5   0  0.7462600E-02  0.9118800E+02  0.7818608E-02  0.1180000E+00
       11   -1    0    0    0    0  0.00000000000E+00  0.00000000000E+00  0.39999999673E+01  0.40000000000E+01  0.51109989000E-03 0.  1.
     -623   -1    0    0    0    0  0.00000000000E+00  0.00000000000E+00  0.12525980253E-10  0.17130000000E+03  0.17130000000E+03 0.  1.
       11    1    1    2    0    0 -0.34821365308E-01 -0.91966778573E-01  0.77436086387E-01  0.12516798528E+00  0.51109989000E-03 0.  1.
     -623    1    1    2    0    0  0.57047477999E-01  0.17037558867E+00  0.66882227234E+00  0.17130139989E+03  0.17130000000E+03 0.  1.
      622    1    1    2    0    0 -0.22226112692E-01 -0.78408810094E-01  0.32537416086E+01  0.38734321212E+01  0.21000000000E+01 0.  1.
</event>
<event>
 5   0  0.7462600E-02  0.9118800E+02  0.7818608E-02  0.1180000E+00
       11   -1    0    0    0    0  0.00000000000E+00  0.00000000000E+00  0.39999999673E+01  0.40000000000E+01  0.51109989000E-03 0.  1.
     -623   -1    0    0    0    0  0.00000000000E+00  0.00000000000E+00  0.12525980253E-10  0.17130000000E+03  0.17130000000E+03 0. -1.
       11    1    1    2    0    0  0.83026912944E-01 -0.19271814288E-01 -0.93786377968E-01  0.12673206782E+00  0.51109989000E-03 0.  1.
     -623    1    1    2    0    0  0.65129646737E+00 -0.63390739270E+00  0.99779363841E+00  0.17130531696E+03  0.17130000000E+03 0. -1.
      622    1    1    2    0    0 -0.73432338032E+00  0.65317920699E+00  0.30959927069E+01  0.38679509750E+01  0.21000000000E+01 0.  1.
</event>
<event>
 5   0  0.7462600E-02  0.9118800E+02  0.7818608E-02  0.1180000E+00
       11   -1    0    0    0    0  0.00000000000E+00  0.00000000000E+00  0.39999999673E+01  0.40000000000E+01  0.51109989000E-03 0. -1.
     -623   -1    0    0    0    0  0.00000000000E+00  0.00000000000E+00  0.12525980253E-10  0.17130000000E+03  0.17130000000E+03 0. -1.
       11    1    1    2    0    0 -0.27200451597E-01 -0.73737577923E-01  0.33808230699E-01  0.85559059428E-01  0.51109989000E-03 0. -1.
     -623    1    1    2    0    0  0.15984457611E+00  0.21706557919E+00  0.67031786242E+00  0.17130152362E+03  0.17130000000E+03 0. -1.
      622    1    1    2    0    0 -0.13264412452E+00 -0.14332800127E+00  0.32958738742E+01  0.39129173227E+01  0.21000000000E+01 0. -1.
</event>
<event>
 5   0  0.7462600E-02  0.9118800E+02  0.7818608E-02  0.1180000E+00
       11   -1    0    0    0    0  0.00000000000E+00  0.00000000000E+00  0.39999999673E+01  0.40000000000E+01  0.51109989000E-03 0. -1.
     -623   -1    0    0    0    0  0.00000000000E+00  0.00000000000E+00  0.12525980253E-10  0.17130000000E+03  0.17130000000E+03 0.  1.
       11    1    1    2    0    0  0.79553422535E-01  0.26486510107E+00  0.99206497065E+00  0.10298909826E+01  0.51109989000E-03 0. -1.
     -623    1    1    2    0    0 -0.49541250378E+00 -0.49965949045E+00  0.96865936603E+00  0.17130418382E+03  0.17130000000E+03 0.  1.
      622    1    1    2    0    0  0.41585908124E+00  0.23479438938E+00  0.20392756307E+01  0.29659251977E+01  0.21000000000E+01 0. -1.
</event>
<event>
 5   0  0.7462600E-02  0.9118800E+02  0.7818608E-02  0.1180000E+00
       11   -1    0    0    0    0  0.00000000000E+00  0.00000000000E+00  0.39999999673E+01  0.40000000000E+01  0.51109989000E-03 0. -1.
     -623   -1    0    0    0    0  0.00000000000E+00  0.00000000000E+00  0.12525980253E-10  0.17130000000E+03  0.17130000000E+03 0. -1.
       11    1    1    2    0    0 -0.56814638350E-01 -0.33489159723E-01 -0.19429470736E-01  0.68754581695E-01  0.51109989000E-03 0. -1.
     -623    1    1    2    0    0 -0.33881705295E-01  0.17755092471E+00  0.70225508287E+00  0.17130153483E+03  0.17130000000E+03 0. -1.
      622    1    1    2    0    0  0.90696343645E-01 -0.14406176499E+00  0.33171743552E+01  0.39297105901E+01  0.21000000000E+01 0. -1.
</event>
<event>
 5   0  0.7462600E-02  0.9118800E+02  0.7818608E-02  0.1180000E+00
       11   -1    0    0    0    0  0.00000000000E+00  0.00000000000E+00  0.39999999673E+01  0.40000000000E+01  0.51109989000E-03 0.  1.
     -623   -1    0    0    0    0  0.00000000000E+00  0.00000000000E+00  0.12525980253E-10  0.17130000000E+03  0.17130000000E+03 0. -1.
       11    1    1    2    0    0  0.12994340047E+00 -0.32135048114E+00 -0.15901379361E+00  0.38136212034E+00  0.51109989000E-03 0.  1.
     -623    1    1    2    0    0  0.56270487431E+00  0.13246016434E+00  0.13084152848E+01  0.17130597226E+03  0.17130000000E+03 0. -1.
      622    1    1    2    0    0 -0.69264827477E+00  0.18889031679E+00  0.28505984762E+01  0.36126656165E+01  0.21000000000E+01 0.  1.
</event>
<event>
 5   0  0.7462600E-02  0.9118800E+02  0.7818608E-02  0.1180000E+00
       11   -1    0    0    0    0  0.00000000000E+00  0.00000000000E+00  0.39999999673E+01  0.40000000000E+01  0.51109989000E-03 0. -1.
     -623   -1    0    0    0    0  0.00000000000E+00  0.00000000000E+00  0.12525980253E-10  0.17130000000E+03  0.17130000000E+03 0. -1.
       11    1    1    2    0    0 -0.83814045902E-01 -0.26445170292E+00  0.31764548095E+00  0.42173262888E+00  0.51109989000E-03 0. -1.
     -623    1    1    2    0    0  0.61814576976E-01 -0.72078697752E-01  0.80720835985E+00  0.17130192819E+03  0.17130000000E+03 0. -1.
      622    1    1    2    0    0  0.21999468926E-01  0.33653040067E+00  0.28751461266E+01  0.35763391808E+01  0.21000000000E+01 0. -1.
</event>
<event>
 5   0  0.7462600E-02  0.9118800E+02  0.7818608E-02  0.1180000E+00
       11   -1    0    0    0    0  0.00000000000E+00  0.00000000000E+00  0.39999999673E+01  0.40000000000E+01  0.51109989000E-03 0. -1.
     -623   -1    0    0    0    0  0.00000000000E+00  0.00000000000E+00  0.12525980253E-10  0.17130000000E+03  0.17130000000E+03 0. -1.
       11    1    1    2    0    0  0.12187270869E+00 -0.37128691152E-01  0.41352298663E+00  0.43270430842E+00  0.51109989000E-03 0. -1.
     -623    1    1    2    0    0 -0.23238250449E+00 -0.45759443641E+00  0.75073740416E+00  0.17130241388E+03  0.17130000000E+03 0. -1.
      622    1    1    2    0    0  0.11050979579E+00  0.49472312756E+00  0.28357395766E+01  0.35648818121E+01  0.21000000000E+01 0. -1.
</event>
<event>
 5   0  0.7462600E-02  0.9118800E+02  0.7818608E-02  0.1180000E+00
       11   -1    0    0    0    0  0.00000000000E+00  0.00000000000E+00  0.39999999673E+01  0.40000000000E+01  0.51109989000E-03 0.  1.
     -623   -1    0    0    0    0  0.00000000000E+00  0.00000000000E+00  0.12525980253E-10  0.17130000000E+03  0.17130000000E+03 0.  1.
       11    1    1    2    0    0  0.42306582555E+00 -0.15041588451E+00  0.33472803587E+00  0.56004709648E+00  0.51109989000E-03 0.  1.
     -623    1    1    2    0    0  0.27327219942E+00  0.72916935887E-01  0.10367353658E+01  0.17130337070E+03  0.17130000000E+03 0.  1.
      622    1    1    2    0    0 -0.69633802497E+00  0.77498948625E-01  0.26285365657E+01  0.34365821988E+01  0.21000000000E+01 0.  1.
</event>
<event>
 5   0  0.7462600E-02  0.9118800E+02  0.7818608E-02  0.1180000E+00
       11   -1    0    0    0    0  0.00000000000E+00  0.00000000000E+00  0.39999999673E+01  0.40000000000E+01  0.51109989000E-03 0.  1.
     -623   -1    0    0    0    0  0.00000000000E+00  0.00000000000E+00  0.12525980253E-10  0.17130000000E+03  0.17130000000E+03 0.  1.
       11    1    1    2    0    0  0.26916825624E+00 -0.21751548707E+00  0.44717271715E+00  0.56544516752E+00  0.51109989000E-03 0.  1.
     -623    1    1    2    0    0 -0.71322950488E+00  0.59833313642E-02  0.88480392884E+00  0.17130376998E+03  0.17130000000E+03 0.  1.
      622    1    1    2    0    0  0.44406124864E+00  0.21153215571E+00  0.26680233214E+01  0.34307848503E+01  0.21000000000E+01 0.  1.
</event>
<event>
 5   0  0.7462600E-02  0.9118800E+02  0.7818608E-02  0.1180000E+00
       11   -1    0    0    0    0  0.00000000000E+00  0.00000000000E+00  0.39999999673E+01  0.40000000000E+01  0.51109989000E-03 0.  1.
     -623   -1    0    0    0    0  0.00000000000E+00  0.00000000000E+00  0.12525980253E-10  0.17130000000E+03  0.17130000000E+03 0.  1.
       11    1    1    2    0    0 -0.76809522858E-01 -0.25715851571E+00  0.25357336857E+00  0.36922881723E+00  0.51109989000E-03 0.  1.
     -623    1    1    2    0    0  0.19048697840E+00  0.16297655687E+00  0.79073276494E+00  0.17130200847E+03  0.17130000000E+03 0.  1.
      622    1    1    2    0    0 -0.11367745554E+00  0.94181958841E-01  0.29556938338E+01  0.36287627154E+01  0.21000000000E+01 0.  1.
</event>
<event>
 5   0  0.7462600E-02  0.9118800E+02  0.7818608E-02  0.1180000E+00
       11   -1    0    0    0    0  0.00000000000E+00  0.00000000000E+00  0.39999999673E+01  0.40000000000E+01  0.51109989000E-03 0. -1.
     -623   -1    0    0    0    0  0.00000000000E+00  0.00000000000E+00  0.12525980253E-10  0.17130000000E+03  0.17130000000E+03 0. -1.
       11    1    1    2    0    0 -0.56850964812E-01 -0.42352789982E+00  0.13171941305E+00  0.44716683589E+00  0.51109989000E-03 0. -1.
     -623    1    1    2    0    0  0.37698434805E-01  0.62745079114E+00  0.10150145265E+01  0.17130416040E+03  0.17130000000E+03 0. -1.
      622    1    1    2    0    0  0.19152530007E-01 -0.20392289133E+00  0.28532660279E+01  0.35486727647E+01  0.21000000000E+01 0. -1.
</event>
<event>
 5   0  0.7462600E-02  0.9118800E+02  0.7818608E-02  0.1180000E+00
       11   -1    0    0    0    0  0.00000000000E+00  0.00000000000E+00  0.39999999673E+01  0.40000000000E+01  0.51109989000E-03 0. -1.
     -623   -1    0    0    0    0  0.00000000000E+00  0.00000000000E+00  0.12525980253E-10  0.17130000000E+03  0.17130000000E+03 0. -1.
       11    1    1    2    0    0 -0.14172083932E+00 -0.15253104647E+00  0.13381664715E+00  0.24750287415E+00  0.51109989000E-03 0. -1.
     -623    1    1    2    0    0  0.15440923395E+00 -0.85204145051E-01  0.76764025715E+00  0.17130181077E+03  0.17130000000E+03 0. -1.
      622    1    1    2    0    0 -0.12688394639E-01  0.23773519152E+00  0.30985430631E+01  0.37506863546E+01  0.21000000000E+01 0. -1.
</event>
<event>
 5   0  0.7462600E-02  0.9118800E+02  0.7818608E-02  0.1180000E+00
       11   -1    0    0    0    0  0.00000000000E+00  0.00000000000E+00  0.39999999673E+01  0.40000000000E+01  0.51109989000E-03 0.  1.
     -623   -1    0    0    0    0  0.00000000000E+00  0.00000000000E+00  0.12525980253E-10  0.17130000000E+03  0.17130000000E+03 0.  1.
       11    1    1    2    0    0 -0.13969108572E-01 -0.75106948131E-01  0.22695895629E+00  0.23947195810E+00  0.51109989000E-03 0.  1.
     -623    1    1    2    0    0  0.17518031878E+00  0.22634676742E+00  0.66317644114E+00  0.17130152283E+03  0.17130000000E+03 0.  1.
      622    1    1    2    0    0 -0.16121121021E+00 -0.15123981929E+00  0.31098645699E+01  0.37590052116E+01  0.21000000000E+01 0.  1.
</event>
<event>
 5   0  0.7462600E-02  0.9118800E+02  0.7818608E-02  0.1180000E+00
       11   -1    0    0    0    0  0.00000000000E+00  0.00000000000E+00  0.39999999673E+01  0.40000000000E+01  0.51109989000E-03 0. -1.
     -623   -1    0    0    0    0  0.00000000000E+00  0.00000000000E+00  0.12525980253E-10  0.17130000000E+03  0.17130000000E+03 0.  1.
       11    1    1    2    0    0 -0.13855757104E+00  0.70970101636E-01  0.20364902729E+00  0.25633599700E+00  0.51109989000E-03 0. -1.
     -623    1    1    2    0    0  0.32375899157E-01  0.30955303035E+00  0.72464815841E+00  0.17130181548E+03  0.17130000000E+03 0.  1.
      622    1    1    2    0    0  0.10618167189E+00 -0.38052313199E+00  0.30717027817E+01  0.37418485245E+01  0.21000000000E+01 0. -1.
</event>
<event>
 5   0  0.7462600E-02  0.9118800E+02  0.7818608E-02  0.1180000E+00
       11   -1    0    0    0    0  0.00000000000E+00  0.00000000000E+00  0.39999999673E+01  0.40000000000E+01  0.51109989000E-03 0. -1.
     -623   -1    0    0    0    0  0.00000000000E+00  0.00000000000E+00  0.12525980253E-10  0.17130000000E+03  0.17130000000E+03 0. -1.
       11    1    1    2    0    0 -0.15934797728E+00  0.53725832592E-01 -0.24265799331E-01  0.16990389398E+00  0.51109989000E-03 0. -1.
     -623    1    1    2    0    0  0.75217520589E+00  0.95244273484E-01  0.88489397078E+00  0.17130396340E+03  0.17130000000E+03 0. -1.
      622    1    1    2    0    0 -0.59282722861E+00 -0.14897010608E+00  0.31393717959E+01  0.38261327066E+01  0.21000000000E+01 0. -1.
</event>
<event>
 5   0  0.7462600E-02  0.9118800E+02  0.7818608E-02  0.1180000E+00
       11   -1    0    0    0    0  0.00000000000E+00  0.00000000000E+00  0.39999999673E+01  0.40000000000E+01  0.51109989000E-03 0. -1.
     -623   -1    0    0    0    0  0.00000000000E+00  0.00000000000E+00  0.12525980253E-10  0.17130000000E+03  0.17130000000E+03 0.  1.
       11    1    1    2    0    0 -0.12545082242E+00  0.24653693035E-01  0.71223459101E-02  0.12804960938E+00  0.51109989000E-03 0. -1.
     -623    1    1    2    0    0  0.46219434963E+00 -0.50404558945E+00  0.79696306202E+00  0.17130321899E+03  0.17130000000E+03 0.  1.
      622    1    1    2    0    0 -0.33674352721E+00  0.47939189641E+00  0.31959145594E+01  0.38687314025E+01  0.21000000000E+01 0. -1.
</event>
<event>
 5   0  0.7462600E-02  0.9118800E+02  0.7818608E-02  0.1180000E+00
       11   -1    0    0    0    0  0.00000000000E+00  0.00000000000E+00  0.39999999673E+01  0.40000000000E+01  0.51109989000E-03 0. -1.
     -623   -1    0    0    0    0  0.00000000000E+00  0.00000000000E+00  0.12525980253E-10  0.17130000000E+03  0.17130000000E+03 0.  1.
       11    1    1    2    0    0 -0.38097923186E-01 -0.73315487211E-01  0.48935448368E-01  0.96028910978E-01  0.51109989000E-03 0. -1.
     -623    1    1    2    0    0  0.19679883384E+00  0.13198497278E+00  0.66610290503E+00  0.17130145896E+03  0.17130000000E+03 0.  1.
      622    1    1    2    0    0 -0.15870091065E+00 -0.58669485567E-01  0.32849616140E+01  0.39025121259E+01  0.21000000000E+01 0. -1.
</event>
<event>
 5   0  0.7462600E-02  0.9118800E+02  0.7818608E-02  0.1180000E+00
       11   -1    0    0    0    0  0.00000000000E+00  0.00000000000E+00  0.39999999673E+01  0.40000000000E+01  0.51109989000E-03 0.  1.
     -623   -1    0    0    0    0  0.00000000000E+00  0.00000000000E+00  0.12525980253E-10  0.17130000000E+03  0.17130000000E+03 0. -1.
       11    1    1    2    0    0  0.32951970258E+00  0.75599382473E-01  0.30524265348E+00  0.45549076802E+00  0.51109989000E-03 0.  1.
     -623    1    1    2    0    0 -0.24665885223E+00 -0.18673409084E+00  0.84562449411E+00  0.17130236657E+03  0.17130000000E+03 0. -1.
      622    1    1    2    0    0 -0.82860850350E-01  0.11113470837E+00  0.28491328198E+01  0.35421426663E+01  0.21000000000E+01 0.  1.
</event>
<event>
 5   0  0.7462600E-02  0.9118800E+02  0.7818608E-02  0.1180000E+00
       11   -1    0    0    0    0  0.00000000000E+00  0.00000000000E+00  0.39999999673E+01  0.40000000000E+01  0.51109989000E-03 0. -1.
     -623   -1    0    0    0    0  0.00000000000E+00  0.00000000000E+00  0.12525980253E-10  0.17130000000E+03  0.17130000000E+03 0.  1.
       11    1    1    2    0    0 -0.96037018411E-01  0.13641685154E+00  0.16888478695E+00  0.23739207816E+00  0.51109989000E-03 0. -1.
     -623    1    1    2    0    0 -0.17524218979E+00  0.11802369447E-01  0.72637801811E+00  0.17130163010E+03  0.17130000000E+03 0.  1.
      622    1    1    2    0    0  0.27127920820E+00 -0.14821922099E+00  0.31047371623E+01  0.37609778241E+01  0.21000000000E+01 0. -1.
</event>
<event>
 5   0  0.7462600E-02  0.9118800E+02  0.7818608E-02  0.1180000E+00
       11   -1    0    0    0    0  0.00000000000E+00  0.00000000000E+00  0.39999999673E+01  0.40000000000E+01  0.51109989000E-03 0. -1.
     -623   -1    0    0    0    0  0.00000000000E+00  0.00000000000E+00  0.12525980253E-10  0.17130000000E+03  0.17130000000E+03 0.  1.
       11    1    1    2    0    0  0.24582091010E-01  0.23337538215E+00 -0.10674360408E+00  0.25780381383E+00  0.51109989000E-03 0. -1.
     -623    1    1    2    0    0  0.21316134901E+00 -0.32682670392E+00  0.10241227523E+01  0.17130350575E+03  0.17130000000E+03 0.  1.
      622    1    1    2    0    0 -0.23774344002E+00  0.93451321765E-01  0.30826208191E+01  0.37386904402E+01  0.21000000000E+01 0. -1.
</event>
<event>
 5   0  0.7462600E-02  0.9118800E+02  0.7818608E-02  0.1180000E+00
       11   -1    0    0    0    0  0.00000000000E+00  0.00000000000E+00  0.39999999673E+01  0.40000000000E+01  0.51109989000E-03 0.  1.
     -623   -1    0    0    0    0  0.00000000000E+00  0.00000000000E+00  0.12525980253E-10  0.17130000000E+03  0.17130000000E+03 0.  1.
       11    1    1    2    0    0 -0.25439095940E-01 -0.16673700470E+00  0.55241630844E+00  0.57759191077E+00  0.51109989000E-03 0.  1.
     -623    1    1    2    0    0 -0.14101799084E+00  0.38897739111E+00  0.76229907752E+00  0.17130219581E+03  0.17130000000E+03 0.  1.
      622    1    1    2    0    0  0.16645708678E+00 -0.22224038641E+00  0.26852845814E+01  0.34202122791E+01  0.21000000000E+01 0.  1.
</event>
<event>
 5   0  0.7462600E-02  0.9118800E+02  0.7818608E-02  0.1180000E+00
       11   -1    0    0    0    0  0.00000000000E+00  0.00000000000E+00  0.39999999673E+01  0.40000000000E+01  0.51109989000E-03 0. -1.
     -623   -1    0    0    0    0  0.00000000000E+00  0.00000000000E+00  0.12525980253E-10  0.17130000000E+03  0.17130000000E+03 0. -1.
       11    1    1    2    0    0 -0.11988557883E+00  0.28527356605E+00  0.15979552007E+00  0.34826488332E+00  0.51109989000E-03 0. -1.
     -623    1    1    2    0    0  0.34142437509E-01 -0.61907034628E+00  0.87678992295E+00  0.17130336592E+03  0.17130000000E+03 0. -1.
      622    1    1    2    0    0  0.85743141321E-01  0.33379678023E+00  0.29634145243E+01  0.36483692000E+01  0.21000000000E+01 0. -1.
</event>
<event>
 5   0  0.7462600E-02  0.9118800E+02  0.7818608E-02  0.1180000E+00
       11   -1    0    0    0    0  0.00000000000E+00  0.00000000000E+00  0.39999999673E+01  0.40000000000E+01  0.51109989000E-03 0.  1.
     -623   -1    0    0    0    0  0.00000000000E+00  0.00000000000E+00  0.12525980253E-10  0.17130000000E+03  0.17130000000E+03 0.  1.
       11    1    1    2    0    0  0.30815343652E+00 -0.89604725065E-01  0.19272140403E-01  0.32149529360E+00  0.51109989000E-03 0.  1.
     -623    1    1    2    0    0  0.28428308836E-01  0.12680150769E+00  0.98312606368E+00  0.17130287045E+03  0.17130000000E+03 0.  1.
      622    1    1    2    0    0 -0.33658174535E+00 -0.37196782625E-01  0.29976017633E+01  0.36756342586E+01  0.21000000000E+01 0.  1.
</event>
<event>
 5   0  0.7462600E-02  0.9118800E+02  0.7818608E-02  0.1180000E+00
       11   -1    0    0    0    0  0.00000000000E+00  0.00000000000E+00  0.39999999673E+01  0.40000000000E+01  0.51109989000E-03 0.  1.
     -623   -1    0    0    0    0  0.00000000000E+00  0.00000000000E+00  0.12525980253E-10  0.17130000000E+03  0.17130000000E+03 0.  1.
       11    1    1    2    0    0 -0.22791404157E+00 -0.39190776441E+00  0.25668751169E+00  0.52098488081E+00  0.51109989000E-03 0.  1.
     -623    1    1    2    0    0  0.74238218135E+00  0.52269094378E+00  0.10278758754E+01  0.17130548989E+03  0.17130000000E+03 0.  1.
      622    1    1    2    0    0 -0.51446813979E+00 -0.13078317937E+00  0.27154365802E+01  0.34735252307E+01  0.21000000000E+01 0.  1.
</event>
<event>
 5   0  0.7462600E-02  0.9118800E+02  0.7818608E-02  0.1180000E+00
       11   -1    0    0    0    0  0.00000000000E+00  0.00000000000E+00  0.39999999673E+01  0.40000000000E+01  0.51109989000E-03 0. -1.
     -623   -1    0    0    0    0  0.00000000000E+00  0.00000000000E+00  0.12525980253E-10  0.17130000000E+03  0.17130000000E+03 0.  1.
       11    1    1    2    0    0 -0.31679983989E+00 -0.24170188981E+00  0.55658823267E+00  0.68452367677E+00  0.51109989000E-03 0. -1.
     -623    1    1    2    0    0 -0.13514348484E+00  0.24631947022E+00  0.92147710341E+00  0.17130270884E+03  0.17130000000E+03 0.  1.
      622    1    1    2    0    0  0.45194332473E+00 -0.46175804080E-02  0.25219346313E+01  0.33127674798E+01  0.21000000000E+01 0. -1.
</event>
<event>
 5   0  0.7462600E-02  0.9118800E+02  0.7818608E-02  0.1180000E+00
       11   -1    0    0    0    0  0.00000000000E+00  0.00000000000E+00  0.39999999673E+01  0.40000000000E+01  0.51109989000E-03 0. -1.
     -623   -1    0    0    0    0  0.00000000000E+00  0.00000000000E+00  0.12525980253E-10  0.17130000000E+03  0.17130000000E+03 0.  1.
       11    1    1    2    0    0  0.81447837794E-01 -0.47410811325E-01 -0.15517649600E-01  0.95512271379E-01  0.51109989000E-03 0. -1.
     -623    1    1    2    0    0 -0.54625085249E-01 -0.16919986365E+00  0.73307677103E+00  0.17130166086E+03  0.17130000000E+03 0.  1.
      622    1    1    2    0    0 -0.26822752545E-01  0.21661067498E+00  0.32824408459E+01  0.39028268667E+01  0.21000000000E+01 0. -1.
</event>
<event>
 5   0  0.7462600E-02  0.9118800E+02  0.7818608E-02  0.1180000E+00
       11   -1    0    0    0    0  0.00000000000E+00  0.00000000000E+00  0.39999999673E+01  0.40000000000E+01  0.51109989000E-03 0.  1.
     -623   -1    0    0    0    0  0.00000000000E+00  0.00000000000E+00  0.12525980253E-10  0.17130000000E+03  0.17130000000E+03 0.  1.
       11    1    1    2    0    0 -0.23355459399E+00 -0.40458346984E+00  0.99412036719E+00  0.10984129907E+01  0.51109989000E-03 0.  1.
     -623    1    1    2    0    0  0.18186656861E+01 -0.87633391633E-01  0.19405896851E+01  0.17132066750E+03  0.17130000000E+03 0.  1.
      622    1    1    2    0    0 -0.15851110921E+01  0.49221686147E+00  0.10652899151E+01  0.28809195088E+01  0.21000000000E+01 0.  0.
</event>
<event>
 5   0  0.7462600E-02  0.9118800E+02  0.7818608E-02  0.1180000E+00
       11   -1    0    0    0    0  0.00000000000E+00  0.00000000000E+00  0.39999999673E+01  0.40000000000E+01  0.51109989000E-03 0. -1.
     -623   -1    0    0    0    0  0.00000000000E+00  0.00000000000E+00  0.12525980253E-10  0.17130000000E+03  0.17130000000E+03 0.  1.
       11    1    1    2    0    0  0.40132249891E-01  0.86520140560E-01 -0.14770083909E+00  0.17581846118E+00  0.51109989000E-03 0. -1.
     -623    1    1    2    0    0  0.21590821086E+00 -0.48352703874E+00  0.99127714513E+00  0.17130368661E+03  0.17130000000E+03 0.  1.
      622    1    1    2    0    0 -0.25604046075E+00  0.39700689818E+00  0.31564236613E+01  0.38204949319E+01  0.21000000000E+01 0. -1.
</event>
<event>
 5   0  0.7462600E-02  0.9118800E+02  0.7818608E-02  0.1180000E+00
       11   -1    0    0    0    0  0.00000000000E+00  0.00000000000E+00  0.39999999673E+01  0.40000000000E+01  0.51109989000E-03 0. -1.
     -623   -1    0    0    0    0  0.00000000000E+00  0.00000000000E+00  0.12525980253E-10  0.17130000000E+03  0.17130000000E+03 0.  1.
       11    1    1    2    0    0  0.88005861479E-01  0.11292161587E+00 -0.57955184179E-01  0.15445189407E+00  0.51109989000E-03 0. -1.
     -623    1    1    2    0    0  0.99140157282E-01  0.12093436385E+00  0.85301378362E+00  0.17130219522E+03  0.17130000000E+03 0.  1.
      622    1    1    2    0    0 -0.18714601876E+00 -0.23385597972E+00  0.32049413679E+01  0.38433528882E+01  0.21000000000E+01 0. -1.
</event>
<event>
 5   0  0.7462600E-02  0.9118800E+02  0.7818608E-02  0.1180000E+00
       11   -1    0    0    0    0  0.00000000000E+00  0.00000000000E+00  0.39999999673E+01  0.40000000000E+01  0.51109989000E-03 0.  1.
     -623   -1    0    0    0    0  0.00000000000E+00  0.00000000000E+00  0.12525980253E-10  0.17130000000E+03  0.17130000000E+03 0.  1.
       11    1    1    2    0    0  0.25338953373E+00 -0.83055770079E-01  0.21152089566E+00  0.34036137747E+00  0.51109989000E-03 0.  1.
     -623    1    1    2    0    0 -0.46413844100E+00  0.15719653880E+00  0.80282169929E+00  0.17130258217E+03  0.17130000000E+03 0.  1.
      622    1    1    2    0    0  0.21074890727E+00 -0.74140768725E-01  0.29856573724E+01  0.36570564531E+01  0.21000000000E+01 0. -1.
</event>
<event>
 5   0  0.7462600E-02  0.9118800E+02  0.7818608E-02  0.1180000E+00
       11   -1    0    0    0    0  0.00000000000E+00  0.00000000000E+00  0.39999999673E+01  0.40000000000E+01  0.51109989000E-03 0.  1.
     -623   -1    0    0    0    0  0.00000000000E+00  0.00000000000E+00  0.12525980253E-10  0.17130000000E+03  0.17130000000E+03 0.  1.
       11    1    1    2    0    0  0.72161945234E-01 -0.13414472820E+00 -0.34318644845E-01  0.15614155453E+00  0.51109989000E-03 0.  1.
     -623    1    1    2    0    0 -0.14868569703E+00  0.34774053561E+00  0.82569482751E+00  0.17130240746E+03  0.17130000000E+03 0.  1.
      622    1    1    2    0    0  0.76523751792E-01 -0.21359580741E+00  0.32086237847E+01  0.38414509818E+01  0.21000000000E+01 0.  1.
</event>
<event>
 5   0  0.7462600E-02  0.9118800E+02  0.7818608E-02  0.1180000E+00
       11   -1    0    0    0    0  0.00000000000E+00  0.00000000000E+00  0.39999999673E+01  0.40000000000E+01  0.51109989000E-03 0.  1.
     -623   -1    0    0    0    0  0.00000000000E+00  0.00000000000E+00  0.12525980253E-10  0.17130000000E+03  0.17130000000E+03 0.  1.
       11    1    1    2    0    0 -0.82410724619E-01 -0.38355804418E-01  0.10751450676E+00  0.14079178118E+00  0.51109989000E-03 0.  1.
     -623    1    1    2    0    0 -0.12802841224E+00  0.30983849465E+00  0.67492288234E+00  0.17130165765E+03  0.17130000000E+03 0.  1.
      622    1    1    2    0    0  0.21043913686E+00 -0.27148269023E+00  0.32175625783E+01  0.38575505734E+01  0.21000000000E+01 0. -1.
</event>
<event>
 5   0  0.7462600E-02  0.9118800E+02  0.7818608E-02  0.1180000E+00
       11   -1    0    0    0    0  0.00000000000E+00  0.00000000000E+00  0.39999999673E+01  0.40000000000E+01  0.51109989000E-03 0. -1.
     -623   -1    0    0    0    0  0.00000000000E+00  0.00000000000E+00  0.12525980253E-10  0.17130000000E+03  0.17130000000E+03 0.  1.
       11    1    1    2    0    0  0.38226117402E-01  0.99356217895E-01  0.94982344888E-01  0.14267025320E+00  0.51109989000E-03 0. -1.
     -623    1    1    2    0    0  0.70757632422E-01 -0.14581023940E+00  0.67327498458E+00  0.17130139978E+03  0.17130000000E+03 0.  1.
      622    1    1    2    0    0 -0.10898374982E+00  0.46454021501E-01  0.32317426379E+01  0.38559299671E+01  0.21000000000E+01 0. -1.
</event>
<event>
 5   0  0.7462600E-02  0.9118800E+02  0.7818608E-02  0.1180000E+00
       11   -1    0    0    0    0  0.00000000000E+00  0.00000000000E+00  0.39999999673E+01  0.40000000000E+01  0.51109989000E-03 0. -1.
     -623   -1    0    0    0    0  0.00000000000E+00  0.00000000000E+00  0.12525980253E-10  0.17130000000E+03  0.17130000000E+03 0.  1.
       11    1    1    2    0    0  0.57193047644E+00  0.38169662486E-01  0.23223849085E+00  0.61846290986E+00  0.51109989000E-03 0. -1.
     -623    1    1    2    0    0 -0.71172772519E+00  0.42387702894E+00  0.11694435804E+01  0.17130599472E+03  0.17130000000E+03 0.  1.
      622    1    1    2    0    0  0.13979724875E+00 -0.46204669142E+00  0.25983178961E+01  0.33755423720E+01  0.21000000000E+01 0. -1.
</event>
<event>
 5   0  0.7462600E-02  0.9118800E+02  0.7818608E-02  0.1180000E+00
       11   -1    0    0    0    0  0.00000000000E+00  0.00000000000E+00  0.39999999673E+01  0.40000000000E+01  0.51109989000E-03 0.  1.
     -623   -1    0    0    0    0  0.00000000000E+00  0.00000000000E+00  0.12525980253E-10  0.17130000000E+03  0.17130000000E+03 0. -1.
       11    1    1    2    0    0  0.14080219462E+00 -0.26465281030E+00  0.38912386623E+00  0.49120669021E+00  0.51109989000E-03 0.  1.
     -623    1    1    2    0    0 -0.23973856074E+00  0.35009709612E+00  0.80596004370E+00  0.17130242151E+03  0.17130000000E+03 0. -1.
      622    1    1    2    0    0  0.98936366123E-01 -0.85444285826E-01  0.28049160574E+01  0.35063718028E+01  0.21000000000E+01 0.  1.
</event>
<event>
 5   0  0.7462600E-02  0.9118800E+02  0.7818608E-02  0.1180000E+00
       11   -1    0    0    0    0  0.00000000000E+00  0.00000000000E+00  0.39999999673E+01  0.40000000000E+01  0.51109989000E-03 0.  1.
     -623   -1    0    0    0    0  0.00000000000E+00  0.00000000000E+00  0.12525980253E-10  0.17130000000E+03  0.17130000000E+03 0. -1.
       11    1    1    2    0    0  0.15693413570E+00  0.13226836397E+00  0.31642962084E+00  0.37716204637E+00  0.51109989000E-03 0.  1.
     -623    1    1    2    0    0 -0.25709302964E+00  0.10926153583E+00  0.74534121277E+00  0.17130184928E+03  0.17130000000E+03 0. -1.
      622    1    1    2    0    0  0.10015889395E+00 -0.24152989980E+00  0.29382291338E+01  0.36209886687E+01  0.21000000000E+01 0.  1.
</event>
<event>
 5   0  0.7462600E-02  0.9118800E+02  0.7818608E-02  0.1180000E+00
       11   -1    0    0    0    0  0.00000000000E+00  0.00000000000E+00  0.39999999673E+01  0.40000000000E+01  0.51109989000E-03 0. -1.
     -623   -1    0    0    0    0  0.00000000000E+00  0.00000000000E+00  0.12525980253E-10  0.17130000000E+03  0.17130000000E+03 0.  1.
       11    1    1    2    0    0  0.15206938332E+00 -0.10994979273E+00  0.94316672308E-01  0.21002368952E+00  0.51109989000E-03 0. -1.
     -623    1    1    2    0    0 -0.24570818704E+00  0.71684316524E+00  0.81546834809E+00  0.17130361708E+03  0.17130000000E+03 0.  1.
      622    1    1    2    0    0  0.93638803715E-01 -0.60689337251E+00  0.30902149470E+01  0.37863592288E+01  0.21000000000E+01 0. -1.
</event>
<event>
 5   0  0.7462600E-02  0.9118800E+02  0.7818608E-02  0.1180000E+00
       11   -1    0    0    0    0  0.00000000000E+00  0.00000000000E+00  0.39999999673E+01  0.40000000000E+01  0.51109989000E-03 0. -1.
     -623   -1    0    0    0    0  0.00000000000E+00  0.00000000000E+00  0.12525980253E-10  0.17130000000E+03  0.17130000000E+03 0.  1.
       11    1    1    2    0    0  0.23175096894E+00 -0.19451674903E-01  0.32338835133E+00  0.39833047368E+00  0.51109989000E-03 0. -1.
     -623    1    1    2    0    0 -0.25806667923E+00 -0.50391770529E-01  0.75376080298E+00  0.17130186016E+03  0.17130000000E+03 0.  1.
      622    1    1    2    0    0  0.26315710286E-01  0.69843445432E-01  0.29228508130E+01  0.35998093698E+01  0.21000000000E+01 0. -1.
</event>
<event>
 5   0  0.7462600E-02  0.9118800E+02  0.7818608E-02  0.1180000E+00
       11   -1    0    0    0    0  0.00000000000E+00  0.00000000000E+00  0.39999999673E+01  0.40000000000E+01  0.51109989000E-03 0. -1.
     -623   -1    0    0    0    0  0.00000000000E+00  0.00000000000E+00  0.12525980253E-10  0.17130000000E+03  0.17130000000E+03 0.  1.
       11    1    1    2    0    0  0.97311534645E-01 -0.57875683240E-02  0.61629017276E-01  0.11533181570E+00  0.51109989000E-03 0. -1.
     -623    1    1    2    0    0 -0.34960542477E+00  0.30793727442E-01  0.68214201444E+00  0.17130171771E+03  0.17130000000E+03 0.  1.
      622    1    1    2    0    0  0.25229389013E+00 -0.25006159118E-01  0.32562289356E+01  0.38829504756E+01  0.21000000000E+01 0. -1.
</event>
<event>
 5   0  0.7462600E-02  0.9118800E+02  0.7818608E-02  0.1180000E+00
       11   -1    0    0    0    0  0.00000000000E+00  0.00000000000E+00  0.39999999673E+01  0.40000000000E+01  0.51109989000E-03 0.  1.
     -623   -1    0    0    0    0  0.00000000000E+00  0.00000000000E+00  0.12525980253E-10  0.17130000000E+03  0.17130000000E+03 0. -1.
       11    1    1    2    0    0 -0.78826041691E-01 -0.62357443326E-01 -0.12794594596E-01  0.10132106622E+00  0.51109989000E-03 0.  1.
     -623    1    1    2    0    0  0.78290850083E-01  0.22437258059E-02  0.73044737295E+00  0.17130157526E+03  0.17130000000E+03 0. -1.
      622    1    1    2    0    0  0.53519160755E-03  0.60113717520E-01  0.32823471890E+01  0.38971036700E+01  0.21000000000E+01 0.  1.
</event>
<event>
 5   0  0.7462600E-02  0.9118800E+02  0.7818608E-02  0.1180000E+00
       11   -1    0    0    0    0  0.00000000000E+00  0.00000000000E+00  0.39999999673E+01  0.40000000000E+01  0.51109989000E-03 0. -1.
     -623   -1    0    0    0    0  0.00000000000E+00  0.00000000000E+00  0.12525980253E-10  0.17130000000E+03  0.17130000000E+03 0. -1.
       11    1    1    2    0    0  0.25660064711E+00  0.13792392384E+00  0.16243104177E+00  0.33354310878E+00  0.51109989000E-03 0. -1.
     -623    1    1    2    0    0 -0.66382914426E+00  0.22880782371E+00  0.88711190501E+00  0.17130373606E+03  0.17130000000E+03 0. -1.
      622    1    1    2    0    0  0.40722849715E+00 -0.36673174755E+00  0.29504570206E+01  0.36627208266E+01  0.21000000000E+01 0. -1.
</event>
<event>
 5   0  0.7462600E-02  0.9118800E+02  0.7818608E-02  0.1180000E+00
       11   -1    0    0    0    0  0.00000000000E+00  0.00000000000E+00  0.39999999673E+01  0.40000000000E+01  0.51109989000E-03 0. -1.
     -623   -1    0    0    0    0  0.00000000000E+00  0.00000000000E+00  0.12525980253E-10  0.17130000000E+03  0.17130000000E+03 0.  1.
       11    1    1    2    0    0  0.12833366568E+00  0.13989885312E+00  0.38182201252E+00  0.42641473863E+00  0.51109989000E-03 0. -1.
     -623    1    1    2    0    0 -0.15052270215E+00 -0.20997475927E+00  0.72982069537E+00  0.17130174951E+03  0.17130000000E+03 0.  1.
      622    1    1    2    0    0  0.22189036463E-01  0.70075906157E-01  0.28883572595E+01  0.35718357527E+01  0.21000000000E+01 0. -1.
</event>
<event>
 5   0  0.7462600E-02  0.9118800E+02  0.7818608E-02  0.1180000E+00
       11   -1    0    0    0    0  0.00000000000E+00  0.00000000000E+00  0.39999999673E+01  0.40000000000E+01  0.51109989000E-03 0. -1.
     -623   -1    0    0    0    0  0.00000000000E+00  0.00000000000E+00  0.12525980253E-10  0.17130000000E+03  0.17130000000E+03 0.  1.
       11    1    1    2    0    0  0.13504979131E+00 -0.33412431160E+00  0.12166289290E+00  0.38036774635E+00  0.51109989000E-03 0. -1.
     -623    1    1    2    0    0 -0.18326040849E-01  0.49797990226E+00  0.94110813893E+00  0.17130330996E+03  0.17130000000E+03 0.  1.
      622    1    1    2    0    0 -0.11672375046E+00 -0.16385559066E+00  0.29372289355E+01  0.36163222904E+01  0.21000000000E+01 0. -1.
</event>
<event>
 5   0  0.7462600E-02  0.9118800E+02  0.7818608E-02  0.1180000E+00
       11   -1    0    0    0    0  0.00000000000E+00  0.00000000000E+00  0.39999999673E+01  0.40000000000E+01  0.51109989000E-03 0.  1.
     -623   -1    0    0    0    0  0.00000000000E+00  0.00000000000E+00  0.12525980253E-10  0.17130000000E+03  0.17130000000E+03 0. -1.
       11    1    1    2    0    0 -0.36194641962E-01 -0.13439336960E+00  0.15073453814E+00  0.20516527998E+00  0.51109989000E-03 0.  1.
     -623    1    1    2    0    0 -0.11083700232E+00  0.30991220237E+00  0.69884811084E+00  0.17130174173E+03  0.17130000000E+03 0. -1.
      622    1    1    2    0    0  0.14703164429E+00 -0.17551883278E+00  0.31504173184E+01  0.37930929919E+01  0.21000000000E+01 0.  1.
</event>
<event>
 5   0  0.7462600E-02  0.9118800E+02  0.7818608E-02  0.1180000E+00
       11   -1    0    0    0    0  0.00000000000E+00  0.00000000000E+00  0.39999999673E+01  0.40000000000E+01  0.51109989000E-03 0.  1.
     -623   -1    0    0    0    0  0.00000000000E+00  0.00000000000E+00  0.12525980253E-10  0.17130000000E+03  0.17130000000E+03 0. -1.
       11    1    1    2    0    0 -0.14362029852E+00 -0.12132035466E+00  0.43659971258E-01  0.19300744264E+00  0.51109989000E-03 0.  1.
     -623    1    1    2    0    0 -0.39448073896E+00  0.39676308512E+00  0.84265367690E+00  0.17130298626E+03  0.17130000000E+03 0. -1.
      622    1    1    2    0    0  0.53810103748E+00 -0.27544273045E+00  0.31136863192E+01  0.38040062985E+01  0.21000000000E+01 0.  1.
</event>
<event>
 5   0  0.7462600E-02  0.9118800E+02  0.7818608E-02  0.1180000E+00
       11   -1    0    0    0    0  0.00000000000E+00  0.00000000000E+00  0.39999999673E+01  0.40000000000E+01  0.51109989000E-03 0. -1.
     -623   -1    0    0    0    0  0.00000000000E+00  0.00000000000E+00  0.12525980253E-10  0.17130000000E+03  0.17130000000E+03 0.  1.
       11    1    1    2    0    0  0.68691255069E-01  0.19874168804E-01 -0.51932359675E-01  0.88378177811E-01  0.51109989000E-03 0. -1.
     -623    1    1    2    0    0  0.10130431347E+00 -0.24989272722E+00  0.76652445805E+00  0.17130192722E+03  0.17130000000E+03 0.  1.
      622    1    1    2    0    0 -0.16999556854E+00  0.23001855842E+00  0.32854078690E+01  0.39096946039E+01  0.21000000000E+01 0. -1.
</event>
<event>
 5   0  0.7462600E-02  0.9118800E+02  0.7818608E-02  0.1180000E+00
       11   -1    0    0    0    0  0.00000000000E+00  0.00000000000E+00  0.39999999673E+01  0.40000000000E+01  0.51109989000E-03 0. -1.
     -623   -1    0    0    0    0  0.00000000000E+00  0.00000000000E+00  0.12525980253E-10  0.17130000000E+03  0.17130000000E+03 0. -1.
       11    1    1    2    0    0 -0.47198142638E-01 -0.61900930257E+00  0.50062978582E+00  0.79751528199E+00  0.51109989000E-03 0. -1.
     -623    1    1    2    0    0 -0.29317635367E+00  0.67170966991E+00  0.11131395226E+01  0.17130518447E+03  0.17130000000E+03 0. -1.
      622    1    1    2    0    0  0.34037449631E+00 -0.52700367342E-01  0.23862306590E+01  0.31973002493E+01  0.21000000000E+01 0. -1.
</event>
<event>
 5   0  0.7462600E-02  0.9118800E+02  0.7818608E-02  0.1180000E+00
       11   -1    0    0    0    0  0.00000000000E+00  0.00000000000E+00  0.39999999673E+01  0.40000000000E+01  0.51109989000E-03 0.  1.
     -623   -1    0    0    0    0  0.00000000000E+00  0.00000000000E+00  0.12525980253E-10  0.17130000000E+03  0.17130000000E+03 0.  1.
       11    1    1    2    0    0  0.30108274553E-02  0.47054780995E-02 -0.31254256464E-01  0.31753682878E-01  0.51109989000E-03 0.  1.
     -623    1    1    2    0    0 -0.14850518967E+00  0.30631118569E+00  0.68378261334E+00  0.17130170297E+03  0.17130000000E+03 0.  1.
      622    1    1    2    0    0  0.14549436221E+00 -0.31101666379E+00  0.33474716105E+01  0.39665433513E+01  0.21000000000E+01 0.  1.
</event>
<event>
 5   0  0.7462600E-02  0.9118800E+02  0.7818608E-02  0.1180000E+00
       11   -1    0    0    0    0  0.00000000000E+00  0.00000000000E+00  0.39999999673E+01  0.40000000000E+01  0.51109989000E-03 0.  1.
     -623   -1    0    0    0    0  0.00000000000E+00  0.00000000000E+00  0.12525980253E-10  0.17130000000E+03  0.17130000000E+03 0. -1.
       11    1    1    2    0    0  0.24520518616E-01  0.52589824290E-01 -0.82155880578E-01  0.10058228167E+00  0.51109989000E-03 0.  1.
     -623    1    1    2    0    0 -0.62280430970E+00  0.22700602612E+00  0.86778050803E+00  0.17130348058E+03  0.17130000000E+03 0. -1.
      622    1    1    2    0    0  0.59828379109E+00 -0.27959585041E+00  0.32143753399E+01  0.38959371350E+01  0.21000000000E+01 0.  1.
</event>
<event>
 5   0  0.7462600E-02  0.9118800E+02  0.7818608E-02  0.1180000E+00
       11   -1    0    0    0    0  0.00000000000E+00  0.00000000000E+00  0.39999999673E+01  0.40000000000E+01  0.51109989000E-03 0. -1.
     -623   -1    0    0    0    0  0.00000000000E+00  0.00000000000E+00  0.12525980253E-10  0.17130000000E+03  0.17130000000E+03 0.  1.
       11    1    1    2    0    0  0.27416297865E+00  0.11479077362E+00  0.25601653306E+00  0.39228431908E+00  0.51109989000E-03 0. -1.
     -623    1    1    2    0    0 -0.94456138102E-01  0.10989664591E+00  0.82713811648E+00  0.17130205824E+03  0.17130000000E+03 0.  1.
      622    1    1    2    0    0 -0.17970684055E+00 -0.22468741953E+00  0.29168453178E+01  0.36056574426E+01  0.21000000000E+01 0. -1.
</event>
<event>
 5   0  0.7462600E-02  0.9118800E+02  0.7818608E-02  0.1180000E+00
       11   -1    0    0    0    0  0.00000000000E+00  0.00000000000E+00  0.39999999673E+01  0.40000000000E+01  0.51109989000E-03 0.  1.
     -623   -1    0    0    0    0  0.00000000000E+00  0.00000000000E+00  0.12525980253E-10  0.17130000000E+03  0.17130000000E+03 0.  1.
       11    1    1    2    0    0 -0.13038045647E-01 -0.41072340463E-01  0.17655233634E-01  0.46571410552E-01  0.51109989000E-03 0.  1.
     -623    1    1    2    0    0  0.28030746680E+00  0.24183533547E+00  0.65144331055E+00  0.17130163874E+03  0.17130000000E+03 0.  1.
      622    1    1    2    0    0 -0.26726942115E+00 -0.20076299501E+00  0.33309014232E+01  0.39517898495E+01  0.21000000000E+01 0.  1.
</event>
<event>
 5   0  0.7462600E-02  0.9118800E+02  0.7818608E-02  0.1180000E+00
       11   -1    0    0    0    0  0.00000000000E+00  0.00000000000E+00  0.39999999673E+01  0.40000000000E+01  0.51109989000E-03 0. -1.
     -623   -1    0    0    0    0  0.00000000000E+00  0.00000000000E+00  0.12525980253E-10  0.17130000000E+03  0.17130000000E+03 0.  1.
       11    1    1    2    0    0  0.57564251420E-01  0.17913929264E+00 -0.68748546315E-01  0.20032761430E+00  0.51109989000E-03 0. -1.
     -623    1    1    2    0    0  0.61567405859E-01 -0.30349283968E+00  0.91005197091E+00  0.17130269727E+03  0.17130000000E+03 0.  1.
      622    1    1    2    0    0 -0.11913165728E+00  0.12435354704E+00  0.31586965428E+01  0.37969751126E+01  0.21000000000E+01 0. -1.
</event>
<event>
 5   0  0.7462600E-02  0.9118800E+02  0.7818608E-02  0.1180000E+00
       11   -1    0    0    0    0  0.00000000000E+00  0.00000000000E+00  0.39999999673E+01  0.40000000000E+01  0.51109989000E-03 0. -1.
     -623   -1    0    0    0    0  0.00000000000E+00  0.00000000000E+00  0.12525980253E-10  0.17130000000E+03  0.17130000000E+03 0.  1.
       11    1    1    2    0    0  0.48103417127E-01  0.44384476581E-01 -0.44338915407E-01  0.79057707678E-01  0.51109989000E-03 0. -1.
     -623    1    1    2    0    0 -0.11040511057E+00 -0.69783257809E-01  0.73579206341E+00  0.17130163002E+03  0.17130000000E+03 0.  1.
      622    1    1    2    0    0  0.62301693444E-01  0.25398781228E-01  0.33085468194E+01  0.39193122681E+01  0.21000000000E+01 0. -1.
</event>
<event>
 5   0  0.7462600E-02  0.9118800E+02  0.7818608E-02  0.1180000E+00
       11   -1    0    0    0    0  0.00000000000E+00  0.00000000000E+00  0.39999999673E+01  0.40000000000E+01  0.51109989000E-03 0.  1.
     -623   -1    0    0    0    0  0.00000000000E+00  0.00000000000E+00  0.12525980253E-10  0.17130000000E+03  0.17130000000E+03 0. -1.
       11    1    1    2    0    0  0.36698070152E-01  0.25322081851E-01 -0.18029128411E-01  0.48096433095E-01  0.51109989000E-03 0.  1.
     -623    1    1    2    0    0  0.74495994822E+00  0.19499415743E+00  0.77449599482E+00  0.17130348167E+03  0.17130000000E+03 0. -1.
      622    1    1    2    0    0 -0.78165801837E+00 -0.22031623928E+00  0.32435331009E+01  0.39484218974E+01  0.21000000000E+01 0.  1.
</event>
<event>
 5   0  0.7462600E-02  0.9118800E+02  0.7818608E-02  0.1180000E+00
       11   -1    0    0    0    0  0.00000000000E+00  0.00000000000E+00  0.39999999673E+01  0.40000000000E+01  0.51109989000E-03 0.  1.
     -623   -1    0    0    0    0  0.00000000000E+00  0.00000000000E+00  0.12525980253E-10  0.17130000000E+03  0.17130000000E+03 0. -1.
       11    1    1    2    0    0  0.72870388090E-01 -0.96433731384E-01  0.17877846043E+00  0.21580444190E+00  0.51109989000E-03 0.  1.
     -623    1    1    2    0    0 -0.17196240188E+00  0.52259491521E+00  0.70657970736E+00  0.17130234071E+03  0.17130000000E+03 0. -1.
      622    1    1    2    0    0  0.99092013793E-01 -0.42616118383E+00  0.31146417996E+01  0.37818548520E+01  0.21000000000E+01 0.  1.
</event>
<event>
 5   0  0.7462600E-02  0.9118800E+02  0.7818608E-02  0.1180000E+00
       11   -1    0    0    0    0  0.00000000000E+00  0.00000000000E+00  0.39999999673E+01  0.40000000000E+01  0.51109989000E-03 0. -1.
     -623   -1    0    0    0    0  0.00000000000E+00  0.00000000000E+00  0.12525980253E-10  0.17130000000E+03  0.17130000000E+03 0. -1.
       11    1    1    2    0    0 -0.53064935122E-01 -0.99650509969E-01 -0.68894424959E-01  0.13226040409E+00  0.51109989000E-03 0. -1.
     -623    1    1    2    0    0 -0.76499457937E-01 -0.28510907476E+00  0.84921461120E+00  0.17130235931E+03  0.17130000000E+03 0. -1.
      622    1    1    2    0    0  0.12956439306E+00  0.38475958473E+00  0.32196797811E+01  0.38653802870E+01  0.21000000000E+01 0. -1.
</event>
<event>
 5   0  0.7462600E-02  0.9118800E+02  0.7818608E-02  0.1180000E+00
       11   -1    0    0    0    0  0.00000000000E+00  0.00000000000E+00  0.39999999673E+01  0.40000000000E+01  0.51109989000E-03 0. -1.
     -623   -1    0    0    0    0  0.00000000000E+00  0.00000000000E+00  0.12525980253E-10  0.17130000000E+03  0.17130000000E+03 0. -1.
       11    1    1    2    0    0 -0.14328284568E-01  0.17019815736E+00  0.16178304739E+00  0.23525885350E+00  0.51109989000E-03 0. -1.
     -623    1    1    2    0    0  0.36730435058E+00 -0.75329844580E-01  0.73746773770E+00  0.17130199779E+03  0.17130000000E+03 0. -1.
      622    1    1    2    0    0 -0.35297606601E+00 -0.94868312776E-01  0.31007491823E+01  0.37627433597E+01  0.21000000000E+01 0. -1.
</event>
<event>
 5   0  0.7462600E-02  0.9118800E+02  0.7818608E-02  0.1180000E+00
       11   -1    0    0    0    0  0.00000000000E+00  0.00000000000E+00  0.39999999673E+01  0.40000000000E+01  0.51109989000E-03 0.  1.
     -623   -1    0    0    0    0  0.00000000000E+00  0.00000000000E+00  0.12525980253E-10  0.17130000000E+03  0.17130000000E+03 0.  1.
       11    1    1    2    0    0 -0.10830717790E+00 -0.25818772431E+00  0.39165664471E+00  0.48144214018E+00  0.51109989000E-03 0.  1.
     -623    1    1    2    0    0  0.31619355360E+00 -0.11650693348E+00  0.82078673311E+00  0.17130229783E+03  0.17130000000E+03 0.  1.
      622    1    1    2    0    0 -0.20788637570E+00  0.37469465779E+00  0.27875565895E+01  0.35162600262E+01  0.21000000000E+01 0.  1.
</event>
<event>
 5   0  0.7462600E-02  0.9118800E+02  0.7818608E-02  0.1180000E+00
       11   -1    0    0    0    0  0.00000000000E+00  0.00000000000E+00  0.39999999673E+01  0.40000000000E+01  0.51109989000E-03 0. -1.
     -623   -1    0    0    0    0  0.00000000000E+00  0.00000000000E+00  0.12525980253E-10  0.17130000000E+03  0.17130000000E+03 0. -1.
       11    1    1    2    0    0  0.71492447518E-02 -0.20267104501E-01 -0.98084105385E-01  0.10041225113E+00  0.51109989000E-03 0. -1.
     -623    1    1    2    0    0 -0.29223702512E+00  0.51183110512E+00  0.86560513196E+00  0.17130320092E+03  0.17130000000E+03 0.  1.
      622    1    1    2    0    0  0.28508778037E+00 -0.49156400061E+00  0.32324789408E+01  0.38963868278E+01  0.21000000000E+01 0. -1.
</event>
<event>
 5   0  0.7462600E-02  0.9118800E+02  0.7818608E-02  0.1180000E+00
       11   -1    0    0    0    0  0.00000000000E+00  0.00000000000E+00  0.39999999673E+01  0.40000000000E+01  0.51109989000E-03 0. -1.
     -623   -1    0    0    0    0  0.00000000000E+00  0.00000000000E+00  0.12525980253E-10  0.17130000000E+03  0.17130000000E+03 0. -1.
       11    1    1    2    0    0  0.16893544681E+00  0.37722798697E+00  0.54451689923E+00  0.68362201113E+00  0.51109989000E-03 0. -1.
     -623    1    1    2    0    0 -0.21065109226E+00 -0.66920864434E+00  0.91072407088E+00  0.17130385761E+03  0.17130000000E+03 0. -1.
      622    1    1    2    0    0  0.41715645444E-01  0.29198065737E+00  0.25447589973E+01  0.33125203778E+01  0.21000000000E+01 0. -1.
</event>
<event>
 5   0  0.7462600E-02  0.9118800E+02  0.7818608E-02  0.1180000E+00
       11   -1    0    0    0    0  0.00000000000E+00  0.00000000000E+00  0.39999999673E+01  0.40000000000E+01  0.51109989000E-03 0. -1.
     -623   -1    0    0    0    0  0.00000000000E+00  0.00000000000E+00  0.12525980253E-10  0.17130000000E+03  0.17130000000E+03 0.  1.
       11    1    1    2    0    0  0.13356055650E-01 -0.25119212900E-01 -0.36217282993E-01  0.46057701742E-01  0.51109989000E-03 0. -1.
     -623    1    1    2    0    0 -0.45011811167E+00 -0.24324119175E+00  0.72825672586E+00  0.17130231210E+03  0.17130000000E+03 0.  1.
      622    1    1    2    0    0  0.43676205602E+00  0.26836040465E+00  0.33079605245E+01  0.39516301993E+01  0.21000000000E+01 0. -1.
</event>
<event>
 5   0  0.7462600E-02  0.9118800E+02  0.7818608E-02  0.1180000E+00
       11   -1    0    0    0    0  0.00000000000E+00  0.00000000000E+00  0.39999999673E+01  0.40000000000E+01  0.51109989000E-03 0.  1.
     -623   -1    0    0    0    0  0.00000000000E+00  0.00000000000E+00  0.12525980253E-10  0.17130000000E+03  0.17130000000E+03 0. -1.
       11    1    1    2    0    0  0.67259755680E-01 -0.83481485741E-01  0.25926399972E+00  0.28055501415E+00  0.51109989000E-03 0.  1.
     -623    1    1    2    0    0 -0.57605022874E-02  0.22081136634E+00  0.67632078356E+00  0.17130147752E+03  0.17130000000E+03 0. -1.
      622    1    1    2    0    0 -0.61499253393E-01 -0.13732988060E+00  0.30644151841E+01  0.37179674655E+01  0.21000000000E+01 0.  1.
</event>
<event>
 5   0  0.7462600E-02  0.9118800E+02  0.7818608E-02  0.1180000E+00
       11   -1    0    0    0    0  0.00000000000E+00  0.00000000000E+00  0.39999999673E+01  0.40000000000E+01  0.51109989000E-03 0.  1.
     -623   -1    0    0    0    0  0.00000000000E+00  0.00000000000E+00  0.12525980253E-10  0.17130000000E+03  0.17130000000E+03 0.  1.
       11    1    1    2    0    0 -0.14837683245E+00 -0.14549438121E+00  0.44074806129E-01  0.21243151633E+00  0.51109989000E-03 0.  1.
     -623    1    1    2    0    0 -0.12108571965E+00  0.47664918731E+00  0.83621354917E+00  0.17130274694E+03  0.17130000000E+03 0.  1.
      622    1    1    2    0    0  0.26946255210E+00 -0.33115480610E+00  0.31197116121E+01  0.37848215434E+01  0.21000000000E+01 0.  1.
</event>
<event>
 5   0  0.7462600E-02  0.9118800E+02  0.7818608E-02  0.1180000E+00
       11   -1    0    0    0    0  0.00000000000E+00  0.00000000000E+00  0.39999999673E+01  0.40000000000E+01  0.51109989000E-03 0.  1.
     -623   -1    0    0    0    0  0.00000000000E+00  0.00000000000E+00  0.12525980253E-10  0.17130000000E+03  0.17130000000E+03 0.  1.
       11    1    1    2    0    0  0.18050317059E+00 -0.36298569790E+00  0.28039025824E+00  0.49290868283E+00  0.51109989000E-03 0.  1.
     -623    1    1    2    0    0 -0.67449758235E+00  0.39256638283E+00  0.96036117043E+00  0.17130446973E+03  0.17130000000E+03 0.  1.
      622    1    1    2    0    0  0.49399441176E+00 -0.29580684924E-01  0.27592485387E+01  0.35026215888E+01  0.21000000000E+01 0.  1.
</event>
<event>
 5   0  0.7462600E-02  0.9118800E+02  0.7818608E-02  0.1180000E+00
       11   -1    0    0    0    0  0.00000000000E+00  0.00000000000E+00  0.39999999673E+01  0.40000000000E+01  0.51109989000E-03 0.  1.
     -623   -1    0    0    0    0  0.00000000000E+00  0.00000000000E+00  0.12525980253E-10  0.17130000000E+03  0.17130000000E+03 0.  1.
       11    1    1    2    0    0  0.37268204963E-01  0.46522125084E-01  0.21313186865E+00  0.22131127825E+00  0.51109989000E-03 0.  1.
     -623    1    1    2    0    0 -0.25494848412E+00 -0.18679154302E-01  0.65486727361E+00  0.17130144249E+03  0.17130000000E+03 0.  1.
      622    1    1    2    0    0  0.21768027916E+00 -0.27842970782E-01  0.31320008251E+01  0.37772462328E+01  0.21000000000E+01 0.  1.
</event>
<event>
 5   0  0.7462600E-02  0.9118800E+02  0.7818608E-02  0.1180000E+00
       11   -1    0    0    0    0  0.00000000000E+00  0.00000000000E+00  0.39999999673E+01  0.40000000000E+01  0.51109989000E-03 0. -1.
     -623   -1    0    0    0    0  0.00000000000E+00  0.00000000000E+00  0.12525980253E-10  0.17130000000E+03  0.17130000000E+03 0.  1.
       11    1    1    2    0    0 -0.28015446582E+00 -0.87543512350E-02 -0.15330865023E+00  0.31947921191E+00  0.51109989000E-03 0. -1.
     -623    1    1    2    0    0 -0.42658212609E-01  0.47845425501E+00  0.11908767805E+01  0.17130481291E+03  0.17130000000E+03 0.  1.
      622    1    1    2    0    0  0.32281267843E+00 -0.46969990378E+00  0.29624318371E+01  0.36757078793E+01  0.21000000000E+01 0. -1.
</event>
<event>
 5   0  0.7462600E-02  0.9118800E+02  0.7818608E-02  0.1180000E+00
       11   -1    0    0    0    0  0.00000000000E+00  0.00000000000E+00  0.39999999673E+01  0.40000000000E+01  0.51109989000E-03 0.  1.
     -623   -1    0    0    0    0  0.00000000000E+00  0.00000000000E+00  0.12525980253E-10  0.17130000000E+03  0.17130000000E+03 0.  1.
       11    1    1    2    0    0  0.27192896093E+00  0.10558496607E+00  0.29680502896E+00  0.41615745973E+00  0.51109989000E-03 0.  1.
     -623    1    1    2    0    0 -0.34617049106E+00  0.35886370779E-01  0.80625298430E+00  0.17130225091E+03  0.17130000000E+03 0.  1.
      622    1    1    2    0    0  0.74241530131E-01 -0.14147133685E+00  0.28969419541E+01  0.35815916335E+01  0.21000000000E+01 0.  1.
</event>
<event>
 5   0  0.7462600E-02  0.9118800E+02  0.7818608E-02  0.1180000E+00
       11   -1    0    0    0    0  0.00000000000E+00  0.00000000000E+00  0.39999999673E+01  0.40000000000E+01  0.51109989000E-03 0.  1.
     -623   -1    0    0    0    0  0.00000000000E+00  0.00000000000E+00  0.12525980253E-10  0.17130000000E+03  0.17130000000E+03 0.  1.
       11    1    1    2    0    0 -0.10022882587E+00 -0.32091277043E-02  0.54516264048E-01  0.11414201813E+00  0.51109989000E-03 0.  1.
     -623    1    1    2    0    0  0.11528863154E+00  0.19947610483E-01  0.67766189361E+00  0.17130138037E+03  0.17130000000E+03 0.  1.
      622    1    1    2    0    0 -0.15059805672E-01 -0.16738482779E-01  0.32678218097E+01  0.38844776167E+01  0.21000000000E+01 0.  1.
</event>
<event>
 5   0  0.7462600E-02  0.9118800E+02  0.7818608E-02  0.1180000E+00
       11   -1    0    0    0    0  0.00000000000E+00  0.00000000000E+00  0.39999999673E+01  0.40000000000E+01  0.51109989000E-03 0.  1.
     -623   -1    0    0    0    0  0.00000000000E+00  0.00000000000E+00  0.12525980253E-10  0.17130000000E+03  0.17130000000E+03 0.  1.
       11    1    1    2    0    0 -0.37136471590E-01  0.82276015084E-01  0.16104674123E+00  0.18462062253E+00  0.51109989000E-03 0.  1.
     -623    1    1    2    0    0  0.74356509828E-01 -0.24252049022E+00  0.65949764586E+00  0.17130145733E+03  0.17130000000E+03 0.  1.
      622    1    1    2    0    0 -0.37220038238E-01  0.16024447513E+00  0.31794555803E+01  0.38139220508E+01  0.21000000000E+01 0.  1.
</event>
<event>
 5   0  0.7462600E-02  0.9118800E+02  0.7818608E-02  0.1180000E+00
       11   -1    0    0    0    0  0.00000000000E+00  0.00000000000E+00  0.39999999673E+01  0.40000000000E+01  0.51109989000E-03 0.  1.
     -623   -1    0    0    0    0  0.00000000000E+00  0.00000000000E+00  0.12525980253E-10  0.17130000000E+03  0.17130000000E+03 0. -1.
       11    1    1    2    0    0  0.22067974771E-01  0.14008538971E+00 -0.82280598740E-01  0.16395508554E+00  0.51109989000E-03 0.  1.
     -623    1    1    2    0    0  0.30585937030E+00 -0.39624638888E+00  0.90293673487E+00  0.17130311105E+03  0.17130000000E+03 0. -1.
      622    1    1    2    0    0 -0.32792734507E+00  0.25616099917E+00  0.31793438312E+01  0.38329338630E+01  0.21000000000E+01 0.  1.
</event>
<event>
 5   0  0.7462600E-02  0.9118800E+02  0.7818608E-02  0.1180000E+00
       11   -1    0    0    0    0  0.00000000000E+00  0.00000000000E+00  0.39999999673E+01  0.40000000000E+01  0.51109989000E-03 0.  1.
     -623   -1    0    0    0    0  0.00000000000E+00  0.00000000000E+00  0.12525980253E-10  0.17130000000E+03  0.17130000000E+03 0. -1.
       11    1    1    2    0    0 -0.53355822818E-01 -0.28266018480E+00  0.27587633835E+00  0.39856196404E+00  0.51109989000E-03 0.  1.
     -623    1    1    2    0    0 -0.43580968755E+00  0.80537246619E+00  0.89331797420E+00  0.17130477685E+03  0.17130000000E+03 0. -1.
      622    1    1    2    0    0  0.48916551036E+00 -0.52271228139E+00  0.28308056548E+01  0.35966611852E+01  0.21000000000E+01 0.  1.
</event>
<event>
 5   0  0.7462600E-02  0.9118800E+02  0.7818608E-02  0.1180000E+00
       11   -1    0    0    0    0  0.00000000000E+00  0.00000000000E+00  0.39999999673E+01  0.40000000000E+01  0.51109989000E-03 0. -1.
     -623   -1    0    0    0    0  0.00000000000E+00  0.00000000000E+00  0.12525980253E-10  0.17130000000E+03  0.17130000000E+03 0.  1.
       11    1    1    2    0    0 -0.39698113931E+00 -0.12854754600E+00  0.40313596241E+00  0.58020458629E+00  0.51109989000E-03 0. -1.
     -623    1    1    2    0    0 -0.51505238861E+00  0.42196847630E+00  0.10799235887E+01  0.17130469804E+03  0.17130000000E+03 0.  1.
      622    1    1    2    0    0  0.91203352792E+00 -0.29342093030E+00  0.25169404162E+01  0.34150973715E+01  0.21000000000E+01 0. -1.
</event>
<event>
 5   0  0.7462600E-02  0.9118800E+02  0.7818608E-02  0.1180000E+00
       11   -1    0    0    0    0  0.00000000000E+00  0.00000000000E+00  0.39999999673E+01  0.40000000000E+01  0.51109989000E-03 0. -1.
     -623   -1    0    0    0    0  0.00000000000E+00  0.00000000000E+00  0.12525980253E-10  0.17130000000E+03  0.17130000000E+03 0.  1.
       11    1    1    2    0    0  0.27073989702E+00  0.29206859518E-01  0.15630109331E+00  0.31397997623E+00  0.51109989000E-03 0. -1.
     -623    1    1    2    0    0  0.26112294394E+00 -0.62738575049E+00  0.92691326566E+00  0.17130385567E+03  0.17130000000E+03 0.  1.
      622    1    1    2    0    0 -0.53186284096E+00  0.59817889097E+00  0.29167856084E+01  0.36821643571E+01  0.21000000000E+01 0. -1.
</event>
<event>
 5   0  0.7462600E-02  0.9118800E+02  0.7818608E-02  0.1180000E+00
       11   -1    0    0    0    0  0.00000000000E+00  0.00000000000E+00  0.39999999673E+01  0.40000000000E+01  0.51109989000E-03 0.  1.
     -623   -1    0    0    0    0  0.00000000000E+00  0.00000000000E+00  0.12525980253E-10  0.17130000000E+03  0.17130000000E+03 0. -1.
       11    1    1    2    0    0 -0.20316818152E-01 -0.41095325013E-01 -0.34634639347E-01  0.57457969887E-01  0.51109989000E-03 0.  1.
     -623    1    1    2    0    0  0.13205143632E+00 -0.31888993702E-01  0.70236059027E+00  0.17130149376E+03  0.17130000000E+03 0. -1.
      622    1    1    2    0    0 -0.11173461817E+00  0.72984318716E-01  0.33322740164E+01  0.39410482687E+01  0.21000000000E+01 0.  1.
</event>
<event>
 5   0  0.7462600E-02  0.9118800E+02  0.7818608E-02  0.1180000E+00
       11   -1    0    0    0    0  0.00000000000E+00  0.00000000000E+00  0.39999999673E+01  0.40000000000E+01  0.51109989000E-03 0. -1.
     -623   -1    0    0    0    0  0.00000000000E+00  0.00000000000E+00  0.12525980253E-10  0.17130000000E+03  0.17130000000E+03 0.  1.
       11    1    1    2    0    0  0.18786125989E+00  0.50690419849E-01  0.51060604091E-03  0.19458132894E+00  0.51109989000E-03 0. -1.
     -623    1    1    2    0    0 -0.30217926445E+00  0.32737516381E-01  0.83187791289E+00  0.17130228955E+03  0.17130000000E+03 0.  1.
      622    1    1    2    0    0  0.11431800456E+00 -0.83427936230E-01  0.31676114484E+01  0.38031291215E+01  0.21000000000E+01 0. -1.
</event>
<event>
 5   0  0.7462600E-02  0.9118800E+02  0.7818608E-02  0.1180000E+00
       11   -1    0    0    0    0  0.00000000000E+00  0.00000000000E+00  0.39999999673E+01  0.40000000000E+01  0.51109989000E-03 0.  1.
     -623   -1    0    0    0    0  0.00000000000E+00  0.00000000000E+00  0.12525980253E-10  0.17130000000E+03  0.17130000000E+03 0. -1.
       11    1    1    2    0    0  0.14792112634E+00 -0.15996444957E+00  0.18940043768E+00  0.28869026960E+00  0.51109989000E-03 0.  1.
     -623    1    1    2    0    0 -0.27521926883E+00  0.37779148512E+00  0.76383103602E+00  0.17130234064E+03  0.17130000000E+03 0. -1.
      622    1    1    2    0    0  0.12729814249E+00 -0.21782703555E+00  0.30467684937E+01  0.37089690870E+01  0.21000000000E+01 0.  1.
</event>
<event>
 5   0  0.7462600E-02  0.9118800E+02  0.7818608E-02  0.1180000E+00
       11   -1    0    0    0    0  0.00000000000E+00  0.00000000000E+00  0.39999999673E+01  0.40000000000E+01  0.51109989000E-03 0. -1.
     -623   -1    0    0    0    0  0.00000000000E+00  0.00000000000E+00  0.12525980253E-10  0.17130000000E+03  0.17130000000E+03 0. -1.
       11    1    1    2    0    0 -0.22585540218E+00 -0.70449982199E-01  0.56742379759E-01  0.24329780429E+00  0.51109989000E-03 0. -1.
     -623    1    1    2    0    0  0.12517903430E-02 -0.28291919538E+00  0.85950270733E+00  0.17130238991E+03  0.17130000000E+03 0. -1.
      622    1    1    2    0    0  0.22460361184E+00  0.35336917758E+00  0.30837548803E+01  0.37543122832E+01  0.21000000000E+01 0. -1.
</event>
<event>
 5   0  0.7462600E-02  0.9118800E+02  0.7818608E-02  0.1180000E+00
       11   -1    0    0    0    0  0.00000000000E+00  0.00000000000E+00  0.39999999673E+01  0.40000000000E+01  0.51109989000E-03 0.  1.
     -623   -1    0    0    0    0  0.00000000000E+00  0.00000000000E+00  0.12525980253E-10  0.17130000000E+03  0.17130000000E+03 0.  1.
       11    1    1    2    0    0  0.44438007506E-02 -0.26660496725E+00  0.28420128224E-01  0.26815279383E+00  0.51109989000E-03 0.  1.
     -623    1    1    2    0    0 -0.15966303002E+00  0.37986607119E+00  0.89609968787E+00  0.17130283940E+03  0.17130000000E+03 0.  1.
      622    1    1    2    0    0  0.15521922927E+00 -0.11326110394E+00  0.30754801513E+01  0.37290078101E+01  0.21000000000E+01 0.  1.
</event>
<event>
 5   0  0.7462600E-02  0.9118800E+02  0.7818608E-02  0.1180000E+00
       11   -1    0    0    0    0  0.00000000000E+00  0.00000000000E+00  0.39999999673E+01  0.40000000000E+01  0.51109989000E-03 0. -1.
     -623   -1    0    0    0    0  0.00000000000E+00  0.00000000000E+00  0.12525980253E-10  0.17130000000E+03  0.17130000000E+03 0. -1.
       11    1    1    2    0    0  0.16965098839E+00  0.19415271650E+00  0.33580169088E+00  0.42336718344E+00  0.51109989000E-03 0. -1.
     -623    1    1    2    0    0  0.72621921166E-01 -0.35791565889E+00  0.78650961890E+00  0.17130219489E+03  0.17130000000E+03 0. -1.
      622    1    1    2    0    0 -0.24227290956E+00  0.16376294239E+00  0.28776886576E+01  0.35744379242E+01  0.21000000000E+01 0. -1.
</event>
<event>
 5   0  0.7462600E-02  0.9118800E+02  0.7818608E-02  0.1180000E+00
       11   -1    0    0    0    0  0.00000000000E+00  0.00000000000E+00  0.39999999673E+01  0.40000000000E+01  0.51109989000E-03 0. -1.
     -623   -1    0    0    0    0  0.00000000000E+00  0.00000000000E+00  0.12525980253E-10  0.17130000000E+03  0.17130000000E+03 0.  1.
       11    1    1    2    0    0  0.54046496130E-01  0.45723127210E-01 -0.11686538931E+00  0.13663604410E+00  0.51109989000E-03 0. -1.
     -623    1    1    2    0    0  0.53155711782E+00 -0.22876064271E+00  0.93695850788E+00  0.17130353988E+03  0.17130000000E+03 0.  1.
      622    1    1    2    0    0 -0.58560361395E+00  0.18303751550E+00  0.31799068488E+01  0.38598240752E+01  0.21000000000E+01 0. -1.
</event>
<event>
 5   0  0.7462600E-02  0.9118800E+02  0.7818608E-02  0.1180000E+00
       11   -1    0    0    0    0  0.00000000000E+00  0.00000000000E+00  0.39999999673E+01  0.40000000000E+01  0.51109989000E-03 0.  1.
     -623   -1    0    0    0    0  0.00000000000E+00  0.00000000000E+00  0.12525980253E-10  0.17130000000E+03  0.17130000000E+03 0.  1.
       11    1    1    2    0    0  0.16052250794E-01 -0.80905055245E-01 -0.16733031910E-03  0.82483888986E-01  0.51109989000E-03 0.  1.
     -623    1    1    2    0    0 -0.11202845907E+00  0.11581443070E+00  0.69640889187E+00  0.17130149138E+03  0.17130000000E+03 0.  1.
      622    1    1    2    0    0  0.95976208274E-01 -0.34909375459E-01  0.33037584058E+01  0.39160247319E+01  0.21000000000E+01 0.  1.
</event>
<event>
 5   0  0.7462600E-02  0.9118800E+02  0.7818608E-02  0.1180000E+00
       11   -1    0    0    0    0  0.00000000000E+00  0.00000000000E+00  0.39999999673E+01  0.40000000000E+01  0.51109989000E-03 0.  1.
     -623   -1    0    0    0    0  0.00000000000E+00  0.00000000000E+00  0.12525980253E-10  0.17130000000E+03  0.17130000000E+03 0. -1.
       11    1    1    2    0    0 -0.18851687704E+00  0.67494732173E-01 -0.50214930001E-01  0.20643631516E+00  0.51109989000E-03 0.  1.
     -623    1    1    2    0    0  0.41858604796E+00  0.67120903662E-01  0.90570623936E+00  0.17130291890E+03  0.17130000000E+03 0. -1.
      622    1    1    2    0    0 -0.23006917092E+00 -0.13461563584E+00  0.31445086580E+01  0.37906447859E+01  0.21000000000E+01 0.  1.
</event>
<event>
 5   0  0.7462600E-02  0.9118800E+02  0.7818608E-02  0.1180000E+00
       11   -1    0    0    0    0  0.00000000000E+00  0.00000000000E+00  0.39999999673E+01  0.40000000000E+01  0.51109989000E-03 0.  1.
     -623   -1    0    0    0    0  0.00000000000E+00  0.00000000000E+00  0.12525980253E-10  0.17130000000E+03  0.17130000000E+03 0. -1.
       11    1    1    2    0    0 -0.53196996296E-01  0.76353594582E-01  0.49097487677E-01  0.10521699643E+00  0.51109989000E-03 0.  1.
     -623    1    1    2    0    0 -0.15335268262E+00 -0.17730896036E+00  0.68062727599E+00  0.17130151257E+03  0.17130000000E+03 0. -1.
      622    1    1    2    0    0  0.20654967891E+00  0.10095536578E+00  0.32702752037E+01  0.38932704329E+01  0.21000000000E+01 0.  1.
</event>
<event>
 5   0  0.7462600E-02  0.9118800E+02  0.7818608E-02  0.1180000E+00
       11   -1    0    0    0    0  0.00000000000E+00  0.00000000000E+00  0.39999999673E+01  0.40000000000E+01  0.51109989000E-03 0. -1.
     -623   -1    0    0    0    0  0.00000000000E+00  0.00000000000E+00  0.12525980253E-10  0.17130000000E+03  0.17130000000E+03 0. -1.
       11    1    1    2    0    0 -0.18762240620E+00  0.65701082478E-01  0.29275885739E+00  0.35387400208E+00  0.51109989000E-03 0. -1.
     -623    1    1    2    0    0 -0.68977617993E-01 -0.18991897427E-01  0.74001224932E+00  0.17130161335E+03  0.17130000000E+03 0. -1.
      622    1    1    2    0    0  0.25660002419E+00 -0.46709185051E-01  0.29672288607E+01  0.36445126467E+01  0.21000000000E+01 0. -1.
</event>
<event>
 5   0  0.7462600E-02  0.9118800E+02  0.7818608E-02  0.1180000E+00
       11   -1    0    0    0    0  0.00000000000E+00  0.00000000000E+00  0.39999999673E+01  0.40000000000E+01  0.51109989000E-03 0. -1.
     -623   -1    0    0    0    0  0.00000000000E+00  0.00000000000E+00  0.12525980253E-10  0.17130000000E+03  0.17130000000E+03 0. -1.
       11    1    1    2    0    0 -0.26841522454E+00  0.33270963060E+00  0.40010387425E+00  0.58551328121E+00  0.51109989000E-03 0. -1.
     -623    1    1    2    0    0  0.14977551528E+00 -0.12655348424E+00  0.92137735962E+00  0.17130259013E+03  0.17130000000E+03 0. -1.
      622    1    1    2    0    0  0.11863970926E+00 -0.20615614636E+00  0.26785187335E+01  0.34118965903E+01  0.21000000000E+01 0. -1.
</event>
<event>
 5   0  0.7462600E-02  0.9118800E+02  0.7818608E-02  0.1180000E+00
       11   -1    0    0    0    0  0.00000000000E+00  0.00000000000E+00  0.39999999673E+01  0.40000000000E+01  0.51109989000E-03 0.  1.
     -623   -1    0    0    0    0  0.00000000000E+00  0.00000000000E+00  0.12525980253E-10  0.17130000000E+03  0.17130000000E+03 0.  1.
       11    1    1    2    0    0 -0.10496060567E+00  0.11163029820E+00 -0.58008532222E-01  0.16383926040E+00  0.51109989000E-03 0.  1.
     -623    1    1    2    0    0  0.15844361548E+00 -0.11633997577E+00  0.85080163404E+00  0.17130222562E+03  0.17130000000E+03 0.  1.
      622    1    1    2    0    0 -0.53483009809E-01  0.47096775755E-02  0.32072068655E+01  0.38339351184E+01  0.21000000000E+01 0.  1.
</event>
<event>
 5   0  0.7462600E-02  0.9118800E+02  0.7818608E-02  0.1180000E+00
       11   -1    0    0    0    0  0.00000000000E+00  0.00000000000E+00  0.39999999673E+01  0.40000000000E+01  0.51109989000E-03 0.  1.
     -623   -1    0    0    0    0  0.00000000000E+00  0.00000000000E+00  0.12525980253E-10  0.17130000000E+03  0.17130000000E+03 0.  1.
       11    1    1    2    0    0  0.13023690963E+00 -0.11560157626E+00 -0.47080778181E-01  0.18039467276E+00  0.51109989000E-03 0.  1.
     -623    1    1    2    0    0  0.16390010043E+00  0.51155288172E+00  0.89880278148E+00  0.17130320019E+03  0.17130000000E+03 0.  1.
      622    1    1    2    0    0 -0.29413701007E+00 -0.39595130545E+00  0.31482779641E+01  0.38164051352E+01  0.21000000000E+01 0.  1.
</event>
<event>
 5   0  0.7462600E-02  0.9118800E+02  0.7818608E-02  0.1180000E+00
       11   -1    0    0    0    0  0.00000000000E+00  0.00000000000E+00  0.39999999673E+01  0.40000000000E+01  0.51109989000E-03 0. -1.
     -623   -1    0    0    0    0  0.00000000000E+00  0.00000000000E+00  0.12525980253E-10  0.17130000000E+03  0.17130000000E+03 0.  1.
       11    1    1    2    0    0  0.16571256004E+00  0.59592778855E-01  0.12603418832E+00  0.21655675860E+00  0.51109989000E-03 0. -1.
     -623    1    1    2    0    0 -0.11613989499E+00 -0.39002765589E+00  0.74717596541E+00  0.17130211289E+03  0.17130000000E+03 0.  1.
      622    1    1    2    0    0 -0.49572665054E-01  0.33043487703E+00  0.31267898136E+01  0.37813303473E+01  0.21000000000E+01 0. -1.
</event>
<event>
 5   0  0.7462600E-02  0.9118800E+02  0.7818608E-02  0.1180000E+00
       11   -1    0    0    0    0  0.00000000000E+00  0.00000000000E+00  0.39999999673E+01  0.40000000000E+01  0.51109989000E-03 0. -1.
     -623   -1    0    0    0    0  0.00000000000E+00  0.00000000000E+00  0.12525980253E-10  0.17130000000E+03  0.17130000000E+03 0.  1.
       11    1    1    2    0    0 -0.11358887486E+00  0.33202574310E-01  0.14479917455E-01  0.11922572149E+00  0.51109989000E-03 0. -1.
     -623    1    1    2    0    0 -0.10794500072E+00  0.18592341587E+00  0.73899894999E+00  0.17130172894E+03  0.17130000000E+03 0.  1.
      622    1    1    2    0    0  0.22153387558E+00 -0.21912599018E+00  0.32465210999E+01  0.38790453348E+01  0.21000000000E+01 0. -1.
</event>
<event>
 5   0  0.7462600E-02  0.9118800E+02  0.7818608E-02  0.1180000E+00
       11   -1    0    0    0    0  0.00000000000E+00  0.00000000000E+00  0.39999999673E+01  0.40000000000E+01  0.51109989000E-03 0. -1.
     -623   -1    0    0    0    0  0.00000000000E+00  0.00000000000E+00  0.12525980253E-10  0.17130000000E+03  0.17130000000E+03 0. -1.
       11    1    1    2    0    0 -0.33217178965E-01  0.23370787175E+00  0.46439046365E+00  0.52094290882E+00  0.51109989000E-03 0. -1.
     -623    1    1    2    0    0 -0.37497024401E-01 -0.53027069013E+00  0.78193231491E+00  0.17130260947E+03  0.17130000000E+03 0. -1.
      622    1    1    2    0    0  0.70714203367E-01  0.29656281838E+00  0.27536771888E+01  0.34764476213E+01  0.21000000000E+01 0. -1.
</event>
<event>
 5   0  0.7462600E-02  0.9118800E+02  0.7818608E-02  0.1180000E+00
       11   -1    0    0    0    0  0.00000000000E+00  0.00000000000E+00  0.39999999673E+01  0.40000000000E+01  0.51109989000E-03 0.  1.
     -623   -1    0    0    0    0  0.00000000000E+00  0.00000000000E+00  0.12525980253E-10  0.17130000000E+03  0.17130000000E+03 0.  1.
       11    1    1    2    0    0  0.18572024620E-01 -0.18551680739E+00 -0.76376419717E-01  0.20148207026E+00  0.51109989000E-03 0.  1.
     -623    1    1    2    0    0  0.64467299284E+00  0.66245894690E+00  0.10252872733E+01  0.17130556228E+03  0.17130000000E+03 0.  1.
      622    1    1    2    0    0 -0.66324501746E+00 -0.47694213951E+00  0.30510891137E+01  0.37929556467E+01  0.21000000000E+01 0.  1.
</event>
<event>
 5   0  0.7462600E-02  0.9118800E+02  0.7818608E-02  0.1180000E+00
       11   -1    0    0    0    0  0.00000000000E+00  0.00000000000E+00  0.39999999673E+01  0.40000000000E+01  0.51109989000E-03 0. -1.
     -623   -1    0    0    0    0  0.00000000000E+00  0.00000000000E+00  0.12525980253E-10  0.17130000000E+03  0.17130000000E+03 0. -1.
       11    1    1    2    0    0 -0.25393121779E-01  0.10775078263E+00  0.15873827016E+00  0.19352814118E+00  0.51109989000E-03 0. -1.
     -623    1    1    2    0    0  0.63361785531E-01 -0.38754513588E-01  0.66904504636E+00  0.17130132264E+03  0.17130000000E+03 0. -1.
      622    1    1    2    0    0 -0.37968663752E-01 -0.68996269039E-01  0.31722166508E+01  0.38051492197E+01  0.21000000000E+01 0. -1.
</event>
<event>
 5   0  0.7462600E-02  0.9118800E+02  0.7818608E-02  0.1180000E+00
       11   -1    0    0    0    0  0.00000000000E+00  0.00000000000E+00  0.39999999673E+01  0.40000000000E+01  0.51109989000E-03 0.  1.
     -623   -1    0    0    0    0  0.00000000000E+00  0.00000000000E+00  0.12525980253E-10  0.17130000000E+03  0.17130000000E+03 0.  1.
       11    1    1    2    0    0 -0.11401990423E+00 -0.20813168703E+00  0.56740939352E-01  0.24400642025E+00  0.51109989000E-03 0.  1.
     -623    1    1    2    0    0  0.40285894195E+00 -0.12672643864E+00  0.86402900936E+00  0.17130269963E+03  0.17130000000E+03 0.  1.
      622    1    1    2    0    0 -0.28883903773E+00  0.33485812567E+00  0.30792300186E+01  0.37532939482E+01  0.21000000000E+01 0.  1.
</event>
<event>
 5   0  0.7462600E-02  0.9118800E+02  0.7818608E-02  0.1180000E+00
       11   -1    0    0    0    0  0.00000000000E+00  0.00000000000E+00  0.39999999673E+01  0.40000000000E+01  0.51109989000E-03 0.  1.
     -623   -1    0    0    0    0  0.00000000000E+00  0.00000000000E+00  0.12525980253E-10  0.17130000000E+03  0.17130000000E+03 0. -1.
       11    1    1    2    0    0 -0.15805284239E+00  0.12518974085E+00 -0.49021689604E-01  0.20750074573E+00  0.51109989000E-03 0.  1.
     -623    1    1    2    0    0 -0.83008140379E-01  0.26584040789E+00  0.92792199103E+00  0.17130273962E+03  0.17130000000E+03 0. -1.
      622    1    1    2    0    0  0.24106098277E+00 -0.39103014874E+00  0.31210996659E+01  0.37897596361E+01  0.21000000000E+01 0.  1.
</event>
<event>
 5   0  0.7462600E-02  0.9118800E+02  0.7818608E-02  0.1180000E+00
       11   -1    0    0    0    0  0.00000000000E+00  0.00000000000E+00  0.39999999673E+01  0.40000000000E+01  0.51109989000E-03 0.  1.
     -623   -1    0    0    0    0  0.00000000000E+00  0.00000000000E+00  0.12525980253E-10  0.17130000000E+03  0.17130000000E+03 0. -1.
       11    1    1    2    0    0  0.10267386280E+00  0.14801023290E+00  0.54019211600E+00  0.56943545249E+00  0.51109989000E-03 0.  1.
     -623    1    1    2    0    0  0.48354868060E-01 -0.43136372555E+00  0.76907169614E+00  0.17130227635E+03  0.17130000000E+03 0. -1.
      622    1    1    2    0    0 -0.15102873086E+00  0.28335349265E+00  0.26907361552E+01  0.34282881933E+01  0.21000000000E+01 0.  1.
</event>
<event>
 5   0  0.7462600E-02  0.9118800E+02  0.7818608E-02  0.1180000E+00
       11   -1    0    0    0    0  0.00000000000E+00  0.00000000000E+00  0.39999999673E+01  0.40000000000E+01  0.51109989000E-03 0.  1.
     -623   -1    0    0    0    0  0.00000000000E+00  0.00000000000E+00  0.12525980253E-10  0.17130000000E+03  0.17130000000E+03 0. -1.
       11    1    1    2    0    0 -0.72066005919E-03  0.34899233381E+00  0.60616917499E+00  0.69945514391E+00  0.51109989000E-03 0.  1.
     -623    1    1    2    0    0 -0.75472414143E+00 -0.23052405515E+00  0.97128873164E+00  0.17130457131E+03  0.17130000000E+03 0. -1.
      622    1    1    2    0    0  0.75544480149E+00 -0.11846827866E+00  0.24225420607E+01  0.32959735462E+01  0.21000000000E+01 0.  1.
</event>
<event>
 5   0  0.7462600E-02  0.9118800E+02  0.7818608E-02  0.1180000E+00
       11   -1    0    0    0    0  0.00000000000E+00  0.00000000000E+00  0.39999999673E+01  0.40000000000E+01  0.51109989000E-03 0. -1.
     -623   -1    0    0    0    0  0.00000000000E+00  0.00000000000E+00  0.12525980253E-10  0.17130000000E+03  0.17130000000E+03 0.  1.
       11    1    1    2    0    0  0.13330088991E-01 -0.11988896245E+00  0.31075553081E+00  0.33334713999E+00  0.51109989000E-03 0. -1.
     -623    1    1    2    0    0  0.17610167196E+00  0.49953236961E+00  0.71647768147E+00  0.17130231722E+03  0.17130000000E+03 0.  1.
      622    1    1    2    0    0 -0.18943176095E+00 -0.37964340716E+00  0.29727667551E+01  0.36643356408E+01  0.21000000000E+01 0. -1.
</event>
<event>
 5   0  0.7462600E-02  0.9118800E+02  0.7818608E-02  0.1180000E+00
       11   -1    0    0    0    0  0.00000000000E+00  0.00000000000E+00  0.39999999673E+01  0.40000000000E+01  0.51109989000E-03 0.  1.
     -623   -1    0    0    0    0  0.00000000000E+00  0.00000000000E+00  0.12525980253E-10  0.17130000000E+03  0.17130000000E+03 0.  1.
       11    1    1    2    0    0  0.92941495976E-01  0.51288257152E-01 -0.76584135926E-01  0.13089689872E+00  0.51109989000E-03 0.  1.
     -623    1    1    2    0    0 -0.14763224583E+00 -0.13351993505E+00  0.83101523091E+00  0.17130213136E+03  0.17130000000E+03 0.  1.
      622    1    1    2    0    0  0.54690749853E-01  0.82231677893E-01  0.32455688724E+01  0.38669717393E+01  0.21000000000E+01 0.  1.
</event>
<event>
 5   0  0.7462600E-02  0.9118800E+02  0.7818608E-02  0.1180000E+00
       11   -1    0    0    0    0  0.00000000000E+00  0.00000000000E+00  0.39999999673E+01  0.40000000000E+01  0.51109989000E-03 0.  1.
     -623   -1    0    0    0    0  0.00000000000E+00  0.00000000000E+00  0.12525980253E-10  0.17130000000E+03  0.17130000000E+03 0.  1.
       11    1    1    2    0    0 -0.23514804353E+00  0.91394463002E-01  0.43291769436E+00  0.50106440859E+00  0.51109989000E-03 0.  1.
     -623    1    1    2    0    0  0.44620848897E+00  0.64232147975E-01  0.78372226931E+00  0.17130238600E+03  0.17130000000E+03 0.  1.
      622    1    1    2    0    0 -0.21106044544E+00 -0.15562661098E+00  0.27833600037E+01  0.34965495941E+01  0.21000000000E+01 0.  1.
</event>
<event>
 5   0  0.7462600E-02  0.9118800E+02  0.7818608E-02  0.1180000E+00
       11   -1    0    0    0    0  0.00000000000E+00  0.00000000000E+00  0.39999999673E+01  0.40000000000E+01  0.51109989000E-03 0.  1.
     -623   -1    0    0    0    0  0.00000000000E+00  0.00000000000E+00  0.12525980253E-10  0.17130000000E+03  0.17130000000E+03 0.  1.
       11    1    1    2    0    0 -0.75134369903E-01 -0.21047209440E-01 -0.17656428386E+00  0.19303721434E+00  0.51109989000E-03 0.  1.
     -623    1    1    2    0    0  0.12386371171E+00 -0.12164257029E+00  0.10084465928E+01  0.17130305632E+03  0.17130000000E+03 0.  1.
      622    1    1    2    0    0 -0.48729341811E-01  0.14268977973E+00  0.31681176584E+01  0.38039064683E+01  0.21000000000E+01 0.  1.
</event>
<event>
 5   0  0.7462600E-02  0.9118800E+02  0.7818608E-02  0.1180000E+00
       11   -1    0    0    0    0  0.00000000000E+00  0.00000000000E+00  0.39999999673E+01  0.40000000000E+01  0.51109989000E-03 0. -1.
     -623   -1    0    0    0    0  0.00000000000E+00  0.00000000000E+00  0.12525980253E-10  0.17130000000E+03  0.17130000000E+03 0.  1.
       11    1    1    2    0    0  0.20266493697E+00  0.30121726738E-01  0.12972802284E+00  0.24250776530E+00  0.51109989000E-03 0. -1.
     -623    1    1    2    0    0 -0.46932824484E+00 -0.19715059153E+00  0.77334710753E+00  0.17130250203E+03  0.17130000000E+03 0.  1.
      622    1    1    2    0    0  0.26666330788E+00  0.16702886479E+00  0.30969248370E+01  0.37549902007E+01  0.21000000000E+01 0. -1.
</event>
<event>
 5   0  0.7462600E-02  0.9118800E+02  0.7818608E-02  0.1180000E+00
       11   -1    0    0    0    0  0.00000000000E+00  0.00000000000E+00  0.39999999673E+01  0.40000000000E+01  0.51109989000E-03 0. -1.
     -623   -1    0    0    0    0  0.00000000000E+00  0.00000000000E+00  0.12525980253E-10  0.17130000000E+03  0.17130000000E+03 0.  1.
       11    1    1    2    0    0 -0.11234758376E-01 -0.33352149298E-01  0.21026325656E+00  0.21318884572E+00  0.51109989000E-03 0. -1.
     -623    1    1    2    0    0 -0.36722776318E+00  0.45607470931E+00  0.69299315143E+00  0.17130240249E+03  0.17130000000E+03 0.  1.
      622    1    1    2    0    0  0.37846252156E+00 -0.42272256001E+00  0.30967435594E+01  0.37844086613E+01  0.21000000000E+01 0. -1.
</event>
<event>
 5   0  0.7462600E-02  0.9118800E+02  0.7818608E-02  0.1180000E+00
       11   -1    0    0    0    0  0.00000000000E+00  0.00000000000E+00  0.39999999673E+01  0.40000000000E+01  0.51109989000E-03 0. -1.
     -623   -1    0    0    0    0  0.00000000000E+00  0.00000000000E+00  0.12525980253E-10  0.17130000000E+03  0.17130000000E+03 0. -1.
       11    1    1    2    0    0  0.65850231477E-02 -0.70137005245E-01 -0.47458688956E-01  0.84942041505E-01  0.51109989000E-03 0. -1.
     -623    1    1    2    0    0  0.48970025477E+00 -0.16744967510E+00  0.79254516302E+00  0.17130261520E+03  0.17130000000E+03 0. -1.
      622    1    1    2    0    0 -0.49628527791E+00  0.23758668034E+00  0.32549134933E+01  0.39124427608E+01  0.21000000000E+01 0. -1.
</event>
<event>
 5   0  0.7462600E-02  0.9118800E+02  0.7818608E-02  0.1180000E+00
       11   -1    0    0    0    0  0.00000000000E+00  0.00000000000E+00  0.39999999673E+01  0.40000000000E+01  0.51109989000E-03 0. -1.
     -623   -1    0    0    0    0  0.00000000000E+00  0.00000000000E+00  0.12525980253E-10  0.17130000000E+03  0.17130000000E+03 0. -1.
       11    1    1    2    0    0  0.33903786223E+00 -0.29661238872E+00  0.32314983441E+00  0.55439305359E+00  0.51109989000E-03 0. -1.
     -623    1    1    2    0    0  0.19479493213E+00  0.12138856579E+00  0.10075699828E+01  0.17130311695E+03  0.17130000000E+03 0. -1.
      622    1    1    2    0    0 -0.53383279437E+00  0.17522382293E+00  0.26692801502E+01  0.34424899943E+01  0.21000000000E+01 0. -1.
</event>
<event>
 5   0  0.7462600E-02  0.9118800E+02  0.7818608E-02  0.1180000E+00
       11   -1    0    0    0    0  0.00000000000E+00  0.00000000000E+00  0.39999999673E+01  0.40000000000E+01  0.51109989000E-03 0.  1.
     -623   -1    0    0    0    0  0.00000000000E+00  0.00000000000E+00  0.12525980253E-10  0.17130000000E+03  0.17130000000E+03 0.  1.
       11    1    1    2    0    0  0.12230303818E+00 -0.62666820606E-01  0.79397399917E-01  0.15871159973E+00  0.51109989000E-03 0.  1.
     -623    1    1    2    0    0  0.15455975288E+00  0.33811985178E+00  0.73031834473E+00  0.17130196023E+03  0.17130000000E+03 0.  1.
      622    1    1    2    0    0 -0.27686279106E+00 -0.27545303117E+00  0.31902842227E+01  0.38393281703E+01  0.21000000000E+01 0.  1.
</event>
<event>
 5   0  0.7462600E-02  0.9118800E+02  0.7818608E-02  0.1180000E+00
       11   -1    0    0    0    0  0.00000000000E+00  0.00000000000E+00  0.39999999673E+01  0.40000000000E+01  0.51109989000E-03 0. -1.
     -623   -1    0    0    0    0  0.00000000000E+00  0.00000000000E+00  0.12525980253E-10  0.17130000000E+03  0.17130000000E+03 0. -1.
       11    1    1    2    0    0 -0.21183573945E+00  0.13472834055E+00 -0.43862738528E-01  0.25485350167E+00  0.51109989000E-03 0. -1.
     -623    1    1    2    0    0  0.90620197083E-01 -0.18763994216E+00  0.94902881959E+00  0.17130275560E+03  0.17130000000E+03 0. -1.
      622    1    1    2    0    0  0.12121554237E+00  0.52911601606E-01  0.30948338863E+01  0.37423908974E+01  0.21000000000E+01 0. -1.
</event>
<event>
 5   0  0.7462600E-02  0.9118800E+02  0.7818608E-02  0.1180000E+00
       11   -1    0    0    0    0  0.00000000000E+00  0.00000000000E+00  0.39999999673E+01  0.40000000000E+01  0.51109989000E-03 0.  1.
     -623   -1    0    0    0    0  0.00000000000E+00  0.00000000000E+00  0.12525980253E-10  0.17130000000E+03  0.17130000000E+03 0.  1.
       11    1    1    2    0    0 -0.20923726050E+00  0.31383663015E-01 -0.16502092249E+00  0.26832318492E+00  0.51109989000E-03 0.  1.
     -623    1    1    2    0    0  0.53264998910E-02  0.12281382444E+00  0.10952313381E+01  0.17130354533E+03  0.17130000000E+03 0.  1.
      622    1    1    2    0    0  0.20391076061E+00 -0.15419748746E+00  0.30697895518E+01  0.37281314831E+01  0.21000000000E+01 0.  1.
</event>
<event>
 5   0  0.7462600E-02  0.9118800E+02  0.7818608E-02  0.1180000E+00
       11   -1    0    0    0    0  0.00000000000E+00  0.00000000000E+00  0.39999999673E+01  0.40000000000E+01  0.51109989000E-03 0.  1.
     -623   -1    0    0    0    0  0.00000000000E+00  0.00000000000E+00  0.12525980253E-10  0.17130000000E+03  0.17130000000E+03 0. -1.
       11    1    1    2    0    0 -0.21790043006E+00  0.93661205312E-01  0.16049560582E+00  0.28637758207E+00  0.51109989000E-03 0.  1.
     -623    1    1    2    0    0  0.64987290196E+00  0.39688741546E+00  0.85195314756E+00  0.17130381105E+03  0.17130000000E+03 0. -1.
      622    1    1    2    0    0 -0.43197247190E+00 -0.49054862077E+00  0.29875512140E+01  0.37098113728E+01  0.21000000000E+01 0.  0.
</event>
<event>
 5   0  0.7462600E-02  0.9118800E+02  0.7818608E-02  0.1180000E+00
       11   -1    0    0    0    0  0.00000000000E+00  0.00000000000E+00  0.39999999673E+01  0.40000000000E+01  0.51109989000E-03 0. -1.
     -623   -1    0    0    0    0  0.00000000000E+00  0.00000000000E+00  0.12525980253E-10  0.17130000000E+03  0.17130000000E+03 0.  1.
       11    1    1    2    0    0 -0.54569550077E-01  0.31557046095E+00  0.75303480092E+00  0.81830570342E+00  0.51109989000E-03 0. -1.
     -623    1    1    2    0    0  0.25682906562E-01 -0.21593125559E+00  0.86206683981E+00  0.17130230718E+03  0.17130000000E+03 0.  1.
      622    1    1    2    0    0  0.28886643515E-01 -0.99639205359E-01  0.23848983266E+01  0.31793871167E+01  0.21000000000E+01 0. -1.
</event>
<event>
 5   0  0.7462600E-02  0.9118800E+02  0.7818608E-02  0.1180000E+00
       11   -1    0    0    0    0  0.00000000000E+00  0.00000000000E+00  0.39999999673E+01  0.40000000000E+01  0.51109989000E-03 0. -1.
     -623   -1    0    0    0    0  0.00000000000E+00  0.00000000000E+00  0.12525980253E-10  0.17130000000E+03  0.17130000000E+03 0.  1.
       11    1    1    2    0    0 -0.25932994052E+00 -0.39123438249E-01 -0.66557321028E-01  0.27057863862E+00  0.51109989000E-03 0. -1.
     -623    1    1    2    0    0  0.39953519017E-01 -0.82143376412E-01  0.99835267379E+00  0.17130293358E+03  0.17130000000E+03 0.  1.
      622    1    1    2    0    0  0.21937642150E+00  0.12126681466E+00  0.30682046146E+01  0.37264877850E+01  0.21000000000E+01 0. -1.
</event>
<event>
 5   0  0.7462600E-02  0.9118800E+02  0.7818608E-02  0.1180000E+00
       11   -1    0    0    0    0  0.00000000000E+00  0.00000000000E+00  0.39999999673E+01  0.40000000000E+01  0.51109989000E-03 0. -1.
     -623   -1    0    0    0    0  0.00000000000E+00  0.00000000000E+00  0.12525980253E-10  0.17130000000E+03  0.17130000000E+03 0.  1.
       11    1    1    2    0    0 -0.10264378920E-01  0.89494435628E-01 -0.44080698137E-01  0.10028948427E+00  0.51109989000E-03 0. -1.
     -623    1    1    2    0    0 -0.45342222550E-01 -0.11693111928E+00  0.76073365953E+00  0.17130173509E+03  0.17130000000E+03 0.  1.
      622    1    1    2    0    0  0.55606601470E-01  0.27436683650E-01  0.32833470060E+01  0.38979754267E+01  0.21000000000E+01 0. -1.
</event>
<event>
 5   0  0.7462600E-02  0.9118800E+02  0.7818608E-02  0.1180000E+00
       11   -1    0    0    0    0  0.00000000000E+00  0.00000000000E+00  0.39999999673E+01  0.40000000000E+01  0.51109989000E-03 0. -1.
     -623   -1    0    0    0    0  0.00000000000E+00  0.00000000000E+00  0.12525980253E-10  0.17130000000E+03  0.17130000000E+03 0.  1.
       11    1    1    2    0    0  0.26635058631E+00  0.27540862158E+00  0.30815875183E+00  0.49168549014E+00  0.51109989000E-03 0. -1.
     -623    1    1    2    0    0 -0.10745707074E+00 -0.94826393319E-01  0.89477099833E+00  0.17130239681E+03  0.17130000000E+03 0.  1.
      622    1    1    2    0    0 -0.15889351556E+00 -0.18058222826E+00  0.27970702172E+01  0.35059176959E+01  0.21000000000E+01 0. -1.
</event>
<event>
 5   0  0.7462600E-02  0.9118800E+02  0.7818608E-02  0.1180000E+00
       11   -1    0    0    0    0  0.00000000000E+00  0.00000000000E+00  0.39999999673E+01  0.40000000000E+01  0.51109989000E-03 0.  1.
     -623   -1    0    0    0    0  0.00000000000E+00  0.00000000000E+00  0.12525980253E-10  0.17130000000E+03  0.17130000000E+03 0. -1.
       11    1    1    2    0    0 -0.42475769335E+00 -0.67911951863E-01  0.46620876733E+00  0.63433587887E+00  0.51109989000E-03 0.  1.
     -623    1    1    2    0    0  0.32227089116E+00 -0.17610257487E+00  0.92067957498E+00  0.17130286781E+03  0.17130000000E+03 0. -1.
      622    1    1    2    0    0  0.10248680218E+00  0.24401452673E+00  0.26131116251E+01  0.33627963065E+01  0.21000000000E+01 0.  1.
</event>
<event>
 5   0  0.7462600E-02  0.9118800E+02  0.7818608E-02  0.1180000E+00
       11   -1    0    0    0    0  0.00000000000E+00  0.00000000000E+00  0.39999999673E+01  0.40000000000E+01  0.51109989000E-03 0.  1.
     -623   -1    0    0    0    0  0.00000000000E+00  0.00000000000E+00  0.12525980253E-10  0.17130000000E+03  0.17130000000E+03 0. -1.
       11    1    1    2    0    0 -0.16698099041E-01  0.12790270399E+00 -0.29884035422E-01  0.13240560787E+00  0.51109989000E-03 0.  1.
     -623    1    1    2    0    0  0.24871483884E+00 -0.10276501041E+00  0.79291056757E+00  0.17130204648E+03  0.17130000000E+03 0. -1.
      622    1    1    2    0    0 -0.23201673979E+00 -0.25137693574E-01  0.32369734352E+01  0.38655479161E+01  0.21000000000E+01 0.  1.
</event>
<event>
 5   0  0.7462600E-02  0.9118800E+02  0.7818608E-02  0.1180000E+00
       11   -1    0    0    0    0  0.00000000000E+00  0.00000000000E+00  0.39999999673E+01  0.40000000000E+01  0.51109989000E-03 0.  1.
     -623   -1    0    0    0    0  0.00000000000E+00  0.00000000000E+00  0.12525980253E-10  0.17130000000E+03  0.17130000000E+03 0. -1.
       11    1    1    2    0    0  0.58167925721E-01 -0.11840146409E+00  0.13687395457E+00  0.19009775102E+00  0.51109989000E-03 0.  1.
     -623    1    1    2    0    0 -0.29898494580E+00  0.16862770998E+00  0.69587926387E+00  0.17130175736E+03  0.17130000000E+03 0. -1.
      622    1    1    2    0    0  0.24081702008E+00 -0.50226245891E-01  0.31672467489E+01  0.38081448871E+01  0.21000000000E+01 0.  1.
</event>
<event>
 5   0  0.7462600E-02  0.9118800E+02  0.7818608E-02  0.1180000E+00
       11   -1    0    0    0    0  0.00000000000E+00  0.00000000000E+00  0.39999999673E+01  0.40000000000E+01  0.51109989000E-03 0. -1.
     -623   -1    0    0    0    0  0.00000000000E+00  0.00000000000E+00  0.12525980253E-10  0.17130000000E+03  0.17130000000E+03 0. -1.
       11    1    1    2    0    0 -0.32470032256E+00  0.20956929237E+00  0.78404384077E-01  0.39433120146E+00  0.51109989000E-03 0. -1.
     -623    1    1    2    0    0 -0.55947086408E+00  0.48729734260E-02  0.11414676175E+01  0.17130471675E+03  0.17130000000E+03 0. -1.
      622    1    1    2    0    0  0.88417118665E+00 -0.21444226580E+00  0.27801279658E+01  0.36009520517E+01  0.21000000000E+01 0. -1.
</event>
<event>
 5   0  0.7462600E-02  0.9118800E+02  0.7818608E-02  0.1180000E+00
       11   -1    0    0    0    0  0.00000000000E+00  0.00000000000E+00  0.39999999673E+01  0.40000000000E+01  0.51109989000E-03 0. -1.
     -623   -1    0    0    0    0  0.00000000000E+00  0.00000000000E+00  0.12525980253E-10  0.17130000000E+03  0.17130000000E+03 0. -1.
       11    1    1    2    0    0  0.37574015961E+00 -0.40566478856E+00  0.85238463371E+00  0.10160238251E+01  0.51109989000E-03 0. -1.
     -623    1    1    2    0    0 -0.28476568740E+00  0.30968097275E+00  0.10369700315E+01  0.17130365525E+03  0.17130000000E+03 0. -1.
      622    1    1    2    0    0 -0.90974472214E-01  0.95983815802E-01  0.21106453021E+01  0.29803209288E+01  0.21000000000E+01 0. -1.
</event>
<event>
 5   0  0.7462600E-02  0.9118800E+02  0.7818608E-02  0.1180000E+00
       11   -1    0    0    0    0  0.00000000000E+00  0.00000000000E+00  0.39999999673E+01  0.40000000000E+01  0.51109989000E-03 0. -1.
     -623   -1    0    0    0    0  0.00000000000E+00  0.00000000000E+00  0.12525980253E-10  0.17130000000E+03  0.17130000000E+03 0. -1.
       11    1    1    2    0    0 -0.37929906903E-01  0.25127960386E+00  0.52738324928E+00  0.58541734685E+00  0.51109989000E-03 0. -1.
     -623    1    1    2    0    0 -0.33753950251E-01 -0.60654923775E+00  0.80847645379E+00  0.17130298502E+03  0.17130000000E+03 0. -1.
      622    1    1    2    0    0  0.71683857154E-01  0.35526963389E+00  0.26641402643E+01  0.34115976369E+01  0.21000000000E+01 0. -1.
</event>
<event>
 5   0  0.7462600E-02  0.9118800E+02  0.7818608E-02  0.1180000E+00
       11   -1    0    0    0    0  0.00000000000E+00  0.00000000000E+00  0.39999999673E+01  0.40000000000E+01  0.51109989000E-03 0. -1.
     -623   -1    0    0    0    0  0.00000000000E+00  0.00000000000E+00  0.12525980253E-10  0.17130000000E+03  0.17130000000E+03 0.  1.
       11    1    1    2    0    0 -0.56117120448E+00  0.41363382254E+00  0.65810358856E+00  0.95870050296E+00  0.51109989000E-03 0. -1.
     -623    1    1    2    0    0  0.97743723255E-01 -0.69355614720E-01  0.12254577024E+01  0.17130442525E+03  0.17130000000E+03 0.  1.
      622    1    1    2    0    0  0.46342748122E+00 -0.34427820782E+00  0.21164386764E+01  0.30368742459E+01  0.21000000000E+01 0. -1.
</event>
<event>
 5   0  0.7462600E-02  0.9118800E+02  0.7818608E-02  0.1180000E+00
       11   -1    0    0    0    0  0.00000000000E+00  0.00000000000E+00  0.39999999673E+01  0.40000000000E+01  0.51109989000E-03 0. -1.
     -623   -1    0    0    0    0  0.00000000000E+00  0.00000000000E+00  0.12525980253E-10  0.17130000000E+03  0.17130000000E+03 0. -1.
       11    1    1    2    0    0 -0.93578550018E-01  0.85700346045E-01 -0.44060501747E-01  0.13432454494E+00  0.51109989000E-03 0. -1.
     -623    1    1    2    0    0  0.86341291746E-02 -0.26161528908E+00  0.80692444775E+00  0.17130210052E+03  0.17130000000E+03 0. -1.
      622    1    1    2    0    0  0.84944420843E-01  0.17591494303E+00  0.32371360214E+01  0.38635749304E+01  0.21000000000E+01 0. -1.
</event>
<event>
 5   0  0.7462600E-02  0.9118800E+02  0.7818608E-02  0.1180000E+00
       11   -1    0    0    0    0  0.00000000000E+00  0.00000000000E+00  0.39999999673E+01  0.40000000000E+01  0.51109989000E-03 0. -1.
     -623   -1    0    0    0    0  0.00000000000E+00  0.00000000000E+00  0.12525980253E-10  0.17130000000E+03  0.17130000000E+03 0. -1.
       11    1    1    2    0    0  0.37559659985E-01  0.83824692603E-01 -0.42762636158E-01  0.10132231453E+00  0.51109989000E-03 0. -1.
     -623    1    1    2    0    0 -0.70388404172E-01  0.13393433091E+00  0.76751204063E+00  0.17130178624E+03  0.17130000000E+03 0. -1.
      622    1    1    2    0    0  0.32828744186E-01 -0.21775902351E+00  0.32752505629E+01  0.38968914494E+01  0.21000000000E+01 0. -1.
</event>
<event>
 5   0  0.7462600E-02  0.9118800E+02  0.7818608E-02  0.1180000E+00
       11   -1    0    0    0    0  0.00000000000E+00  0.00000000000E+00  0.39999999673E+01  0.40000000000E+01  0.51109989000E-03 0.  1.
     -623   -1    0    0    0    0  0.00000000000E+00  0.00000000000E+00  0.12525980253E-10  0.17130000000E+03  0.17130000000E+03 0. -1.
       11    1    1    2    0    0  0.27770517269E+00 -0.23684368150E+00  0.25511160737E+00  0.44530583405E+00  0.51109989000E-03 0.  1.
     -623    1    1    2    0    0  0.47375456485E-01  0.12124127008E+00  0.90066080062E+00  0.17130241719E+03  0.17130000000E+03 0. -1.
      622    1    1    2    0    0 -0.32508062917E+00  0.11560241142E+00  0.28442275594E+01  0.35522769800E+01  0.21000000000E+01 0.  1.
</event>
<event>
 5   0  0.7462600E-02  0.9118800E+02  0.7818608E-02  0.1180000E+00
       11   -1    0    0    0    0  0.00000000000E+00  0.00000000000E+00  0.39999999673E+01  0.40000000000E+01  0.51109989000E-03 0.  1.
     -623   -1    0    0    0    0  0.00000000000E+00  0.00000000000E+00  0.12525980253E-10  0.17130000000E+03  0.17130000000E+03 0. -1.
       11    1    1    2    0    0 -0.30874064930E+00  0.86419015254E-01  0.78276931746E+00  0.84588243882E+00  0.51109989000E-03 0.  1.
     -623    1    1    2    0    0  0.12291134306E+00 -0.43755825520E+00  0.90166109128E+00  0.17130297591E+03  0.17130000000E+03 0. -1.
      622    1    1    2    0    0  0.18582930625E+00  0.35113923994E+00  0.23155695586E+01  0.31511416467E+01  0.21000000000E+01 0.  1.
</event>
<event>
 5   0  0.7462600E-02  0.9118800E+02  0.7818608E-02  0.1180000E+00
       11   -1    0    0    0    0  0.00000000000E+00  0.00000000000E+00  0.39999999673E+01  0.40000000000E+01  0.51109989000E-03 0.  1.
     -623   -1    0    0    0    0  0.00000000000E+00  0.00000000000E+00  0.12525980253E-10  0.17130000000E+03  0.17130000000E+03 0.  1.
       11    1    1    2    0    0  0.10481098222E+00 -0.20832984232E+00  0.13348237710E+00  0.26870889716E+00  0.51109989000E-03 0.  1.
     -623    1    1    2    0    0 -0.22570529645E+00  0.29369809899E+00  0.78851444030E+00  0.17130221527E+03  0.17130000000E+03 0.  1.
      622    1    1    2    0    0  0.12089431422E+00 -0.85368256669E-01  0.30780031500E+01  0.37290758326E+01  0.21000000000E+01 0.  1.
</event>
<event>
 5   0  0.7462600E-02  0.9118800E+02  0.7818608E-02  0.1180000E+00
       11   -1    0    0    0    0  0.00000000000E+00  0.00000000000E+00  0.39999999673E+01  0.40000000000E+01  0.51109989000E-03 0.  1.
     -623   -1    0    0    0    0  0.00000000000E+00  0.00000000000E+00  0.12525980253E-10  0.17130000000E+03  0.17130000000E+03 0.  1.
       11    1    1    2    0    0 -0.29751045315E-01 -0.21653019612E-01  0.16879043789E-01  0.40486310007E-01  0.51109989000E-03 0.  1.
     -623    1    1    2    0    0  0.47231921542E-01  0.25158852555E+00  0.63592620608E+00  0.17130137165E+03  0.17130000000E+03 0.  1.
      622    1    1    2    0    0 -0.17480876227E-01 -0.22993550594E+00  0.33471947175E+01  0.39581420382E+01  0.21000000000E+01 0.  1.
</event>
<event>
 5   0  0.7462600E-02  0.9118800E+02  0.7818608E-02  0.1180000E+00
       11   -1    0    0    0    0  0.00000000000E+00  0.00000000000E+00  0.39999999673E+01  0.40000000000E+01  0.51109989000E-03 0. -1.
     -623   -1    0    0    0    0  0.00000000000E+00  0.00000000000E+00  0.12525980253E-10  0.17130000000E+03  0.17130000000E+03 0. -1.
       11    1    1    2    0    0  0.15118516016E+00 -0.19195987392E+00  0.10239117623E+00  0.26493350117E+00  0.51109989000E-03 0. -1.
     -623    1    1    2    0    0 -0.29338176272E+00  0.20647028909E+00  0.81491343106E+00  0.17130231401E+03  0.17130000000E+03 0. -1.
      622    1    1    2    0    0  0.14219660256E+00 -0.14510415172E-01  0.30826953601E+01  0.37327524843E+01  0.21000000000E+01 0. -1.
</event>
<event>
 5   0  0.7462600E-02  0.9118800E+02  0.7818608E-02  0.1180000E+00
       11   -1    0    0    0    0  0.00000000000E+00  0.00000000000E+00  0.39999999673E+01  0.40000000000E+01  0.51109989000E-03 0.  1.
     -623   -1    0    0    0    0  0.00000000000E+00  0.00000000000E+00  0.12525980253E-10  0.17130000000E+03  0.17130000000E+03 0. -1.
       11    1    1    2    0    0 -0.14244339559E-01  0.14258835119E-01  0.53630043310E+00  0.53667926302E+00  0.51109989000E-03 0.  1.
     -623    1    1    2    0    0  0.18847414327E+00 -0.41863865825E+00  0.74797794166E+00  0.17130224824E+03  0.17130000000E+03 0. -1.
      622    1    1    2    0    0 -0.17422980371E+00  0.40437982313E+00  0.27157215926E+01  0.34610724977E+01  0.21000000000E+01 0.  1.
</event>
<event>
 5   0  0.7462600E-02  0.9118800E+02  0.7818608E-02  0.1180000E+00
       11   -1    0    0    0    0  0.00000000000E+00  0.00000000000E+00  0.39999999673E+01  0.40000000000E+01  0.51109989000E-03 0. -1.
     -623   -1    0    0    0    0  0.00000000000E+00  0.00000000000E+00  0.12525980253E-10  0.17130000000E+03  0.17130000000E+03 0. -1.
       11    1    1    2    0    0 -0.13593372067E+00  0.23156024802E+00  0.19937608491E+00  0.33443864809E+00  0.51109989000E-03 0. -1.
     -623    1    1    2    0    0  0.17444423553E+00 -0.15227972714E+00  0.80000173489E+00  0.17130202457E+03  0.17130000000E+03 0. -1.
      622    1    1    2    0    0 -0.38510514859E-01 -0.79280520879E-01  0.30006221476E+01  0.36635367793E+01  0.21000000000E+01 0. -1.
</event>
<event>
 5   0  0.7462600E-02  0.9118800E+02  0.7818608E-02  0.1180000E+00
       11   -1    0    0    0    0  0.00000000000E+00  0.00000000000E+00  0.39999999673E+01  0.40000000000E+01  0.51109989000E-03 0.  1.
     -623   -1    0    0    0    0  0.00000000000E+00  0.00000000000E+00  0.12525980253E-10  0.17130000000E+03  0.17130000000E+03 0.  1.
       11    1    1    2    0    0  0.37918054269E-01 -0.10674440633E+00  0.30721330219E+00  0.32743307924E+00  0.51109989000E-03 0.  1.
     -623    1    1    2    0    0 -0.43182174952E+00  0.42675326739E+00  0.72614174681E+00  0.17130261490E+03  0.17130000000E+03 0.  1.
      622    1    1    2    0    0  0.39390369526E+00 -0.32000886107E+00  0.29666449184E+01  0.36699520247E+01  0.21000000000E+01 0.  1.
</event>
<event>
 5   0  0.7462600E-02  0.9118800E+02  0.7818608E-02  0.1180000E+00
       11   -1    0    0    0    0  0.00000000000E+00  0.00000000000E+00  0.39999999673E+01  0.40000000000E+01  0.51109989000E-03 0. -1.
     -623   -1    0    0    0    0  0.00000000000E+00  0.00000000000E+00  0.12525980253E-10  0.17130000000E+03  0.17130000000E+03 0. -1.
       11    1    1    2    0    0 -0.46345474379E+00  0.30947055647E+00  0.42392082928E-01  0.55889146960E+00  0.51109989000E-03 0. -1.
     -623    1    1    2    0    0  0.51263814260E+00  0.11352690793E+00  0.12721159594E+01  0.17130552812E+03  0.17130000000E+03 0. -1.
      622    1    1    2    0    0 -0.49183398803E-01 -0.42299746440E+00  0.26854919250E+01  0.34355804082E+01  0.21000000000E+01 0. -1.
</event>
<event>
 5   0  0.7462600E-02  0.9118800E+02  0.7818608E-02  0.1180000E+00
       11   -1    0    0    0    0  0.00000000000E+00  0.00000000000E+00  0.39999999673E+01  0.40000000000E+01  0.51109989000E-03 0. -1.
     -623   -1    0    0    0    0  0.00000000000E+00  0.00000000000E+00  0.12525980253E-10  0.17130000000E+03  0.17130000000E+03 0. -1.
       11    1    1    2    0    0  0.16747156353E+00  0.19158977028E+00  0.15900341056E+00  0.30005951153E+00  0.51109989000E-03 0. -1.
     -623    1    1    2    0    0  0.41866301445E+00 -0.14706568066E+00  0.85536851659E+00  0.17130271032E+03  0.17130000000E+03 0. -1.
      622    1    1    2    0    0 -0.58613457798E+00 -0.44524089617E-01  0.29856280402E+01  0.36972301704E+01  0.21000000000E+01 0. -1.
</event>
<event>
 5   0  0.7462600E-02  0.9118800E+02  0.7818608E-02  0.1180000E+00
       11   -1    0    0    0    0  0.00000000000E+00  0.00000000000E+00  0.39999999673E+01  0.40000000000E+01  0.51109989000E-03 0. -1.
     -623   -1    0    0    0    0  0.00000000000E+00  0.00000000000E+00  0.12525980253E-10  0.17130000000E+03  0.17130000000E+03 0. -1.
       11    1    1    2    0    0  0.17034908099E+00  0.66434329303E-01  0.10273542706E-01  0.18313420327E+00  0.51109989000E-03 0. -1.
     -623    1    1    2    0    0 -0.16605479033E+00 -0.59407379555E-01  0.80487588182E+00  0.17130198168E+03  0.17130000000E+03 0. -1.
      622    1    1    2    0    0 -0.42942906578E-02 -0.70269497482E-02  0.31848505428E+01  0.38148841135E+01  0.21000000000E+01 0. -1.
</event>
<event>
 5   0  0.7462600E-02  0.9118800E+02  0.7818608E-02  0.1180000E+00
       11   -1    0    0    0    0  0.00000000000E+00  0.00000000000E+00  0.39999999673E+01  0.40000000000E+01  0.51109989000E-03 0. -1.
     -623   -1    0    0    0    0  0.00000000000E+00  0.00000000000E+00  0.12525980253E-10  0.17130000000E+03  0.17130000000E+03 0.  1.
       11    1    1    2    0    0  0.35960186177E-02 -0.46073677810E+00  0.11674607987E+00  0.47531170660E+00  0.51109989000E-03 0. -1.
     -623    1    1    2    0    0 -0.50429175012E+00  0.55766955972E+00  0.11053787661E+01  0.17130521641E+03  0.17130000000E+03 0.  1.
      622    1    1    2    0    0  0.50069573151E+00 -0.96932781624E-01  0.27778751214E+01  0.35194718879E+01  0.21000000000E+01 0. -1.
</event>
<event>
 5   0  0.7462600E-02  0.9118800E+02  0.7818608E-02  0.1180000E+00
       11   -1    0    0    0    0  0.00000000000E+00  0.00000000000E+00  0.39999999673E+01  0.40000000000E+01  0.51109989000E-03 0. -1.
     -623   -1    0    0    0    0  0.00000000000E+00  0.00000000000E+00  0.12525980253E-10  0.17130000000E+03  0.17130000000E+03 0.  1.
       11    1    1    2    0    0  0.10632078321E+00 -0.56887269254E-01 -0.43237193244E-01  0.12810146934E+00  0.51109989000E-03 0. -1.
     -623    1    1    2    0    0 -0.33598386559E+00  0.48452542730E+00  0.83036536155E+00  0.17130302728E+03  0.17130000000E+03 0.  1.
      622    1    1    2    0    0  0.22966308239E+00 -0.42763815805E+00  0.32128717991E+01  0.38688712466E+01  0.21000000000E+01 0. -1.
</event>
<event>
 5   0  0.7462600E-02  0.9118800E+02  0.7818608E-02  0.1180000E+00
       11   -1    0    0    0    0  0.00000000000E+00  0.00000000000E+00  0.39999999673E+01  0.40000000000E+01  0.51109989000E-03 0. -1.
     -623   -1    0    0    0    0  0.00000000000E+00  0.00000000000E+00  0.12525980253E-10  0.17130000000E+03  0.17130000000E+03 0. -1.
       11    1    1    2    0    0 -0.23314595214E+00  0.61309536555E-01  0.52399340007E-01  0.24670193823E+00  0.51109989000E-03 0. -1.
     -623    1    1    2    0    0 -0.59065563882E-01 -0.29907980797E+00  0.86263885900E+00  0.17130244331E+03  0.17130000000E+03 0. -1.
      622    1    1    2    0    0  0.29221151602E+00  0.23777027141E+00  0.30849617683E+01  0.37508547538E+01  0.21000000000E+01 0. -1.
</event>
<event>
 5   0  0.7462600E-02  0.9118800E+02  0.7818608E-02  0.1180000E+00
       11   -1    0    0    0    0  0.00000000000E+00  0.00000000000E+00  0.39999999673E+01  0.40000000000E+01  0.51109989000E-03 0.  1.
     -623   -1    0    0    0    0  0.00000000000E+00  0.00000000000E+00  0.12525980253E-10  0.17130000000E+03  0.17130000000E+03 0. -1.
       11    1    1    2    0    0 -0.10951925971E+00  0.19741960591E-02  0.12579005993E+00  0.16679857943E+00  0.51109989000E-03 0.  1.
     -623    1    1    2    0    0 -0.47137255563E-01 -0.38320581395E+00  0.69625864953E+00  0.17130185009E+03  0.17130000000E+03 0. -1.
      622    1    1    2    0    0  0.15665651528E+00  0.38123161789E+00  0.31779512579E+01  0.38313513292E+01  0.21000000000E+01 0.  1.
</event>
<event>
 5   0  0.7462600E-02  0.9118800E+02  0.7818608E-02  0.1180000E+00
       11   -1    0    0    0    0  0.00000000000E+00  0.00000000000E+00  0.39999999673E+01  0.40000000000E+01  0.51109989000E-03 0. -1.
     -623   -1    0    0    0    0  0.00000000000E+00  0.00000000000E+00  0.12525980253E-10  0.17130000000E+03  0.17130000000E+03 0.  1.
       11    1    1    2    0    0  0.29150700597E-01 -0.34691338792E-01 -0.65619580531E-02  0.45788348398E-01  0.51109989000E-03 0. -1.
     -623    1    1    2    0    0  0.15653393772E+00 -0.21005647754E-02  0.66302398290E+00  0.17130135466E+03  0.17130000000E+03 0.  1.
      622    1    1    2    0    0 -0.18568463832E+00  0.36791903567E-01  0.33435379425E+01  0.39528569924E+01  0.21000000000E+01 0. -1.
</event>
<event>
 5   0  0.7462600E-02  0.9118800E+02  0.7818608E-02  0.1180000E+00
       11   -1    0    0    0    0  0.00000000000E+00  0.00000000000E+00  0.39999999673E+01  0.40000000000E+01  0.51109989000E-03 0.  1.
     -623   -1    0    0    0    0  0.00000000000E+00  0.00000000000E+00  0.12525980253E-10  0.17130000000E+03  0.17130000000E+03 0. -1.
       11    1    1    2    0    0 -0.17502245447E-01 -0.26252491530E+00 -0.56571016385E-01  0.26912116392E+00  0.51109989000E-03 0.  1.
     -623    1    1    2    0    0 -0.27823473190E+00  0.27447750402E+00  0.99109478120E+00  0.17130331293E+03  0.17130000000E+03 0. -1.
      622    1    1    2    0    0  0.29573697734E+00 -0.11952588718E-01  0.30654762025E+01  0.37275659045E+01  0.21000000000E+01 0.  1.
</event>
<event>
 5   0  0.7462600E-02  0.9118800E+02  0.7818608E-02  0.1180000E+00
       11   -1    0    0    0    0  0.00000000000E+00  0.00000000000E+00  0.39999999673E+01  0.40000000000E+01  0.51109989000E-03 0. -1.
     -623   -1    0    0    0    0  0.00000000000E+00  0.00000000000E+00  0.12525980253E-10  0.17130000000E+03  0.17130000000E+03 0.  1.
       11    1    1    2    0    0  0.18453597132E+00  0.12671781212E+00  0.12048787522E+00  0.25422139547E+00  0.51109989000E-03 0. -1.
     -623    1    1    2    0    0 -0.40665176347E+00 -0.12906944709E+00  0.78856658008E+00  0.17130234634E+03  0.17130000000E+03 0.  1.
      622    1    1    2    0    0  0.22211579216E+00  0.23516349677E-02  0.30909455121E+01  0.37434322638E+01  0.21000000000E+01 0. -1.
</event>
<event>
 5   0  0.7462600E-02  0.9118800E+02  0.7818608E-02  0.1180000E+00
       11   -1    0    0    0    0  0.00000000000E+00  0.00000000000E+00  0.39999999673E+01  0.40000000000E+01  0.51109989000E-03 0. -1.
     -623   -1    0    0    0    0  0.00000000000E+00  0.00000000000E+00  0.12525980253E-10  0.17130000000E+03  0.17130000000E+03 0.  1.
       11    1    1    2    0    0  0.20509604805E-01  0.25018874950E+00  0.27216427180E+00  0.37025492074E+00  0.51109989000E-03 0. -1.
     -623    1    1    2    0    0  0.16664669320E+00 -0.18057610673E+00  0.77637362852E+00  0.17130193558E+03  0.17130000000E+03 0.  1.
      622    1    1    2    0    0 -0.18715629801E+00 -0.69612642771E-01  0.29514620670E+01  0.36278094951E+01  0.21000000000E+01 0. -1.
</event>
<event>
 5   0  0.7462600E-02  0.9118800E+02  0.7818608E-02  0.1180000E+00
       11   -1    0    0    0    0  0.00000000000E+00  0.00000000000E+00  0.39999999673E+01  0.40000000000E+01  0.51109989000E-03 0.  1.
     -623   -1    0    0    0    0  0.00000000000E+00  0.00000000000E+00  0.12525980253E-10  0.17130000000E+03  0.17130000000E+03 0. -1.
       11    1    1    2    0    0  0.12880258348E+00  0.18841320119E+00 -0.16333408602E+00  0.28065623951E+00  0.51109989000E-03 0.  1.
     -623    1    1    2    0    0 -0.10815106513E+00  0.15109169683E+00  0.11170246401E+01  0.17130374272E+03  0.17130000000E+03 0. -1.
      622    1    1    2    0    0 -0.20651518349E-01 -0.33950489802E+00  0.30463094133E+01  0.37156010419E+01  0.21000000000E+01 0.  1.
</event>
<event>
 5   0  0.7462600E-02  0.9118800E+02  0.7818608E-02  0.1180000E+00
       11   -1    0    0    0    0  0.00000000000E+00  0.00000000000E+00  0.39999999673E+01  0.40000000000E+01  0.51109989000E-03 0.  1.
     -623   -1    0    0    0    0  0.00000000000E+00  0.00000000000E+00  0.12525980253E-10  0.17130000000E+03  0.17130000000E+03 0.  1.
       11    1    1    2    0    0 -0.97031437896E-01 -0.10381292761E+00  0.38916987455E-01  0.14733301400E+00  0.51109989000E-03 0.  1.
     -623    1    1    2    0    0 -0.15292385790E-01  0.21304163561E+00  0.73691504646E+00  0.17130171822E+03  0.17130000000E+03 0.  1.
      622    1    1    2    0    0  0.11232382369E+00 -0.10922870800E+00  0.32241679334E+01  0.38509487682E+01  0.21000000000E+01 0.  1.
</event>
<event>
 5   0  0.7462600E-02  0.9118800E+02  0.7818608E-02  0.1180000E+00
       11   -1    0    0    0    0  0.00000000000E+00  0.00000000000E+00  0.39999999673E+01  0.40000000000E+01  0.51109989000E-03 0. -1.
     -623   -1    0    0    0    0  0.00000000000E+00  0.00000000000E+00  0.12525980253E-10  0.17130000000E+03  0.17130000000E+03 0.  1.
       11    1    1    2    0    0  0.18429988855E+00 -0.68337184511E-01  0.54439244438E-01  0.20396154605E+00  0.51109989000E-03 0. -1.
     -623    1    1    2    0    0 -0.40570627685E+00 -0.39356265589E+00  0.82863134762E+00  0.17130293669E+03  0.17130000000E+03 0.  1.
      622    1    1    2    0    0  0.22140638830E+00  0.46189984040E+00  0.31169293753E+01  0.37931017627E+01  0.21000000000E+01 0. -1.
</event>
<event>
 5   0  0.7462600E-02  0.9118800E+02  0.7818608E-02  0.1180000E+00
       11   -1    0    0    0    0  0.00000000000E+00  0.00000000000E+00  0.39999999673E+01  0.40000000000E+01  0.51109989000E-03 0.  1.
     -623   -1    0    0    0    0  0.00000000000E+00  0.00000000000E+00  0.12525980253E-10  0.17130000000E+03  0.17130000000E+03 0.  1.
       11    1    1    2    0    0 -0.27842565266E+00 -0.18617284541E+00  0.14716543667E+00  0.36584026487E+00  0.51109989000E-03 0.  1.
     -623    1    1    2    0    0  0.14401242993E+00  0.10947513119E-01  0.89804181865E+00  0.17130241486E+03  0.17130000000E+03 0.  1.
      622    1    1    2    0    0  0.13441322273E+00  0.17522533230E+00  0.29547927120E+01  0.36317448703E+01  0.21000000000E+01 0.  1.
</event>
<event>
 5   0  0.7462600E-02  0.9118800E+02  0.7818608E-02  0.1180000E+00
       11   -1    0    0    0    0  0.00000000000E+00  0.00000000000E+00  0.39999999673E+01  0.40000000000E+01  0.51109989000E-03 0.  1.
     -623   -1    0    0    0    0  0.00000000000E+00  0.00000000000E+00  0.12525980253E-10  0.17130000000E+03  0.17130000000E+03 0. -1.
       11    1    1    2    0    0  0.53036192412E-01 -0.64626401899E-01 -0.80765711355E-01  0.11624444452E+00  0.51109989000E-03 0.  1.
     -623    1    1    2    0    0  0.30945925617E+00  0.23860011101E-01  0.83693572799E+00  0.17130232572E+03  0.17130000000E+03 0. -1.
      622    1    1    2    0    0 -0.36249544858E+00  0.40766390798E-01  0.32438299507E+01  0.38814298394E+01  0.21000000000E+01 0.  1.
</event>
<event>
 5   0  0.7462600E-02  0.9118800E+02  0.7818608E-02  0.1180000E+00
       11   -1    0    0    0    0  0.00000000000E+00  0.00000000000E+00  0.39999999673E+01  0.40000000000E+01  0.51109989000E-03 0. -1.
     -623   -1    0    0    0    0  0.00000000000E+00  0.00000000000E+00  0.12525980253E-10  0.17130000000E+03  0.17130000000E+03 0. -1.
       11    1    1    2    0    0  0.11847952851E+00 -0.71603619149E-01  0.16382762240E-02  0.13844645941E+00  0.51109989000E-03 0. -1.
     -623    1    1    2    0    0 -0.47455492509E+00  0.12279821274E+00  0.78074866290E+00  0.17130248057E+03  0.17130000000E+03 0. -1.
      622    1    1    2    0    0  0.35607539658E+00 -0.51194593587E-01  0.32176130282E+01  0.38590729682E+01  0.21000000000E+01 0. -1.
</event>
<event>
 5   0  0.7462600E-02  0.9118800E+02  0.7818608E-02  0.1180000E+00
       11   -1    0    0    0    0  0.00000000000E+00  0.00000000000E+00  0.39999999673E+01  0.40000000000E+01  0.51109989000E-03 0.  1.
     -623   -1    0    0    0    0  0.00000000000E+00  0.00000000000E+00  0.12525980253E-10  0.17130000000E+03  0.17130000000E+03 0.  1.
       11    1    1    2    0    0  0.64740287675E-01  0.41263743234E-01 -0.41482872672E-02  0.76886090187E-01  0.51109989000E-03 0.  1.
     -623    1    1    2    0    0  0.11663050338E+00  0.29693126289E+00  0.71484421556E+00  0.17130178859E+03  0.17130000000E+03 0.  1.
      622    1    1    2    0    0 -0.18137079105E+00 -0.33819500613E+00  0.32893040391E+01  0.39213253228E+01  0.21000000000E+01 0.  1.
</event>
<event>
 5   0  0.7462600E-02  0.9118800E+02  0.7818608E-02  0.1180000E+00
       11   -1    0    0    0    0  0.00000000000E+00  0.00000000000E+00  0.39999999673E+01  0.40000000000E+01  0.51109989000E-03 0.  1.
     -623   -1    0    0    0    0  0.00000000000E+00  0.00000000000E+00  0.12525980253E-10  0.17130000000E+03  0.17130000000E+03 0.  1.
       11    1    1    2    0    0  0.25683203256E-01  0.19587799541E+00 -0.66889742458E-01  0.20857208558E+00  0.51109989000E-03 0.  1.
     -623    1    1    2    0    0 -0.55020426262E+00 -0.30254510600E+00  0.96055866925E+00  0.17130384389E+03  0.17130000000E+03 0.  1.
      622    1    1    2    0    0  0.52452105937E+00  0.10666711059E+00  0.31063310406E+01  0.37875840252E+01  0.21000000000E+01 0.  1.
</event>
<event>
 5   0  0.7462600E-02  0.9118800E+02  0.7818608E-02  0.1180000E+00
       11   -1    0    0    0    0  0.00000000000E+00  0.00000000000E+00  0.39999999673E+01  0.40000000000E+01  0.51109989000E-03 0.  1.
     -623   -1    0    0    0    0  0.00000000000E+00  0.00000000000E+00  0.12525980253E-10  0.17130000000E+03  0.17130000000E+03 0.  1.
       11    1    1    2    0    0  0.24976690191E+00 -0.32299253953E+00  0.41291303834E+00  0.58069365791E+00  0.51109989000E-03 0.  1.
     -623    1    1    2    0    0 -0.15767804945E+00 -0.94450458136E-01  0.92604734967E+00  0.17130260169E+03  0.17130000000E+03 0.  1.
      622    1    1    2    0    0 -0.92088852459E-01  0.41744299767E+00  0.26610395793E+01  0.34167046486E+01  0.21000000000E+01 0.  1.
</event>
<event>
 5   0  0.7462600E-02  0.9118800E+02  0.7818608E-02  0.1180000E+00
       11   -1    0    0    0    0  0.00000000000E+00  0.00000000000E+00  0.39999999673E+01  0.40000000000E+01  0.51109989000E-03 0. -1.
     -623   -1    0    0    0    0  0.00000000000E+00  0.00000000000E+00  0.12525980253E-10  0.17130000000E+03  0.17130000000E+03 0. -1.
       11    1    1    2    0    0 -0.29737945981E-01 -0.59223203946E-02 -0.54530051065E-02  0.30812591547E-01  0.51109989000E-03 0. -1.
     -623    1    1    2    0    0  0.10046961421E+00 -0.19942379055E+00  0.64592057131E+00  0.17130136333E+03  0.17130000000E+03 0. -1.
      622    1    1    2    0    0 -0.70731668234E-01  0.20534611095E+00  0.33595324012E+01  0.39678240824E+01  0.21000000000E+01 0. -1.
</event>
<event>
 5   0  0.7462600E-02  0.9118800E+02  0.7818608E-02  0.1180000E+00
       11   -1    0    0    0    0  0.00000000000E+00  0.00000000000E+00  0.39999999673E+01  0.40000000000E+01  0.51109989000E-03 0. -1.
     -623   -1    0    0    0    0  0.00000000000E+00  0.00000000000E+00  0.12525980253E-10  0.17130000000E+03  0.17130000000E+03 0. -1.
       11    1    1    2    0    0  0.20942096038E+00  0.25613758264E+00  0.17865955501E+00  0.37600943832E+00  0.51109989000E-03 0. -1.
     -623    1    1    2    0    0 -0.72083070295E-02 -0.32312464264E+00  0.87865557647E+00  0.17130255835E+03  0.17130000000E+03 0. -1.
      622    1    1    2    0    0 -0.20221265335E+00  0.66987059992E-01  0.29426848359E+01  0.36214322121E+01  0.21000000000E+01 0. -1.
</event>
<event>
 5   0  0.7462600E-02  0.9118800E+02  0.7818608E-02  0.1180000E+00
       11   -1    0    0    0    0  0.00000000000E+00  0.00000000000E+00  0.39999999673E+01  0.40000000000E+01  0.51109989000E-03 0. -1.
     -623   -1    0    0    0    0  0.00000000000E+00  0.00000000000E+00  0.12525980253E-10  0.17130000000E+03  0.17130000000E+03 0. -1.
       11    1    1    2    0    0 -0.24193632138E+00  0.24831474257E-01  0.58854936469E-01  0.25022779719E+00  0.51109989000E-03 0. -1.
     -623    1    1    2    0    0  0.14008160557E+00 -0.87417877887E-01  0.83945478752E+00  0.17130213644E+03  0.17130000000E+03 0. -1.
      622    1    1    2    0    0  0.10185471581E+00  0.62586403630E-01  0.31016902434E+01  0.37476357623E+01  0.21000000000E+01 0. -1.
</event>
<event>
 5   0  0.7462600E-02  0.9118800E+02  0.7818608E-02  0.1180000E+00
       11   -1    0    0    0    0  0.00000000000E+00  0.00000000000E+00  0.39999999673E+01  0.40000000000E+01  0.51109989000E-03 0.  1.
     -623   -1    0    0    0    0  0.00000000000E+00  0.00000000000E+00  0.12525980253E-10  0.17130000000E+03  0.17130000000E+03 0.  1.
       11    1    1    2    0    0 -0.55870631118E+00  0.82137867612E-01  0.52337143032E+00  0.76994628822E+00  0.51109989000E-03 0.  1.
     -623    1    1    2    0    0  0.55689925971E+00  0.42887459009E+00  0.10827378953E+01  0.17130486389E+03  0.17130000000E+03 0.  1.
      622    1    1    2    0    0  0.18070514690E-02 -0.51101245770E+00  0.23938906417E+01  0.32251898242E+01  0.21000000000E+01 0.  1.
</event>
<event>
 5   0  0.7462600E-02  0.9118800E+02  0.7818608E-02  0.1180000E+00
       11   -1    0    0    0    0  0.00000000000E+00  0.00000000000E+00  0.39999999673E+01  0.40000000000E+01  0.51109989000E-03 0.  1.
     -623   -1    0    0    0    0  0.00000000000E+00  0.00000000000E+00  0.12525980253E-10  0.17130000000E+03  0.17130000000E+03 0. -1.
       11    1    1    2    0    0 -0.14181908142E+00 -0.38867852867E-01  0.26054425826E+00  0.29917709400E+00  0.51109989000E-03 0.  1.
     -623    1    1    2    0    0  0.18736639336E-01 -0.58448578571E-01  0.69793183944E+00  0.17130143279E+03  0.17130000000E+03 0. -1.
      622    1    1    2    0    0  0.12308244208E+00  0.97316431437E-01  0.30415238697E+01  0.36993901153E+01  0.21000000000E+01 0.  1.
</event>
<event>
 5   0  0.7462600E-02  0.9118800E+02  0.7818608E-02  0.1180000E+00
       11   -1    0    0    0    0  0.00000000000E+00  0.00000000000E+00  0.39999999673E+01  0.40000000000E+01  0.51109989000E-03 0.  1.
     -623   -1    0    0    0    0  0.00000000000E+00  0.00000000000E+00  0.12525980253E-10  0.17130000000E+03  0.17130000000E+03 0.  1.
       11    1    1    2    0    0  0.15248915740E+00  0.46128004197E+00  0.32988816337E+00  0.58724669586E+00  0.51109989000E-03 0.  1.
     -623    1    1    2    0    0  0.26721055177E+00 -0.23550732119E+00  0.10269627176E+01  0.17130344864E+03  0.17130000000E+03 0.  1.
      622    1    1    2    0    0 -0.41969970918E+00 -0.22577272078E+00  0.26431490864E+01  0.34093046593E+01  0.21000000000E+01 0.  0.
</event>
<event>
 5   0  0.7462600E-02  0.9118800E+02  0.7818608E-02  0.1180000E+00
       11   -1    0    0    0    0  0.00000000000E+00  0.00000000000E+00  0.39999999673E+01  0.40000000000E+01  0.51109989000E-03 0.  1.
     -623   -1    0    0    0    0  0.00000000000E+00  0.00000000000E+00  0.12525980253E-10  0.17130000000E+03  0.17130000000E+03 0. -1.
       11    1    1    2    0    0  0.49790928794E+00 -0.58779255193E+00  0.31441237312E+00  0.83202712980E+00  0.51109989000E-03 0.  1.
     -623    1    1    2    0    0 -0.21572925471E-01  0.24419228317E+00  0.13956099696E+01  0.17130586044E+03  0.17130000000E+03 0. -1.
      622    1    1    2    0    0 -0.47633636247E+00  0.34360026876E+00  0.22899776246E+01  0.31621124262E+01  0.21000000000E+01 0.  1.
</event>
<event>
 5   0  0.7462600E-02  0.9118800E+02  0.7818608E-02  0.1180000E+00
       11   -1    0    0    0    0  0.00000000000E+00  0.00000000000E+00  0.39999999673E+01  0.40000000000E+01  0.51109989000E-03 0.  1.
     -623   -1    0    0    0    0  0.00000000000E+00  0.00000000000E+00  0.12525980253E-10  0.17130000000E+03  0.17130000000E+03 0. -1.
       11    1    1    2    0    0 -0.14515286355E-01  0.87195364463E-01  0.20026066789E-01  0.90636801002E-01  0.51109989000E-03 0.  1.
     -623    1    1    2    0    0 -0.83951038775E-01  0.30430558835E-01  0.68776887776E+00  0.17130140396E+03  0.17130000000E+03 0. -1.
      622    1    1    2    0    0  0.98466325130E-01 -0.11762592330E+00  0.32922050228E+01  0.39079592356E+01  0.21000000000E+01 0.  1.
</event>
<event>
 5   0  0.7462600E-02  0.9118800E+02  0.7818608E-02  0.1180000E+00
       11   -1    0    0    0    0  0.00000000000E+00  0.00000000000E+00  0.39999999673E+01  0.40000000000E+01  0.51109989000E-03 0.  1.
     -623   -1    0    0    0    0  0.00000000000E+00  0.00000000000E+00  0.12525980253E-10  0.17130000000E+03  0.17130000000E+03 0.  1.
       11    1    1    2    0    0  0.31057445981E+00 -0.48854136044E+00  0.10426249450E+00  0.58821771899E+00  0.51109989000E-03 0.  1.
     -623    1    1    2    0    0 -0.24034139029E-01 -0.12648670270E+00  0.13003743928E+01  0.17130498402E+03  0.17130000000E+03 0.  1.
      622    1    1    2    0    0 -0.28654032078E+00  0.61502806314E+00  0.25953630801E+01  0.34067982610E+01  0.21000000000E+01 0.  1.
</event>
<event>
 5   0  0.7462600E-02  0.9118800E+02  0.7818608E-02  0.1180000E+00
       11   -1    0    0    0    0  0.00000000000E+00  0.00000000000E+00  0.39999999673E+01  0.40000000000E+01  0.51109989000E-03 0.  1.
     -623   -1    0    0    0    0  0.00000000000E+00  0.00000000000E+00  0.12525980253E-10  0.17130000000E+03  0.17130000000E+03 0.  1.
       11    1    1    2    0    0 -0.13441476570E+00  0.29500955656E+00  0.20307253509E+00  0.38253978019E+00  0.51109989000E-03 0.  1.
     -623    1    1    2    0    0  0.61079337020E-01 -0.54009640146E+00  0.86631408628E+00  0.17130305291E+03  0.17130000000E+03 0.  1.
      622    1    1    2    0    0  0.73335428681E-01  0.24508684490E+00  0.29306133460E+01  0.36144073138E+01  0.21000000000E+01 0.  1.
</event>
<event>
 5   0  0.7462600E-02  0.9118800E+02  0.7818608E-02  0.1180000E+00
       11   -1    0    0    0    0  0.00000000000E+00  0.00000000000E+00  0.39999999673E+01  0.40000000000E+01  0.51109989000E-03 0.  1.
     -623   -1    0    0    0    0  0.00000000000E+00  0.00000000000E+00  0.12525980253E-10  0.17130000000E+03  0.17130000000E+03 0.  1.
       11    1    1    2    0    0  0.13741867859E+00  0.46549236019E-01  0.19793648631E+00  0.24541768158E+00  0.51109989000E-03 0.  1.
     -623    1    1    2    0    0  0.17122085472E-01 -0.62017965937E-02  0.69549458655E+00  0.17130141285E+03  0.17130000000E+03 0.  1.
      622    1    1    2    0    0 -0.15454076406E+00 -0.40347439426E-01  0.31065688945E+01  0.37531694686E+01  0.21000000000E+01 0.  1.
</event>
<event>
 5   0  0.7462600E-02  0.9118800E+02  0.7818608E-02  0.1180000E+00
       11   -1    0    0    0    0  0.00000000000E+00  0.00000000000E+00  0.39999999673E+01  0.40000000000E+01  0.51109989000E-03 0.  1.
     -623   -1    0    0    0    0  0.00000000000E+00  0.00000000000E+00  0.12525980253E-10  0.17130000000E+03  0.17130000000E+03 0. -1.
       11    1    1    2    0    0  0.28196548652E-01  0.10849133450E+00  0.95642723365E-01  0.14735401852E+00  0.51109989000E-03 0.  1.
     -623    1    1    2    0    0  0.15404707042E-01 -0.37395861068E-01  0.67703929100E+00  0.17130134272E+03  0.17130000000E+03 0. -1.
      622    1    1    2    0    0 -0.43601255694E-01 -0.71095473435E-01  0.32273179530E+01  0.38513032607E+01  0.21000000000E+01 0.  1.
</event>
<event>
 5   0  0.7462600E-02  0.9118800E+02  0.7818608E-02  0.1180000E+00
       11   -1    0    0    0    0  0.00000000000E+00  0.00000000000E+00  0.39999999673E+01  0.40000000000E+01  0.51109989000E-03 0.  1.
     -623   -1    0    0    0    0  0.00000000000E+00  0.00000000000E+00  0.12525980253E-10  0.17130000000E+03  0.17130000000E+03 0.  1.
       11    1    1    2    0    0 -0.14871696140E+00  0.20064285756E-01  0.20258174096E+00  0.25210897082E+00  0.51109989000E-03 0.  1.
     -623    1    1    2    0    0  0.12680269040E+00 -0.32625467994E+00  0.71055401280E+00  0.17130183130E+03  0.17130000000E+03 0.  1.
      622    1    1    2    0    0  0.21914270996E-01  0.30619039418E+00  0.30868642136E+01  0.37460597254E+01  0.21000000000E+01 0.  1.
</event>
<event>
 5   0  0.7462600E-02  0.9118800E+02  0.7818608E-02  0.1180000E+00
       11   -1    0    0    0    0  0.00000000000E+00  0.00000000000E+00  0.39999999673E+01  0.40000000000E+01  0.51109989000E-03 0.  1.
     -623   -1    0    0    0    0  0.00000000000E+00  0.00000000000E+00  0.12525980253E-10  0.17130000000E+03  0.17130000000E+03 0.  1.
       11    1    1    2    0    0  0.16189511866E+00  0.81296684030E+00  0.99888028099E-01  0.83492693827E+00  0.51109989000E-03 0.  1.
     -623    1    1    2    0    0  0.12685965234E+00 -0.55908037489E+00  0.15745936609E+01  0.17130819598E+03  0.17130000000E+03 0.  1.
      622    1    1    2    0    0 -0.28875477100E+00 -0.25388646541E+00  0.23255182784E+01  0.31568770832E+01  0.21000000000E+01 0.  1.
</event>
<event>
 5   0  0.7462600E-02  0.9118800E+02  0.7818608E-02  0.1180000E+00
       11   -1    0    0    0    0  0.00000000000E+00  0.00000000000E+00  0.39999999673E+01  0.40000000000E+01  0.51109989000E-03 0. -1.
     -623   -1    0    0    0    0  0.00000000000E+00  0.00000000000E+00  0.12525980253E-10  0.17130000000E+03  0.17130000000E+03 0.  1.
       11    1    1    2    0    0 -0.17243617455E+00 -0.75605657012E+00  0.60843146688E-01  0.77785469160E+00  0.51109989000E-03 0. -1.
     -623    1    1    2    0    0 -0.37610727742E+00  0.57106261337E+00  0.15766110538E+01  0.17130861996E+03  0.17130000000E+03 0.  1.
      622    1    1    2    0    0  0.54854345197E+00  0.18499395675E+00  0.23625457669E+01  0.32135253513E+01  0.21000000000E+01 0.  0.
</event>
<event>
 5   0  0.7462600E-02  0.9118800E+02  0.7818608E-02  0.1180000E+00
       11   -1    0    0    0    0  0.00000000000E+00  0.00000000000E+00  0.39999999673E+01  0.40000000000E+01  0.51109989000E-03 0.  1.
     -623   -1    0    0    0    0  0.00000000000E+00  0.00000000000E+00  0.12525980253E-10  0.17130000000E+03  0.17130000000E+03 0.  1.
       11    1    1    2    0    0  0.26554356247E+00  0.11459622247E+00  0.17401945239E+00  0.33753327067E+00  0.51109989000E-03 0.  1.
     -623    1    1    2    0    0 -0.33744291301E+00 -0.26517629113E+00  0.83314799536E+00  0.17130256368E+03  0.17130000000E+03 0.  1.
      622    1    1    2    0    0  0.71899350539E-01  0.15058006866E+00  0.29928325196E+01  0.36599030539E+01  0.21000000000E+01 0.  1.
</event>
<event>
 5   0  0.7462600E-02  0.9118800E+02  0.7818608E-02  0.1180000E+00
       11   -1    0    0    0    0  0.00000000000E+00  0.00000000000E+00  0.39999999673E+01  0.40000000000E+01  0.51109989000E-03 0.  1.
     -623   -1    0    0    0    0  0.00000000000E+00  0.00000000000E+00  0.12525980253E-10  0.17130000000E+03  0.17130000000E+03 0. -1.
       11    1    1    2    0    0 -0.43744287056E-01 -0.42104411695E-01 -0.10144014652E+00  0.11822313092E+00  0.51109989000E-03 0.  1.
     -623    1    1    2    0    0  0.56780029618E-01 -0.64423209343E-01  0.84099788288E+00  0.17130208595E+03  0.17130000000E+03 0. -1.
      622    1    1    2    0    0 -0.13035742562E-01  0.10652762104E+00  0.32604422310E+01  0.38796909163E+01  0.21000000000E+01 0.  1.
</event>
<event>
 5   0  0.7462600E-02  0.9118800E+02  0.7818608E-02  0.1180000E+00
       11   -1    0    0    0    0  0.00000000000E+00  0.00000000000E+00  0.39999999673E+01  0.40000000000E+01  0.51109989000E-03 0.  1.
     -623   -1    0    0    0    0  0.00000000000E+00  0.00000000000E+00  0.12525980253E-10  0.17130000000E+03  0.17130000000E+03 0. -1.
       11    1    1    2    0    0 -0.14585049916E+00 -0.53027077497E-01  0.29781508256E-01  0.15802353784E+00  0.51109989000E-03 0.  1.
     -623    1    1    2    0    0  0.15678298464E-01  0.27138983261E-01  0.75770034192E+00  0.17130167860E+03  0.17130000000E+03 0. -1.
      622    1    1    2    0    0  0.13017220070E+00  0.25888094237E-01  0.32125181172E+01  0.38402978593E+01  0.21000000000E+01 0.  1.
</event>
<event>
 5   0  0.7462600E-02  0.9118800E+02  0.7818608E-02  0.1180000E+00
       11   -1    0    0    0    0  0.00000000000E+00  0.00000000000E+00  0.39999999673E+01  0.40000000000E+01  0.51109989000E-03 0. -1.
     -623   -1    0    0    0    0  0.00000000000E+00  0.00000000000E+00  0.12525980253E-10  0.17130000000E+03  0.17130000000E+03 0.  1.
       11    1    1    2    0    0 -0.42705831536E+00  0.27882526015E-01  0.76870608311E+00  0.87980994733E+00  0.51109989000E-03 0. -1.
     -623    1    1    2    0    0  0.37937996570E+00 -0.26570527605E+00  0.94071823509E+00  0.17130320919E+03  0.17130000000E+03 0.  1.
      622    1    1    2    0    0  0.47678349664E-01  0.23782275004E+00  0.22905756492E+01  0.31169808613E+01  0.21000000000E+01 0. -1.
</event>
<event>
 5   0  0.7462600E-02  0.9118800E+02  0.7818608E-02  0.1180000E+00
       11   -1    0    0    0    0  0.00000000000E+00  0.00000000000E+00  0.39999999673E+01  0.40000000000E+01  0.51109989000E-03 0. -1.
     -623   -1    0    0    0    0  0.00000000000E+00  0.00000000000E+00  0.12525980253E-10  0.17130000000E+03  0.17130000000E+03 0. -1.
       11    1    1    2    0    0 -0.13534540518E+00  0.28858969782E-02  0.78864854632E+00  0.80018341519E+00  0.51109989000E-03 0. -1.
     -623    1    1    2    0    0  0.20041781760E+00  0.13436401181E+00  0.80457370792E+00  0.17130205942E+03  0.17130000000E+03 0. -1.
      622    1    1    2    0    0 -0.65072412417E-01 -0.13724990878E+00  0.24067777131E+01  0.31977571698E+01  0.21000000000E+01 0. -1.
</event>
<event>
 5   0  0.7462600E-02  0.9118800E+02  0.7818608E-02  0.1180000E+00
       11   -1    0    0    0    0  0.00000000000E+00  0.00000000000E+00  0.39999999673E+01  0.40000000000E+01  0.51109989000E-03 0.  1.
     -623   -1    0    0    0    0  0.00000000000E+00  0.00000000000E+00  0.12525980253E-10  0.17130000000E+03  0.17130000000E+03 0. -1.
       11    1    1    2    0    0 -0.93153742783E-01  0.14433796031E+00  0.67922095531E-02  0.17192283709E+00  0.51109989000E-03 0.  1.
     -623    1    1    2    0    0  0.62701940142E+00  0.16202694808E+00  0.85640176980E+00  0.17130336491E+03  0.17130000000E+03 0. -1.
      622    1    1    2    0    0 -0.53386565864E+00 -0.30636490838E+00  0.31368059880E+01  0.38247122513E+01  0.21000000000E+01 0.  1.
</event>
<event>
 5   0  0.7462600E-02  0.9118800E+02  0.7818608E-02  0.1180000E+00
       11   -1    0    0    0    0  0.00000000000E+00  0.00000000000E+00  0.39999999673E+01  0.40000000000E+01  0.51109989000E-03 0.  1.
     -623   -1    0    0    0    0  0.00000000000E+00  0.00000000000E+00  0.12525980253E-10  0.17130000000E+03  0.17130000000E+03 0. -1.
       11    1    1    2    0    0 -0.67026975617E-01  0.17741146625E-01  0.53839304612E-01  0.87785509547E-01  0.51109989000E-03 0.  1.
     -623    1    1    2    0    0  0.62949672847E-01 -0.71979291433E-01  0.64726868280E+00  0.17130124956E+03  0.17130000000E+03 0. -1.
      622    1    1    2    0    0  0.40773027696E-02  0.54238144808E-01  0.32988919800E+01  0.39109649316E+01  0.21000000000E+01 0.  1.
</event>
<event>
 5   0  0.7462600E-02  0.9118800E+02  0.7818608E-02  0.1180000E+00
       11   -1    0    0    0    0  0.00000000000E+00  0.00000000000E+00  0.39999999673E+01  0.40000000000E+01  0.51109989000E-03 0. -1.
     -623   -1    0    0    0    0  0.00000000000E+00  0.00000000000E+00  0.12525980253E-10  0.17130000000E+03  0.17130000000E+03 0. -1.
       11    1    1    2    0    0  0.60589522502E-01 -0.94228239152E-01  0.19543397785E+00  0.22526595883E+00  0.51109989000E-03 0. -1.
     -623    1    1    2    0    0 -0.35078793032E+00 -0.20676574082E+00  0.69821570263E+00  0.17130190691E+03  0.17130000000E+03 0. -1.
      622    1    1    2    0    0  0.29019840781E+00  0.30099397997E+00  0.31063502869E+01  0.37728271358E+01  0.21000000000E+01 0. -1.
</event>
<event>
 5   0  0.7462600E-02  0.9118800E+02  0.7818608E-02  0.1180000E+00
       11   -1    0    0    0    0  0.00000000000E+00  0.00000000000E+00  0.39999999673E+01  0.40000000000E+01  0.51109989000E-03 0.  1.
     -623   -1    0    0    0    0  0.00000000000E+00  0.00000000000E+00  0.12525980253E-10  0.17130000000E+03  0.17130000000E+03 0. -1.
       11    1    1    2    0    0 -0.93085745632E-01  0.64087859445E-01 -0.16135448308E+00  0.19699680251E+00  0.51109989000E-03 0.  1.
     -623    1    1    2    0    0  0.11885068666E+00  0.11469944885E+00  0.99948313825E+00  0.17130299544E+03  0.17130000000E+03 0. -1.
      622    1    1    2    0    0 -0.25764941031E-01 -0.17878730830E+00  0.31618713122E+01  0.38000077538E+01  0.21000000000E+01 0.  1.
</event>
<event>
 5   0  0.7462600E-02  0.9118800E+02  0.7818608E-02  0.1180000E+00
       11   -1    0    0    0    0  0.00000000000E+00  0.00000000000E+00  0.39999999673E+01  0.40000000000E+01  0.51109989000E-03 0.  1.
     -623   -1    0    0    0    0  0.00000000000E+00  0.00000000000E+00  0.12525980253E-10  0.17130000000E+03  0.17130000000E+03 0.  1.
       11    1    1    2    0    0  0.72040717948E-01  0.27582717306E+00  0.45939580579E+00  0.54066187404E+00  0.51109989000E-03 0.  1.
     -623    1    1    2    0    0 -0.19910548489E+00 -0.39235309595E+00  0.80008121303E+00  0.17130243347E+03  0.17130000000E+03 0.  1.
      622    1    1    2    0    0  0.12706476694E+00  0.11652592289E+00  0.27405229485E+01  0.34569046526E+01  0.21000000000E+01 0.  1.
</event>
<event>
 5   0  0.7462600E-02  0.9118800E+02  0.7818608E-02  0.1180000E+00
       11   -1    0    0    0    0  0.00000000000E+00  0.00000000000E+00  0.39999999673E+01  0.40000000000E+01  0.51109989000E-03 0.  1.
     -623   -1    0    0    0    0  0.00000000000E+00  0.00000000000E+00  0.12525980253E-10  0.17130000000E+03  0.17130000000E+03 0. -1.
       11    1    1    2    0    0  0.47127948375E-01  0.12070540209E+00  0.56159020205E-01  0.14122653570E+00  0.51109989000E-03 0.  1.
     -623    1    1    2    0    0 -0.18385816760E+00  0.10767135585E-01  0.71399462671E+00  0.17130158700E+03  0.17130000000E+03 0. -1.
      622    1    1    2    0    0  0.13673021923E+00 -0.13147253767E+00  0.32298463204E+01  0.38571864662E+01  0.21000000000E+01 0.  1.
</event>
<event>
 5   0  0.7462600E-02  0.9118800E+02  0.7818608E-02  0.1180000E+00
       11   -1    0    0    0    0  0.00000000000E+00  0.00000000000E+00  0.39999999673E+01  0.40000000000E+01  0.51109989000E-03 0. -1.
     -623   -1    0    0    0    0  0.00000000000E+00  0.00000000000E+00  0.12525980253E-10  0.17130000000E+03  0.17130000000E+03 0.  1.
       11    1    1    2    0    0 -0.14266775368E+00 -0.11429932312E+00  0.16921063400E+00  0.24910022699E+00  0.51109989000E-03 0. -1.
     -623    1    1    2    0    0  0.57152667065E+00  0.35472690758E+00  0.76569756065E+00  0.17130303198E+03  0.17130000000E+03 0.  1.
      622    1    1    2    0    0 -0.42885891696E+00 -0.24042758446E+00  0.30650917727E+01  0.37478677897E+01  0.21000000000E+01 0. -1.
</event>
<event>
 5   0  0.7462600E-02  0.9118800E+02  0.7818608E-02  0.1180000E+00
       11   -1    0    0    0    0  0.00000000000E+00  0.00000000000E+00  0.39999999673E+01  0.40000000000E+01  0.51109989000E-03 0. -1.
     -623   -1    0    0    0    0  0.00000000000E+00  0.00000000000E+00  0.12525980253E-10  0.17130000000E+03  0.17130000000E+03 0.  1.
       11    1    1    2    0    0 -0.79090632052E-01 -0.14015095672E+00  0.57027782883E+00  0.59254930767E+00  0.51109989000E-03 0. -1.
     -623    1    1    2    0    0  0.13136717424E+00  0.31048062548E+00  0.75476668592E+00  0.17130199453E+03  0.17130000000E+03 0.  1.
      622    1    1    2    0    0 -0.52276542185E-01 -0.17032966876E+00  0.26749554526E+01  0.34054561671E+01  0.21000000000E+01 0. -1.
</event>
<event>
 5   0  0.7462600E-02  0.9118800E+02  0.7818608E-02  0.1180000E+00
       11   -1    0    0    0    0  0.00000000000E+00  0.00000000000E+00  0.39999999673E+01  0.40000000000E+01  0.51109989000E-03 0.  1.
     -623   -1    0    0    0    0  0.00000000000E+00  0.00000000000E+00  0.12525980253E-10  0.17130000000E+03  0.17130000000E+03 0.  1.
       11    1    1    2    0    0  0.67498421150E-01  0.14401185994E-01  0.64712421982E-01  0.94611784656E-01  0.51109989000E-03 0.  1.
     -623    1    1    2    0    0 -0.33573765236E+00 -0.15355420959E+00  0.65843652044E+00  0.17130166326E+03  0.17130000000E+03 0.  1.
      622    1    1    2    0    0  0.26823923121E+00  0.13915302360E+00  0.32768510249E+01  0.39037249505E+01  0.21000000000E+01 0.  1.
</event>
<event>
 5   0  0.7462600E-02  0.9118800E+02  0.7818608E-02  0.1180000E+00
       11   -1    0    0    0    0  0.00000000000E+00  0.00000000000E+00  0.39999999673E+01  0.40000000000E+01  0.51109989000E-03 0.  1.
     -623   -1    0    0    0    0  0.00000000000E+00  0.00000000000E+00  0.12525980253E-10  0.17130000000E+03  0.17130000000E+03 0.  1.
       11    1    1    2    0    0  0.16659785806E+00 -0.43868262451E-01 -0.80400542386E-01  0.19011517351E+00  0.51109989000E-03 0.  1.
     -623    1    1    2    0    0 -0.75997037445E-01 -0.21219738903E+00  0.91628162387E+00  0.17130259886E+03  0.17130000000E+03 0.  1.
      622    1    1    2    0    0 -0.90600820616E-01  0.25606565148E+00  0.31641188859E+01  0.38072859691E+01  0.21000000000E+01 0.  1.
</event>
<event>
 5   0  0.7462600E-02  0.9118800E+02  0.7818608E-02  0.1180000E+00
       11   -1    0    0    0    0  0.00000000000E+00  0.00000000000E+00  0.39999999673E+01  0.40000000000E+01  0.51109989000E-03 0. -1.
     -623   -1    0    0    0    0  0.00000000000E+00  0.00000000000E+00  0.12525980253E-10  0.17130000000E+03  0.17130000000E+03 0.  1.
       11    1    1    2    0    0  0.32039900704E+00 -0.12688471882E+00  0.41906975107E+00  0.54256333553E+00  0.51109989000E-03 0. -1.
     -623    1    1    2    0    0 -0.18226787076E+00 -0.29802028080E+00  0.87420478397E+00  0.17130258688E+03  0.17130000000E+03 0.  1.
      622    1    1    2    0    0 -0.13813113628E+00  0.42490499962E+00  0.27067254323E+01  0.34548497848E+01  0.21000000000E+01 0. -1.
</event>
<event>
 5   0  0.7462600E-02  0.9118800E+02  0.7818608E-02  0.1180000E+00
       11   -1    0    0    0    0  0.00000000000E+00  0.00000000000E+00  0.39999999673E+01  0.40000000000E+01  0.51109989000E-03 0.  1.
     -623   -1    0    0    0    0  0.00000000000E+00  0.00000000000E+00  0.12525980253E-10  0.17130000000E+03  0.17130000000E+03 0.  1.
       11    1    1    2    0    0 -0.39125995122E-01 -0.11233355643E+00  0.79538724424E-01  0.14309556702E+00  0.51109989000E-03 0.  1.
     -623    1    1    2    0    0 -0.14834690889E+00 -0.26964822315E+00  0.71562181950E+00  0.17130177124E+03  0.17130000000E+03 0.  1.
      622    1    1    2    0    0  0.18747290402E+00  0.38198177958E+00  0.32048394234E+01  0.38551331883E+01  0.21000000000E+01 0.  1.
</event>
<event>
 5   0  0.7462600E-02  0.9118800E+02  0.7818608E-02  0.1180000E+00
       11   -1    0    0    0    0  0.00000000000E+00  0.00000000000E+00  0.39999999673E+01  0.40000000000E+01  0.51109989000E-03 0.  1.
     -623   -1    0    0    0    0  0.00000000000E+00  0.00000000000E+00  0.12525980253E-10  0.17130000000E+03  0.17130000000E+03 0. -1.
       11    1    1    2    0    0 -0.17072366414E+00 -0.10904502481E-01  0.16125142914E+00  0.23509096600E+00  0.51109989000E-03 0.  1.
     -623    1    1    2    0    0  0.22581465222E+00  0.64006853632E-01  0.71686085504E+00  0.17130166076E+03  0.17130000000E+03 0. -1.
      622    1    1    2    0    0 -0.55090988080E-01 -0.53102351151E-01  0.31218876832E+01  0.37632482755E+01  0.21000000000E+01 0.  1.
</event>
<event>
 5   0  0.7462600E-02  0.9118800E+02  0.7818608E-02  0.1180000E+00
       11   -1    0    0    0    0  0.00000000000E+00  0.00000000000E+00  0.39999999673E+01  0.40000000000E+01  0.51109989000E-03 0.  1.
     -623   -1    0    0    0    0  0.00000000000E+00  0.00000000000E+00  0.12525980253E-10  0.17130000000E+03  0.17130000000E+03 0. -1.
       11    1    1    2    0    0 -0.30182160295E+00 -0.77663970495E-01  0.18541721690E+00  0.36264001139E+00  0.51109989000E-03 0.  1.
     -623    1    1    2    0    0  0.21841534546E+00 -0.44319132629E+00  0.89569056863E+00  0.17130305422E+03  0.17130000000E+03 0. -1.
      622    1    1    2    0    0  0.83406257487E-01  0.52085529679E+00  0.29188921818E+01  0.36343057677E+01  0.21000000000E+01 0.  1.
</event>
<event>
 5   0  0.7462600E-02  0.9118800E+02  0.7818608E-02  0.1180000E+00
       11   -1    0    0    0    0  0.00000000000E+00  0.00000000000E+00  0.39999999673E+01  0.40000000000E+01  0.51109989000E-03 0.  1.
     -623   -1    0    0    0    0  0.00000000000E+00  0.00000000000E+00  0.12525980253E-10  0.17130000000E+03  0.17130000000E+03 0.  1.
       11    1    1    2    0    0 -0.18069108607E+00 -0.30305400512E-01  0.24349802563E+00  0.30472813390E+00  0.51109989000E-03 0.  1.
     -623    1    1    2    0    0 -0.65399806051E-01  0.14977035882E+00  0.73026266097E+00  0.17130163453E+03  0.17130000000E+03 0.  1.
      622    1    1    2    0    0  0.24609089212E+00 -0.11946495830E+00  0.30262392808E+01  0.36936373384E+01  0.21000000000E+01 0.  1.
</event>
<event>
 5   0  0.7462600E-02  0.9118800E+02  0.7818608E-02  0.1180000E+00
       11   -1    0    0    0    0  0.00000000000E+00  0.00000000000E+00  0.39999999673E+01  0.40000000000E+01  0.51109989000E-03 0.  1.
     -623   -1    0    0    0    0  0.00000000000E+00  0.00000000000E+00  0.12525980253E-10  0.17130000000E+03  0.17130000000E+03 0. -1.
       11    1    1    2    0    0 -0.46732322096E+00 -0.20511214145E+00 -0.19274820742E+00  0.54554020577E+00  0.51109989000E-03 0.  1.
     -623    1    1    2    0    0  0.21499022462E+00  0.74454574775E-01  0.14728581984E+01  0.17130648288E+03  0.17130000000E+03 0. -1.
      622    1    1    2    0    0  0.25233299634E+00  0.13065756668E+00  0.27198899764E+01  0.34479769176E+01  0.21000000000E+01 0.  1.
</event>
<event>
 5   0  0.7462600E-02  0.9118800E+02  0.7818608E-02  0.1180000E+00
       11   -1    0    0    0    0  0.00000000000E+00  0.00000000000E+00  0.39999999673E+01  0.40000000000E+01  0.51109989000E-03 0. -1.
     -623   -1    0    0    0    0  0.00000000000E+00  0.00000000000E+00  0.12525980253E-10  0.17130000000E+03  0.17130000000E+03 0. -1.
       11    1    1    2    0    0 -0.96761907284E-01 -0.93214775009E-01  0.14293984565E+00  0.19617319307E+00  0.51109989000E-03 0. -1.
     -623    1    1    2    0    0 -0.19067723313E+00  0.37864655353E-01  0.70084885458E+00  0.17130154401E+03  0.17130000000E+03 0. -1.
      622    1    1    2    0    0  0.28743914041E+00  0.55350119656E-01  0.31562112671E+01  0.38022827956E+01  0.21000000000E+01 0. -1.
</event>
<event>
 5   0  0.7462600E-02  0.9118800E+02  0.7818608E-02  0.1180000E+00
       11   -1    0    0    0    0  0.00000000000E+00  0.00000000000E+00  0.39999999673E+01  0.40000000000E+01  0.51109989000E-03 0.  1.
     -623   -1    0    0    0    0  0.00000000000E+00  0.00000000000E+00  0.12525980253E-10  0.17130000000E+03  0.17130000000E+03 0. -1.
       11    1    1    2    0    0  0.35903001690E+00 -0.40436165559E-01  0.23627205877E+00  0.43169709693E+00  0.51109989000E-03 0.  1.
     -623    1    1    2    0    0 -0.16301819826E+00 -0.16432315926E+00  0.89586972780E+00  0.17130249899E+03  0.17130000000E+03 0. -1.
      622    1    1    2    0    0 -0.19601181864E+00  0.20475932482E+00  0.28678581808E+01  0.35658039149E+01  0.21000000000E+01 0.  1.
</event>
<event>
 5   0  0.7462600E-02  0.9118800E+02  0.7818608E-02  0.1180000E+00
       11   -1    0    0    0    0  0.00000000000E+00  0.00000000000E+00  0.39999999673E+01  0.40000000000E+01  0.51109989000E-03 0.  1.
     -623   -1    0    0    0    0  0.00000000000E+00  0.00000000000E+00  0.12525980253E-10  0.17130000000E+03  0.17130000000E+03 0.  1.
       11    1    1    2    0    0 -0.10488516542E+00  0.11962669420E+00 -0.21201739679E-03  0.15909666893E+00  0.51109989000E-03 0.  1.
     -623    1    1    2    0    0 -0.12425260321E+00 -0.31366509943E+00  0.80092254574E+00  0.17130220460E+03  0.17130000000E+03 0.  1.
      622    1    1    2    0    0  0.22913776863E+00  0.19403840523E+00  0.31992894390E+01  0.38386987293E+01  0.21000000000E+01 0.  1.
</event>
<event>
 5   0  0.7462600E-02  0.9118800E+02  0.7818608E-02  0.1180000E+00
       11   -1    0    0    0    0  0.00000000000E+00  0.00000000000E+00  0.39999999673E+01  0.40000000000E+01  0.51109989000E-03 0.  1.
     -623   -1    0    0    0    0  0.00000000000E+00  0.00000000000E+00  0.12525980253E-10  0.17130000000E+03  0.17130000000E+03 0.  1.
       11    1    1    2    0    0 -0.12844919383E+00 -0.27545544588E-01  0.14829058204E+00  0.19811186326E+00  0.51109989000E-03 0.  1.
     -623    1    1    2    0    0  0.53554548215E+00  0.54632125227E+00  0.75593209171E+00  0.17130337623E+03  0.17130000000E+03 0.  1.
      622    1    1    2    0    0 -0.40709628832E+00 -0.51877570768E+00  0.30957772936E+01  0.37985119026E+01  0.21000000000E+01 0.  1.
</event>
<event>
 5   0  0.7462600E-02  0.9118800E+02  0.7818608E-02  0.1180000E+00
       11   -1    0    0    0    0  0.00000000000E+00  0.00000000000E+00  0.39999999673E+01  0.40000000000E+01  0.51109989000E-03 0. -1.
     -623   -1    0    0    0    0  0.00000000000E+00  0.00000000000E+00  0.12525980253E-10  0.17130000000E+03  0.17130000000E+03 0.  1.
       11    1    1    2    0    0  0.59134263115E-01  0.13658893904E+00  0.15421165194E+00  0.21432427338E+00  0.51109989000E-03 0. -1.
     -623    1    1    2    0    0 -0.26381255929E+00 -0.14962228041E+00  0.70472603066E+00  0.17130171810E+03  0.17130000000E+03 0.  1.
      622    1    1    2    0    0  0.20467829617E+00  0.13033341374E-01  0.31410622848E+01  0.37839576305E+01  0.21000000000E+01 0. -1.
</event>
<event>
 5   0  0.7462600E-02  0.9118800E+02  0.7818608E-02  0.1180000E+00
       11   -1    0    0    0    0  0.00000000000E+00  0.00000000000E+00  0.39999999673E+01  0.40000000000E+01  0.51109989000E-03 0. -1.
     -623   -1    0    0    0    0  0.00000000000E+00  0.00000000000E+00  0.12525980253E-10  0.17130000000E+03  0.17130000000E+03 0. -1.
       11    1    1    2    0    0  0.81131030261E-02 -0.54196289033E-01 -0.60840934809E-02  0.55139256433E-01  0.51109989000E-03 0. -1.
     -623    1    1    2    0    0  0.25192956889E+00  0.16060519148E+00  0.68038600011E+00  0.17130161175E+03  0.17130000000E+03 0. -1.
      622    1    1    2    0    0 -0.26004267191E+00 -0.10640890244E+00  0.33256980607E+01  0.39432489950E+01  0.21000000000E+01 0. -1.
</event>
<event>
 5   0  0.7462600E-02  0.9118800E+02  0.7818608E-02  0.1180000E+00
       11   -1    0    0    0    0  0.00000000000E+00  0.00000000000E+00  0.39999999673E+01  0.40000000000E+01  0.51109989000E-03 0. -1.
     -623   -1    0    0    0    0  0.00000000000E+00  0.00000000000E+00  0.12525980253E-10  0.17130000000E+03  0.17130000000E+03 0. -1.
       11    1    1    2    0    0  0.96431305076E-01 -0.18965064866E-01  0.74694951419E-01  0.12344337680E+00  0.51109989000E-03 0. -1.
     -623    1    1    2    0    0 -0.18280748371E+00 -0.99387442186E-01  0.67184058249E+00  0.17130144385E+03  0.17130000000E+03 0. -1.
      622    1    1    2    0    0  0.86376178638E-01  0.11835250705E+00  0.32534644334E+01  0.38751127700E+01  0.21000000000E+01 0. -1.
</event>
<event>
 5   0  0.7462600E-02  0.9118800E+02  0.7818608E-02  0.1180000E+00
       11   -1    0    0    0    0  0.00000000000E+00  0.00000000000E+00  0.39999999673E+01  0.40000000000E+01  0.51109989000E-03 0.  1.
     -623   -1    0    0    0    0  0.00000000000E+00  0.00000000000E+00  0.12525980253E-10  0.17130000000E+03  0.17130000000E+03 0. -1.
       11    1    1    2    0    0  0.15201857454E-01  0.41650632486E-01  0.32382908608E-01  0.54907063729E-01  0.51109989000E-03 0.  1.
     -623    1    1    2    0    0  0.18038008352E+00 -0.27687970855E+00  0.64374630624E+00  0.17130152833E+03  0.17130000000E+03 0. -1.
      622    1    1    2    0    0 -0.19558194098E+00  0.23522907606E+00  0.33238707525E+01  0.39435646049E+01  0.21000000000E+01 0.  1.
</event>
<event>
 5   0  0.7462600E-02  0.9118800E+02  0.7818608E-02  0.1180000E+00
       11   -1    0    0    0    0  0.00000000000E+00  0.00000000000E+00  0.39999999673E+01  0.40000000000E+01  0.51109989000E-03 0. -1.
     -623   -1    0    0    0    0  0.00000000000E+00  0.00000000000E+00  0.12525980253E-10  0.17130000000E+03  0.17130000000E+03 0.  1.
       11    1    1    2    0    0  0.12077751852E+00 -0.23974950905E+00  0.41001595491E+00  0.49008201413E+00  0.51109989000E-03 0. -1.
     -623    1    1    2    0    0 -0.19249461932E+00  0.80932621073E-01  0.78541116530E+00  0.17130192782E+03  0.17130000000E+03 0.  1.
      622    1    1    2    0    0  0.71717100799E-01  0.15881688798E+00  0.28045728471E+01  0.35079901655E+01  0.21000000000E+01 0. -1.
</event>
<event>
 5   0  0.7462600E-02  0.9118800E+02  0.7818608E-02  0.1180000E+00
       11   -1    0    0    0    0  0.00000000000E+00  0.00000000000E+00  0.39999999673E+01  0.40000000000E+01  0.51109989000E-03 0. -1.
     -623   -1    0    0    0    0  0.00000000000E+00  0.00000000000E+00  0.12525980253E-10  0.17130000000E+03  0.17130000000E+03 0. -1.
       11    1    1    2    0    0  0.43384132792E+00 -0.41191887436E+00  0.28446238528E+00  0.66243080146E+00  0.51109989000E-03 0. -1.
     -623    1    1    2    0    0 -0.20975132206E+00  0.66286245292E+00  0.11501889454E+01  0.17130527230E+03  0.17130000000E+03 0. -1.
      622    1    1    2    0    0 -0.22409000586E+00 -0.25094357856E+00  0.25653486366E+01  0.33322969012E+01  0.21000000000E+01 0. -1.
</event>
<event>
 5   0  0.7462600E-02  0.9118800E+02  0.7818608E-02  0.1180000E+00
       11   -1    0    0    0    0  0.00000000000E+00  0.00000000000E+00  0.39999999673E+01  0.40000000000E+01  0.51109989000E-03 0.  1.
     -623   -1    0    0    0    0  0.00000000000E+00  0.00000000000E+00  0.12525980253E-10  0.17130000000E+03  0.17130000000E+03 0. -1.
       11    1    1    2    0    0  0.78969088334E-01  0.25205114189E+00  0.66166170477E+00  0.71243411472E+00  0.51109989000E-03 0.  1.
     -623    1    1    2    0    0  0.58653643824E+00 -0.38201656229E+00  0.90664405340E+00  0.17130382939E+03  0.17130000000E+03 0. -1.
      622    1    1    2    0    0 -0.66550552658E+00  0.12996542040E+00  0.24316942092E+01  0.32837364912E+01  0.21000000000E+01 0.  1.
</event>
<event>
 5   0  0.7462600E-02  0.9118800E+02  0.7818608E-02  0.1180000E+00
       11   -1    0    0    0    0  0.00000000000E+00  0.00000000000E+00  0.39999999673E+01  0.40000000000E+01  0.51109989000E-03 0.  1.
     -623   -1    0    0    0    0  0.00000000000E+00  0.00000000000E+00  0.12525980253E-10  0.17130000000E+03  0.17130000000E+03 0. -1.
       11    1    1    2    0    0  0.15037160704E-01 -0.50885662298E-01 -0.79066407284E-02  0.53649259265E-01  0.51109989000E-03 0.  1.
     -623    1    1    2    0    0  0.13971102200E-01  0.46233701823E+00  0.69467428303E+00  0.17130203304E+03  0.17130000000E+03 0. -1.
      622    1    1    2    0    0 -0.29008262904E-01 -0.41145135593E+00  0.33132323251E+01  0.39443177024E+01  0.21000000000E+01 0.  1.
</event>
<event>
 5   0  0.7462600E-02  0.9118800E+02  0.7818608E-02  0.1180000E+00
       11   -1    0    0    0    0  0.00000000000E+00  0.00000000000E+00  0.39999999673E+01  0.40000000000E+01  0.51109989000E-03 0.  1.
     -623   -1    0    0    0    0  0.00000000000E+00  0.00000000000E+00  0.12525980253E-10  0.17130000000E+03  0.17130000000E+03 0.  1.
       11    1    1    2    0    0 -0.84967373821E-01  0.26596976991E+00  0.73584554484E-01  0.28874611859E+00  0.51109989000E-03 0.  1.
     -623    1    1    2    0    0  0.27587223017E+00 -0.14766382785E+00  0.87778349209E+00  0.17130253476E+03  0.17130000000E+03 0.  1.
      622    1    1    2    0    0 -0.19090485635E+00 -0.11830594206E+00  0.30486319208E+01  0.37087191251E+01  0.21000000000E+01 0.  1.
</event>
<event>
 5   0  0.7462600E-02  0.9118800E+02  0.7818608E-02  0.1180000E+00
       11   -1    0    0    0    0  0.00000000000E+00  0.00000000000E+00  0.39999999673E+01  0.40000000000E+01  0.51109989000E-03 0.  1.
     -623   -1    0    0    0    0  0.00000000000E+00  0.00000000000E+00  0.12525980253E-10  0.17130000000E+03  0.17130000000E+03 0. -1.
       11    1    1    2    0    0  0.10390573702E+00  0.26266267426E+00  0.43245021223E+00  0.51652834376E+00  0.51109989000E-03 0.  1.
     -623    1    1    2    0    0 -0.17538890386E+00 -0.38550015208E+00  0.79484594254E+00  0.17130236762E+03  0.17130000000E+03 0. -1.
      622    1    1    2    0    0  0.71483166834E-01  0.12283747782E+00  0.27727038126E+01  0.34811040377E+01  0.21000000000E+01 0.  1.
</event>
<event>
 5   0  0.7462600E-02  0.9118800E+02  0.7818608E-02  0.1180000E+00
       11   -1    0    0    0    0  0.00000000000E+00  0.00000000000E+00  0.39999999673E+01  0.40000000000E+01  0.51109989000E-03 0.  1.
     -623   -1    0    0    0    0  0.00000000000E+00  0.00000000000E+00  0.12525980253E-10  0.17130000000E+03  0.17130000000E+03 0.  1.
       11    1    1    2    0    0 -0.99062719667E-01  0.37776368712E+00  0.36080495764E+00  0.53169474740E+00  0.51109989000E-03 0.  1.
     -623    1    1    2    0    0  0.47998538048E-01 -0.59123193257E+00  0.89187867445E+00  0.17130334879E+03  0.17130000000E+03 0.  1.
      622    1    1    2    0    0  0.51064181619E-01  0.21346824545E+00  0.27473163353E+01  0.34649564627E+01  0.21000000000E+01 0.  1.
</event>
<event>
 5   0  0.7462600E-02  0.9118800E+02  0.7818608E-02  0.1180000E+00
       11   -1    0    0    0    0  0.00000000000E+00  0.00000000000E+00  0.39999999673E+01  0.40000000000E+01  0.51109989000E-03 0.  1.
     -623   -1    0    0    0    0  0.00000000000E+00  0.00000000000E+00  0.12525980253E-10  0.17130000000E+03  0.17130000000E+03 0.  1.
       11    1    1    2    0    0 -0.13320456574E+00 -0.11431006163E+00  0.18170293984E+00  0.25263900351E+00  0.51109989000E-03 0.  1.
     -623    1    1    2    0    0 -0.28856860348E+00  0.20728621604E+00  0.74727050896E+00  0.17130199839E+03  0.17130000000E+03 0.  1.
      622    1    1    2    0    0  0.42177316922E+00 -0.92976154414E-01  0.30710265186E+01  0.37453626058E+01  0.21000000000E+01 0.  1.
</event>
<event>
 5   0  0.7462600E-02  0.9118800E+02  0.7818608E-02  0.1180000E+00
       11   -1    0    0    0    0  0.00000000000E+00  0.00000000000E+00  0.39999999673E+01  0.40000000000E+01  0.51109989000E-03 0.  1.
     -623   -1    0    0    0    0  0.00000000000E+00  0.00000000000E+00  0.12525980253E-10  0.17130000000E+03  0.17130000000E+03 0. -1.
       11    1    1    2    0    0 -0.37750295197E+00 -0.89950533700E-01 -0.19133878141E-01  0.38854336150E+00  0.51109989000E-03 0.  1.
     -623    1    1    2    0    0  0.20762675226E+00  0.81815741549E+00  0.11856098094E+01  0.17130618250E+03  0.17130000000E+03 0. -1.
      622    1    1    2    0    0  0.16987619970E+00 -0.72820688179E+00  0.28335240361E+01  0.36052741434E+01  0.21000000000E+01 0.  1.
</event>
<event>
 5   0  0.7462600E-02  0.9118800E+02  0.7818608E-02  0.1180000E+00
       11   -1    0    0    0    0  0.00000000000E+00  0.00000000000E+00  0.39999999673E+01  0.40000000000E+01  0.51109989000E-03 0.  1.
     -623   -1    0    0    0    0  0.00000000000E+00  0.00000000000E+00  0.12525980253E-10  0.17130000000E+03  0.17130000000E+03 0. -1.
       11    1    1    2    0    0  0.23141374923E+00 -0.77152571125E-01  0.23774758648E+00  0.34063032551E+00  0.51109989000E-03 0.  1.
     -623    1    1    2    0    0 -0.30564584647E+00  0.49377068758E+00  0.79896483229E+00  0.17130284754E+03  0.17130000000E+03 0. -1.
      622    1    1    2    0    0  0.74232097245E-01 -0.41661811646E+00  0.29632875486E+01  0.36565221393E+01  0.21000000000E+01 0.  1.
</event>
<event>
 5   0  0.7462600E-02  0.9118800E+02  0.7818608E-02  0.1180000E+00
       11   -1    0    0    0    0  0.00000000000E+00  0.00000000000E+00  0.39999999673E+01  0.40000000000E+01  0.51109989000E-03 0.  1.
     -623   -1    0    0    0    0  0.00000000000E+00  0.00000000000E+00  0.12525980253E-10  0.17130000000E+03  0.17130000000E+03 0.  1.
       11    1    1    2    0    0  0.14453962556E+00  0.13714090124E+00  0.36431713049E+00  0.41524277591E+00  0.51109989000E-03 0.  1.
     -623    1    1    2    0    0  0.25071340639E+00 -0.33649723092E-01  0.76164844473E+00  0.17130188002E+03  0.17130000000E+03 0.  1.
      622    1    1    2    0    0 -0.39525303195E+00 -0.10349117815E+00  0.28740343921E+01  0.35828772056E+01  0.21000000000E+01 0.  1.
</event>
<event>
 5   0  0.7462600E-02  0.9118800E+02  0.7818608E-02  0.1180000E+00
       11   -1    0    0    0    0  0.00000000000E+00  0.00000000000E+00  0.39999999673E+01  0.40000000000E+01  0.51109989000E-03 0.  1.
     -623   -1    0    0    0    0  0.00000000000E+00  0.00000000000E+00  0.12525980253E-10  0.17130000000E+03  0.17130000000E+03 0.  1.
       11    1    1    2    0    0  0.30998432508E+00 -0.54589582932E-01  0.15700871928E+00  0.35174181372E+00  0.51109989000E-03 0.  1.
     -623    1    1    2    0    0 -0.48365388837E+00 -0.58160066605E+00  0.93886522038E+00  0.17130424294E+03  0.17130000000E+03 0.  1.
      622    1    1    2    0    0  0.17366956329E+00  0.63619024899E+00  0.29041260277E+01  0.36440152490E+01  0.21000000000E+01 0.  1.
</event>
<event>
 5   0  0.7462600E-02  0.9118800E+02  0.7818608E-02  0.1180000E+00
       11   -1    0    0    0    0  0.00000000000E+00  0.00000000000E+00  0.39999999673E+01  0.40000000000E+01  0.51109989000E-03 0.  1.
     -623   -1    0    0    0    0  0.00000000000E+00  0.00000000000E+00  0.12525980253E-10  0.17130000000E+03  0.17130000000E+03 0.  1.
       11    1    1    2    0    0 -0.19777054903E+00 -0.88221279226E-01  0.14281619707E+00  0.25940877306E+00  0.51109989000E-03 0.  1.
     -623    1    1    2    0    0  0.61973170757E+00  0.15049757540E+00  0.79492600017E+00  0.17130303157E+03  0.17130000000E+03 0.  1.
      622    1    1    2    0    0 -0.42196115853E+00 -0.62276296176E-01  0.30622577701E+01  0.37375596593E+01  0.21000000000E+01 0.  1.
</event>
<event>
 5   0  0.7462600E-02  0.9118800E+02  0.7818608E-02  0.1180000E+00
       11   -1    0    0    0    0  0.00000000000E+00  0.00000000000E+00  0.39999999673E+01  0.40000000000E+01  0.51109989000E-03 0.  1.
     -623   -1    0    0    0    0  0.00000000000E+00  0.00000000000E+00  0.12525980253E-10  0.17130000000E+03  0.17130000000E+03 0. -1.
       11    1    1    2    0    0 -0.22493956679E-01  0.91224152430E-01 -0.69162277172E-01  0.11666835852E+00  0.51109989000E-03 0.  1.
     -623    1    1    2    0    0  0.49078200074E+00 -0.87389054356E-01  0.83971247795E+00  0.17130278346E+03  0.17130000000E+03 0. -1.
      622    1    1    2    0    0 -0.46828804406E+00 -0.38350980746E-02  0.32294497666E+01  0.38805481823E+01  0.21000000000E+01 0.  1.
</event>
<event>
 5   0  0.7462600E-02  0.9118800E+02  0.7818608E-02  0.1180000E+00
       11   -1    0    0    0    0  0.00000000000E+00  0.00000000000E+00  0.39999999673E+01  0.40000000000E+01  0.51109989000E-03 0.  1.
     -623   -1    0    0    0    0  0.00000000000E+00  0.00000000000E+00  0.12525980253E-10  0.17130000000E+03  0.17130000000E+03 0. -1.
       11    1    1    2    0    0 -0.20677316161E+00  0.10666341099E+00  0.28255777290E+00  0.36602101013E+00  0.51109989000E-03 0.  1.
     -623    1    1    2    0    0  0.29270145396E+00  0.60989383275E-01  0.76005065501E+00  0.17130194707E+03  0.17130000000E+03 0. -1.
      622    1    1    2    0    0 -0.85928292342E-01 -0.16765279427E+00  0.29573915395E+01  0.36320319173E+01  0.21000000000E+01 0.  1.
</event>
<event>
 5   0  0.7462600E-02  0.9118800E+02  0.7818608E-02  0.1180000E+00
       11   -1    0    0    0    0  0.00000000000E+00  0.00000000000E+00  0.39999999673E+01  0.40000000000E+01  0.51109989000E-03 0.  1.
     -623   -1    0    0    0    0  0.00000000000E+00  0.00000000000E+00  0.12525980253E-10  0.17130000000E+03  0.17130000000E+03 0.  1.
       11    1    1    2    0    0 -0.11160935010E+00 -0.83884630497E-01 -0.19093603663E-01  0.14091878933E+00  0.51109989000E-03 0.  1.
     -623    1    1    2    0    0  0.10051748340E+00  0.21063332611E+00  0.78626677809E+00  0.17130196346E+03  0.17130000000E+03 0.  1.
      622    1    1    2    0    0  0.11091866696E-01 -0.12674869561E+00  0.32328267929E+01  0.38571177496E+01  0.21000000000E+01 0.  1.
</event>
<event>
 5   0  0.7462600E-02  0.9118800E+02  0.7818608E-02  0.1180000E+00
       11   -1    0    0    0    0  0.00000000000E+00  0.00000000000E+00  0.39999999673E+01  0.40000000000E+01  0.51109989000E-03 0.  1.
     -623   -1    0    0    0    0  0.00000000000E+00  0.00000000000E+00  0.12525980253E-10  0.17130000000E+03  0.17130000000E+03 0.  1.
       11    1    1    2    0    0 -0.14373014766E+00 -0.27262503135E+00  0.84030217388E+00  0.89503674099E+00  0.51109989000E-03 0.  1.
     -623    1    1    2    0    0 -0.30274425980E-01 -0.39390015575E+00  0.98348241859E+00  0.17130327875E+03  0.17130000000E+03 0.  1.
      622    1    1    2    0    0  0.17400457364E+00  0.66652518710E+00  0.21762153749E+01  0.31016845060E+01  0.21000000000E+01 0. -1.
</event>
<event>
 5   0  0.7462600E-02  0.9118800E+02  0.7818608E-02  0.1180000E+00
       11   -1    0    0    0    0  0.00000000000E+00  0.00000000000E+00  0.39999999673E+01  0.40000000000E+01  0.51109989000E-03 0. -1.
     -623   -1    0    0    0    0  0.00000000000E+00  0.00000000000E+00  0.12525980253E-10  0.17130000000E+03  0.17130000000E+03 0.  1.
       11    1    1    2    0    0 -0.33294225098E-01 -0.48116396918E-01 -0.50898305164E-01  0.77553799176E-01  0.51109989000E-03 0. -1.
     -623    1    1    2    0    0  0.30863804989E+00  0.86613139006E-01  0.75196037266E+00  0.17130195038E+03  0.17130000000E+03 0.  1.
      622    1    1    2    0    0 -0.27534382479E+00 -0.38496742089E-01  0.32989378999E+01  0.39204958217E+01  0.21000000000E+01 0. -1.
</event>
<event>
 5   0  0.7462600E-02  0.9118800E+02  0.7818608E-02  0.1180000E+00
       11   -1    0    0    0    0  0.00000000000E+00  0.00000000000E+00  0.39999999673E+01  0.40000000000E+01  0.51109989000E-03 0. -1.
     -623   -1    0    0    0    0  0.00000000000E+00  0.00000000000E+00  0.12525980253E-10  0.17130000000E+03  0.17130000000E+03 0.  1.
       11    1    1    2    0    0  0.38258792781E-01  0.38897813520E+00  0.47188260533E+00  0.61273255122E+00  0.51109989000E-03 0. -1.
     -623    1    1    2    0    0 -0.30734776656E-01 -0.48582389539E+00  0.87589230920E+00  0.17130293096E+03  0.17130000000E+03 0.  1.
      622    1    1    2    0    0 -0.75240161249E-02  0.96845760191E-01  0.26522250528E+01  0.33843364849E+01  0.21000000000E+01 0. -1.
</event>
<event>
 5   0  0.7462600E-02  0.9118800E+02  0.7818608E-02  0.1180000E+00
       11   -1    0    0    0    0  0.00000000000E+00  0.00000000000E+00  0.39999999673E+01  0.40000000000E+01  0.51109989000E-03 0. -1.
     -623   -1    0    0    0    0  0.00000000000E+00  0.00000000000E+00  0.12525980253E-10  0.17130000000E+03  0.17130000000E+03 0.  1.
       11    1    1    2    0    0  0.51220024165E-01  0.26373468603E-01  0.19786909373E+00  0.20608612324E+00  0.51109989000E-03 0. -1.
     -623    1    1    2    0    0 -0.28633034868E+00 -0.39547788098E-01  0.65299766403E+00  0.17130148848E+03  0.17130000000E+03 0.  1.
      622    1    1    2    0    0  0.23511032452E+00  0.13174319495E-01  0.31491332096E+01  0.37924253980E+01  0.21000000000E+01 0. -1.
</event>
<event>
 5   0  0.7462600E-02  0.9118800E+02  0.7818608E-02  0.1180000E+00
       11   -1    0    0    0    0  0.00000000000E+00  0.00000000000E+00  0.39999999673E+01  0.40000000000E+01  0.51109989000E-03 0.  1.
     -623   -1    0    0    0    0  0.00000000000E+00  0.00000000000E+00  0.12525980253E-10  0.17130000000E+03  0.17130000000E+03 0. -1.
       11    1    1    2    0    0 -0.31057162022E+00 -0.25990965012E+00  0.30206630993E+00  0.50522477605E+00  0.51109989000E-03 0.  1.
     -623    1    1    2    0    0  0.54022414701E+00  0.11138293799E+00  0.92212563783E+00  0.17130336997E+03  0.17130000000E+03 0. -1.
      622    1    1    2    0    0 -0.22965252679E+00  0.14852671213E+00  0.27758080196E+01  0.34914052513E+01  0.21000000000E+01 0.  1.
</event>
<event>
 5   0  0.7462600E-02  0.9118800E+02  0.7818608E-02  0.1180000E+00
       11   -1    0    0    0    0  0.00000000000E+00  0.00000000000E+00  0.39999999673E+01  0.40000000000E+01  0.51109989000E-03 0. -1.
     -623   -1    0    0    0    0  0.00000000000E+00  0.00000000000E+00  0.12525980253E-10  0.17130000000E+03  0.17130000000E+03 0. -1.
       11    1    1    2    0    0 -0.34499240179E-01 -0.10841859335E-01 -0.30774497725E-01  0.47487623862E-01  0.51109989000E-03 0. -1.
     -623    1    1    2    0    0 -0.32750396809E+00 -0.50491290129E+00  0.74533124923E+00  0.17130267866E+03  0.17130000000E+03 0. -1.
      622    1    1    2    0    0  0.36200320827E+00  0.51575476063E+00  0.32854432159E+01  0.39498337206E+01  0.21000000000E+01 0. -1.
</event>
<event>
 5   0  0.7462600E-02  0.9118800E+02  0.7818608E-02  0.1180000E+00
       11   -1    0    0    0    0  0.00000000000E+00  0.00000000000E+00  0.39999999673E+01  0.40000000000E+01  0.51109989000E-03 0.  1.
     -623   -1    0    0    0    0  0.00000000000E+00  0.00000000000E+00  0.12525980253E-10  0.17130000000E+03  0.17130000000E+03 0. -1.
       11    1    1    2    0    0  0.22772597413E-01  0.24533102979E+00  0.30762671114E+00  0.39413241430E+00  0.51109989000E-03 0.  1.
     -623    1    1    2    0    0  0.15400283560E+00 -0.19501427736E+00  0.76923317435E+00  0.17130190737E+03  0.17130000000E+03 0. -1.
      622    1    1    2    0    0 -0.17677543301E+00 -0.50316752434E-01  0.29231400819E+01  0.36039602200E+01  0.21000000000E+01 0.  1.
</event>
<event>
 5   0  0.7462600E-02  0.9118800E+02  0.7818608E-02  0.1180000E+00
       11   -1    0    0    0    0  0.00000000000E+00  0.00000000000E+00  0.39999999673E+01  0.40000000000E+01  0.51109989000E-03 0.  1.
     -623   -1    0    0    0    0  0.00000000000E+00  0.00000000000E+00  0.12525980253E-10  0.17130000000E+03  0.17130000000E+03 0.  1.
       11    1    1    2    0    0  0.25052260350E+00 -0.29601698972E+00  0.27743314209E+00  0.47681971711E+00  0.51109989000E-03 0.  1.
     -623    1    1    2    0    0 -0.41251403405E+00  0.15213774759E+00  0.90564998466E+00  0.17130295828E+03  0.17130000000E+03 0.  1.
      622    1    1    2    0    0  0.16199143055E+00  0.14387924213E+00  0.28169168406E+01  0.35202220025E+01  0.21000000000E+01 0.  1.
</event>
<event>
 5   0  0.7462600E-02  0.9118800E+02  0.7818608E-02  0.1180000E+00
       11   -1    0    0    0    0  0.00000000000E+00  0.00000000000E+00  0.39999999673E+01  0.40000000000E+01  0.51109989000E-03 0.  1.
     -623   -1    0    0    0    0  0.00000000000E+00  0.00000000000E+00  0.12525980253E-10  0.17130000000E+03  0.17130000000E+03 0.  1.
       11    1    1    2    0    0 -0.36733774066E+00 -0.15324359564E+00  0.22770958803E+00  0.45855483099E+00  0.51109989000E-03 0.  1.
     -623    1    1    2    0    0  0.92641394530E-01  0.79392742920E-02  0.94089702995E+00  0.17130260924E+03  0.17130000000E+03 0.  1.
      622    1    1    2    0    0  0.27469634613E+00  0.14530432135E+00  0.28313933494E+01  0.35388359283E+01  0.21000000000E+01 0.  1.
</event>
<event>
 5   0  0.7462600E-02  0.9118800E+02  0.7818608E-02  0.1180000E+00
       11   -1    0    0    0    0  0.00000000000E+00  0.00000000000E+00  0.39999999673E+01  0.40000000000E+01  0.51109989000E-03 0.  1.
     -623   -1    0    0    0    0  0.00000000000E+00  0.00000000000E+00  0.12525980253E-10  0.17130000000E+03  0.17130000000E+03 0.  1.
       11    1    1    2    0    0  0.15449248891E+00  0.22296106082E+00 -0.55039023837E-02  0.27131184629E+00  0.51109989000E-03 0.  1.
     -623    1    1    2    0    0 -0.14709975148E+00  0.39715401645E+00  0.99166583214E+00  0.17130339393E+03  0.17130000000E+03 0.  1.
      622    1    1    2    0    0 -0.73927374385E-02 -0.62011507727E+00  0.30138380376E+01  0.37252942271E+01  0.21000000000E+01 0.  1.
</event>
<event>
 5   0  0.7462600E-02  0.9118800E+02  0.7818608E-02  0.1180000E+00
       11   -1    0    0    0    0  0.00000000000E+00  0.00000000000E+00  0.39999999673E+01  0.40000000000E+01  0.51109989000E-03 0. -1.
     -623   -1    0    0    0    0  0.00000000000E+00  0.00000000000E+00  0.12525980253E-10  0.17130000000E+03  0.17130000000E+03 0. -1.
       11    1    1    2    0    0 -0.62248853252E-01 -0.10050681216E+00 -0.13588231502E-01  0.11900184990E+00  0.51109989000E-03 0. -1.
     -623    1    1    2    0    0  0.11229750907E+00  0.40528240833E-01  0.75277760833E+00  0.17130169563E+03  0.17130000000E+03 0. -1.
      622    1    1    2    0    0 -0.50048655823E-01  0.59978571327E-01  0.32608105905E+01  0.38793025152E+01  0.21000000000E+01 0. -1.
</event>
<event>
 5   0  0.7462600E-02  0.9118800E+02  0.7818608E-02  0.1180000E+00
       11   -1    0    0    0    0  0.00000000000E+00  0.00000000000E+00  0.39999999673E+01  0.40000000000E+01  0.51109989000E-03 0.  1.
     -623   -1    0    0    0    0  0.00000000000E+00  0.00000000000E+00  0.12525980253E-10  0.17130000000E+03  0.17130000000E+03 0. -1.
       11    1    1    2    0    0  0.90861991180E-01  0.30040175281E+00  0.63601313695E+00  0.70923203970E+00  0.51109989000E-03 0.  1.
     -623    1    1    2    0    0 -0.18692185047E+00 -0.39129176429E+00  0.83721131631E+00  0.17130259476E+03  0.17130000000E+03 0. -1.
      622    1    1    2    0    0  0.96059859294E-01  0.90890011486E-01  0.25267755141E+01  0.32881731994E+01  0.21000000000E+01 0.  1.
</event>
<event>
 5   0  0.7462600E-02  0.9118800E+02  0.7818608E-02  0.1180000E+00
       11   -1    0    0    0    0  0.00000000000E+00  0.00000000000E+00  0.39999999673E+01  0.40000000000E+01  0.51109989000E-03 0.  1.
     -623   -1    0    0    0    0  0.00000000000E+00  0.00000000000E+00  0.12525980253E-10  0.17130000000E+03  0.17130000000E+03 0. -1.
       11    1    1    2    0    0  0.16429310609E+00 -0.29307309914E-01  0.31264028231E+00  0.35439434317E+00  0.51109989000E-03 0.  1.
     -623    1    1    2    0    0 -0.36244090073E+00  0.11333758585E+00  0.71749508490E+00  0.17130192354E+03  0.17130000000E+03 0. -1.
      622    1    1    2    0    0  0.19814779464E+00 -0.84030275938E-01  0.29698646001E+01  0.36436821183E+01  0.21000000000E+01 0.  1.
</event>
<event>
 5   0  0.7462600E-02  0.9118800E+02  0.7818608E-02  0.1180000E+00
       11   -1    0    0    0    0  0.00000000000E+00  0.00000000000E+00  0.39999999673E+01  0.40000000000E+01  0.51109989000E-03 0.  1.
     -623   -1    0    0    0    0  0.00000000000E+00  0.00000000000E+00  0.12525980253E-10  0.17130000000E+03  0.17130000000E+03 0. -1.
       11    1    1    2    0    0 -0.79733832975E-01 -0.21996593399E+00  0.45928291335E-01  0.23843692123E+00  0.51109989000E-03 0.  1.
     -623    1    1    2    0    0  0.28138427167E+00  0.14677762457E+00  0.84352399085E+00  0.17130237083E+03  0.17130000000E+03 0. -1.
      622    1    1    2    0    0 -0.20165043869E+00  0.73188309414E-01  0.31105476852E+01  0.37591922443E+01  0.21000000000E+01 0.  1.
</event>
<event>
 5   0  0.7462600E-02  0.9118800E+02  0.7818608E-02  0.1180000E+00
       11   -1    0    0    0    0  0.00000000000E+00  0.00000000000E+00  0.39999999673E+01  0.40000000000E+01  0.51109989000E-03 0. -1.
     -623   -1    0    0    0    0  0.00000000000E+00  0.00000000000E+00  0.12525980253E-10  0.17130000000E+03  0.17130000000E+03 0.  1.
       11    1    1    2    0    0 -0.30046636110E-01  0.26707032261E+00  0.28720160838E+00  0.39333749203E+00  0.51109989000E-03 0. -1.
     -623    1    1    2    0    0 -0.16489630901E+00 -0.14702700699E+00  0.79194701364E+00  0.17130197310E+03  0.17130000000E+03 0.  1.
      622    1    1    2    0    0  0.19494294512E+00 -0.12004331562E+00  0.29208513453E+01  0.36046894084E+01  0.21000000000E+01 0. -1.
</event>
<event>
 5   0  0.7462600E-02  0.9118800E+02  0.7818608E-02  0.1180000E+00
       11   -1    0    0    0    0  0.00000000000E+00  0.00000000000E+00  0.39999999673E+01  0.40000000000E+01  0.51109989000E-03 0. -1.
     -623   -1    0    0    0    0  0.00000000000E+00  0.00000000000E+00  0.12525980253E-10  0.17130000000E+03  0.17130000000E+03 0. -1.
       11    1    1    2    0    0  0.20160186820E+00 -0.87510526074E-01 -0.11133934082E-01  0.22005824490E+00  0.51109989000E-03 0. -1.
     -623    1    1    2    0    0  0.37374416473E+00 -0.58632208117E-01  0.92837358468E+00  0.17130293342E+03  0.17130000000E+03 0. -1.
      622    1    1    2    0    0 -0.57534603294E+00  0.14614273419E+00  0.30827603168E+01  0.37770083303E+01  0.21000000000E+01 0. -1.
</event>
<event>
 5   0  0.7462600E-02  0.9118800E+02  0.7818608E-02  0.1180000E+00
       11   -1    0    0    0    0  0.00000000000E+00  0.00000000000E+00  0.39999999673E+01  0.40000000000E+01  0.51109989000E-03 0.  1.
     -623   -1    0    0    0    0  0.00000000000E+00  0.00000000000E+00  0.12525980253E-10  0.17130000000E+03  0.17130000000E+03 0. -1.
       11    1    1    2    0    0 -0.19652211746E+00  0.22303560862E-01  0.75062676140E-01  0.21154918589E+00  0.51109989000E-03 0.  1.
     -623    1    1    2    0    0  0.85973137583E-01 -0.34669699942E-01  0.77589222739E+00  0.17130178225E+03  0.17130000000E+03 0. -1.
      622    1    1    2    0    0  0.11054897988E+00  0.12366139080E-01  0.31490450638E+01  0.37866685638E+01  0.21000000000E+01 0.  1.
</event>
<event>
 5   0  0.7462600E-02  0.9118800E+02  0.7818608E-02  0.1180000E+00
       11   -1    0    0    0    0  0.00000000000E+00  0.00000000000E+00  0.39999999673E+01  0.40000000000E+01  0.51109989000E-03 0. -1.
     -623   -1    0    0    0    0  0.00000000000E+00  0.00000000000E+00  0.12525980253E-10  0.17130000000E+03  0.17130000000E+03 0.  1.
       11    1    1    2    0    0  0.45716823062E+00 -0.14006814039E-01 -0.34341432210E-01  0.45867044500E+00  0.51109989000E-03 0. -1.
     -623    1    1    2    0    0  0.42582305095E+00  0.63052844950E-02  0.13304605688E+01  0.17130569602E+03  0.17130000000E+03 0.  1.
      622    1    1    2    0    0 -0.88299128157E+00  0.77015295442E-02  0.27038808307E+01  0.35356335308E+01  0.21000000000E+01 0. -1.
</event>
<event>
 5   0  0.7462600E-02  0.9118800E+02  0.7818608E-02  0.1180000E+00
       11   -1    0    0    0    0  0.00000000000E+00  0.00000000000E+00  0.39999999673E+01  0.40000000000E+01  0.51109989000E-03 0.  1.
     -623   -1    0    0    0    0  0.00000000000E+00  0.00000000000E+00  0.12525980253E-10  0.17130000000E+03  0.17130000000E+03 0. -1.
       11    1    1    2    0    0  0.18587654566E-01  0.48177704798E-01  0.48603702111E+00  0.48877278898E+00  0.51109989000E-03 0.  1.
     -623    1    1    2    0    0 -0.21754078161E+00  0.22778966992E+00  0.72286364082E+00  0.17130181477E+03  0.17130000000E+03 0. -1.
      622    1    1    2    0    0  0.19895312705E+00 -0.27596737472E+00  0.27910993054E+01  0.35094124396E+01  0.21000000000E+01 0.  1.
</event>
<event>
 5   0  0.7462600E-02  0.9118800E+02  0.7818608E-02  0.1180000E+00
       11   -1    0    0    0    0  0.00000000000E+00  0.00000000000E+00  0.39999999673E+01  0.40000000000E+01  0.51109989000E-03 0.  1.
     -623   -1    0    0    0    0  0.00000000000E+00  0.00000000000E+00  0.12525980253E-10  0.17130000000E+03  0.17130000000E+03 0.  1.
       11    1    1    2    0    0  0.92793033152E-02  0.29383780851E+00  0.15950319814E+00  0.33446718019E+00  0.51109989000E-03 0.  1.
     -623    1    1    2    0    0 -0.62763551173E+00 -0.84183881448E+00  0.95948947168E+00  0.17130590544E+03  0.17130000000E+03 0.  1.
      622    1    1    2    0    0  0.61835620842E+00  0.54800100597E+00  0.28810072975E+01  0.36596273788E+01  0.21000000000E+01 0.  1.
</event>
<event>
 5   0  0.7462600E-02  0.9118800E+02  0.7818608E-02  0.1180000E+00
       11   -1    0    0    0    0  0.00000000000E+00  0.00000000000E+00  0.39999999673E+01  0.40000000000E+01  0.51109989000E-03 0. -1.
     -623   -1    0    0    0    0  0.00000000000E+00  0.00000000000E+00  0.12525980253E-10  0.17130000000E+03  0.17130000000E+03 0. -1.
       11    1    1    2    0    0 -0.59632008948E-01  0.13034226289E+00  0.13454887976E+00  0.19659283877E+00  0.51109989000E-03 0. -1.
     -623    1    1    2    0    0 -0.10492622645E+00 -0.25712300255E+00  0.70316304693E+00  0.17130166829E+03  0.17130000000E+03 0. -1.
      622    1    1    2    0    0  0.16455823540E+00  0.12678073966E+00  0.31622880407E+01  0.38017388681E+01  0.21000000000E+01 0. -1.
</event>
<event>
 5   0  0.7462600E-02  0.9118800E+02  0.7818608E-02  0.1180000E+00
       11   -1    0    0    0    0  0.00000000000E+00  0.00000000000E+00  0.39999999673E+01  0.40000000000E+01  0.51109989000E-03 0. -1.
     -623   -1    0    0    0    0  0.00000000000E+00  0.00000000000E+00  0.12525980253E-10  0.17130000000E+03  0.17130000000E+03 0. -1.
       11    1    1    2    0    0 -0.35814859511E-01  0.14516521307E+00  0.10701269626E+00  0.18386849004E+00  0.51109989000E-03 0. -1.
     -623    1    1    2    0    0  0.30196583195E+00  0.16448859184E+00  0.73522455474E+00  0.17130192292E+03  0.17130000000E+03 0. -1.
      622    1    1    2    0    0 -0.26615097244E+00 -0.30965380491E+00  0.31577627164E+01  0.38142085931E+01  0.21000000000E+01 0. -1.
</event>
<event>
 5   0  0.7462600E-02  0.9118800E+02  0.7818608E-02  0.1180000E+00
       11   -1    0    0    0    0  0.00000000000E+00  0.00000000000E+00  0.39999999673E+01  0.40000000000E+01  0.51109989000E-03 0. -1.
     -623   -1    0    0    0    0  0.00000000000E+00  0.00000000000E+00  0.12525980253E-10  0.17130000000E+03  0.17130000000E+03 0. -1.
       11    1    1    2    0    0 -0.40553965975E-01  0.41813555819E-01  0.14648246022E+00  0.15764000120E+00  0.51109989000E-03 0. -1.
     -623    1    1    2    0    0  0.51136124425E+00  0.14311749096E-01  0.67344164425E+00  0.17130208761E+03  0.17130000000E+03 0. -1.
      622    1    1    2    0    0 -0.47080727828E+00 -0.56125304916E-01  0.31800758629E+01  0.38402723910E+01  0.21000000000E+01 0. -1.
</event>
<event>
 5   0  0.7462600E-02  0.9118800E+02  0.7818608E-02  0.1180000E+00
       11   -1    0    0    0    0  0.00000000000E+00  0.00000000000E+00  0.39999999673E+01  0.40000000000E+01  0.51109989000E-03 0. -1.
     -623   -1    0    0    0    0  0.00000000000E+00  0.00000000000E+00  0.12525980253E-10  0.17130000000E+03  0.17130000000E+03 0.  1.
       11    1    1    2    0    0  0.10261018909E+00 -0.13911003148E+00  0.43189366997E-01  0.17817416874E+00  0.51109989000E-03 0. -1.
     -623    1    1    2    0    0  0.25847754506E+00 -0.20776749479E+00  0.80582534417E+00  0.17130221637E+03  0.17130000000E+03 0.  1.
      622    1    1    2    0    0 -0.36108773414E+00  0.34687752626E+00  0.31509852562E+01  0.38196094636E+01  0.21000000000E+01 0. -1.
</event>
<event>
 5   0  0.7462600E-02  0.9118800E+02  0.7818608E-02  0.1180000E+00
       11   -1    0    0    0    0  0.00000000000E+00  0.00000000000E+00  0.39999999673E+01  0.40000000000E+01  0.51109989000E-03 0.  1.
     -623   -1    0    0    0    0  0.00000000000E+00  0.00000000000E+00  0.12525980253E-10  0.17130000000E+03  0.17130000000E+03 0. -1.
       11    1    1    2    0    0  0.49315136263E-01 -0.26326317922E+00  0.40008792579E+00  0.48146660713E+00  0.51109989000E-03 0.  1.
     -623    1    1    2    0    0 -0.41162034820E+00 -0.12850334168E+00  0.83091635465E+00  0.17130255797E+03  0.17130000000E+03 0. -1.
      622    1    1    2    0    0  0.36230521193E+00  0.39176652090E+00  0.27689956869E+01  0.35159754248E+01  0.21000000000E+01 0.  1.
</event>
<event>
 5   0  0.7462600E-02  0.9118800E+02  0.7818608E-02  0.1180000E+00
       11   -1    0    0    0    0  0.00000000000E+00  0.00000000000E+00  0.39999999673E+01  0.40000000000E+01  0.51109989000E-03 0.  1.
     -623   -1    0    0    0    0  0.00000000000E+00  0.00000000000E+00  0.12525980253E-10  0.17130000000E+03  0.17130000000E+03 0. -1.
       11    1    1    2    0    0  0.45269814977E+00  0.72722261589E-01  0.71359710762E+00  0.84820117623E+00  0.51109989000E-03 0.  1.
     -623    1    1    2    0    0 -0.40049570927E+00  0.13890122498E+00  0.95050750112E+00  0.17130316154E+03  0.17130000000E+03 0. -1.
      622    1    1    2    0    0 -0.52202440505E-01 -0.21162348657E+00  0.23358953586E+01  0.31486372801E+01  0.21000000000E+01 0.  1.
</event>
<event>
 5   0  0.7462600E-02  0.9118800E+02  0.7818608E-02  0.1180000E+00
       11   -1    0    0    0    0  0.00000000000E+00  0.00000000000E+00  0.39999999673E+01  0.40000000000E+01  0.51109989000E-03 0. -1.
     -623   -1    0    0    0    0  0.00000000000E+00  0.00000000000E+00  0.12525980253E-10  0.17130000000E+03  0.17130000000E+03 0.  1.
       11    1    1    2    0    0 -0.13286243373E-02 -0.77836132228E-01  0.12963088086E+00  0.15121063197E+00  0.51109989000E-03 0. -1.
     -623    1    1    2    0    0  0.10025935639E+00  0.35582799007E+00  0.66050256995E+00  0.17130167229E+03  0.17130000000E+03 0.  1.
      622    1    1    2    0    0 -0.98930732058E-01 -0.27799185784E+00  0.32098665165E+01  0.38471170786E+01  0.21000000000E+01 0. -1.
</event>
<event>
 5   0  0.7462600E-02  0.9118800E+02  0.7818608E-02  0.1180000E+00
       11   -1    0    0    0    0  0.00000000000E+00  0.00000000000E+00  0.39999999673E+01  0.40000000000E+01  0.51109989000E-03 0.  1.
     -623   -1    0    0    0    0  0.00000000000E+00  0.00000000000E+00  0.12525980253E-10  0.17130000000E+03  0.17130000000E+03 0.  1.
       11    1    1    2    0    0 -0.28231314496E+00 -0.15207937665E+00  0.11027052898E-01  0.32085932391E+00  0.51109989000E-03 0.  1.
     -623    1    1    2    0    0  0.33748381477E+00  0.16902284873E+00  0.97245424070E+00  0.17130317607E+03  0.17130000000E+03 0.  1.
      622    1    1    2    0    0 -0.55170669808E-01 -0.16943472080E-01  0.30165186738E+01  0.36759646072E+01  0.21000000000E+01 0.  1.
</event>
<event>
 5   0  0.7462600E-02  0.9118800E+02  0.7818608E-02  0.1180000E+00
       11   -1    0    0    0    0  0.00000000000E+00  0.00000000000E+00  0.39999999673E+01  0.40000000000E+01  0.51109989000E-03 0.  1.
     -623   -1    0    0    0    0  0.00000000000E+00  0.00000000000E+00  0.12525980253E-10  0.17130000000E+03  0.17130000000E+03 0. -1.
       11    1    1    2    0    0 -0.51883788719E-01  0.31152690312E-01 -0.10768414358E+00  0.12352551820E+00  0.51109989000E-03 0.  1.
     -623    1    1    2    0    0  0.27285667369E+00 -0.29988011245E+00  0.87115439448E+00  0.17130269493E+03  0.17130000000E+03 0. -1.
      622    1    1    2    0    0 -0.22097288497E+00  0.26872742213E+00  0.32365297165E+01  0.38737795560E+01  0.21000000000E+01 0.  1.
</event>
<event>
 5   0  0.7462600E-02  0.9118800E+02  0.7818608E-02  0.1180000E+00
       11   -1    0    0    0    0  0.00000000000E+00  0.00000000000E+00  0.39999999673E+01  0.40000000000E+01  0.51109989000E-03 0.  1.
     -623   -1    0    0    0    0  0.00000000000E+00  0.00000000000E+00  0.12525980253E-10  0.17130000000E+03  0.17130000000E+03 0.  1.
       11    1    1    2    0    0  0.17341757511E+00 -0.13612973665E+00  0.17148368057E+00  0.27930605880E+00  0.51109989000E-03 0.  1.
     -623    1    1    2    0    0 -0.73782745240E+00 -0.56935117870E-01  0.81998761505E+00  0.17130356100E+03  0.17130000000E+03 0.  1.
      622    1    1    2    0    0  0.56440987730E+00  0.19306485452E+00  0.30085286717E+01  0.37171329431E+01  0.21000000000E+01 0.  1.
</event>
<event>
 5   0  0.7462600E-02  0.9118800E+02  0.7818608E-02  0.1180000E+00
       11   -1    0    0    0    0  0.00000000000E+00  0.00000000000E+00  0.39999999673E+01  0.40000000000E+01  0.51109989000E-03 0. -1.
     -623   -1    0    0    0    0  0.00000000000E+00  0.00000000000E+00  0.12525980253E-10  0.17130000000E+03  0.17130000000E+03 0.  1.
       11    1    1    2    0    0 -0.35375633436E+00  0.50265757729E+00  0.47891278158E+00  0.77920850719E+00  0.51109989000E-03 0. -1.
     -623    1    1    2    0    0  0.35571355354E+00 -0.10351914268E+00  0.11173096352E+01  0.17130404440E+03  0.17130000000E+03 0.  1.
      622    1    1    2    0    0 -0.19572191858E-02 -0.39913843461E+00  0.24037775506E+01  0.32167470888E+01  0.21000000000E+01 0. -1.
</event>
<event>
 5   0  0.7462600E-02  0.9118800E+02  0.7818608E-02  0.1180000E+00
       11   -1    0    0    0    0  0.00000000000E+00  0.00000000000E+00  0.39999999673E+01  0.40000000000E+01  0.51109989000E-03 0. -1.
     -623   -1    0    0    0    0  0.00000000000E+00  0.00000000000E+00  0.12525980253E-10  0.17130000000E+03  0.17130000000E+03 0. -1.
       11    1    1    2    0    0 -0.24779467404E+00 -0.34609912953E-01  0.21830473174E+00  0.33205009212E+00  0.51109989000E-03 0. -1.
     -623    1    1    2    0    0 -0.13937400135E+00  0.13177433382E+00  0.80345587242E+00  0.17130199161E+03  0.17130000000E+03 0. -1.
      622    1    1    2    0    0  0.38716867538E+00 -0.97164420866E-01  0.29782393632E+01  0.36659582939E+01  0.21000000000E+01 0. -1.
</event>
<event>
 5   0  0.7462600E-02  0.9118800E+02  0.7818608E-02  0.1180000E+00
       11   -1    0    0    0    0  0.00000000000E+00  0.00000000000E+00  0.39999999673E+01  0.40000000000E+01  0.51109989000E-03 0. -1.
     -623   -1    0    0    0    0  0.00000000000E+00  0.00000000000E+00  0.12525980253E-10  0.17130000000E+03  0.17130000000E+03 0. -1.
       11    1    1    2    0    0 -0.14534235399E+00 -0.23754718383E+00  0.27097011841E-01  0.27979916670E+00  0.51109989000E-03 0. -1.
     -623    1    1    2    0    0  0.56070219003E-02 -0.19409274335E-01  0.91905372153E+00  0.17130246661E+03  0.17130000000E+03 0. -1.
      622    1    1    2    0    0  0.13973533209E+00  0.25695645817E+00  0.30538492340E+01  0.37177342197E+01  0.21000000000E+01 0. -1.
</event>
<event>
 5   0  0.7462600E-02  0.9118800E+02  0.7818608E-02  0.1180000E+00
       11   -1    0    0    0    0  0.00000000000E+00  0.00000000000E+00  0.39999999673E+01  0.40000000000E+01  0.51109989000E-03 0. -1.
     -623   -1    0    0    0    0  0.00000000000E+00  0.00000000000E+00  0.12525980253E-10  0.17130000000E+03  0.17130000000E+03 0. -1.
       11    1    1    2    0    0 -0.17465917276E+00  0.49943872301E-02  0.28396441943E+00  0.33341689108E+00  0.51109989000E-03 0. -1.
     -623    1    1    2    0    0  0.14207427009E+00 -0.41994114417E-01  0.71269381468E+00  0.17130154664E+03  0.17130000000E+03 0. -1.
      622    1    1    2    0    0  0.32584902668E-01  0.36999727187E-01  0.30033417332E+01  0.36650364694E+01  0.21000000000E+01 0. -1.
</event>
<event>
 5   0  0.7462600E-02  0.9118800E+02  0.7818608E-02  0.1180000E+00
       11   -1    0    0    0    0  0.00000000000E+00  0.00000000000E+00  0.39999999673E+01  0.40000000000E+01  0.51109989000E-03 0. -1.
     -623   -1    0    0    0    0  0.00000000000E+00  0.00000000000E+00  0.12525980253E-10  0.17130000000E+03  0.17130000000E+03 0.  1.
       11    1    1    2    0    0  0.58730062811E-01 -0.40551076484E-01 -0.18229022312E-01  0.73662531574E-01  0.51109989000E-03 0. -1.
     -623    1    1    2    0    0  0.96695848934E-01  0.15268648601E+00  0.70806939665E+00  0.17130155874E+03  0.17130000000E+03 0.  1.
      622    1    1    2    0    0 -0.15542591175E+00 -0.11213540953E+00  0.33101595930E+01  0.39247787320E+01  0.21000000000E+01 0. -1.
</event>
<event>
 5   0  0.7462600E-02  0.9118800E+02  0.7818608E-02  0.1180000E+00
       11   -1    0    0    0    0  0.00000000000E+00  0.00000000000E+00  0.39999999673E+01  0.40000000000E+01  0.51109989000E-03 0. -1.
     -623   -1    0    0    0    0  0.00000000000E+00  0.00000000000E+00  0.12525980253E-10  0.17130000000E+03  0.17130000000E+03 0.  1.
       11    1    1    2    0    0 -0.39746655827E-01  0.19082511643E+00  0.51189600290E+00  0.54775158669E+00  0.51109989000E-03 0. -1.
     -623    1    1    2    0    0 -0.82313879027E-01 -0.15240594129E+00  0.75321656203E+00  0.17130174354E+03  0.17130000000E+03 0.  1.
      622    1    1    2    0    0  0.12206053485E+00 -0.38419175136E-01  0.27348874024E+01  0.34505048777E+01  0.21000000000E+01 0. -1.
</event>
<event>
 5   0  0.7462600E-02  0.9118800E+02  0.7818608E-02  0.1180000E+00
       11   -1    0    0    0    0  0.00000000000E+00  0.00000000000E+00  0.39999999673E+01  0.40000000000E+01  0.51109989000E-03 0.  1.
     -623   -1    0    0    0    0  0.00000000000E+00  0.00000000000E+00  0.12525980253E-10  0.17130000000E+03  0.17130000000E+03 0.  1.
       11    1    1    2    0    0 -0.14863988523E+00 -0.11699550144E+00 -0.13498475294E+00  0.23238525681E+00  0.51109989000E-03 0.  1.
     -623    1    1    2    0    0 -0.15842088210E+00 -0.19795008892E+00  0.10420640925E+01  0.17130335717E+03  0.17130000000E+03 0.  1.
      622    1    1    2    0    0  0.30706076733E+00  0.31494559036E+00  0.30929206278E+01  0.37642575695E+01  0.21000000000E+01 0.  1.
</event>
<event>
 5   0  0.7462600E-02  0.9118800E+02  0.7818608E-02  0.1180000E+00
       11   -1    0    0    0    0  0.00000000000E+00  0.00000000000E+00  0.39999999673E+01  0.40000000000E+01  0.51109989000E-03 0.  1.
     -623   -1    0    0    0    0  0.00000000000E+00  0.00000000000E+00  0.12525980253E-10  0.17130000000E+03  0.17130000000E+03 0.  1.
       11    1    1    2    0    0  0.55837799398E-01  0.39838775187E+00  0.81652865592E+00  0.91024720151E+00  0.51109989000E-03 0.  1.
     -623    1    1    2    0    0 -0.26878916988E+00 -0.42612153948E+00  0.93175456023E+00  0.17130327491E+03  0.17130000000E+03 0.  1.
      622    1    1    2    0    0  0.21295137048E+00  0.27733787607E-01  0.22517167512E+01  0.30864778918E+01  0.21000000000E+01 0.  1.
</event>
<event>
 5   0  0.7462600E-02  0.9118800E+02  0.7818608E-02  0.1180000E+00
       11   -1    0    0    0    0  0.00000000000E+00  0.00000000000E+00  0.39999999673E+01  0.40000000000E+01  0.51109989000E-03 0.  1.
     -623   -1    0    0    0    0  0.00000000000E+00  0.00000000000E+00  0.12525980253E-10  0.17130000000E+03  0.17130000000E+03 0.  1.
       11    1    1    2    0    0 -0.32017888408E+00 -0.17009759898E+00  0.30314289728E+00  0.47259241253E+00  0.51109989000E-03 0.  1.
     -623    1    1    2    0    0 -0.20109259089E+00  0.31147466817E+00  0.91824081569E+00  0.17130286227E+03  0.17130000000E+03 0.  1.
      622    1    1    2    0    0  0.52127147497E+00 -0.14137706920E+00  0.27786162544E+01  0.35245453204E+01  0.21000000000E+01 0.  1.
</event>
<event>
 5   0  0.7462600E-02  0.9118800E+02  0.7818608E-02  0.1180000E+00
       11   -1    0    0    0    0  0.00000000000E+00  0.00000000000E+00  0.39999999673E+01  0.40000000000E+01  0.51109989000E-03 0.  1.
     -623   -1    0    0    0    0  0.00000000000E+00  0.00000000000E+00  0.12525980253E-10  0.17130000000E+03  0.17130000000E+03 0.  1.
       11    1    1    2    0    0 -0.11614686100E+00  0.20067379406E-01  0.74177715127E-01  0.13926732453E+00  0.51109989000E-03 0.  1.
     -623    1    1    2    0    0  0.32064942348E+00 -0.15651447947E+00  0.69766774326E+00  0.17130179232E+03  0.17130000000E+03 0.  1.
      622    1    1    2    0    0 -0.20450256248E+00  0.13644710006E+00  0.32281545090E+01  0.38589403523E+01  0.21000000000E+01 0.  1.
</event>
<event>
 5   0  0.7462600E-02  0.9118800E+02  0.7818608E-02  0.1180000E+00
       11   -1    0    0    0    0  0.00000000000E+00  0.00000000000E+00  0.39999999673E+01  0.40000000000E+01  0.51109989000E-03 0. -1.
     -623   -1    0    0    0    0  0.00000000000E+00  0.00000000000E+00  0.12525980253E-10  0.17130000000E+03  0.17130000000E+03 0.  1.
       11    1    1    2    0    0 -0.18049974821E-01  0.19577885702E+00 -0.63038247361E-01  0.20646850680E+00  0.51109989000E-03 0. -1.
     -623    1    1    2    0    0  0.13537744101E+00 -0.10736012067E+00  0.91021479758E+00  0.17130250536E+03  0.17130000000E+03 0.  1.
      622    1    1    2    0    0 -0.11732746619E+00 -0.88418736345E-01  0.31528234171E+01  0.37910261285E+01  0.21000000000E+01 0. -1.
</event>
<event>
 5   0  0.7462600E-02  0.9118800E+02  0.7818608E-02  0.1180000E+00
       11   -1    0    0    0    0  0.00000000000E+00  0.00000000000E+00  0.39999999673E+01  0.40000000000E+01  0.51109989000E-03 0.  1.
     -623   -1    0    0    0    0  0.00000000000E+00  0.00000000000E+00  0.12525980253E-10  0.17130000000E+03  0.17130000000E+03 0.  1.
       11    1    1    2    0    0 -0.91922449173E-01 -0.67752675393E-01  0.25035588683E+00  0.27516993473E+00  0.51109989000E-03 0.  1.
     -623    1    1    2    0    0  0.57628533039E+00 -0.55849953467E-01  0.71715209022E+00  0.17130247964E+03  0.17130000000E+03 0.  1.
      622    1    1    2    0    0 -0.48436288122E+00  0.12360262886E+00  0.30324919903E+01  0.37223504244E+01  0.21000000000E+01 0.  1.
</event>
<event>
 5   0  0.7462600E-02  0.9118800E+02  0.7818608E-02  0.1180000E+00
       11   -1    0    0    0    0  0.00000000000E+00  0.00000000000E+00  0.39999999673E+01  0.40000000000E+01  0.51109989000E-03 0. -1.
     -623   -1    0    0    0    0  0.00000000000E+00  0.00000000000E+00  0.12525980253E-10  0.17130000000E+03  0.17130000000E+03 0.  1.
       11    1    1    2    0    0 -0.63272533233E-01 -0.15934960622E+00 -0.17355733418E+00  0.24396335777E+00  0.51109989000E-03 0. -1.
     -623    1    1    2    0    0 -0.13010890861E+00  0.54933001179E-01  0.10713127751E+01  0.17130340819E+03  0.17130000000E+03 0.  1.
      622    1    1    2    0    0  0.19338144184E+00  0.10441660504E+00  0.31022445264E+01  0.37526284536E+01  0.21000000000E+01 0. -1.
</event>
<event>
 5   0  0.7462600E-02  0.9118800E+02  0.7818608E-02  0.1180000E+00
       11   -1    0    0    0    0  0.00000000000E+00  0.00000000000E+00  0.39999999673E+01  0.40000000000E+01  0.51109989000E-03 0.  1.
     -623   -1    0    0    0    0  0.00000000000E+00  0.00000000000E+00  0.12525980253E-10  0.17130000000E+03  0.17130000000E+03 0. -1.
       11    1    1    2    0    0 -0.27890757733E-01  0.10168119159E+00  0.21433477571E-02  0.10546001258E+00  0.51109989000E-03 0.  1.
     -623    1    1    2    0    0  0.66107894087E-02 -0.50622061864E-01  0.72027672488E+00  0.17130152190E+03  0.17130000000E+03 0. -1.
      622    1    1    2    0    0  0.21279968325E-01 -0.51059129727E-01  0.32775798947E+01  0.38930180886E+01  0.21000000000E+01 0.  1.
</event>
<event>
 5   0  0.7462600E-02  0.9118800E+02  0.7818608E-02  0.1180000E+00
       11   -1    0    0    0    0  0.00000000000E+00  0.00000000000E+00  0.39999999673E+01  0.40000000000E+01  0.51109989000E-03 0. -1.
     -623   -1    0    0    0    0  0.00000000000E+00  0.00000000000E+00  0.12525980253E-10  0.17130000000E+03  0.17130000000E+03 0.  1.
       11    1    1    2    0    0  0.10259339755E+00  0.76456255878E-01 -0.25248186566E-01  0.13041739313E+00  0.51109989000E-03 0. -1.
     -623    1    1    2    0    0  0.36930688227E+00 -0.29912459003E+00  0.82039251534E+00  0.17130262376E+03  0.17130000000E+03 0.  1.
      622    1    1    2    0    0 -0.47190027983E+00  0.22266833416E+00  0.32048556386E+01  0.38669588471E+01  0.21000000000E+01 0. -1.
</event>
<event>
 5   0  0.7462600E-02  0.9118800E+02  0.7818608E-02  0.1180000E+00
       11   -1    0    0    0    0  0.00000000000E+00  0.00000000000E+00  0.39999999673E+01  0.40000000000E+01  0.51109989000E-03 0. -1.
     -623   -1    0    0    0    0  0.00000000000E+00  0.00000000000E+00  0.12525980253E-10  0.17130000000E+03  0.17130000000E+03 0.  1.
       11    1    1    2    0    0  0.36190820051E+00  0.32525289673E+00 -0.24312496191E+00  0.54394577005E+00  0.51109989000E-03 0. -1.
     -623    1    1    2    0    0 -0.16539693035E+00 -0.58202168208E+00  0.15273607620E+01  0.17130787762E+03  0.17130000000E+03 0.  1.
      622    1    1    2    0    0 -0.19651127017E+00  0.25676878535E+00  0.27157641673E+01  0.34481766052E+01  0.21000000000E+01 0. -1.
</event>
<event>
 5   0  0.7462600E-02  0.9118800E+02  0.7818608E-02  0.1180000E+00
       11   -1    0    0    0    0  0.00000000000E+00  0.00000000000E+00  0.39999999673E+01  0.40000000000E+01  0.51109989000E-03 0.  1.
     -623   -1    0    0    0    0  0.00000000000E+00  0.00000000000E+00  0.12525980253E-10  0.17130000000E+03  0.17130000000E+03 0.  1.
       11    1    1    2    0    0  0.14732787964E+00  0.12775800655E+00  0.47245792997E+00  0.51112069922E+00  0.51109989000E-03 0.  1.
     -623    1    1    2    0    0 -0.39156005290E+00  0.91725778092E-01  0.76361532397E+00  0.17130217407E+03  0.17130000000E+03 0.  1.
      622    1    1    2    0    0  0.24423217326E+00 -0.21948378464E+00  0.27639267134E+01  0.34867052303E+01  0.21000000000E+01 0.  1.
</event>
<event>
 5   0  0.7462600E-02  0.9118800E+02  0.7818608E-02  0.1180000E+00
       11   -1    0    0    0    0  0.00000000000E+00  0.00000000000E+00  0.39999999673E+01  0.40000000000E+01  0.51109989000E-03 0. -1.
     -623   -1    0    0    0    0  0.00000000000E+00  0.00000000000E+00  0.12525980253E-10  0.17130000000E+03  0.17130000000E+03 0.  1.
       11    1    1    2    0    0  0.16398250258E+00  0.79514858994E-01  0.56717719852E+00  0.59573745030E+00  0.51109989000E-03 0. -1.
     -623    1    1    2    0    0 -0.53462289003E+00 -0.41173145873E+00  0.80425503207E+00  0.17130321705E+03  0.17130000000E+03 0.  1.
      622    1    1    2    0    0  0.37064038745E+00  0.33221659973E+00  0.26285677368E+01  0.34010455029E+01  0.21000000000E+01 0. -1.
</event>
<event>
 5   0  0.7462600E-02  0.9118800E+02  0.7818608E-02  0.1180000E+00
       11   -1    0    0    0    0  0.00000000000E+00  0.00000000000E+00  0.39999999673E+01  0.40000000000E+01  0.51109989000E-03 0.  1.
     -623   -1    0    0    0    0  0.00000000000E+00  0.00000000000E+00  0.12525980253E-10  0.17130000000E+03  0.17130000000E+03 0.  1.
       11    1    1    2    0    0 -0.90023395604E-01  0.19701235810E+00  0.89495910372E-01  0.23436693495E+00  0.51109989000E-03 0.  1.
     -623    1    1    2    0    0  0.44391629740E+00 -0.70584767117E-01  0.81052150815E+00  0.17130250725E+03  0.17130000000E+03 0.  1.
      622    1    1    2    0    0 -0.35389290180E+00 -0.12642759099E+00  0.30999825488E+01  0.37631258184E+01  0.21000000000E+01 0.  1.
</event>
<event>
 5   0  0.7462600E-02  0.9118800E+02  0.7818608E-02  0.1180000E+00
       11   -1    0    0    0    0  0.00000000000E+00  0.00000000000E+00  0.39999999673E+01  0.40000000000E+01  0.51109989000E-03 0.  1.
     -623   -1    0    0    0    0  0.00000000000E+00  0.00000000000E+00  0.12525980253E-10  0.17130000000E+03  0.17130000000E+03 0. -1.
       11    1    1    2    0    0 -0.71805764404E-01 -0.25427483733E+00 -0.94355156860E-01  0.28056178918E+00  0.51109989000E-03 0.  1.
     -623    1    1    2    0    0 -0.60986209176E+00  0.50528313023E+00  0.11184867622E+01  0.17130548227E+03  0.17130000000E+03 0. -1.
      622    1    1    2    0    0  0.68166785616E+00 -0.25100829290E+00  0.29758683620E+01  0.37139559417E+01  0.21000000000E+01 0.  1.
</event>
<event>
 5   0  0.7462600E-02  0.9118800E+02  0.7818608E-02  0.1180000E+00
       11   -1    0    0    0    0  0.00000000000E+00  0.00000000000E+00  0.39999999673E+01  0.40000000000E+01  0.51109989000E-03 0. -1.
     -623   -1    0    0    0    0  0.00000000000E+00  0.00000000000E+00  0.12525980253E-10  0.17130000000E+03  0.17130000000E+03 0. -1.
       11    1    1    2    0    0 -0.24019172074E+00  0.12797338574E+00  0.16983663076E+00  0.32080210807E+00  0.51109989000E-03 0. -1.
     -623    1    1    2    0    0  0.13007365698E+00  0.88039948279E-01  0.82139402835E+00  0.17130204131E+03  0.17130000000E+03 0. -1.
      622    1    1    2    0    0  0.11011806376E+00 -0.21601333402E+00  0.30087693083E+01  0.36771565779E+01  0.21000000000E+01 0.  0.
</event>
<event>
 5   0  0.7462600E-02  0.9118800E+02  0.7818608E-02  0.1180000E+00
       11   -1    0    0    0    0  0.00000000000E+00  0.00000000000E+00  0.39999999673E+01  0.40000000000E+01  0.51109989000E-03 0. -1.
     -623   -1    0    0    0    0  0.00000000000E+00  0.00000000000E+00  0.12525980253E-10  0.17130000000E+03  0.17130000000E+03 0.  1.
       11    1    1    2    0    0 -0.39694946176E-01 -0.30777720885E-01  0.90387457507E-02  0.51038387513E-01  0.51109989000E-03 0. -1.
     -623    1    1    2    0    0 -0.20472862838E+00  0.44764113463E+00  0.68423994712E+00  0.17130207378E+03  0.17130000000E+03 0.  1.
      622    1    1    2    0    0  0.24442357455E+00 -0.41686341375E+00  0.33067212745E+01  0.39468878343E+01  0.21000000000E+01 0. -1.
</event>
<event>
 5   0  0.7462600E-02  0.9118800E+02  0.7818608E-02  0.1180000E+00
       11   -1    0    0    0    0  0.00000000000E+00  0.00000000000E+00  0.39999999673E+01  0.40000000000E+01  0.51109989000E-03 0.  1.
     -623   -1    0    0    0    0  0.00000000000E+00  0.00000000000E+00  0.12525980253E-10  0.17130000000E+03  0.17130000000E+03 0. -1.
       11    1    1    2    0    0 -0.15229777354E+00 -0.20368382014E-01  0.21633605918E+00  0.26535077639E+00  0.51109989000E-03 0.  1.
     -623    1    1    2    0    0 -0.20900815497E+00  0.54682759421E+00  0.76544162124E+00  0.17130271044E+03  0.17130000000E+03 0. -1.
      622    1    1    2    0    0  0.36130592851E+00 -0.52645921219E+00  0.30182222869E+01  0.37319387789E+01  0.21000000000E+01 0.  1.
</event>
<event>
 5   0  0.7462600E-02  0.9118800E+02  0.7818608E-02  0.1180000E+00
       11   -1    0    0    0    0  0.00000000000E+00  0.00000000000E+00  0.39999999673E+01  0.40000000000E+01  0.51109989000E-03 0.  1.
     -623   -1    0    0    0    0  0.00000000000E+00  0.00000000000E+00  0.12525980253E-10  0.17130000000E+03  0.17130000000E+03 0. -1.
       11    1    1    2    0    0  0.10350298484E+00  0.83096882369E-01  0.23270291878E-01  0.13475803293E+00  0.51109989000E-03 0.  1.
     -623    1    1    2    0    0  0.26901610474E+00  0.18310005558E+00  0.76661785401E+00  0.17130202450E+03  0.17130000000E+03 0. -1.
      622    1    1    2    0    0 -0.37251908958E+00 -0.26619693795E+00  0.32101118215E+01  0.38632174658E+01  0.21000000000E+01 0.  1.
</event>
<event>
 5   0  0.7462600E-02  0.9118800E+02  0.7818608E-02  0.1180000E+00
       11   -1    0    0    0    0  0.00000000000E+00  0.00000000000E+00  0.39999999673E+01  0.40000000000E+01  0.51109989000E-03 0. -1.
     -623   -1    0    0    0    0  0.00000000000E+00  0.00000000000E+00  0.12525980253E-10  0.17130000000E+03  0.17130000000E+03 0. -1.
       11    1    1    2    0    0 -0.17928279348E+00 -0.18731068203E-01 -0.74827008335E-01  0.19517303951E+00  0.51109989000E-03 0. -1.
     -623    1    1    2    0    0  0.42180896917E+00 -0.24120063940E+00  0.92585073675E+00  0.17130319116E+03  0.17130000000E+03 0. -1.
      622    1    1    2    0    0 -0.24252617569E+00  0.25993170760E+00  0.31489762389E+01  0.38016358047E+01  0.21000000000E+01 0. -1.
</event>
<event>
 5   0  0.7462600E-02  0.9118800E+02  0.7818608E-02  0.1180000E+00
       11   -1    0    0    0    0  0.00000000000E+00  0.00000000000E+00  0.39999999673E+01  0.40000000000E+01  0.51109989000E-03 0.  1.
     -623   -1    0    0    0    0  0.00000000000E+00  0.00000000000E+00  0.12525980253E-10  0.17130000000E+03  0.17130000000E+03 0.  1.
       11    1    1    2    0    0 -0.38346302808E-01 -0.17276716949E+00  0.30190093751E+00  0.34994766906E+00  0.51109989000E-03 0.  1.
     -623    1    1    2    0    0  0.47048147990E+00  0.11663304257E+00  0.74749171486E+00  0.17130231668E+03  0.17130000000E+03 0.  1.
      622    1    1    2    0    0 -0.43213517709E+00  0.56134126914E-01  0.29506073150E+01  0.36477356509E+01  0.21000000000E+01 0.  1.
</event>
<event>
 5   0  0.7462600E-02  0.9118800E+02  0.7818608E-02  0.1180000E+00
       11   -1    0    0    0    0  0.00000000000E+00  0.00000000000E+00  0.39999999673E+01  0.40000000000E+01  0.51109989000E-03 0.  1.
     -623   -1    0    0    0    0  0.00000000000E+00  0.00000000000E+00  0.12525980253E-10  0.17130000000E+03  0.17130000000E+03 0. -1.
       11    1    1    2    0    0  0.49118535091E-01  0.26048864382E-01  0.14738294019E-01  0.57520886283E-01  0.51109989000E-03 0.  1.
     -623    1    1    2    0    0 -0.96786489683E-01 -0.17324634053E-01  0.65047016399E+00  0.17130126322E+03  0.17130000000E+03 0. -1.
      622    1    1    2    0    0  0.47667954592E-01 -0.87242303293E-02  0.33347915093E+01  0.39412158983E+01  0.21000000000E+01 0.  1.
</event>
<event>
 5   0  0.7462600E-02  0.9118800E+02  0.7818608E-02  0.1180000E+00
       11   -1    0    0    0    0  0.00000000000E+00  0.00000000000E+00  0.39999999673E+01  0.40000000000E+01  0.51109989000E-03 0. -1.
     -623   -1    0    0    0    0  0.00000000000E+00  0.00000000000E+00  0.12525980253E-10  0.17130000000E+03  0.17130000000E+03 0. -1.
       11    1    1    2    0    0  0.44057184210E-01 -0.16569165534E+00  0.31596844913E+00  0.35948724900E+00  0.51109989000E-03 0. -1.
     -623    1    1    2    0    0  0.15055490921E+01 -0.13506618933E+01  0.16850677468E+01  0.17132022770E+03  0.17130000000E+03 0. -1.
      622    1    1    2    0    0 -0.15496062763E+01  0.15163535487E+01  0.19989637715E+01  0.36202850517E+01  0.21000000000E+01 0.  0.
</event>
<event>
 5   0  0.7462600E-02  0.9118800E+02  0.7818608E-02  0.1180000E+00
       11   -1    0    0    0    0  0.00000000000E+00  0.00000000000E+00  0.39999999673E+01  0.40000000000E+01  0.51109989000E-03 0. -1.
     -623   -1    0    0    0    0  0.00000000000E+00  0.00000000000E+00  0.12525980253E-10  0.17130000000E+03  0.17130000000E+03 0.  1.
       11    1    1    2    0    0  0.22659198165E-01  0.48308577573E+00  0.70127392881E+00  0.85186307023E+00  0.51109989000E-03 0. -1.
     -623    1    1    2    0    0 -0.51382162221E-01 -0.17953575845E+00  0.97717101795E+00  0.17130288887E+03  0.17130000000E+03 0.  1.
      622    1    1    2    0    0  0.28722964056E-01 -0.30355001729E+00  0.23215550206E+01  0.31452480562E+01  0.21000000000E+01 0. -1.
</event>
<event>
 5   0  0.7462600E-02  0.9118800E+02  0.7818608E-02  0.1180000E+00
       11   -1    0    0    0    0  0.00000000000E+00  0.00000000000E+00  0.39999999673E+01  0.40000000000E+01  0.51109989000E-03 0. -1.
     -623   -1    0    0    0    0  0.00000000000E+00  0.00000000000E+00  0.12525980253E-10  0.17130000000E+03  0.17130000000E+03 0.  1.
       11    1    1    2    0    0 -0.43019455087E-01 -0.93713118144E-01  0.67152135260E-02  0.10333526670E+00  0.51109989000E-03 0. -1.
     -623    1    1    2    0    0  0.48351260356E+00  0.15783237495E+00  0.74407292464E+00  0.17130237109E+03  0.17130000000E+03 0.  1.
      622    1    1    2    0    0 -0.44049314847E+00 -0.64119256809E-01  0.32492118292E+01  0.38942936463E+01  0.21000000000E+01 0. -1.
</event>
<event>
 5   0  0.7462600E-02  0.9118800E+02  0.7818608E-02  0.1180000E+00
       11   -1    0    0    0    0  0.00000000000E+00  0.00000000000E+00  0.39999999673E+01  0.40000000000E+01  0.51109989000E-03 0. -1.
     -623   -1    0    0    0    0  0.00000000000E+00  0.00000000000E+00  0.12525980253E-10  0.17130000000E+03  0.17130000000E+03 0. -1.
       11    1    1    2    0    0 -0.26513739940E+00 -0.80957069533E-02  0.48434188775E-01  0.26964701537E+00  0.51109989000E-03 0. -1.
     -623    1    1    2    0    0  0.30401823313E-01  0.89495840435E-01  0.88127185719E+00  0.17130229296E+03  0.17130000000E+03 0. -1.
      622    1    1    2    0    0  0.23473557609E+00 -0.81400133482E-01  0.30702939214E+01  0.37280600231E+01  0.21000000000E+01 0. -1.
</event>
<event>
 5   0  0.7462600E-02  0.9118800E+02  0.7818608E-02  0.1180000E+00
       11   -1    0    0    0    0  0.00000000000E+00  0.00000000000E+00  0.39999999673E+01  0.40000000000E+01  0.51109989000E-03 0. -1.
     -623   -1    0    0    0    0  0.00000000000E+00  0.00000000000E+00  0.12525980253E-10  0.17130000000E+03  0.17130000000E+03 0.  1.
       11    1    1    2    0    0  0.17751883180E+00 -0.11120395708E+00  0.25582852824E+00  0.33064747511E+00  0.51109989000E-03 0. -1.
     -623    1    1    2    0    0 -0.20841382797E+00  0.78379147398E-01  0.73761149618E+00  0.17130173277E+03  0.17130000000E+03 0.  1.
      622    1    1    2    0    0  0.30894996169E-01  0.32824809682E-01  0.30065599429E+01  0.36676197539E+01  0.21000000000E+01 0. -1.
</event>
<event>
 5   0  0.7462600E-02  0.9118800E+02  0.7818608E-02  0.1180000E+00
       11   -1    0    0    0    0  0.00000000000E+00  0.00000000000E+00  0.39999999673E+01  0.40000000000E+01  0.51109989000E-03 0. -1.
     -623   -1    0    0    0    0  0.00000000000E+00  0.00000000000E+00  0.12525980253E-10  0.17130000000E+03  0.17130000000E+03 0.  1.
       11    1    1    2    0    0  0.23588969316E+00 -0.10453588633E+00  0.32571874625E+00  0.41552937532E+00  0.51109989000E-03 0. -1.
     -623    1    1    2    0    0  0.31211148667E+00 -0.47462595582E+00  0.88509463491E+00  0.17130322845E+03  0.17130000000E+03 0.  1.
      622    1    1    2    0    0 -0.54800117982E+00  0.57916184216E+00  0.27891865862E+01  0.35812421791E+01  0.21000000000E+01 0. -1.
</event>
<event>
 5   0  0.7462600E-02  0.9118800E+02  0.7818608E-02  0.1180000E+00
       11   -1    0    0    0    0  0.00000000000E+00  0.00000000000E+00  0.39999999673E+01  0.40000000000E+01  0.51109989000E-03 0.  1.
     -623   -1    0    0    0    0  0.00000000000E+00  0.00000000000E+00  0.12525980253E-10  0.17130000000E+03  0.17130000000E+03 0.  1.
       11    1    1    2    0    0  0.92828024568E-01  0.23829845504E+00 -0.62386976926E-01  0.26324055905E+00  0.51109989000E-03 0.  1.
     -623    1    1    2    0    0 -0.27825472731E+00  0.56357998363E-01  0.99500686935E+00  0.17130312502E+03  0.17130000000E+03 0.  1.
      622    1    1    2    0    0  0.18542670274E+00 -0.29465645340E+00  0.30673800749E+01  0.37336344240E+01  0.21000000000E+01 0.  1.
</event>
<event>
 5   0  0.7462600E-02  0.9118800E+02  0.7818608E-02  0.1180000E+00
       11   -1    0    0    0    0  0.00000000000E+00  0.00000000000E+00  0.39999999673E+01  0.40000000000E+01  0.51109989000E-03 0.  1.
     -623   -1    0    0    0    0  0.00000000000E+00  0.00000000000E+00  0.12525980253E-10  0.17130000000E+03  0.17130000000E+03 0. -1.
       11    1    1    2    0    0  0.47494863417E-02 -0.16819251121E+00 -0.16095823731E-01  0.16902844498E+00  0.51109989000E-03 0.  1.
     -623    1    1    2    0    0 -0.13034729916E-01 -0.15026821724E+00  0.83035680029E+00  0.17130207892E+03  0.17130000000E+03 0. -1.
      622    1    1    2    0    0  0.82852435744E-02  0.31846072845E+00  0.31857389908E+01  0.38288926334E+01  0.21000000000E+01 0.  1.
</event>
<event>
 5   0  0.7462600E-02  0.9118800E+02  0.7818608E-02  0.1180000E+00
       11   -1    0    0    0    0  0.00000000000E+00  0.00000000000E+00  0.39999999673E+01  0.40000000000E+01  0.51109989000E-03 0. -1.
     -623   -1    0    0    0    0  0.00000000000E+00  0.00000000000E+00  0.12525980253E-10  0.17130000000E+03  0.17130000000E+03 0. -1.
       11    1    1    2    0    0  0.24362464853E+00 -0.38452207507E+00 -0.79990614551E-01  0.46217848849E+00  0.51109989000E-03 0. -1.
     -623    1    1    2    0    0  0.33677087006E+00 -0.37545208532E+00  0.14068511342E+01  0.17130651946E+03  0.17130000000E+03 0. -1.
      622    1    1    2    0    0 -0.58039551859E+00  0.75997416038E+00  0.26731394477E+01  0.35313020530E+01  0.21000000000E+01 0. -1.
</event>
<event>
 5   0  0.7462600E-02  0.9118800E+02  0.7818608E-02  0.1180000E+00
       11   -1    0    0    0    0  0.00000000000E+00  0.00000000000E+00  0.39999999673E+01  0.40000000000E+01  0.51109989000E-03 0.  1.
     -623   -1    0    0    0    0  0.00000000000E+00  0.00000000000E+00  0.12525980253E-10  0.17130000000E+03  0.17130000000E+03 0. -1.
       11    1    1    2    0    0 -0.28920573456E+00  0.25237423499E-01  0.28076669835E+00  0.40386518119E+00  0.51109989000E-03 0.  1.
     -623    1    1    2    0    0  0.54719454091E+00 -0.16076898412E+00  0.81813223829E+00  0.17130290310E+03  0.17130000000E+03 0. -1.
      622    1    1    2    0    0 -0.25798880635E+00  0.13553156062E+00  0.29011010307E+01  0.35932317235E+01  0.21000000000E+01 0.  1.
</event>
<event>
 5   0  0.7462600E-02  0.9118800E+02  0.7818608E-02  0.1180000E+00
       11   -1    0    0    0    0  0.00000000000E+00  0.00000000000E+00  0.39999999673E+01  0.40000000000E+01  0.51109989000E-03 0.  1.
     -623   -1    0    0    0    0  0.00000000000E+00  0.00000000000E+00  0.12525980253E-10  0.17130000000E+03  0.17130000000E+03 0.  1.
       11    1    1    2    0    0 -0.10364294068E+00 -0.12912386985E-01 -0.23217326985E-01  0.10699483344E+00  0.51109989000E-03 0.  1.
     -623    1    1    2    0    0 -0.13381075077E-01 -0.55545867719E-01  0.74995367172E+00  0.17130165117E+03  0.17130000000E+03 0.  1.
      622    1    1    2    0    0  0.11702401576E+00  0.68458254704E-01  0.32732636226E+01  0.38913539927E+01  0.21000000000E+01 0.  1.
</event>
<event>
 5   0  0.7462600E-02  0.9118800E+02  0.7818608E-02  0.1180000E+00
       11   -1    0    0    0    0  0.00000000000E+00  0.00000000000E+00  0.39999999673E+01  0.40000000000E+01  0.51109989000E-03 0.  1.
     -623   -1    0    0    0    0  0.00000000000E+00  0.00000000000E+00  0.12525980253E-10  0.17130000000E+03  0.17130000000E+03 0.  1.
       11    1    1    2    0    0 -0.21573448324E+00  0.21954135176E+00  0.21299392921E+00  0.37430795810E+00  0.51109989000E-03 0.  1.
     -623    1    1    2    0    0 -0.10280630282E+00  0.17633964830E+00  0.87835564398E+00  0.17130237352E+03  0.17130000000E+03 0.  1.
      622    1    1    2    0    0  0.31854078606E+00 -0.39588100007E+00  0.29086503942E+01  0.36233185223E+01  0.21000000000E+01 0.  1.
</event>
<event>
 5   0  0.7462600E-02  0.9118800E+02  0.7818608E-02  0.1180000E+00
       11   -1    0    0    0    0  0.00000000000E+00  0.00000000000E+00  0.39999999673E+01  0.40000000000E+01  0.51109989000E-03 0. -1.
     -623   -1    0    0    0    0  0.00000000000E+00  0.00000000000E+00  0.12525980253E-10  0.17130000000E+03  0.17130000000E+03 0. -1.
       11    1    1    2    0    0 -0.11305611472E+00 -0.10622203709E-01  0.81395484279E-01  0.13971400206E+00  0.51109989000E-03 0. -1.
     -623    1    1    2    0    0  0.89921243028E-01  0.51387035927E-01  0.68149076816E+00  0.17130138691E+03  0.17130000000E+03 0. -1.
      622    1    1    2    0    0  0.23134871690E-01 -0.40764832218E-01  0.32371137149E+01  0.38588990913E+01  0.21000000000E+01 0. -1.
</event>
<event>
 5   0  0.7462600E-02  0.9118800E+02  0.7818608E-02  0.1180000E+00
       11   -1    0    0    0    0  0.00000000000E+00  0.00000000000E+00  0.39999999673E+01  0.40000000000E+01  0.51109989000E-03 0. -1.
     -623   -1    0    0    0    0  0.00000000000E+00  0.00000000000E+00  0.12525980253E-10  0.17130000000E+03  0.17130000000E+03 0. -1.
       11    1    1    2    0    0  0.17879616161E+00  0.19120668268E+00  0.14822630473E+00  0.30083111798E+00  0.51109989000E-03 0. -1.
     -623    1    1    2    0    0  0.13099657031E+00  0.83488511049E+00  0.10078888110E+01  0.17130504964E+03  0.17130000000E+03 0. -1.
      622    1    1    2    0    0 -0.30979273192E+00 -0.10260917932E+01  0.28438848516E+01  0.36941192393E+01  0.21000000000E+01 0. -1.
</event>
<event>
 5   0  0.7462600E-02  0.9118800E+02  0.7818608E-02  0.1180000E+00
       11   -1    0    0    0    0  0.00000000000E+00  0.00000000000E+00  0.39999999673E+01  0.40000000000E+01  0.51109989000E-03 0.  1.
     -623   -1    0    0    0    0  0.00000000000E+00  0.00000000000E+00  0.12525980253E-10  0.17130000000E+03  0.17130000000E+03 0. -1.
       11    1    1    2    0    0  0.16212551234E+00  0.10761020453E+00  0.93163216760E-01  0.21574124327E+00  0.51109989000E-03 0.  1.
     -623    1    1    2    0    0 -0.19498114493E+00 -0.15667130600E+00  0.76153266117E+00  0.17130187534E+03  0.17130000000E+03 0. -1.
      622    1    1    2    0    0  0.32855632593E-01  0.49061101461E-01  0.31453040894E+01  0.37823834152E+01  0.21000000000E+01 0.  1.
</event>
<event>
 5   0  0.7462600E-02  0.9118800E+02  0.7818608E-02  0.1180000E+00
       11   -1    0    0    0    0  0.00000000000E+00  0.00000000000E+00  0.39999999673E+01  0.40000000000E+01  0.51109989000E-03 0.  1.
     -623   -1    0    0    0    0  0.00000000000E+00  0.00000000000E+00  0.12525980253E-10  0.17130000000E+03  0.17130000000E+03 0. -1.
       11    1    1    2    0    0 -0.23750036705E+00  0.19889810187E+00  0.11476081032E+01  0.11886847770E+01  0.51109989000E-03 0.  1.
     -623    1    1    2    0    0  0.33757314055E+00 -0.30138082424E+00  0.99405650160E+00  0.17130348197E+03  0.17130000000E+03 0. -1.
      622    1    1    2    0    0 -0.10007277351E+00  0.10248272237E+00  0.18583353626E+01  0.28078332551E+01  0.21000000000E+01 0.  1.
</event>
<event>
 5   0  0.7462600E-02  0.9118800E+02  0.7818608E-02  0.1180000E+00
       11   -1    0    0    0    0  0.00000000000E+00  0.00000000000E+00  0.39999999673E+01  0.40000000000E+01  0.51109989000E-03 0. -1.
     -623   -1    0    0    0    0  0.00000000000E+00  0.00000000000E+00  0.12525980253E-10  0.17130000000E+03  0.17130000000E+03 0.  1.
       11    1    1    2    0    0  0.34497624128E+00  0.51637358634E-01 -0.65627031957E-01  0.35493970249E+00  0.51109989000E-03 0. -1.
     -623    1    1    2    0    0 -0.21819127979E+00  0.69495637539E+00  0.11913392092E+01  0.17130569127E+03  0.17130000000E+03 0.  1.
      622    1    1    2    0    0 -0.12678496149E+00 -0.74659373402E+00  0.28742877902E+01  0.36393690292E+01  0.21000000000E+01 0. -1.
</event>
<event>
 5   0  0.7462600E-02  0.9118800E+02  0.7818608E-02  0.1180000E+00
       11   -1    0    0    0    0  0.00000000000E+00  0.00000000000E+00  0.39999999673E+01  0.40000000000E+01  0.51109989000E-03 0. -1.
     -623   -1    0    0    0    0  0.00000000000E+00  0.00000000000E+00  0.12525980253E-10  0.17130000000E+03  0.17130000000E+03 0.  1.
       11    1    1    2    0    0  0.45195197960E-01 -0.25902831803E-01 -0.50574054399E-01  0.72605501269E-01  0.51109989000E-03 0. -1.
     -623    1    1    2    0    0  0.13579282159E+00 -0.21554967751E+00  0.74768589229E+00  0.17130182117E+03  0.17130000000E+03 0.  1.
      622    1    1    2    0    0 -0.18098801955E+00  0.24145250931E+00  0.33028881295E+01  0.39255733305E+01  0.21000000000E+01 0. -1.
</event>
<event>
 5   0  0.7462600E-02  0.9118800E+02  0.7818608E-02  0.1180000E+00
       11   -1    0    0    0    0  0.00000000000E+00  0.00000000000E+00  0.39999999673E+01  0.40000000000E+01  0.51109989000E-03 0. -1.
     -623   -1    0    0    0    0  0.00000000000E+00  0.00000000000E+00  0.12525980253E-10  0.17130000000E+03  0.17130000000E+03 0. -1.
       11    1    1    2    0    0 -0.29598358882E+00  0.11043695100E+00  0.22819833187E+00  0.38971444018E+00  0.51109989000E-03 0. -1.
     -623    1    1    2    0    0  0.47811815875E+00  0.21168293797E+00  0.86219565419E+00  0.17130296783E+03  0.17130000000E+03 0. -1.
      622    1    1    2    0    0 -0.18213456994E+00 -0.32211988896E+00  0.29096059813E+01  0.36073177280E+01  0.21000000000E+01 0. -1.
</event>
<event>
 5   0  0.7462600E-02  0.9118800E+02  0.7818608E-02  0.1180000E+00
       11   -1    0    0    0    0  0.00000000000E+00  0.00000000000E+00  0.39999999673E+01  0.40000000000E+01  0.51109989000E-03 0.  1.
     -623   -1    0    0    0    0  0.00000000000E+00  0.00000000000E+00  0.12525980253E-10  0.17130000000E+03  0.17130000000E+03 0.  1.
       11    1    1    2    0    0  0.68845890540E-01 -0.80929105153E-02  0.29797680399E-01  0.75454720363E-01  0.51109989000E-03 0.  1.
     -623    1    1    2    0    0 -0.20293858581E+00  0.38233226427E+00  0.68096116664E+00  0.17130190037E+03  0.17130000000E+03 0.  1.
      622    1    1    2    0    0  0.13409269527E+00 -0.37423935375E+00  0.32892411203E+01  0.39226449103E+01  0.21000000000E+01 0.  1.
</event>
<event>
 5   0  0.7462600E-02  0.9118800E+02  0.7818608E-02  0.1180000E+00
       11   -1    0    0    0    0  0.00000000000E+00  0.00000000000E+00  0.39999999673E+01  0.40000000000E+01  0.51109989000E-03 0. -1.
     -623   -1    0    0    0    0  0.00000000000E+00  0.00000000000E+00  0.12525980253E-10  0.17130000000E+03  0.17130000000E+03 0. -1.
       11    1    1    2    0    0 -0.14260873384E-01 -0.92330908153E-02 -0.29525628081E-01  0.34068261070E-01  0.51109989000E-03 0. -1.
     -623    1    1    2    0    0 -0.34694917741E+00 -0.44463232674E-01  0.68714660598E+00  0.17130173531E+03  0.17130000000E+03 0. -1.
      622    1    1    2    0    0  0.36121005079E+00  0.53696323490E-01  0.33423789895E+01  0.39641964262E+01  0.21000000000E+01 0. -1.
</event>
<event>
 5   0  0.7462600E-02  0.9118800E+02  0.7818608E-02  0.1180000E+00
       11   -1    0    0    0    0  0.00000000000E+00  0.00000000000E+00  0.39999999673E+01  0.40000000000E+01  0.51109989000E-03 0.  1.
     -623   -1    0    0    0    0  0.00000000000E+00  0.00000000000E+00  0.12525980253E-10  0.17130000000E+03  0.17130000000E+03 0. -1.
       11    1    1    2    0    0 -0.58829835853E-02  0.16867831653E+00  0.53136018863E+00  0.55752210292E+00  0.51109989000E-03 0.  1.
     -623    1    1    2    0    0 -0.53762275112E+00 -0.31887110519E+00  0.80370560687E+00  0.17130302583E+03  0.17130000000E+03 0. -1.
      622    1    1    2    0    0  0.54350573471E+00  0.15019278866E+00  0.26649341719E+01  0.34394520636E+01  0.21000000000E+01 0.  1.
</event>
<event>
 5   0  0.7462600E-02  0.9118800E+02  0.7818608E-02  0.1180000E+00
       11   -1    0    0    0    0  0.00000000000E+00  0.00000000000E+00  0.39999999673E+01  0.40000000000E+01  0.51109989000E-03 0.  1.
     -623   -1    0    0    0    0  0.00000000000E+00  0.00000000000E+00  0.12525980253E-10  0.17130000000E+03  0.17130000000E+03 0. -1.
       11    1    1    2    0    0 -0.24114520959E-01  0.13567735140E+00  0.32065280686E-01  0.14148603201E+00  0.51109989000E-03 0.  1.
     -623    1    1    2    0    0 -0.60406075877E+00 -0.31624044559E+00  0.80155033093E+00  0.17130323225E+03  0.17130000000E+03 0. -1.
      622    1    1    2    0    0  0.62817527973E+00  0.18056309419E+00  0.31663843557E+01  0.38552817149E+01  0.21000000000E+01 0.  1.
</event>
<event>
 5   0  0.7462600E-02  0.9118800E+02  0.7818608E-02  0.1180000E+00
       11   -1    0    0    0    0  0.00000000000E+00  0.00000000000E+00  0.39999999673E+01  0.40000000000E+01  0.51109989000E-03 0. -1.
     -623   -1    0    0    0    0  0.00000000000E+00  0.00000000000E+00  0.12525980253E-10  0.17130000000E+03  0.17130000000E+03 0.  1.
       11    1    1    2    0    0  0.64207895018E+00  0.33703714302E+00  0.51485004921E+00  0.88934259340E+00  0.51109989000E-03 0. -1.
     -623    1    1    2    0    0 -0.61345777996E+00  0.25919020549E+00  0.12778403952E+01  0.17130606056E+03  0.17130000000E+03 0.  1.
      622    1    1    2    0    0 -0.28621170222E-01 -0.59622734851E+00  0.22073095230E+01  0.31045968422E+01  0.21000000000E+01 0. -1.
</event>
<event>
 5   0  0.7462600E-02  0.9118800E+02  0.7818608E-02  0.1180000E+00
       11   -1    0    0    0    0  0.00000000000E+00  0.00000000000E+00  0.39999999673E+01  0.40000000000E+01  0.51109989000E-03 0. -1.
     -623   -1    0    0    0    0  0.00000000000E+00  0.00000000000E+00  0.12525980253E-10  0.17130000000E+03  0.17130000000E+03 0. -1.
       11    1    1    2    0    0  0.19199371027E+00 -0.20964988581E-01  0.35258954500E+00  0.40202085020E+00  0.51109989000E-03 0. -1.
     -623    1    1    2    0    0 -0.34235926386E+00 -0.16168633664E-01  0.73232255701E+00  0.17130190824E+03  0.17130000000E+03 0. -1.
      622    1    1    2    0    0  0.15036555359E+00  0.37133622245E-01  0.29150878653E+01  0.35960709070E+01  0.21000000000E+01 0. -1.
</event>
<event>
 5   0  0.7462600E-02  0.9118800E+02  0.7818608E-02  0.1180000E+00
       11   -1    0    0    0    0  0.00000000000E+00  0.00000000000E+00  0.39999999673E+01  0.40000000000E+01  0.51109989000E-03 0. -1.
     -623   -1    0    0    0    0  0.00000000000E+00  0.00000000000E+00  0.12525980253E-10  0.17130000000E+03  0.17130000000E+03 0.  1.
       11    1    1    2    0    0  0.66350596454E-02 -0.25882120816E-01  0.21838989279E+00  0.22001889621E+00  0.51109989000E-03 0. -1.
     -623    1    1    2    0    0 -0.12694920362E+00  0.51210034986E+00  0.68145060927E+00  0.17130216793E+03  0.17130000000E+03 0.  1.
      622    1    1    2    0    0  0.12031414397E+00 -0.48621822904E+00  0.31001594653E+01  0.37778131730E+01  0.21000000000E+01 0. -1.
</event>
<event>
 5   0  0.7462600E-02  0.9118800E+02  0.7818608E-02  0.1180000E+00
       11   -1    0    0    0    0  0.00000000000E+00  0.00000000000E+00  0.39999999673E+01  0.40000000000E+01  0.51109989000E-03 0. -1.
     -623   -1    0    0    0    0  0.00000000000E+00  0.00000000000E+00  0.12525980253E-10  0.17130000000E+03  0.17130000000E+03 0. -1.
       11    1    1    2    0    0 -0.41986008932E+00  0.97070344658E-01  0.25878987756E+00  0.50267047692E+00  0.51109989000E-03 0. -1.
     -623    1    1    2    0    0  0.15487331425E+00 -0.25230243995E+00  0.96520610832E+00  0.17130297506E+03  0.17130000000E+03 0. -1.
      622    1    1    2    0    0  0.26498677507E+00  0.15523209529E+00  0.27760039815E+01  0.34943544611E+01  0.21000000000E+01 0. -1.
</event>
<event>
 5   0  0.7462600E-02  0.9118800E+02  0.7818608E-02  0.1180000E+00
       11   -1    0    0    0    0  0.00000000000E+00  0.00000000000E+00  0.39999999673E+01  0.40000000000E+01  0.51109989000E-03 0. -1.
     -623   -1    0    0    0    0  0.00000000000E+00  0.00000000000E+00  0.12525980253E-10  0.17130000000E+03  0.17130000000E+03 0.  1.
       11    1    1    2    0    0  0.15501583266E+00  0.13365689394E+00  0.20116650762E+00  0.28698832500E+00  0.51109989000E-03 0. -1.
     -623    1    1    2    0    0 -0.72879376389E-02  0.17893591613E+00  0.75847883260E+00  0.17130177279E+03  0.17130000000E+03 0.  1.
      622    1    1    2    0    0 -0.14772789502E+00 -0.31259281007E+00  0.30403546271E+01  0.37112388841E+01  0.21000000000E+01 0. -1.
</event>
<event>
 5   0  0.7462600E-02  0.9118800E+02  0.7818608E-02  0.1180000E+00
       11   -1    0    0    0    0  0.00000000000E+00  0.00000000000E+00  0.39999999673E+01  0.40000000000E+01  0.51109989000E-03 0.  1.
     -623   -1    0    0    0    0  0.00000000000E+00  0.00000000000E+00  0.12525980253E-10  0.17130000000E+03  0.17130000000E+03 0.  1.
       11    1    1    2    0    0  0.44824810893E-01 -0.64285886686E-02 -0.16024420675E+00  0.16652044151E+00  0.51109989000E-03 0.  1.
     -623    1    1    2    0    0  0.20814283453E+00  0.14112158767E+00  0.96947768965E+00  0.17130292795E+03  0.17130000000E+03 0.  1.
      622    1    1    2    0    0 -0.25296764542E+00 -0.13469299900E+00  0.31907664845E+01  0.38305516041E+01  0.21000000000E+01 0.  1.
</event>
<event>
 5   0  0.7462600E-02  0.9118800E+02  0.7818608E-02  0.1180000E+00
       11   -1    0    0    0    0  0.00000000000E+00  0.00000000000E+00  0.39999999673E+01  0.40000000000E+01  0.51109989000E-03 0.  1.
     -623   -1    0    0    0    0  0.00000000000E+00  0.00000000000E+00  0.12525980253E-10  0.17130000000E+03  0.17130000000E+03 0. -1.
       11    1    1    2    0    0  0.26429641102E+00  0.12119518916E+00  0.49530918133E+00  0.57434511671E+00  0.51109989000E-03 0.  1.
     -623    1    1    2    0    0 -0.38469048645E+00 -0.64671517682E+00  0.85734544497E+00  0.17130379817E+03  0.17130000000E+03 0. -1.
      622    1    1    2    0    0  0.12039407542E+00  0.52551998766E+00  0.26473453411E+01  0.34218567103E+01  0.21000000000E+01 0.  1.
</event>
<event>
 5   0  0.7462600E-02  0.9118800E+02  0.7818608E-02  0.1180000E+00
       11   -1    0    0    0    0  0.00000000000E+00  0.00000000000E+00  0.39999999673E+01  0.40000000000E+01  0.51109989000E-03 0.  1.
     -623   -1    0    0    0    0  0.00000000000E+00  0.00000000000E+00  0.12525980253E-10  0.17130000000E+03  0.17130000000E+03 0.  1.
       11    1    1    2    0    0 -0.10607803887E+00 -0.48751708835E-01  0.46245729978E-01  0.12557152626E+00  0.51109989000E-03 0.  1.
     -623    1    1    2    0    0  0.10537221401E+00  0.12870738688E+00  0.70058997581E+00  0.17130151341E+03  0.17130000000E+03 0.  1.
      622    1    1    2    0    0  0.70582486334E-03 -0.79955678043E-01  0.32531642616E+01  0.38729150677E+01  0.21000000000E+01 0.  1.
</event>
<event>
 5   0  0.7462600E-02  0.9118800E+02  0.7818608E-02  0.1180000E+00
       11   -1    0    0    0    0  0.00000000000E+00  0.00000000000E+00  0.39999999673E+01  0.40000000000E+01  0.51109989000E-03 0. -1.
     -623   -1    0    0    0    0  0.00000000000E+00  0.00000000000E+00  0.12525980253E-10  0.17130000000E+03  0.17130000000E+03 0. -1.
       11    1    1    2    0    0  0.22710395874E+00  0.47271501095E-01  0.22378891953E+00  0.32232366438E+00  0.51109989000E-03 0. -1.
     -623    1    1    2    0    0 -0.13087133945E+00 -0.31594478966E+00  0.77312627356E+00  0.17130208601E+03  0.17130000000E+03 0. -1.
      622    1    1    2    0    0 -0.96232619293E-01  0.26867328857E+00  0.30030847743E+01  0.36755903219E+01  0.21000000000E+01 0. -1.
</event>
<event>
 5   0  0.7462600E-02  0.9118800E+02  0.7818608E-02  0.1180000E+00
       11   -1    0    0    0    0  0.00000000000E+00  0.00000000000E+00  0.39999999673E+01  0.40000000000E+01  0.51109989000E-03 0. -1.
     -623   -1    0    0    0    0  0.00000000000E+00  0.00000000000E+00  0.12525980253E-10  0.17130000000E+03  0.17130000000E+03 0.  1.
       11    1    1    2    0    0 -0.33088386034E-01  0.11796513390E+00 -0.21550138265E-01  0.12439969368E+00  0.51109989000E-03 0. -1.
     -623    1    1    2    0    0 -0.21908826969E+00 -0.27904753009E+00  0.78054562468E+00  0.17130214569E+03  0.17130000000E+03 0.  1.
      622    1    1    2    0    0  0.25217665573E+00  0.16108239620E+00  0.32410044809E+01  0.38734546144E+01  0.21000000000E+01 0. -1.
</event>
<event>
 5   0  0.7462600E-02  0.9118800E+02  0.7818608E-02  0.1180000E+00
       11   -1    0    0    0    0  0.00000000000E+00  0.00000000000E+00  0.39999999673E+01  0.40000000000E+01  0.51109989000E-03 0.  1.
     -623   -1    0    0    0    0  0.00000000000E+00  0.00000000000E+00  0.12525980253E-10  0.17130000000E+03  0.17130000000E+03 0.  1.
       11    1    1    2    0    0 -0.22201408400E+00 -0.28671533208E+00  0.28514230703E+00  0.46130503100E+00  0.51109989000E-03 0.  1.
     -623    1    1    2    0    0  0.77232586984E-01  0.39921687991E+00  0.87593430296E+00  0.17130272210E+03  0.17130000000E+03 0.  1.
      622    1    1    2    0    0  0.14478149701E+00 -0.11250154782E+00  0.28389233574E+01  0.35359728660E+01  0.21000000000E+01 0.  1.
</event>
<event>
 5   0  0.7462600E-02  0.9118800E+02  0.7818608E-02  0.1180000E+00
       11   -1    0    0    0    0  0.00000000000E+00  0.00000000000E+00  0.39999999673E+01  0.40000000000E+01  0.51109989000E-03 0. -1.
     -623   -1    0    0    0    0  0.00000000000E+00  0.00000000000E+00  0.12525980253E-10  0.17130000000E+03  0.17130000000E+03 0.  1.
       11    1    1    2    0    0  0.73169534093E-02  0.72329546004E-01  0.56159012608E-01  0.91865101930E-01  0.51109989000E-03 0. -1.
     -623    1    1    2    0    0 -0.22965365114E+00 -0.46016601232E+00  0.68085736763E+00  0.17130212509E+03  0.17130000000E+03 0.  1.
      622    1    1    2    0    0  0.22233669773E+00  0.38783646631E+00  0.32629835871E+01  0.39060098082E+01  0.21000000000E+01 0. -1.
</event>
<event>
 5   0  0.7462600E-02  0.9118800E+02  0.7818608E-02  0.1180000E+00
       11   -1    0    0    0    0  0.00000000000E+00  0.00000000000E+00  0.39999999673E+01  0.40000000000E+01  0.51109989000E-03 0. -1.
     -623   -1    0    0    0    0  0.00000000000E+00  0.00000000000E+00  0.12525980253E-10  0.17130000000E+03  0.17130000000E+03 0.  1.
       11    1    1    2    0    0 -0.25733607434E-01 -0.75092817868E-01 -0.69078647424E-02  0.79681426100E-01  0.51109989000E-03 0. -1.
     -623    1    1    2    0    0  0.22084415939E+00  0.10868628493E+00  0.70433855635E+00  0.17130162485E+03  0.17130000000E+03 0.  1.
      622    1    1    2    0    0 -0.19511055195E+00 -0.33593467057E-01  0.33025692757E+01  0.39186937198E+01  0.21000000000E+01 0. -1.
</event>
<event>
 5   0  0.7462600E-02  0.9118800E+02  0.7818608E-02  0.1180000E+00
       11   -1    0    0    0    0  0.00000000000E+00  0.00000000000E+00  0.39999999673E+01  0.40000000000E+01  0.51109989000E-03 0. -1.
     -623   -1    0    0    0    0  0.00000000000E+00  0.00000000000E+00  0.12525980253E-10  0.17130000000E+03  0.17130000000E+03 0. -1.
       11    1    1    2    0    0 -0.39663862801E+00 -0.79557200151E-01  0.68786759960E+00  0.79800604329E+00  0.51109989000E-03 0. -1.
     -623    1    1    2    0    0  0.49820147217E+00  0.31584859935E+00  0.91327140601E+00  0.17130345014E+03  0.17130000000E+03 0. -1.
      622    1    1    2    0    0 -0.10156284416E+00 -0.23629139920E+00  0.23988609617E+01  0.31985438172E+01  0.21000000000E+01 0. -1.
</event>
<event>
 5   0  0.7462600E-02  0.9118800E+02  0.7818608E-02  0.1180000E+00
       11   -1    0    0    0    0  0.00000000000E+00  0.00000000000E+00  0.39999999673E+01  0.40000000000E+01  0.51109989000E-03 0. -1.
     -623   -1    0    0    0    0  0.00000000000E+00  0.00000000000E+00  0.12525980253E-10  0.17130000000E+03  0.17130000000E+03 0.  1.
       11    1    1    2    0    0  0.32738583652E-01  0.52104167977E-01  0.12288387272E+00  0.13743131585E+00  0.51109989000E-03 0. -1.
     -623    1    1    2    0    0 -0.13757822707E-02  0.43873988781E-01  0.63828715507E+00  0.17130119479E+03  0.17130000000E+03 0.  1.
      622    1    1    2    0    0 -0.31362801381E-01 -0.95978156758E-01  0.32388289396E+01  0.38613738917E+01  0.21000000000E+01 0. -1.
</event>
<event>
 5   0  0.7462600E-02  0.9118800E+02  0.7818608E-02  0.1180000E+00
       11   -1    0    0    0    0  0.00000000000E+00  0.00000000000E+00  0.39999999673E+01  0.40000000000E+01  0.51109989000E-03 0.  1.
     -623   -1    0    0    0    0  0.00000000000E+00  0.00000000000E+00  0.12525980253E-10  0.17130000000E+03  0.17130000000E+03 0.  1.
       11    1    1    2    0    0 -0.48420495568E-02  0.11495782244E+00 -0.37857863173E-01  0.12112896189E+00  0.51109989000E-03 0.  1.
     -623    1    1    2    0    0  0.25560493666E-02 -0.11765565792E+00  0.77878060344E+00  0.17130181070E+03  0.17130000000E+03 0.  1.
      622    1    1    2    0    0  0.22860001902E-02  0.26978354838E-02  0.32590772271E+01  0.38770603395E+01  0.21000000000E+01 0.  1.
</event>
<event>
 5   0  0.7462600E-02  0.9118800E+02  0.7818608E-02  0.1180000E+00
       11   -1    0    0    0    0  0.00000000000E+00  0.00000000000E+00  0.39999999673E+01  0.40000000000E+01  0.51109989000E-03 0.  1.
     -623   -1    0    0    0    0  0.00000000000E+00  0.00000000000E+00  0.12525980253E-10  0.17130000000E+03  0.17130000000E+03 0. -1.
       11    1    1    2    0    0  0.24679004842E+00 -0.14445345011E+00  0.23873276583E+00  0.37251271381E+00  0.51109989000E-03 0.  1.
     -623    1    1    2    0    0 -0.15439641732E+00 -0.18034080392E+00  0.82545070158E+00  0.17130215331E+03  0.17130000000E+03 0. -1.
      622    1    1    2    0    0 -0.92393631101E-01  0.32479425403E+00  0.29358165000E+01  0.36253339725E+01  0.21000000000E+01 0.  1.
</event>
<event>
 5   0  0.7462600E-02  0.9118800E+02  0.7818608E-02  0.1180000E+00
       11   -1    0    0    0    0  0.00000000000E+00  0.00000000000E+00  0.39999999673E+01  0.40000000000E+01  0.51109989000E-03 0.  1.
     -623   -1    0    0    0    0  0.00000000000E+00  0.00000000000E+00  0.12525980253E-10  0.17130000000E+03  0.17130000000E+03 0.  1.
       11    1    1    2    0    0  0.97863117594E-01  0.64741514469E-01  0.25751857122E-01  0.12013356254E+00  0.51109989000E-03 0.  1.
     -623    1    1    2    0    0 -0.34179157574E+00  0.16694012864E+00  0.73159639254E+00  0.17130198459E+03  0.17130000000E+03 0.  1.
      622    1    1    2    0    0  0.24392845815E+00 -0.23168164311E+00  0.32426517177E+01  0.38778818495E+01  0.21000000000E+01 0.  1.
</event>
<event>
 5   0  0.7462600E-02  0.9118800E+02  0.7818608E-02  0.1180000E+00
       11   -1    0    0    0    0  0.00000000000E+00  0.00000000000E+00  0.39999999673E+01  0.40000000000E+01  0.51109989000E-03 0.  1.
     -623   -1    0    0    0    0  0.00000000000E+00  0.00000000000E+00  0.12525980253E-10  0.17130000000E+03  0.17130000000E+03 0. -1.
       11    1    1    2    0    0 -0.19453707323E+00 -0.43336755784E-02  0.90827040438E+00  0.92888042411E+00  0.51109989000E-03 0.  1.
     -623    1    1    2    0    0  0.40981346149E+00  0.70822920817E-01  0.86586435512E+00  0.17130269316E+03  0.17130000000E+03 0. -1.
      622    1    1    2    0    0 -0.21527638826E+00 -0.66489245239E-01  0.22258652079E+01  0.30684264154E+01  0.21000000000E+01 0.  1.
</event>
<event>
 5   0  0.7462600E-02  0.9118800E+02  0.7818608E-02  0.1180000E+00
       11   -1    0    0    0    0  0.00000000000E+00  0.00000000000E+00  0.39999999673E+01  0.40000000000E+01  0.51109989000E-03 0. -1.
     -623   -1    0    0    0    0  0.00000000000E+00  0.00000000000E+00  0.12525980253E-10  0.17130000000E+03  0.17130000000E+03 0.  1.
       11    1    1    2    0    0  0.63448168016E-01  0.54746347880E+00  0.93345054068E+00  0.10840074279E+01  0.51109989000E-03 0. -1.
     -623    1    1    2    0    0 -0.70135718014E-01 -0.65757352906E+00  0.10529589630E+01  0.17130451262E+03  0.17130000000E+03 0.  1.
      622    1    1    2    0    0  0.66875499978E-02  0.11011005025E+00  0.20135904636E+01  0.29114799504E+01  0.21000000000E+01 0.  1.
</event>
<event>
 5   0  0.7462600E-02  0.9118800E+02  0.7818608E-02  0.1180000E+00
       11   -1    0    0    0    0  0.00000000000E+00  0.00000000000E+00  0.39999999673E+01  0.40000000000E+01  0.51109989000E-03 0. -1.
     -623   -1    0    0    0    0  0.00000000000E+00  0.00000000000E+00  0.12525980253E-10  0.17130000000E+03  0.17130000000E+03 0. -1.
       11    1    1    2    0    0 -0.13201139293E-01 -0.26151016275E-02  0.60225493735E-02  0.14752666057E-01  0.51109989000E-03 0. -1.
     -623    1    1    2    0    0  0.56851952218E-01  0.46574190040E+00  0.64119927003E+00  0.17130184262E+03  0.17130000000E+03 0. -1.
      622    1    1    2    0    0 -0.43650812925E-01 -0.46312679877E+00  0.33527781480E+01  0.39834047164E+01  0.21000000000E+01 0. -1.
</event>
<event>
 5   0  0.7462600E-02  0.9118800E+02  0.7818608E-02  0.1180000E+00
       11   -1    0    0    0    0  0.00000000000E+00  0.00000000000E+00  0.39999999673E+01  0.40000000000E+01  0.51109989000E-03 0. -1.
     -623   -1    0    0    0    0  0.00000000000E+00  0.00000000000E+00  0.12525980253E-10  0.17130000000E+03  0.17130000000E+03 0.  1.
       11    1    1    2    0    0  0.72547775844E-02  0.21369824227E+00  0.12924780084E+00  0.24984960635E+00  0.51109989000E-03 0. -1.
     -623    1    1    2    0    0  0.79611081478E-01  0.27860966234E+00  0.80682812073E+00  0.17130214515E+03  0.17130000000E+03 0.  1.
      622    1    1    2    0    0 -0.86865859063E-01 -0.49230790461E+00  0.30639240458E+01  0.37480052440E+01  0.21000000000E+01 0. -1.
</event>
<event>
 5   0  0.7462600E-02  0.9118800E+02  0.7818608E-02  0.1180000E+00
       11   -1    0    0    0    0  0.00000000000E+00  0.00000000000E+00  0.39999999673E+01  0.40000000000E+01  0.51109989000E-03 0. -1.
     -623   -1    0    0    0    0  0.00000000000E+00  0.00000000000E+00  0.12525980253E-10  0.17130000000E+03  0.17130000000E+03 0. -1.
       11    1    1    2    0    0  0.28005743054E-01 -0.29963631125E-01  0.18214218298E-01  0.44879391768E-01  0.51109989000E-03 0. -1.
     -623    1    1    2    0    0  0.22449251022E+00 -0.40342827090E+00  0.67027485041E+00  0.17130193350E+03  0.17130000000E+03 0. -1.
      622    1    1    2    0    0 -0.25249825328E+00  0.43339190202E+00  0.33115108987E+01  0.39531871118E+01  0.21000000000E+01 0. -1.
</event>
<event>
 5   0  0.7462600E-02  0.9118800E+02  0.7818608E-02  0.1180000E+00
       11   -1    0    0    0    0  0.00000000000E+00  0.00000000000E+00  0.39999999673E+01  0.40000000000E+01  0.51109989000E-03 0. -1.
     -623   -1    0    0    0    0  0.00000000000E+00  0.00000000000E+00  0.12525980253E-10  0.17130000000E+03  0.17130000000E+03 0. -1.
       11    1    1    2    0    0 -0.63130772982E-01 -0.92856098924E-01 -0.22926414224E+00  0.25528426850E+00  0.51109989000E-03 0. -1.
     -623    1    1    2    0    0  0.38822141720E-01  0.45634934084E+00  0.11557625434E+01  0.17130451118E+03  0.17130000000E+03 0. -1.
      622    1    1    2    0    0  0.24308631263E-01 -0.36349324192E+00  0.30735015662E+01  0.37402045564E+01  0.21000000000E+01 0. -1.
</event>
<event>
 5   0  0.7462600E-02  0.9118800E+02  0.7818608E-02  0.1180000E+00
       11   -1    0    0    0    0  0.00000000000E+00  0.00000000000E+00  0.39999999673E+01  0.40000000000E+01  0.51109989000E-03 0. -1.
     -623   -1    0    0    0    0  0.00000000000E+00  0.00000000000E+00  0.12525980253E-10  0.17130000000E+03  0.17130000000E+03 0. -1.
       11    1    1    2    0    0  0.18646431339E+00 -0.23669185211E+00  0.95139534883E-01  0.31598064078E+00  0.51109989000E-03 0. -1.
     -623    1    1    2    0    0 -0.99499665856E-01  0.45386759737E+00  0.89063134965E+00  0.17130294545E+03  0.17130000000E+03 0. -1.
      622    1    1    2    0    0 -0.86964647530E-01 -0.21717574526E+00  0.30142290828E+01  0.36810739082E+01  0.21000000000E+01 0. -1.
</event>
<event>
 5   0  0.7462600E-02  0.9118800E+02  0.7818608E-02  0.1180000E+00
       11   -1    0    0    0    0  0.00000000000E+00  0.00000000000E+00  0.39999999673E+01  0.40000000000E+01  0.51109989000E-03 0. -1.
     -623   -1    0    0    0    0  0.00000000000E+00  0.00000000000E+00  0.12525980253E-10  0.17130000000E+03  0.17130000000E+03 0.  1.
       11    1    1    2    0    0 -0.33255425080E+00 -0.74895877232E-01 -0.49302260313E-01  0.34443097457E+00  0.51109989000E-03 0. -1.
     -623    1    1    2    0    0  0.69485276952E-01 -0.35134016752E+00  0.11042111746E+01  0.17130393326E+03  0.17130000000E+03 0.  1.
      622    1    1    2    0    0  0.26306897385E+00  0.42623604475E+00  0.29450910530E+01  0.36516357652E+01  0.21000000000E+01 0.  0.
</event>
<event>
 5   0  0.7462600E-02  0.9118800E+02  0.7818608E-02  0.1180000E+00
       11   -1    0    0    0    0  0.00000000000E+00  0.00000000000E+00  0.39999999673E+01  0.40000000000E+01  0.51109989000E-03 0. -1.
     -623   -1    0    0    0    0  0.00000000000E+00  0.00000000000E+00  0.12525980253E-10  0.17130000000E+03  0.17130000000E+03 0. -1.
       11    1    1    2    0    0 -0.16906472108E+00  0.11624320501E+00  0.38187596376E+00  0.43350302830E+00  0.51109989000E-03 0. -1.
     -623    1    1    2    0    0 -0.43444027375E-02 -0.29277735850E+00  0.74841631271E+00  0.17130188517E+03  0.17130000000E+03 0. -1.
      622    1    1    2    0    0  0.17340912382E+00  0.17653415349E+00  0.28697076909E+01  0.35646117969E+01  0.21000000000E+01 0. -1.
</event>
<event>
 5   0  0.7462600E-02  0.9118800E+02  0.7818608E-02  0.1180000E+00
       11   -1    0    0    0    0  0.00000000000E+00  0.00000000000E+00  0.39999999673E+01  0.40000000000E+01  0.51109989000E-03 0.  1.
     -623   -1    0    0    0    0  0.00000000000E+00  0.00000000000E+00  0.12525980253E-10  0.17130000000E+03  0.17130000000E+03 0.  1.
       11    1    1    2    0    0  0.43545342736E-01 -0.55245183033E-01  0.79729352670E-01  0.10632618690E+00  0.51109989000E-03 0.  1.
     -623    1    1    2    0    0  0.18865694815E+00  0.22230175020E+00  0.65573907481E+00  0.17130150321E+03  0.17130000000E+03 0.  1.
      622    1    1    2    0    0 -0.23220229088E+00 -0.16705656717E+00  0.32645315399E+01  0.38921705995E+01  0.21000000000E+01 0.  1.
</event>
<event>
 5   0  0.7462600E-02  0.9118800E+02  0.7818608E-02  0.1180000E+00
       11   -1    0    0    0    0  0.00000000000E+00  0.00000000000E+00  0.39999999673E+01  0.40000000000E+01  0.51109989000E-03 0. -1.
     -623   -1    0    0    0    0  0.00000000000E+00  0.00000000000E+00  0.12525980253E-10  0.17130000000E+03  0.17130000000E+03 0. -1.
       11    1    1    2    0    0 -0.29250203804E-02  0.20522235243E+00  0.24357609005E+00  0.31851898302E+00  0.51109989000E-03 0. -1.
     -623    1    1    2    0    0  0.18500919416E-01 -0.37546951229E+00  0.73992317578E+00  0.17130201051E+03  0.17130000000E+03 0. -1.
      622    1    1    2    0    0 -0.15575899035E-01  0.17024715986E+00  0.30165007015E+01  0.36794705035E+01  0.21000000000E+01 0. -1.
</event>
<event>
 5   0  0.7462600E-02  0.9118800E+02  0.7818608E-02  0.1180000E+00
       11   -1    0    0    0    0  0.00000000000E+00  0.00000000000E+00  0.39999999673E+01  0.40000000000E+01  0.51109989000E-03 0.  1.
     -623   -1    0    0    0    0  0.00000000000E+00  0.00000000000E+00  0.12525980253E-10  0.17130000000E+03  0.17130000000E+03 0. -1.
       11    1    1    2    0    0 -0.29449135795E-01 -0.18650843873E+00 -0.70625071888E-01  0.20159566294E+00  0.51109989000E-03 0.  1.
     -623    1    1    2    0    0  0.27590696631E+00  0.38185583296E+00  0.92497875563E+00  0.17130314511E+03  0.17130000000E+03 0. -1.
      622    1    1    2    0    0 -0.24645783052E+00 -0.19534739423E+00  0.31456462836E+01  0.37952592281E+01  0.21000000000E+01 0.  1.
</event>
<event>
 5   0  0.7462600E-02  0.9118800E+02  0.7818608E-02  0.1180000E+00
       11   -1    0    0    0    0  0.00000000000E+00  0.00000000000E+00  0.39999999673E+01  0.40000000000E+01  0.51109989000E-03 0.  1.
     -623   -1    0    0    0    0  0.00000000000E+00  0.00000000000E+00  0.12525980253E-10  0.17130000000E+03  0.17130000000E+03 0.  1.
       11    1    1    2    0    0 -0.28251009981E-01  0.56179095135E-01  0.75403558627E-01  0.98184358075E-01  0.51109989000E-03 0.  1.
     -623    1    1    2    0    0 -0.14526342323E+00  0.31310131342E+00  0.66346889958E+00  0.17130163258E+03  0.17130000000E+03 0.  1.
      622    1    1    2    0    0  0.17351443321E+00 -0.36928040856E+00  0.32611275092E+01  0.39001830610E+01  0.21000000000E+01 0.  1.
</event>
<event>
 5   0  0.7462600E-02  0.9118800E+02  0.7818608E-02  0.1180000E+00
       11   -1    0    0    0    0  0.00000000000E+00  0.00000000000E+00  0.39999999673E+01  0.40000000000E+01  0.51109989000E-03 0.  1.
     -623   -1    0    0    0    0  0.00000000000E+00  0.00000000000E+00  0.12525980253E-10  0.17130000000E+03  0.17130000000E+03 0.  1.
       11    1    1    2    0    0 -0.17497500822E+00  0.14541762936E+00  0.70531316097E-01  0.23819628084E+00  0.51109989000E-03 0.  1.
     -623    1    1    2    0    0  0.66726413486E+00  0.24026306175E-01  0.85632271994E+00  0.17130344161E+03  0.17130000000E+03 0.  1.
      622    1    1    2    0    0 -0.49228912663E+00 -0.16944393553E+00  0.30731459313E+01  0.37583621096E+01  0.21000000000E+01 0.  1.
</event>
<event>
 5   0  0.7462600E-02  0.9118800E+02  0.7818608E-02  0.1180000E+00
       11   -1    0    0    0    0  0.00000000000E+00  0.00000000000E+00  0.39999999673E+01  0.40000000000E+01  0.51109989000E-03 0. -1.
     -623   -1    0    0    0    0  0.00000000000E+00  0.00000000000E+00  0.12525980253E-10  0.17130000000E+03  0.17130000000E+03 0. -1.
       11    1    1    2    0    0  0.80863495464E-01  0.74260563834E-01 -0.74642557285E-01  0.13276034354E+00  0.51109989000E-03 0. -1.
     -623    1    1    2    0    0 -0.11081673561E+00 -0.57890983459E-01  0.82988046654E+00  0.17130205584E+03  0.17130000000E+03 0. -1.
      622    1    1    2    0    0  0.29953240151E-01 -0.16369580375E-01  0.32447620581E+01  0.38651838214E+01  0.21000000000E+01 0. -1.
</event>
<event>
 5   0  0.7462600E-02  0.9118800E+02  0.7818608E-02  0.1180000E+00
       11   -1    0    0    0    0  0.00000000000E+00  0.00000000000E+00  0.39999999673E+01  0.40000000000E+01  0.51109989000E-03 0. -1.
     -623   -1    0    0    0    0  0.00000000000E+00  0.00000000000E+00  0.12525980253E-10  0.17130000000E+03  0.17130000000E+03 0.  1.
       11    1    1    2    0    0  0.65880953565E-01  0.33046785415E-01  0.84180766913E-02  0.74185681282E-01  0.51109989000E-03 0. -1.
     -623    1    1    2    0    0 -0.34443369634E+00  0.18867247868E+00  0.69603442888E+00  0.17130186425E+03  0.17130000000E+03 0.  1.
      622    1    1    2    0    0  0.27855274277E+00 -0.22171926410E+00  0.32955474618E+01  0.39239500679E+01  0.21000000000E+01 0. -1.
</event>
<event>
 5   0  0.7462600E-02  0.9118800E+02  0.7818608E-02  0.1180000E+00
       11   -1    0    0    0    0  0.00000000000E+00  0.00000000000E+00  0.39999999673E+01  0.40000000000E+01  0.51109989000E-03 0.  1.
     -623   -1    0    0    0    0  0.00000000000E+00  0.00000000000E+00  0.12525980253E-10  0.17130000000E+03  0.17130000000E+03 0. -1.
       11    1    1    2    0    0  0.14612397039E+00  0.21634147108E+00  0.93185238048E-01  0.27719956105E+00  0.51109989000E-03 0.  1.
     -623    1    1    2    0    0 -0.33299927171E+00 -0.80901245171E+00  0.90202407016E+00  0.17130460892E+03  0.17130000000E+03 0. -1.
      622    1    1    2    0    0  0.18687530132E+00  0.59267098063E+00  0.30047906592E+01  0.37181915194E+01  0.21000000000E+01 0.  1.
</event>
<event>
 5   0  0.7462600E-02  0.9118800E+02  0.7818608E-02  0.1180000E+00
       11   -1    0    0    0    0  0.00000000000E+00  0.00000000000E+00  0.39999999673E+01  0.40000000000E+01  0.51109989000E-03 0. -1.
     -623   -1    0    0    0    0  0.00000000000E+00  0.00000000000E+00  0.12525980253E-10  0.17130000000E+03  0.17130000000E+03 0.  1.
       11    1    1    2    0    0 -0.19062648754E-01  0.11972060549E+00  0.34144686019E-01  0.12594653136E+00  0.51109989000E-03 0. -1.
     -623    1    1    2    0    0  0.99587361825E-02  0.48162115245E-01  0.71649220031E+00  0.17130150548E+03  0.17130000000E+03 0.  1.
      622    1    1    2    0    0  0.91039125718E-02 -0.16788272073E+00  0.32493630810E+01  0.38725479883E+01  0.21000000000E+01 0. -1.
</event>
<event>
 5   0  0.7462600E-02  0.9118800E+02  0.7818608E-02  0.1180000E+00
       11   -1    0    0    0    0  0.00000000000E+00  0.00000000000E+00  0.39999999673E+01  0.40000000000E+01  0.51109989000E-03 0.  1.
     -623   -1    0    0    0    0  0.00000000000E+00  0.00000000000E+00  0.12525980253E-10  0.17130000000E+03  0.17130000000E+03 0.  1.
       11    1    1    2    0    0  0.17248718006E+00  0.40352981903E+00 -0.13483002393E+00  0.45909425906E+00  0.51109989000E-03 0.  1.
     -623    1    1    2    0    0  0.27024963911E+00 -0.44628509042E+00  0.13262322888E+01  0.17130592838E+03  0.17130000000E+03 0.  1.
      622    1    1    2    0    0 -0.44273681917E+00  0.42755271395E-01  0.28085977025E+01  0.35349773633E+01  0.21000000000E+01 0.  1.
</event>
<event>
 5   0  0.7462600E-02  0.9118800E+02  0.7818608E-02  0.1180000E+00
       11   -1    0    0    0    0  0.00000000000E+00  0.00000000000E+00  0.39999999673E+01  0.40000000000E+01  0.51109989000E-03 0. -1.
     -623   -1    0    0    0    0  0.00000000000E+00  0.00000000000E+00  0.12525980253E-10  0.17130000000E+03  0.17130000000E+03 0.  1.
       11    1    1    2    0    0  0.77400913265E-02  0.19661903233E+00 -0.69631929130E-02  0.19689515018E+00  0.51109989000E-03 0. -1.
     -623    1    1    2    0    0  0.10843809827E-01 -0.18759758545E+00  0.83887586084E+00  0.17130215709E+03  0.17130000000E+03 0.  1.
      622    1    1    2    0    0 -0.18583901154E-01 -0.90214468754E-02  0.31680872994E+01  0.38009477614E+01  0.21000000000E+01 0. -1.
</event>
<event>
 5   0  0.7462600E-02  0.9118800E+02  0.7818608E-02  0.1180000E+00
       11   -1    0    0    0    0  0.00000000000E+00  0.00000000000E+00  0.39999999673E+01  0.40000000000E+01  0.51109989000E-03 0. -1.
     -623   -1    0    0    0    0  0.00000000000E+00  0.00000000000E+00  0.12525980253E-10  0.17130000000E+03  0.17130000000E+03 0. -1.
       11    1    1    2    0    0 -0.38471127090E-01  0.98014417708E-03 -0.10729881529E+00  0.11399247907E+00  0.51109989000E-03 0. -1.
     -623    1    1    2    0    0  0.91394668902E-02  0.13611458342E+00  0.84312115230E+00  0.17130212919E+03  0.17130000000E+03 0. -1.
      622    1    1    2    0    0  0.29331660200E-01 -0.13709472760E+00  0.32641776303E+01  0.38838783340E+01  0.21000000000E+01 0. -1.
</event>
<event>
 5   0  0.7462600E-02  0.9118800E+02  0.7818608E-02  0.1180000E+00
       11   -1    0    0    0    0  0.00000000000E+00  0.00000000000E+00  0.39999999673E+01  0.40000000000E+01  0.51109989000E-03 0.  1.
     -623   -1    0    0    0    0  0.00000000000E+00  0.00000000000E+00  0.12525980253E-10  0.17130000000E+03  0.17130000000E+03 0. -1.
       11    1    1    2    0    0  0.38083382235E-01 -0.39692781463E-01  0.29398436800E-01  0.62372992629E-01  0.51109989000E-03 0.  1.
     -623    1    1    2    0    0 -0.27834618085E+00  0.11389133505E+00  0.65098458309E+00  0.17130150095E+03  0.17130000000E+03 0. -1.
      622    1    1    2    0    0  0.24026279862E+00 -0.74198553588E-01  0.33196169475E+01  0.39361260543E+01  0.21000000000E+01 0.  1.
</event>
<event>
 5   0  0.7462600E-02  0.9118800E+02  0.7818608E-02  0.1180000E+00
       11   -1    0    0    0    0  0.00000000000E+00  0.00000000000E+00  0.39999999673E+01  0.40000000000E+01  0.51109989000E-03 0. -1.
     -623   -1    0    0    0    0  0.00000000000E+00  0.00000000000E+00  0.12525980253E-10  0.17130000000E+03  0.17130000000E+03 0.  1.
       11    1    1    2    0    0  0.71796293589E-01 -0.21883292854E+00  0.18533683863E+00  0.29562233232E+00  0.51109989000E-03 0. -1.
     -623    1    1    2    0    0  0.16874020589E+00  0.26650039284E+00  0.77539764519E+00  0.17130204534E+03  0.17130000000E+03 0.  1.
      622    1    1    2    0    0 -0.24053649948E+00 -0.47667464301E-01  0.30392654835E+01  0.37023323290E+01  0.21000000000E+01 0. -1.
</event>
<event>
 5   0  0.7462600E-02  0.9118800E+02  0.7818608E-02  0.1180000E+00
       11   -1    0    0    0    0  0.00000000000E+00  0.00000000000E+00  0.39999999673E+01  0.40000000000E+01  0.51109989000E-03 0.  1.
     -623   -1    0    0    0    0  0.00000000000E+00  0.00000000000E+00  0.12525980253E-10  0.17130000000E+03  0.17130000000E+03 0. -1.
       11    1    1    2    0    0  0.84579148492E-01 -0.84394114182E-01 -0.55523592774E-01  0.13175404907E+00  0.51109989000E-03 0.  1.
     -623    1    1    2    0    0 -0.37042077938E-01  0.30396029441E+00  0.81736686480E+00  0.17130222372E+03  0.17130000000E+03 0. -1.
      622    1    1    2    0    0 -0.47537070555E-01 -0.21956618023E+00  0.32381566953E+01  0.38660222276E+01  0.21000000000E+01 0.  1.
</event>
<event>
 5   0  0.7462600E-02  0.9118800E+02  0.7818608E-02  0.1180000E+00
       11   -1    0    0    0    0  0.00000000000E+00  0.00000000000E+00  0.39999999673E+01  0.40000000000E+01  0.51109989000E-03 0. -1.
     -623   -1    0    0    0    0  0.00000000000E+00  0.00000000000E+00  0.12525980253E-10  0.17130000000E+03  0.17130000000E+03 0.  1.
       11    1    1    2    0    0 -0.53049115209E-01 -0.59782219292E-01 -0.71876826438E-02  0.80249899519E-01  0.51109989000E-03 0. -1.
     -623    1    1    2    0    0 -0.36227785560E-01 -0.39786444084E-01  0.70185550785E+00  0.17130144628E+03  0.17130000000E+03 0.  1.
      622    1    1    2    0    0  0.89276900769E-01  0.99568663376E-01  0.33053321422E+01  0.39183038236E+01  0.21000000000E+01 0. -1.
</event>
<event>
 5   0  0.7462600E-02  0.9118800E+02  0.7818608E-02  0.1180000E+00
       11   -1    0    0    0    0  0.00000000000E+00  0.00000000000E+00  0.39999999673E+01  0.40000000000E+01  0.51109989000E-03 0. -1.
     -623   -1    0    0    0    0  0.00000000000E+00  0.00000000000E+00  0.12525980253E-10  0.17130000000E+03  0.17130000000E+03 0.  1.
       11    1    1    2    0    0  0.42933396029E-01 -0.85556945052E-01 -0.16452819993E-01  0.97129932822E-01  0.51109989000E-03 0. -1.
     -623    1    1    2    0    0 -0.10782158356E+00  0.13043762927E+00  0.72960140859E+00  0.17130163735E+03  0.17130000000E+03 0.  1.
      622    1    1    2    0    0  0.64888187530E-01 -0.44880684221E-01  0.32868513788E+01  0.39012327204E+01  0.21000000000E+01 0. -1.
</event>
<event>
 5   0  0.7462600E-02  0.9118800E+02  0.7818608E-02  0.1180000E+00
       11   -1    0    0    0    0  0.00000000000E+00  0.00000000000E+00  0.39999999673E+01  0.40000000000E+01  0.51109989000E-03 0. -1.
     -623   -1    0    0    0    0  0.00000000000E+00  0.00000000000E+00  0.12525980253E-10  0.17130000000E+03  0.17130000000E+03 0.  1.
       11    1    1    2    0    0 -0.33740181605E-01  0.82628940447E-01 -0.33898021552E-01  0.95473968926E-01  0.51109989000E-03 0. -1.
     -623    1    1    2    0    0  0.10265197508E+00  0.10134634360E+00  0.75008431738E+00  0.17130170295E+03  0.17130000000E+03 0.  1.
      622    1    1    2    0    0 -0.68911793480E-01 -0.18397528404E+00  0.32838136715E+01  0.39028230769E+01  0.21000000000E+01 0. -1.
</event>
<event>
 5   0  0.7462600E-02  0.9118800E+02  0.7818608E-02  0.1180000E+00
       11   -1    0    0    0    0  0.00000000000E+00  0.00000000000E+00  0.39999999673E+01  0.40000000000E+01  0.51109989000E-03 0.  1.
     -623   -1    0    0    0    0  0.00000000000E+00  0.00000000000E+00  0.12525980253E-10  0.17130000000E+03  0.17130000000E+03 0.  1.
       11    1    1    2    0    0 -0.15322280425E+00  0.19997017079E+00 -0.15809268363E+00  0.29742033352E+00  0.51109989000E-03 0.  1.
     -623    1    1    2    0    0  0.20550028799E+00  0.37360603249E+00  0.11691261672E+01  0.17130452028E+03  0.17130000000E+03 0.  1.
      622    1    1    2    0    0 -0.52277483743E-01 -0.57357620328E+00  0.29889664838E+01  0.36980593880E+01  0.21000000000E+01 0.  1.
</event>
<event>
 5   0  0.7462600E-02  0.9118800E+02  0.7818608E-02  0.1180000E+00
       11   -1    0    0    0    0  0.00000000000E+00  0.00000000000E+00  0.39999999673E+01  0.40000000000E+01  0.51109989000E-03 0.  1.
     -623   -1    0    0    0    0  0.00000000000E+00  0.00000000000E+00  0.12525980253E-10  0.17130000000E+03  0.17130000000E+03 0.  1.
       11    1    1    2    0    0 -0.36056857895E+00  0.98394898945E-01  0.31215844694E+00  0.48696448894E+00  0.51109989000E-03 0.  1.
     -623    1    1    2    0    0  0.27288709675E+00 -0.43066710721E+00  0.89651181288E+00  0.17130310469E+03  0.17130000000E+03 0. -1.
      622    1    1    2    0    0  0.87681482202E-01  0.33227220826E+00  0.27913297075E+01  0.35099308254E+01  0.21000000000E+01 0.  1.
</event>
<event>
 5   0  0.7462600E-02  0.9118800E+02  0.7818608E-02  0.1180000E+00
       11   -1    0    0    0    0  0.00000000000E+00  0.00000000000E+00  0.39999999673E+01  0.40000000000E+01  0.51109989000E-03 0.  1.
     -623   -1    0    0    0    0  0.00000000000E+00  0.00000000000E+00  0.12525980253E-10  0.17130000000E+03  0.17130000000E+03 0. -1.
       11    1    1    2    0    0 -0.22731617546E+00  0.11599339200E+00  0.13620984441E+00  0.28927580879E+00  0.51109989000E-03 0.  1.
     -623    1    1    2    0    0  0.23308465221E+00  0.59632210170E-01  0.81205912351E+00  0.17130209375E+03  0.17130000000E+03 0. -1.
      622    1    1    2    0    0 -0.57684767503E-02 -0.17562560217E+00  0.30517309994E+01  0.37086304373E+01  0.21000000000E+01 0.  1.
</event>
<event>
 5   0  0.7462600E-02  0.9118800E+02  0.7818608E-02  0.1180000E+00
       11   -1    0    0    0    0  0.00000000000E+00  0.00000000000E+00  0.39999999673E+01  0.40000000000E+01  0.51109989000E-03 0. -1.
     -623   -1    0    0    0    0  0.00000000000E+00  0.00000000000E+00  0.12525980253E-10  0.17130000000E+03  0.17130000000E+03 0. -1.
       11    1    1    2    0    0 -0.23760256302E+00 -0.19904431062E+00  0.35325041284E+00  0.46995715862E+00  0.51109989000E-03 0. -1.
     -623    1    1    2    0    0  0.61053645982E+00  0.29360058968E+00  0.83975763901E+00  0.17130339795E+03  0.17130000000E+03 0. -1.
      622    1    1    2    0    0 -0.37293389680E+00 -0.94556279057E-01  0.28069919155E+01  0.35266448921E+01  0.21000000000E+01 0. -1.
</event>
<event>
 5   0  0.7462600E-02  0.9118800E+02  0.7818608E-02  0.1180000E+00
       11   -1    0    0    0    0  0.00000000000E+00  0.00000000000E+00  0.39999999673E+01  0.40000000000E+01  0.51109989000E-03 0.  1.
     -623   -1    0    0    0    0  0.00000000000E+00  0.00000000000E+00  0.12525980253E-10  0.17130000000E+03  0.17130000000E+03 0.  1.
       11    1    1    2    0    0  0.67934507971E-01  0.52615253840E-01  0.98168413883E-01  0.13046363868E+00  0.51109989000E-03 0.  1.
     -623    1    1    2    0    0  0.55307700087E-01 -0.48353255565E-01  0.65556036266E+00  0.17130127015E+03  0.17130000000E+03 0.  1.
      622    1    1    2    0    0 -0.12324220806E+00 -0.42619982749E-02  0.32462711908E+01  0.38682662073E+01  0.21000000000E+01 0.  1.
</event>
<event>
 5   0  0.7462600E-02  0.9118800E+02  0.7818608E-02  0.1180000E+00
       11   -1    0    0    0    0  0.00000000000E+00  0.00000000000E+00  0.39999999673E+01  0.40000000000E+01  0.51109989000E-03 0.  1.
     -623   -1    0    0    0    0  0.00000000000E+00  0.00000000000E+00  0.12525980253E-10  0.17130000000E+03  0.17130000000E+03 0. -1.
       11    1    1    2    0    0  0.39964583052E+00 -0.30756453723E+00  0.17689217549E+00  0.53441915889E+00  0.51109989000E-03 0.  1.
     -623    1    1    2    0    0 -0.15188278293E+00  0.52836946548E+00  0.10918266294E+01  0.17130436167E+03  0.17130000000E+03 0. -1.
      622    1    1    2    0    0 -0.24776304759E+00 -0.22080492825E+00  0.27312811624E+01  0.34612191685E+01  0.21000000000E+01 0.  1.
</event>
<event>
 5   0  0.7462600E-02  0.9118800E+02  0.7818608E-02  0.1180000E+00
       11   -1    0    0    0    0  0.00000000000E+00  0.00000000000E+00  0.39999999673E+01  0.40000000000E+01  0.51109989000E-03 0. -1.
     -623   -1    0    0    0    0  0.00000000000E+00  0.00000000000E+00  0.12525980253E-10  0.17130000000E+03  0.17130000000E+03 0. -1.
       11    1    1    2    0    0 -0.35503087573E-01  0.13545782940E+00  0.23588021128E-01  0.14200686158E+00  0.51109989000E-03 0. -1.
     -623    1    1    2    0    0 -0.10292198117E+00 -0.39251174903E-01  0.74641571642E+00  0.17130166161E+03  0.17130000000E+03 0. -1.
      622    1    1    2    0    0  0.13842506874E+00 -0.96206654496E-01  0.32299962298E+01  0.38563315294E+01  0.21000000000E+01 0. -1.
</event>
<event>
 5   0  0.7462600E-02  0.9118800E+02  0.7818608E-02  0.1180000E+00
       11   -1    0    0    0    0  0.00000000000E+00  0.00000000000E+00  0.39999999673E+01  0.40000000000E+01  0.51109989000E-03 0. -1.
     -623   -1    0    0    0    0  0.00000000000E+00  0.00000000000E+00  0.12525980253E-10  0.17130000000E+03  0.17130000000E+03 0. -1.
       11    1    1    2    0    0  0.17993743433E+00  0.40256491578E+00  0.16594196914E+00  0.47114009598E+00  0.51109989000E-03 0. -1.
     -623    1    1    2    0    0 -0.33400715435E+00 -0.23599610990E-01  0.10320479367E+01  0.17130343616E+03  0.17130000000E+03 0. -1.
      622    1    1    2    0    0  0.15406972002E+00 -0.37896530479E+00  0.28020100615E+01  0.35254237427E+01  0.21000000000E+01 0. -1.
</event>
<event>
 5   0  0.7462600E-02  0.9118800E+02  0.7818608E-02  0.1180000E+00
       11   -1    0    0    0    0  0.00000000000E+00  0.00000000000E+00  0.39999999673E+01  0.40000000000E+01  0.51109989000E-03 0. -1.
     -623   -1    0    0    0    0  0.00000000000E+00  0.00000000000E+00  0.12525980253E-10  0.17130000000E+03  0.17130000000E+03 0. -1.
       11    1    1    2    0    0 -0.42050710064E-01  0.14652469116E-01  0.24679500600E+00  0.25078076736E+00  0.51109989000E-03 0. -1.
     -623    1    1    2    0    0  0.16815841548E+00 -0.34291968414E+00  0.66937844957E+00  0.17130173361E+03  0.17130000000E+03 0. -1.
      622    1    1    2    0    0 -0.12610770542E+00  0.32826721502E+00  0.30838265118E+01  0.37474856201E+01  0.21000000000E+01 0. -1.
</event>
<event>
 5   0  0.7462600E-02  0.9118800E+02  0.7818608E-02  0.1180000E+00
       11   -1    0    0    0    0  0.00000000000E+00  0.00000000000E+00  0.39999999673E+01  0.40000000000E+01  0.51109989000E-03 0.  1.
     -623   -1    0    0    0    0  0.00000000000E+00  0.00000000000E+00  0.12525980253E-10  0.17130000000E+03  0.17130000000E+03 0. -1.
       11    1    1    2    0    0 -0.26579649844E-01  0.60294247963E+00  0.10116196214E+01  0.11779731029E+01  0.51109989000E-03 0.  1.
     -623    1    1    2    0    0 -0.55716449408E+00 -0.36634342127E+00  0.12205384475E+01  0.17130564601E+03  0.17130000000E+03 0.  1.
      622    1    1    2    0    0  0.58374414392E+00 -0.23659905836E+00  0.17678418985E+01  0.28163808901E+01  0.21000000000E+01 0.  0.
</event>
<event>
 5   0  0.7462600E-02  0.9118800E+02  0.7818608E-02  0.1180000E+00
       11   -1    0    0    0    0  0.00000000000E+00  0.00000000000E+00  0.39999999673E+01  0.40000000000E+01  0.51109989000E-03 0.  1.
     -623   -1    0    0    0    0  0.00000000000E+00  0.00000000000E+00  0.12525980253E-10  0.17130000000E+03  0.17130000000E+03 0.  1.
       11    1    1    2    0    0  0.23391520918E-01  0.24206254820E+00  0.25017977747E+00  0.34890059153E+00  0.51109989000E-03 0.  1.
     -623    1    1    2    0    0  0.22106387435E+00 -0.25564308287E+00  0.77571045951E+00  0.17130208974E+03  0.17130000000E+03 0.  1.
      622    1    1    2    0    0 -0.24445539527E+00  0.13580534675E-01  0.29741097304E+01  0.36490096683E+01  0.21000000000E+01 0.  1.
</event>
<event>
 5   0  0.7462600E-02  0.9118800E+02  0.7818608E-02  0.1180000E+00
       11   -1    0    0    0    0  0.00000000000E+00  0.00000000000E+00  0.39999999673E+01  0.40000000000E+01  0.51109989000E-03 0.  1.
     -623   -1    0    0    0    0  0.00000000000E+00  0.00000000000E+00  0.12525980253E-10  0.17130000000E+03  0.17130000000E+03 0. -1.
       11    1    1    2    0    0 -0.24544276371E+00 -0.20701371490E-01  0.14158373740E+00  0.28410722088E+00  0.51109989000E-03 0.  1.
     -623    1    1    2    0    0  0.26775107806E+00  0.57087787886E-01  0.79562593919E+00  0.17130206645E+03  0.17130000000E+03 0. -1.
      622    1    1    2    0    0 -0.22308314350E-01 -0.36386416395E-01  0.30627902908E+01  0.37138263284E+01  0.21000000000E+01 0.  1.
</event>
<event>
 5   0  0.7462600E-02  0.9118800E+02  0.7818608E-02  0.1180000E+00
       11   -1    0    0    0    0  0.00000000000E+00  0.00000000000E+00  0.39999999673E+01  0.40000000000E+01  0.51109989000E-03 0. -1.
     -623   -1    0    0    0    0  0.00000000000E+00  0.00000000000E+00  0.12525980253E-10  0.17130000000E+03  0.17130000000E+03 0. -1.
       11    1    1    2    0    0  0.38093934891E-01 -0.73203638756E-01  0.84559495018E-01  0.11815451758E+00  0.51109989000E-03 0. -1.
     -623    1    1    2    0    0 -0.72326672360E-02 -0.46866773920E-01  0.65452070484E+00  0.17130125699E+03  0.17130000000E+03 0. -1.
      622    1    1    2    0    0 -0.30861267655E-01  0.12007041268E+00  0.32609197675E+01  0.38805884930E+01  0.21000000000E+01 0. -1.
</event>
<event>
 5   0  0.7462600E-02  0.9118800E+02  0.7818608E-02  0.1180000E+00
       11   -1    0    0    0    0  0.00000000000E+00  0.00000000000E+00  0.39999999673E+01  0.40000000000E+01  0.51109989000E-03 0.  1.
     -623   -1    0    0    0    0  0.00000000000E+00  0.00000000000E+00  0.12525980253E-10  0.17130000000E+03  0.17130000000E+03 0.  1.
       11    1    1    2    0    0  0.15209284879E+00  0.55079752015E-01 -0.28057771034E-01  0.16417525232E+00  0.51109989000E-03 0.  1.
     -623    1    1    2    0    0  0.34160589522E-01 -0.16913240016E+00  0.82808337428E+00  0.17130208841E+03  0.17130000000E+03 0.  1.
      622    1    1    2    0    0 -0.18625343832E+00  0.11405264815E+00  0.31999743641E+01  0.38337363343E+01  0.21000000000E+01 0.  1.
</event>
<event>
 5   0  0.7462600E-02  0.9118800E+02  0.7818608E-02  0.1180000E+00
       11   -1    0    0    0    0  0.00000000000E+00  0.00000000000E+00  0.39999999673E+01  0.40000000000E+01  0.51109989000E-03 0. -1.
     -623   -1    0    0    0    0  0.00000000000E+00  0.00000000000E+00  0.12525980253E-10  0.17130000000E+03  0.17130000000E+03 0.  1.
       11    1    1    2    0    0  0.15084098742E+00  0.31065610451E+00  0.24983679189E+00  0.42623808202E+00  0.51109989000E-03 0. -1.
     -623    1    1    2    0    0 -0.98532402272E-01 -0.90077356352E-01  0.87019468423E+00  0.17130226228E+03  0.17130000000E+03 0.  1.
      622    1    1    2    0    0 -0.52308585143E-01 -0.22057874816E+00  0.28799684912E+01  0.35714996406E+01  0.21000000000E+01 0.  0.
</event>
<event>
 5   0  0.7462600E-02  0.9118800E+02  0.7818608E-02  0.1180000E+00
       11   -1    0    0    0    0  0.00000000000E+00  0.00000000000E+00  0.39999999673E+01  0.40000000000E+01  0.51109989000E-03 0. -1.
     -623   -1    0    0    0    0  0.00000000000E+00  0.00000000000E+00  0.12525980253E-10  0.17130000000E+03  0.17130000000E+03 0.  1.
       11    1    1    2    0    0  0.15978743757E-01 -0.95401426212E-01 -0.24179158285E-01  0.99707799564E-01  0.51109989000E-03 0. -1.
     -623    1    1    2    0    0  0.80159474132E-01  0.31765547614E+00  0.74875012420E+00  0.17130194966E+03  0.17130000000E+03 0.  1.
      622    1    1    2    0    0 -0.96138217889E-01 -0.22225404992E+00  0.32754290014E+01  0.38983425405E+01  0.21000000000E+01 0. -1.
</event>
<event>
 5   0  0.7462600E-02  0.9118800E+02  0.7818608E-02  0.1180000E+00
       11   -1    0    0    0    0  0.00000000000E+00  0.00000000000E+00  0.39999999673E+01  0.40000000000E+01  0.51109989000E-03 0. -1.
     -623   -1    0    0    0    0  0.00000000000E+00  0.00000000000E+00  0.12525980253E-10  0.17130000000E+03  0.17130000000E+03 0. -1.
       11    1    1    2    0    0 -0.24541359567E+00 -0.19119702864E+00  0.54794646780E+00  0.63010295151E+00  0.51109989000E-03 0. -1.
     -623    1    1    2    0    0  0.63776226248E+00  0.49082630211E+00  0.86846500793E+00  0.17130409184E+03  0.17130000000E+03 0. -1.
      622    1    1    2    0    0 -0.39234866682E+00 -0.29962927347E+00  0.25835884916E+01  0.33658052041E+01  0.21000000000E+01 0. -1.
</event>
<event>
 5   0  0.7462600E-02  0.9118800E+02  0.7818608E-02  0.1180000E+00
       11   -1    0    0    0    0  0.00000000000E+00  0.00000000000E+00  0.39999999673E+01  0.40000000000E+01  0.51109989000E-03 0.  1.
     -623   -1    0    0    0    0  0.00000000000E+00  0.00000000000E+00  0.12525980253E-10  0.17130000000E+03  0.17130000000E+03 0. -1.
       11    1    1    2    0    0  0.22491837509E+00  0.23710160621E+00 -0.21217205755E-01  0.32749943231E+00  0.51109989000E-03 0.  1.
     -623    1    1    2    0    0 -0.15645498050E+00 -0.14242050871E+00  0.10144588500E+01  0.17130313450E+03  0.17130000000E+03 0. -1.
      622    1    1    2    0    0 -0.68463394585E-01 -0.94681097493E-01  0.30067583231E+01  0.36693660706E+01  0.21000000000E+01 0.  1.
</event>
<event>
 5   0  0.7462600E-02  0.9118800E+02  0.7818608E-02  0.1180000E+00
       11   -1    0    0    0    0  0.00000000000E+00  0.00000000000E+00  0.39999999673E+01  0.40000000000E+01  0.51109989000E-03 0. -1.
     -623   -1    0    0    0    0  0.00000000000E+00  0.00000000000E+00  0.12525980253E-10  0.17130000000E+03  0.17130000000E+03 0. -1.
       11    1    1    2    0    0  0.56316226049E-01  0.66096274675E-03  0.20451407355E-01  0.59920576383E-01  0.51109989000E-03 0. -1.
     -623    1    1    2    0    0 -0.41395926262E-01 -0.13156299740E+00  0.64987622987E+00  0.17130128827E+03  0.17130000000E+03 0. -1.
      622    1    1    2    0    0 -0.14920299786E-01  0.13090203466E+00  0.33296723301E+01  0.39387911577E+01  0.21000000000E+01 0. -1.
</event>
<event>
 5   0  0.7462600E-02  0.9118800E+02  0.7818608E-02  0.1180000E+00
       11   -1    0    0    0    0  0.00000000000E+00  0.00000000000E+00  0.39999999673E+01  0.40000000000E+01  0.51109989000E-03 0.  1.
     -623   -1    0    0    0    0  0.00000000000E+00  0.00000000000E+00  0.12525980253E-10  0.17130000000E+03  0.17130000000E+03 0.  1.
       11    1    1    2    0    0 -0.86094645099E-01  0.17726166185E+00  0.20098479616E+00  0.28147670274E+00  0.51109989000E-03 0.  1.
     -623    1    1    2    0    0  0.65335817465E-01 -0.42586465702E+00  0.74300923292E+00  0.17130215320E+03  0.17130000000E+03 0.  1.
      622    1    1    2    0    0  0.20758827634E-01  0.24860299516E+00  0.30560059383E+01  0.37163700936E+01  0.21000000000E+01 0.  1.
</event>
<event>
 5   0  0.7462600E-02  0.9118800E+02  0.7818608E-02  0.1180000E+00
       11   -1    0    0    0    0  0.00000000000E+00  0.00000000000E+00  0.39999999673E+01  0.40000000000E+01  0.51109989000E-03 0. -1.
     -623   -1    0    0    0    0  0.00000000000E+00  0.00000000000E+00  0.12525980253E-10  0.17130000000E+03  0.17130000000E+03 0. -1.
       11    1    1    2    0    0  0.38199587735E-01  0.30421121981E+00  0.29966792838E+00  0.42872462407E+00  0.51109989000E-03 0. -1.
     -623    1    1    2    0    0  0.60285945719E+00 -0.22186234208E+00  0.88942708655E+00  0.17130351352E+03  0.17130000000E+03 0. -1.
      622    1    1    2    0    0 -0.64105904493E+00 -0.82348877734E-01  0.28109049524E+01  0.35677618598E+01  0.21000000000E+01 0. -1.
</event>
<event>
 5   0  0.7462600E-02  0.9118800E+02  0.7818608E-02  0.1180000E+00
       11   -1    0    0    0    0  0.00000000000E+00  0.00000000000E+00  0.39999999673E+01  0.40000000000E+01  0.51109989000E-03 0.  1.
     -623   -1    0    0    0    0  0.00000000000E+00  0.00000000000E+00  0.12525980253E-10  0.17130000000E+03  0.17130000000E+03 0. -1.
       11    1    1    2    0    0 -0.12882561564E+00  0.69806081549E-01  0.72681992032E-01  0.16355996288E+00  0.51109989000E-03 0.  1.
     -623    1    1    2    0    0  0.23175727803E+00 -0.34787708895E+00  0.73288287534E+00  0.17130207777E+03  0.17130000000E+03 0. -1.
      622    1    1    2    0    0 -0.10293166238E+00  0.27807100740E+00  0.31944351000E+01  0.38343622704E+01  0.21000000000E+01 0.  1.
</event>
<event>
 5   0  0.7462600E-02  0.9118800E+02  0.7818608E-02  0.1180000E+00
       11   -1    0    0    0    0  0.00000000000E+00  0.00000000000E+00  0.39999999673E+01  0.40000000000E+01  0.51109989000E-03 0. -1.
     -623   -1    0    0    0    0  0.00000000000E+00  0.00000000000E+00  0.12525980253E-10  0.17130000000E+03  0.17130000000E+03 0. -1.
       11    1    1    2    0    0 -0.14355157658E+00 -0.52564535812E-01 -0.47292163850E-01  0.16002154714E+00  0.51109989000E-03 0. -1.
     -623    1    1    2    0    0  0.33996131696E-01 -0.41393506560E-01  0.83811815617E+00  0.17130205869E+03  0.17130000000E+03 0. -1.
      622    1    1    2    0    0  0.10955544489E+00  0.93958042372E-01  0.32091739750E+01  0.38379197635E+01  0.21000000000E+01 0. -1.
</event>
<event>
 5   0  0.7462600E-02  0.9118800E+02  0.7818608E-02  0.1180000E+00
       11   -1    0    0    0    0  0.00000000000E+00  0.00000000000E+00  0.39999999673E+01  0.40000000000E+01  0.51109989000E-03 0.  1.
     -623   -1    0    0    0    0  0.00000000000E+00  0.00000000000E+00  0.12525980253E-10  0.17130000000E+03  0.17130000000E+03 0. -1.
       11    1    1    2    0    0 -0.16727579350E+00  0.12619821953E+00  0.13569672286E+00  0.24964183047E+00  0.51109989000E-03 0.  1.
     -623    1    1    2    0    0  0.26671646162E+00 -0.61813429507E-01  0.76159209904E+00  0.17130191178E+03  0.17130000000E+03 0. -1.
      622    1    1    2    0    0 -0.99440668121E-01 -0.64384790027E-01  0.31027111455E+01  0.37484463848E+01  0.21000000000E+01 0.  1.
</event>
<event>
 5   0  0.7462600E-02  0.9118800E+02  0.7818608E-02  0.1180000E+00
       11   -1    0    0    0    0  0.00000000000E+00  0.00000000000E+00  0.39999999673E+01  0.40000000000E+01  0.51109989000E-03 0.  1.
     -623   -1    0    0    0    0  0.00000000000E+00  0.00000000000E+00  0.12525980253E-10  0.17130000000E+03  0.17130000000E+03 0.  1.
       11    1    1    2    0    0 -0.47609710133E-01  0.11703020856E+00  0.34122975147E+00  0.36386915056E+00  0.51109989000E-03 0.  1.
     -623    1    1    2    0    0 -0.35131102398E+00  0.19716836979E+00  0.73667698890E+00  0.17130205775E+03  0.17130000000E+03 0.  1.
      622    1    1    2    0    0  0.39892073411E+00 -0.31419857835E+00  0.29220932270E+01  0.36340731041E+01  0.21000000000E+01 0.  1.
</event>
<event>
 5   0  0.7462600E-02  0.9118800E+02  0.7818608E-02  0.1180000E+00
       11   -1    0    0    0    0  0.00000000000E+00  0.00000000000E+00  0.39999999673E+01  0.40000000000E+01  0.51109989000E-03 0.  1.
     -623   -1    0    0    0    0  0.00000000000E+00  0.00000000000E+00  0.12525980253E-10  0.17130000000E+03  0.17130000000E+03 0. -1.
       11    1    1    2    0    0 -0.42996973739E-01  0.37895677064E-01  0.35755793789E-01  0.67554127212E-01  0.51109989000E-03 0.  1.
     -623    1    1    2    0    0 -0.10635800032E+00  0.50677361443E-01  0.64549496788E+00  0.17130125669E+03  0.17130000000E+03 0. -1.
      622    1    1    2    0    0  0.14935497405E+00 -0.88573038507E-01  0.33187492057E+01  0.39311891816E+01  0.21000000000E+01 0.  1.
</event>
<event>
 5   0  0.7462600E-02  0.9118800E+02  0.7818608E-02  0.1180000E+00
       11   -1    0    0    0    0  0.00000000000E+00  0.00000000000E+00  0.39999999673E+01  0.40000000000E+01  0.51109989000E-03 0.  1.
     -623   -1    0    0    0    0  0.00000000000E+00  0.00000000000E+00  0.12525980253E-10  0.17130000000E+03  0.17130000000E+03 0.  1.
       11    1    1    2    0    0  0.28933278610E-02  0.23251165978E-01  0.22831122906E+00  0.22951092916E+00  0.51109989000E-03 0.  1.
     -623    1    1    2    0    0 -0.85527640797E-01  0.55404509691E+00  0.69778909946E+00  0.17130233854E+03  0.17130000000E+03 0.  1.
      622    1    1    2    0    0  0.82634312936E-01 -0.57729626288E+00  0.30738996388E+01  0.37681505270E+01  0.21000000000E+01 0.  1.
</event>
<event>
 5   0  0.7462600E-02  0.9118800E+02  0.7818608E-02  0.1180000E+00
       11   -1    0    0    0    0  0.00000000000E+00  0.00000000000E+00  0.39999999673E+01  0.40000000000E+01  0.51109989000E-03 0.  1.
     -623   -1    0    0    0    0  0.00000000000E+00  0.00000000000E+00  0.12525980253E-10  0.17130000000E+03  0.17130000000E+03 0.  1.
       11    1    1    2    0    0  0.22774004114E-01  0.19815291488E+00  0.13877085807E+00  0.24298322002E+00  0.51109989000E-03 0.  1.
     -623    1    1    2    0    0  0.27561065168E+00  0.37994096149E-02  0.76918800391E+00  0.17130194869E+03  0.17130000000E+03 0.  1.
      622    1    1    2    0    0 -0.29838465579E+00 -0.20195232449E+00  0.30920411054E+01  0.37550680875E+01  0.21000000000E+01 0.  1.
</event>
<event>
 5   0  0.7462600E-02  0.9118800E+02  0.7818608E-02  0.1180000E+00
       11   -1    0    0    0    0  0.00000000000E+00  0.00000000000E+00  0.39999999673E+01  0.40000000000E+01  0.51109989000E-03 0.  1.
     -623   -1    0    0    0    0  0.00000000000E+00  0.00000000000E+00  0.12525980253E-10  0.17130000000E+03  0.17130000000E+03 0. -1.
       11    1    1    2    0    0 -0.11684527755E+00  0.38610764772E-01 -0.60930291182E-01  0.13731850438E+00  0.51109989000E-03 0.  1.
     -623    1    1    2    0    0  0.25758292789E+00  0.67523681780E-01  0.82639112828E+00  0.17130220031E+03  0.17130000000E+03 0. -1.
      622    1    1    2    0    0 -0.14073765034E+00 -0.10613444655E+00  0.32345391303E+01  0.38604811866E+01  0.21000000000E+01 0.  1.
</event>
<event>
 5   0  0.7462600E-02  0.9118800E+02  0.7818608E-02  0.1180000E+00
       11   -1    0    0    0    0  0.00000000000E+00  0.00000000000E+00  0.39999999673E+01  0.40000000000E+01  0.51109989000E-03 0.  1.
     -623   -1    0    0    0    0  0.00000000000E+00  0.00000000000E+00  0.12525980253E-10  0.17130000000E+03  0.17130000000E+03 0.  1.
       11    1    1    2    0    0 -0.11905124448E+00  0.64991713361E-01  0.26538986602E-01  0.13820890220E+00  0.51109989000E-03 0.  1.
     -623    1    1    2    0    0  0.43738072092E+00  0.44622110114E+00  0.79261158238E+00  0.17130297326E+03  0.17130000000E+03 0.  1.
      622    1    1    2    0    0 -0.31832947644E+00 -0.51121281450E+00  0.31808493984E+01  0.38588178361E+01  0.21000000000E+01 0.  1.
</event>
<event>
 5   0  0.7462600E-02  0.9118800E+02  0.7818608E-02  0.1180000E+00
       11   -1    0    0    0    0  0.00000000000E+00  0.00000000000E+00  0.39999999673E+01  0.40000000000E+01  0.51109989000E-03 0. -1.
     -623   -1    0    0    0    0  0.00000000000E+00  0.00000000000E+00  0.12525980253E-10  0.17130000000E+03  0.17130000000E+03 0. -1.
       11    1    1    2    0    0  0.23094835669E+00 -0.23345298350E+00  0.21881977157E+00  0.39461347242E+00  0.51109989000E-03 0. -1.
     -623    1    1    2    0    0  0.11391324696E+00  0.32737012254E+00  0.87559870407E+00  0.17130258848E+03  0.17130000000E+03 0. -1.
      622    1    1    2    0    0 -0.34486160365E+00 -0.93917139034E-01  0.29055814917E+01  0.36027980459E+01  0.21000000000E+01 0. -1.
</event>
<event>
 5   0  0.7462600E-02  0.9118800E+02  0.7818608E-02  0.1180000E+00
       11   -1    0    0    0    0  0.00000000000E+00  0.00000000000E+00  0.39999999673E+01  0.40000000000E+01  0.51109989000E-03 0. -1.
     -623   -1    0    0    0    0  0.00000000000E+00  0.00000000000E+00  0.12525980253E-10  0.17130000000E+03  0.17130000000E+03 0. -1.
       11    1    1    2    0    0 -0.42909642952E-01  0.13673086798E+00  0.12567346844E+00  0.19060600622E+00  0.51109989000E-03 0. -1.
     -623    1    1    2    0    0  0.83358828675E-01 -0.20335583242E+00  0.69887784540E+00  0.17130156664E+03  0.17130000000E+03 0. -1.
      622    1    1    2    0    0 -0.40449185723E-01  0.66624964436E-01  0.31754486535E+01  0.38078273561E+01  0.21000000000E+01 0. -1.
</event>
<event>
 5   0  0.7462600E-02  0.9118800E+02  0.7818608E-02  0.1180000E+00
       11   -1    0    0    0    0  0.00000000000E+00  0.00000000000E+00  0.39999999673E+01  0.40000000000E+01  0.51109989000E-03 0. -1.
     -623   -1    0    0    0    0  0.00000000000E+00  0.00000000000E+00  0.12525980253E-10  0.17130000000E+03  0.17130000000E+03 0. -1.
       11    1    1    2    0    0  0.39517433860E-01  0.37693069665E-01 -0.17687867797E-01  0.57406593424E-01  0.51109989000E-03 0. -1.
     -623    1    1    2    0    0 -0.49280361034E+00 -0.20851920634E-02  0.71466396423E+00  0.17130219965E+03  0.17130000000E+03 0. -1.
      622    1    1    2    0    0  0.45328617648E+00 -0.35607877601E-01  0.33030238709E+01  0.39403937583E+01  0.21000000000E+01 0. -1.
</event>
<event>
 5   0  0.7462600E-02  0.9118800E+02  0.7818608E-02  0.1180000E+00
       11   -1    0    0    0    0  0.00000000000E+00  0.00000000000E+00  0.39999999673E+01  0.40000000000E+01  0.51109989000E-03 0. -1.
     -623   -1    0    0    0    0  0.00000000000E+00  0.00000000000E+00  0.12525980253E-10  0.17130000000E+03  0.17130000000E+03 0. -1.
       11    1    1    2    0    0  0.78576624609E-01 -0.54818255549E-01  0.28391266019E+00  0.29964309923E+00  0.51109989000E-03 0. -1.
     -623    1    1    2    0    0 -0.36251260346E+00  0.17095672571E+00  0.68708268061E+00  0.17130184682E+03  0.17130000000E+03 0. -1.
      622    1    1    2    0    0  0.28393597886E+00 -0.11613847016E+00  0.30290046266E+01  0.36985100800E+01  0.21000000000E+01 0. -1.
</event>
<event>
 5   0  0.7462600E-02  0.9118800E+02  0.7818608E-02  0.1180000E+00
       11   -1    0    0    0    0  0.00000000000E+00  0.00000000000E+00  0.39999999673E+01  0.40000000000E+01  0.51109989000E-03 0. -1.
     -623   -1    0    0    0    0  0.00000000000E+00  0.00000000000E+00  0.12525980253E-10  0.17130000000E+03  0.17130000000E+03 0.  1.
       11    1    1    2    0    0  0.16091164253E+00  0.16847201236E-02  0.21907723682E+00  0.27182805576E+00  0.51109989000E-03 0. -1.
     -623    1    1    2    0    0 -0.15805826122E+00  0.27917871953E+00  0.71547073265E+00  0.17130179457E+03  0.17130000000E+03 0.  1.
      622    1    1    2    0    0 -0.28533813056E-02 -0.28086343965E+00  0.30654519979E+01  0.37263773782E+01  0.21000000000E+01 0. -1.
</event>
<event>
 5   0  0.7462600E-02  0.9118800E+02  0.7818608E-02  0.1180000E+00
       11   -1    0    0    0    0  0.00000000000E+00  0.00000000000E+00  0.39999999673E+01  0.40000000000E+01  0.51109989000E-03 0.  1.
     -623   -1    0    0    0    0  0.00000000000E+00  0.00000000000E+00  0.12525980253E-10  0.17130000000E+03  0.17130000000E+03 0. -1.
       11    1    1    2    0    0  0.23016547706E+00  0.28486661219E+00  0.36562801884E+00  0.51750289174E+00  0.51109989000E-03 0.  1.
     -623    1    1    2    0    0 -0.11742141938E+00 -0.43571041541E+00  0.86617096791E+00  0.17130278423E+03  0.17130000000E+03 0. -1.
      622    1    1    2    0    0 -0.11274405769E+00  0.15084380322E+00  0.27682009806E+01  0.34797128825E+01  0.21000000000E+01 0.  1.
</event>
<event>
 5   0  0.7462600E-02  0.9118800E+02  0.7818608E-02  0.1180000E+00
       11   -1    0    0    0    0  0.00000000000E+00  0.00000000000E+00  0.39999999673E+01  0.40000000000E+01  0.51109989000E-03 0.  1.
     -623   -1    0    0    0    0  0.00000000000E+00  0.00000000000E+00  0.12525980253E-10  0.17130000000E+03  0.17130000000E+03 0.  1.
       11    1    1    2    0    0  0.29233686665E+00 -0.28604966256E-01  0.17348396937E+00  0.34113932131E+00  0.51109989000E-03 0.  1.
     -623    1    1    2    0    0 -0.54281787247E+00 -0.17144402209E-01  0.84475570843E+00  0.17130294381E+03  0.17130000000E+03 0.  1.
      622    1    1    2    0    0  0.25048100583E+00  0.45749368464E-01  0.29817602896E+01  0.36559168704E+01  0.21000000000E+01 0.  1.
</event>
<event>
 5   0  0.7462600E-02  0.9118800E+02  0.7818608E-02  0.1180000E+00
       11   -1    0    0    0    0  0.00000000000E+00  0.00000000000E+00  0.39999999673E+01  0.40000000000E+01  0.51109989000E-03 0. -1.
     -623   -1    0    0    0    0  0.00000000000E+00  0.00000000000E+00  0.12525980253E-10  0.17130000000E+03  0.17130000000E+03 0.  1.
       11    1    1    2    0    0  0.46372705362E-02 -0.33172330893E+00  0.33070120105E+00  0.46842865366E+00  0.51109989000E-03 0. -1.
     -623    1    1    2    0    0  0.71007295768E-01  0.15864753869E+00  0.83889382621E+00  0.17130214229E+03  0.17130000000E+03 0.  1.
      622    1    1    2    0    0 -0.75644566304E-01  0.17307577024E+00  0.28304049401E+01  0.35294290541E+01  0.21000000000E+01 0. -1.
</event>
<event>
 5   0  0.7462600E-02  0.9118800E+02  0.7818608E-02  0.1180000E+00
       11   -1    0    0    0    0  0.00000000000E+00  0.00000000000E+00  0.39999999673E+01  0.40000000000E+01  0.51109989000E-03 0. -1.
     -623   -1    0    0    0    0  0.00000000000E+00  0.00000000000E+00  0.12525980253E-10  0.17130000000E+03  0.17130000000E+03 0.  1.
       11    1    1    2    0    0 -0.15335687844E+00 -0.14930575819E-01 -0.57695219848E-01  0.16453040411E+00  0.51109989000E-03 0. -1.
     -623    1    1    2    0    0  0.20628950062E+00  0.26435605167E+00  0.86133955232E+00  0.17130249369E+03  0.17130000000E+03 0.  1.
      622    1    1    2    0    0 -0.52932622181E-01 -0.24942547585E+00  0.31963556349E+01  0.38329759033E+01  0.21000000000E+01 0. -1.
</event>
<event>
 5   0  0.7462600E-02  0.9118800E+02  0.7818608E-02  0.1180000E+00
       11   -1    0    0    0    0  0.00000000000E+00  0.00000000000E+00  0.39999999673E+01  0.40000000000E+01  0.51109989000E-03 0. -1.
     -623   -1    0    0    0    0  0.00000000000E+00  0.00000000000E+00  0.12525980253E-10  0.17130000000E+03  0.17130000000E+03 0.  1.
       11    1    1    2    0    0 -0.75543945477E-01 -0.26917013091E-01 -0.60048821827E-01  0.10018750180E+00  0.51109989000E-03 0. -1.
     -623    1    1    2    0    0  0.11146083260E+00  0.25205023760E+00  0.78425342705E+00  0.17130201694E+03  0.17130000000E+03 0.  1.
      622    1    1    2    0    0 -0.35916887126E-01 -0.22513322451E+00  0.32757953621E+01  0.38977955624E+01  0.21000000000E+01 0. -1.
</event>
<event>
 5   0  0.7462600E-02  0.9118800E+02  0.7818608E-02  0.1180000E+00
       11   -1    0    0    0    0  0.00000000000E+00  0.00000000000E+00  0.39999999673E+01  0.40000000000E+01  0.51109989000E-03 0. -1.
     -623   -1    0    0    0    0  0.00000000000E+00  0.00000000000E+00  0.12525980253E-10  0.17130000000E+03  0.17130000000E+03 0. -1.
       11    1    1    2    0    0 -0.11385234851E+00  0.36333324934E+00  0.11253432835E+00  0.39703607344E+00  0.51109989000E-03 0. -1.
     -623    1    1    2    0    0  0.28634988346E-01  0.21000916896E+00  0.10217241793E+01  0.17130317815E+03  0.17130000000E+03 0. -1.
      622    1    1    2    0    0  0.85217360166E-01 -0.57334241830E+00  0.28657414597E+01  0.35997857771E+01  0.21000000000E+01 0. -1.
</event>
<event>
 5   0  0.7462600E-02  0.9118800E+02  0.7818608E-02  0.1180000E+00
       11   -1    0    0    0    0  0.00000000000E+00  0.00000000000E+00  0.39999999673E+01  0.40000000000E+01  0.51109989000E-03 0.  1.
     -623   -1    0    0    0    0  0.00000000000E+00  0.00000000000E+00  0.12525980253E-10  0.17130000000E+03  0.17130000000E+03 0. -1.
       11    1    1    2    0    0 -0.26140923732E+00  0.50003668785E-01  0.42536058988E+00  0.50176393742E+00  0.51109989000E-03 0.  1.
     -623    1    1    2    0    0  0.22551225012E+00  0.30106806994E+00  0.80207856975E+00  0.17130229078E+03  0.17130000000E+03 0. -1.
      622    1    1    2    0    0  0.35896987201E-01 -0.35107173873E+00  0.27725608077E+01  0.34959452787E+01  0.21000000000E+01 0.  1.
</event>
<event>
 5   0  0.7462600E-02  0.9118800E+02  0.7818608E-02  0.1180000E+00
       11   -1    0    0    0    0  0.00000000000E+00  0.00000000000E+00  0.39999999673E+01  0.40000000000E+01  0.51109989000E-03 0. -1.
     -623   -1    0    0    0    0  0.00000000000E+00  0.00000000000E+00  0.12525980253E-10  0.17130000000E+03  0.17130000000E+03 0. -1.
       11    1    1    2    0    0  0.12112918526E+00  0.15575149326E-01 -0.42284670148E-01  0.12924054840E+00  0.51109989000E-03 0. -1.
     -623    1    1    2    0    0 -0.60654742735E-01  0.15724865680E+00  0.79817928182E+00  0.17130194248E+03  0.17130000000E+03 0. -1.
      622    1    1    2    0    0 -0.60474442527E-01 -0.17282380612E+00  0.32441053557E+01  0.38688169749E+01  0.21000000000E+01 0. -1.
</event>
<event>
 5   0  0.7462600E-02  0.9118800E+02  0.7818608E-02  0.1180000E+00
       11   -1    0    0    0    0  0.00000000000E+00  0.00000000000E+00  0.39999999673E+01  0.40000000000E+01  0.51109989000E-03 0. -1.
     -623   -1    0    0    0    0  0.00000000000E+00  0.00000000000E+00  0.12525980253E-10  0.17130000000E+03  0.17130000000E+03 0. -1.
       11    1    1    2    0    0 -0.18478371860E+00 -0.10537513797E+00  0.98048905122E+00  0.10032985514E+01  0.51109989000E-03 0. -1.
     -623    1    1    2    0    0  0.60829766472E+00  0.83070018321E+00  0.10633733440E+01  0.17130639466E+03  0.17130000000E+03 0. -1.
      622    1    1    2    0    0 -0.42351394612E+00 -0.72532504525E+00  0.19561375721E+01  0.29903067878E+01  0.21000000000E+01 0.  0.
</event>
<event>
 5   0  0.7462600E-02  0.9118800E+02  0.7818608E-02  0.1180000E+00
       11   -1    0    0    0    0  0.00000000000E+00  0.00000000000E+00  0.39999999673E+01  0.40000000000E+01  0.51109989000E-03 0. -1.
     -623   -1    0    0    0    0  0.00000000000E+00  0.00000000000E+00  0.12525980253E-10  0.17130000000E+03  0.17130000000E+03 0. -1.
       11    1    1    2    0    0 -0.43419432952E-01 -0.10912940283E+00  0.13851196874E+00  0.18160479186E+00  0.51109989000E-03 0. -1.
     -623    1    1    2    0    0  0.37582661183E+00 -0.14002803315E+00  0.70189871871E+00  0.17130190751E+03  0.17130000000E+03 0. -1.
      622    1    1    2    0    0 -0.33240717888E+00  0.24915743599E+00  0.31595892799E+01  0.38164877018E+01  0.21000000000E+01 0. -1.
</event>
<event>
 5   0  0.7462600E-02  0.9118800E+02  0.7818608E-02  0.1180000E+00
       11   -1    0    0    0    0  0.00000000000E+00  0.00000000000E+00  0.39999999673E+01  0.40000000000E+01  0.51109989000E-03 0. -1.
     -623   -1    0    0    0    0  0.00000000000E+00  0.00000000000E+00  0.12525980253E-10  0.17130000000E+03  0.17130000000E+03 0. -1.
       11    1    1    2    0    0  0.13015534528E+00 -0.15893246072E-01  0.34956989970E-01  0.13570284281E+00  0.51109989000E-03 0. -1.
     -623    1    1    2    0    0 -0.20205098825E+00  0.16049821485E+00  0.72725318058E+00  0.17130173812E+03  0.17130000000E+03 0. -1.
      622    1    1    2    0    0  0.71895642968E-01 -0.14460496878E+00  0.32377897968E+01  0.38625590415E+01  0.21000000000E+01 0. -1.
</event>
<event>
 5   0  0.7462600E-02  0.9118800E+02  0.7818608E-02  0.1180000E+00
       11   -1    0    0    0    0  0.00000000000E+00  0.00000000000E+00  0.39999999673E+01  0.40000000000E+01  0.51109989000E-03 0.  1.
     -623   -1    0    0    0    0  0.00000000000E+00  0.00000000000E+00  0.12525980253E-10  0.17130000000E+03  0.17130000000E+03 0. -1.
       11    1    1    2    0    0 -0.95015827237E-01 -0.68460732284E-01  0.23402241713E+00  0.26168995440E+00  0.51109989000E-03 0.  1.
     -623    1    1    2    0    0 -0.39093027769E-01  0.36857722707E-01  0.67795447580E+00  0.17130134999E+03  0.17130000000E+03 0. -1.
      622    1    1    2    0    0  0.13410885501E+00  0.31603009577E-01  0.30880230744E+01  0.37369600538E+01  0.21000000000E+01 0.  1.
</event>
<event>
 5   0  0.7462600E-02  0.9118800E+02  0.7818608E-02  0.1180000E+00
       11   -1    0    0    0    0  0.00000000000E+00  0.00000000000E+00  0.39999999673E+01  0.40000000000E+01  0.51109989000E-03 0.  1.
     -623   -1    0    0    0    0  0.00000000000E+00  0.00000000000E+00  0.12525980253E-10  0.17130000000E+03  0.17130000000E+03 0. -1.
       11    1    1    2    0    0 -0.99532640779E-01 -0.94284906451E-01  0.82342085792E-01  0.15992770391E+00  0.51109989000E-03 0.  1.
     -623    1    1    2    0    0  0.24646228031E+00  0.26100354497E-01  0.70871977575E+00  0.17130164538E+03  0.17130000000E+03 0. -1.
      622    1    1    2    0    0 -0.14692963953E+00  0.68184551954E-01  0.32089381058E+01  0.38384269199E+01  0.21000000000E+01 0.  1.
</event>
<event>
 5   0  0.7462600E-02  0.9118800E+02  0.7818608E-02  0.1180000E+00
       11   -1    0    0    0    0  0.00000000000E+00  0.00000000000E+00  0.39999999673E+01  0.40000000000E+01  0.51109989000E-03 0. -1.
     -623   -1    0    0    0    0  0.00000000000E+00  0.00000000000E+00  0.12525980253E-10  0.17130000000E+03  0.17130000000E+03 0.  1.
       11    1    1    2    0    0  0.33516405568E+00 -0.14817327260E+00  0.62322610065E+00  0.72298084116E+00  0.51109989000E-03 0. -1.
     -623    1    1    2    0    0 -0.68714913851E+00 -0.15990216967E-01  0.89612365338E+00  0.17130372286E+03  0.17130000000E+03 0.  1.
      622    1    1    2    0    0  0.35198508283E+00  0.16416348957E+00  0.24806502133E+01  0.32732962944E+01  0.21000000000E+01 0. -1.
</event>
<event>
 5   0  0.7462600E-02  0.9118800E+02  0.7818608E-02  0.1180000E+00
       11   -1    0    0    0    0  0.00000000000E+00  0.00000000000E+00  0.39999999673E+01  0.40000000000E+01  0.51109989000E-03 0.  1.
     -623   -1    0    0    0    0  0.00000000000E+00  0.00000000000E+00  0.12525980253E-10  0.17130000000E+03  0.17130000000E+03 0. -1.
       11    1    1    2    0    0 -0.42204566297E-01 -0.15306869255E-01  0.73380959788E-01  0.86026461889E-01  0.51109989000E-03 0.  1.
     -623    1    1    2    0    0 -0.11417717929E-01  0.25671492475E+00  0.63460943990E+00  0.17130136824E+03  0.17130000000E+03 0. -1.
      622    1    1    2    0    0  0.53622284226E-01 -0.24140805549E+00  0.32920095677E+01  0.39126052947E+01  0.21000000000E+01 0.  0.
</event>
<event>
 5   0  0.7462600E-02  0.9118800E+02  0.7818608E-02  0.1180000E+00
       11   -1    0    0    0    0  0.00000000000E+00  0.00000000000E+00  0.39999999673E+01  0.40000000000E+01  0.51109989000E-03 0.  1.
     -623   -1    0    0    0    0  0.00000000000E+00  0.00000000000E+00  0.12525980253E-10  0.17130000000E+03  0.17130000000E+03 0. -1.
       11    1    1    2    0    0 -0.24846843077E+00  0.64802100021E-02 -0.64848365349E-01  0.25687375483E+00  0.51109989000E-03 0.  1.
     -623    1    1    2    0    0  0.31552230231E+00 -0.10969745228E+00  0.97247863094E+00  0.17130308609E+03  0.17130000000E+03 0. -1.
      622    1    1    2    0    0 -0.67053871538E-01  0.10321724228E+00  0.30923697018E+01  0.37400401593E+01  0.21000000000E+01 0.  1.
</event>
<event>
 5   0  0.7462600E-02  0.9118800E+02  0.7818608E-02  0.1180000E+00
       11   -1    0    0    0    0  0.00000000000E+00  0.00000000000E+00  0.39999999673E+01  0.40000000000E+01  0.51109989000E-03 0. -1.
     -623   -1    0    0    0    0  0.00000000000E+00  0.00000000000E+00  0.12525980253E-10  0.17130000000E+03  0.17130000000E+03 0. -1.
       11    1    1    2    0    0  0.66845178954E-01  0.13417276799E+00  0.14214346342E+00  0.20658081961E+00  0.51109989000E-03 0. -1.
     -623    1    1    2    0    0 -0.51514084039E-01 -0.17680332944E+00  0.70090401289E+00  0.17130153292E+03  0.17130000000E+03 0. -1.
      622    1    1    2    0    0 -0.15331094914E-01  0.42630561457E-01  0.31569524911E+01  0.37918862639E+01  0.21000000000E+01 0. -1.
</event>
<event>
 5   0  0.7462600E-02  0.9118800E+02  0.7818608E-02  0.1180000E+00
       11   -1    0    0    0    0  0.00000000000E+00  0.00000000000E+00  0.39999999673E+01  0.40000000000E+01  0.51109989000E-03 0.  1.
     -623   -1    0    0    0    0  0.00000000000E+00  0.00000000000E+00  0.12525980253E-10  0.17130000000E+03  0.17130000000E+03 0. -1.
       11    1    1    2    0    0 -0.17583701478E+00 -0.56854573007E-01  0.11720067877E-01  0.18517213466E+00  0.51109989000E-03 0.  1.
     -623    1    1    2    0    0 -0.11175254526E+00 -0.28440030627E+00  0.83771696586E+00  0.17130232089E+03  0.17130000000E+03 0. -1.
      622    1    1    2    0    0  0.28758956004E+00  0.34125487927E+00  0.31505629336E+01  0.38125069766E+01  0.21000000000E+01 0.  1.
</event>
<event>
 5   0  0.7462600E-02  0.9118800E+02  0.7818608E-02  0.1180000E+00
       11   -1    0    0    0    0  0.00000000000E+00  0.00000000000E+00  0.39999999673E+01  0.40000000000E+01  0.51109989000E-03 0.  1.
     -623   -1    0    0    0    0  0.00000000000E+00  0.00000000000E+00  0.12525980253E-10  0.17130000000E+03  0.17130000000E+03 0.  1.
       11    1    1    2    0    0  0.39323466198E+00  0.23287963572E+00  0.11297271776E+00  0.47077544572E+00  0.51109989000E-03 0.  1.
     -623    1    1    2    0    0 -0.54836278649E+00 -0.33996230938E+00  0.10624774626E+01  0.17130450997E+03  0.17130000000E+03 0.  1.
      622    1    1    2    0    0  0.15512812451E+00  0.10708267367E+00  0.28245497870E+01  0.35247145889E+01  0.21000000000E+01 0.  1.
</event>
<event>
 5   0  0.7462600E-02  0.9118800E+02  0.7818608E-02  0.1180000E+00
       11   -1    0    0    0    0  0.00000000000E+00  0.00000000000E+00  0.39999999673E+01  0.40000000000E+01  0.51109989000E-03 0.  1.
     -623   -1    0    0    0    0  0.00000000000E+00  0.00000000000E+00  0.12525980253E-10  0.17130000000E+03  0.17130000000E+03 0. -1.
       11    1    1    2    0    0  0.89693005014E-01  0.37856414367E+00  0.42717178644E-01  0.39138301521E+00  0.51109989000E-03 0.  1.
     -623    1    1    2    0    0  0.58737216282E-01 -0.10462516629E+00  0.10432093770E+01  0.17130321854E+03  0.17130000000E+03 0. -1.
      622    1    1    2    0    0 -0.14843022130E+00 -0.27393897738E+00  0.29140734117E+01  0.36053984444E+01  0.21000000000E+01 0.  1.
</event>
<event>
 5   0  0.7462600E-02  0.9118800E+02  0.7818608E-02  0.1180000E+00
       11   -1    0    0    0    0  0.00000000000E+00  0.00000000000E+00  0.39999999673E+01  0.40000000000E+01  0.51109989000E-03 0. -1.
     -623   -1    0    0    0    0  0.00000000000E+00  0.00000000000E+00  0.12525980253E-10  0.17130000000E+03  0.17130000000E+03 0.  1.
       11    1    1    2    0    0  0.64135835298E-01 -0.30930838059E-01  0.38243707958E-01  0.80826756292E-01  0.51109989000E-03 0. -1.
     -623    1    1    2    0    0 -0.30938272321E+00  0.18020167589E-01  0.66367591924E+00  0.17130156598E+03  0.17130000000E+03 0.  1.
      622    1    1    2    0    0  0.24524688791E+00  0.12910670469E-01  0.32980803402E+01  0.39176072610E+01  0.21000000000E+01 0. -1.
</event>
<event>
 5   0  0.7462600E-02  0.9118800E+02  0.7818608E-02  0.1180000E+00
       11   -1    0    0    0    0  0.00000000000E+00  0.00000000000E+00  0.39999999673E+01  0.40000000000E+01  0.51109989000E-03 0. -1.
     -623   -1    0    0    0    0  0.00000000000E+00  0.00000000000E+00  0.12525980253E-10  0.17130000000E+03  0.17130000000E+03 0. -1.
       11    1    1    2    0    0  0.64311369964E-01  0.44927366551E-02  0.22837382982E+00  0.23729939814E+00  0.51109989000E-03 0. -1.
     -623    1    1    2    0    0 -0.11743124384E+00 -0.32776617969E+00  0.66870715918E+00  0.17130165904E+03  0.17130000000E+03 0. -1.
      622    1    1    2    0    0  0.53119873874E-01  0.32327344304E+00  0.31029189784E+01  0.37610415614E+01  0.21000000000E+01 0. -1.
</event>
<event>
 5   0  0.7462600E-02  0.9118800E+02  0.7818608E-02  0.1180000E+00
       11   -1    0    0    0    0  0.00000000000E+00  0.00000000000E+00  0.39999999673E+01  0.40000000000E+01  0.51109989000E-03 0. -1.
     -623   -1    0    0    0    0  0.00000000000E+00  0.00000000000E+00  0.12525980253E-10  0.17130000000E+03  0.17130000000E+03 0. -1.
       11    1    1    2    0    0  0.23350333746E+00  0.15358883523E+00  0.86084714997E-01  0.29244517143E+00  0.51109989000E-03 0. -1.
     -623    1    1    2    0    0 -0.35629457276E+00 -0.13071075717E+00  0.86414659037E+00  0.17130260004E+03  0.17130000000E+03 0. -1.
      622    1    1    2    0    0  0.12279123530E+00 -0.22878078052E-01  0.30497686620E+01  0.37049547886E+01  0.21000000000E+01 0. -1.
</event>
<event>
 5   0  0.7462600E-02  0.9118800E+02  0.7818608E-02  0.1180000E+00
       11   -1    0    0    0    0  0.00000000000E+00  0.00000000000E+00  0.39999999673E+01  0.40000000000E+01  0.51109989000E-03 0.  1.
     -623   -1    0    0    0    0  0.00000000000E+00  0.00000000000E+00  0.12525980253E-10  0.17130000000E+03  0.17130000000E+03 0. -1.
       11    1    1    2    0    0  0.84621254357E-01  0.19215369617E+00  0.12776086906E+00  0.24577815307E+00  0.51109989000E-03 0.  1.
     -623    1    1    2    0    0  0.41174200184E-01 -0.37009970448E+00  0.77052242627E+00  0.17130213768E+03  0.17130000000E+03 0. -1.
      622    1    1    2    0    0 -0.12579545454E+00  0.17794600831E+00  0.31017166720E+01  0.37520841664E+01  0.21000000000E+01 0.  1.
</event>
<event>
 5   0  0.7462600E-02  0.9118800E+02  0.7818608E-02  0.1180000E+00
       11   -1    0    0    0    0  0.00000000000E+00  0.00000000000E+00  0.39999999673E+01  0.40000000000E+01  0.51109989000E-03 0. -1.
     -623   -1    0    0    0    0  0.00000000000E+00  0.00000000000E+00  0.12525980253E-10  0.17130000000E+03  0.17130000000E+03 0.  1.
       11    1    1    2    0    0  0.32409756380E+00  0.32075194535E-01  0.17229912531E+00  0.36844985924E+00  0.51109989000E-03 0. -1.
     -623    1    1    2    0    0 -0.77726239133E-01  0.12710909532E+00  0.88234037828E+00  0.17130233718E+03  0.17130000000E+03 0.  1.
      622    1    1    2    0    0 -0.24637132467E+00 -0.15918428985E+00  0.29453604638E+01  0.36292129628E+01  0.21000000000E+01 0. -1.
</event>
<event>
 5   0  0.7462600E-02  0.9118800E+02  0.7818608E-02  0.1180000E+00
       11   -1    0    0    0    0  0.00000000000E+00  0.00000000000E+00  0.39999999673E+01  0.40000000000E+01  0.51109989000E-03 0. -1.
     -623   -1    0    0    0    0  0.00000000000E+00  0.00000000000E+00  0.12525980253E-10  0.17130000000E+03  0.17130000000E+03 0. -1.
       11    1    1    2    0    0  0.20791370198E-01 -0.28333145304E+00  0.27884644802E+00  0.39807611854E+00  0.51109989000E-03 0. -1.
     -623    1    1    2    0    0 -0.11496011991E+00  0.69314505807E+00  0.82940529484E+00  0.17130344882E+03  0.17130000000E+03 0. -1.
      622    1    1    2    0    0  0.94168749712E-01 -0.40981360503E+00  0.28917482245E+01  0.35984750573E+01  0.21000000000E+01 0. -1.
</event>
<event>
 5   0  0.7462600E-02  0.9118800E+02  0.7818608E-02  0.1180000E+00
       11   -1    0    0    0    0  0.00000000000E+00  0.00000000000E+00  0.39999999673E+01  0.40000000000E+01  0.51109989000E-03 0. -1.
     -623   -1    0    0    0    0  0.00000000000E+00  0.00000000000E+00  0.12525980253E-10  0.17130000000E+03  0.17130000000E+03 0.  1.
       11    1    1    2    0    0 -0.40512942632E-01  0.11509500603E+00  0.98075283515E-01  0.15654769686E+00  0.51109989000E-03 0. -1.
     -623    1    1    2    0    0 -0.20004283630E+00 -0.22079414431E-01  0.69507886036E+00  0.17130152842E+03  0.17130000000E+03 0.  1.
      622    1    1    2    0    0  0.24055577893E+00 -0.93015591595E-01  0.32068458235E+01  0.38419238825E+01  0.21000000000E+01 0. -1.
</event>
<event>
 5   0  0.7462600E-02  0.9118800E+02  0.7818608E-02  0.1180000E+00
       11   -1    0    0    0    0  0.00000000000E+00  0.00000000000E+00  0.39999999673E+01  0.40000000000E+01  0.51109989000E-03 0. -1.
     -623   -1    0    0    0    0  0.00000000000E+00  0.00000000000E+00  0.12525980253E-10  0.17130000000E+03  0.17130000000E+03 0. -1.
       11    1    1    2    0    0  0.46977424876E-02  0.76192768864E-01 -0.45056347631E-01  0.88643908401E-01  0.51109989000E-03 0. -1.
     -623    1    1    2    0    0 -0.82596555167E-01 -0.50777217836E+00  0.77755940384E+00  0.17130253721E+03  0.17130000000E+03 0. -1.
      622    1    1    2    0    0  0.77898812679E-01  0.43157940949E+00  0.32674969112E+01  0.39088188850E+01  0.21000000000E+01 0. -1.
</event>
<event>
 5   0  0.7462600E-02  0.9118800E+02  0.7818608E-02  0.1180000E+00
       11   -1    0    0    0    0  0.00000000000E+00  0.00000000000E+00  0.39999999673E+01  0.40000000000E+01  0.51109989000E-03 0. -1.
     -623   -1    0    0    0    0  0.00000000000E+00  0.00000000000E+00  0.12525980253E-10  0.17130000000E+03  0.17130000000E+03 0.  1.
       11    1    1    2    0    0 -0.28450455414E+00  0.23601562823E+00  0.56596406991E+00  0.67598950269E+00  0.51109989000E-03 0. -1.
     -623    1    1    2    0    0  0.19029644916E+00 -0.40910952176E+00  0.86856759545E+00  0.17130279622E+03  0.17130000000E+03 0.  1.
      622    1    1    2    0    0  0.94208104977E-01  0.17309389353E+00  0.25654683020E+01  0.33212142767E+01  0.21000000000E+01 0. -1.
</event>
<event>
 5   0  0.7462600E-02  0.9118800E+02  0.7818608E-02  0.1180000E+00
       11   -1    0    0    0    0  0.00000000000E+00  0.00000000000E+00  0.39999999673E+01  0.40000000000E+01  0.51109989000E-03 0. -1.
     -623   -1    0    0    0    0  0.00000000000E+00  0.00000000000E+00  0.12525980253E-10  0.17130000000E+03  0.17130000000E+03 0.  1.
       11    1    1    2    0    0 -0.37526989378E+00 -0.21626785874E+00  0.61594025078E+00  0.75298202745E+00  0.51109989000E-03 0. -1.
     -623    1    1    2    0    0  0.65469577365E+00  0.59556656499E+00  0.95941360204E+00  0.17130497308E+03  0.17130000000E+03 0.  1.
      622    1    1    2    0    0 -0.27942587987E+00 -0.37929870626E+00  0.24246461145E+01  0.32420448966E+01  0.21000000000E+01 0. -1.
</event>
<event>
 5   0  0.7462600E-02  0.9118800E+02  0.7818608E-02  0.1180000E+00
       11   -1    0    0    0    0  0.00000000000E+00  0.00000000000E+00  0.39999999673E+01  0.40000000000E+01  0.51109989000E-03 0. -1.
     -623   -1    0    0    0    0  0.00000000000E+00  0.00000000000E+00  0.12525980253E-10  0.17130000000E+03  0.17130000000E+03 0.  1.
       11    1    1    2    0    0  0.49399422446E-02  0.36187502333E-01  0.11098010085E+00  0.11683656261E+00  0.51109989000E-03 0. -1.
     -623    1    1    2    0    0  0.10303410194E+00 -0.10461440112E+00  0.62662360972E+00  0.17130120904E+03  0.17130000000E+03 0.  1.
      622    1    1    2    0    0 -0.10797404418E+00  0.68426898786E-01  0.32623962568E+01  0.38819544010E+01  0.21000000000E+01 0. -1.
</event>
<event>
 5   0  0.7462600E-02  0.9118800E+02  0.7818608E-02  0.1180000E+00
       11   -1    0    0    0    0  0.00000000000E+00  0.00000000000E+00  0.39999999673E+01  0.40000000000E+01  0.51109989000E-03 0. -1.
     -623   -1    0    0    0    0  0.00000000000E+00  0.00000000000E+00  0.12525980253E-10  0.17130000000E+03  0.17130000000E+03 0.  1.
       11    1    1    2    0    0  0.27347679971E+00  0.10763658976E+00  0.18255091364E-01  0.29446341882E+00  0.51109989000E-03 0. -1.
     -623    1    1    2    0    0 -0.77804604568E-01 -0.15643694451E+00  0.93861796023E+00  0.17130266060E+03  0.17130000000E+03 0.  1.
      622    1    1    2    0    0 -0.19567219515E+00  0.48800354747E-01  0.30431269158E+01  0.37028759779E+01  0.21000000000E+01 0. -1.
</event>
<event>
 5   0  0.7462600E-02  0.9118800E+02  0.7818608E-02  0.1180000E+00
       11   -1    0    0    0    0  0.00000000000E+00  0.00000000000E+00  0.39999999673E+01  0.40000000000E+01  0.51109989000E-03 0. -1.
     -623   -1    0    0    0    0  0.00000000000E+00  0.00000000000E+00  0.12525980253E-10  0.17130000000E+03  0.17130000000E+03 0.  1.
       11    1    1    2    0    0 -0.76719446958E-01  0.20284760772E+00 -0.48238484649E-01  0.22217164113E+00  0.51109989000E-03 0. -1.
     -623    1    1    2    0    0  0.39909404095E-02 -0.41593199237E+00  0.91952643143E+00  0.17130297296E+03  0.17130000000E+03 0.  1.
      622    1    1    2    0    0  0.72728506549E-01  0.21308438465E+00  0.31287120206E+01  0.37748554010E+01  0.21000000000E+01 0. -1.
</event>
<event>
 5   0  0.7462600E-02  0.9118800E+02  0.7818608E-02  0.1180000E+00
       11   -1    0    0    0    0  0.00000000000E+00  0.00000000000E+00  0.39999999673E+01  0.40000000000E+01  0.51109989000E-03 0.  1.
     -623   -1    0    0    0    0  0.00000000000E+00  0.00000000000E+00  0.12525980253E-10  0.17130000000E+03  0.17130000000E+03 0. -1.
       11    1    1    2    0    0  0.12845105273E+00 -0.14663259853E+00  0.35421347528E+00  0.40431205669E+00  0.51109989000E-03 0.  1.
     -623    1    1    2    0    0 -0.11289175641E+00  0.77312710526E+00  0.79973506742E+00  0.17130364867E+03  0.17130000000E+03 0. -1.
      622    1    1    2    0    0 -0.15559296315E-01 -0.62649450673E+00  0.28460514247E+01  0.35920392774E+01  0.21000000000E+01 0.  1.
</event>
<event>
 5   0  0.7462600E-02  0.9118800E+02  0.7818608E-02  0.1180000E+00
       11   -1    0    0    0    0  0.00000000000E+00  0.00000000000E+00  0.39999999673E+01  0.40000000000E+01  0.51109989000E-03 0. -1.
     -623   -1    0    0    0    0  0.00000000000E+00  0.00000000000E+00  0.12525980253E-10  0.17130000000E+03  0.17130000000E+03 0.  1.
       11    1    1    2    0    0  0.40633911727E+00  0.40660576428E+00  0.51267803583E+00  0.77024590581E+00  0.51109989000E-03 0. -1.
     -623    1    1    2    0    0 -0.52412742450E+00  0.59433161408E+00  0.12593491676E+01  0.17130646193E+03  0.17130000000E+03 0.  1.
      622    1    1    2    0    0  0.11778830722E+00 -0.10009373784E+01  0.22279727639E+01  0.32232921613E+01  0.21000000000E+01 0. -1.
</event>
<event>
 5   0  0.7462600E-02  0.9118800E+02  0.7818608E-02  0.1180000E+00
       11   -1    0    0    0    0  0.00000000000E+00  0.00000000000E+00  0.39999999673E+01  0.40000000000E+01  0.51109989000E-03 0.  1.
     -623   -1    0    0    0    0  0.00000000000E+00  0.00000000000E+00  0.12525980253E-10  0.17130000000E+03  0.17130000000E+03 0. -1.
       11    1    1    2    0    0 -0.23893924963E+00  0.15568504968E+00  0.17647567170E-02  0.28518971808E+00  0.51109989000E-03 0.  1.
     -623    1    1    2    0    0  0.33430133909E+00 -0.40653453514E+00  0.94991891166E+00  0.17130344239E+03  0.17130000000E+03 0. -1.
      622    1    1    2    0    0 -0.95362089453E-01  0.25084948546E+00  0.30483162990E+01  0.37113678949E+01  0.21000000000E+01 0.  1.
</event>
<event>
 5   0  0.7462600E-02  0.9118800E+02  0.7818608E-02  0.1180000E+00
       11   -1    0    0    0    0  0.00000000000E+00  0.00000000000E+00  0.39999999673E+01  0.40000000000E+01  0.51109989000E-03 0.  1.
     -623   -1    0    0    0    0  0.00000000000E+00  0.00000000000E+00  0.12525980253E-10  0.17130000000E+03  0.17130000000E+03 0.  1.
       11    1    1    2    0    0 -0.24286079614E-01 -0.85215476396E-01 -0.23702252732E-01  0.91725400452E-01  0.51109989000E-03 0.  1.
     -623    1    1    2    0    0 -0.88445154951E-01  0.21167518486E+00  0.73395728132E+00  0.17130172598E+03  0.17130000000E+03 0.  1.
      622    1    1    2    0    0  0.11273123457E+00 -0.12645970847E+00  0.32897449388E+01  0.39065486239E+01  0.21000000000E+01 0.  1.
</event>
<event>
 5   0  0.7462600E-02  0.9118800E+02  0.7818608E-02  0.1180000E+00
       11   -1    0    0    0    0  0.00000000000E+00  0.00000000000E+00  0.39999999673E+01  0.40000000000E+01  0.51109989000E-03 0.  1.
     -623   -1    0    0    0    0  0.00000000000E+00  0.00000000000E+00  0.12525980253E-10  0.17130000000E+03  0.17130000000E+03 0. -1.
       11    1    1    2    0    0 -0.21479680685E+00  0.10804259345E+00  0.72780385707E-01  0.25121328786E+00  0.51109989000E-03 0.  1.
     -623    1    1    2    0    0  0.14610305142E+00 -0.89399515249E-01  0.82515622161E+00  0.17130207302E+03  0.17130000000E+03 0. -1.
      622    1    1    2    0    0  0.68693755426E-01 -0.18643078197E-01  0.31020633600E+01  0.37467136915E+01  0.21000000000E+01 0.  1.
</event>
<event>
 5   0  0.7462600E-02  0.9118800E+02  0.7818608E-02  0.1180000E+00
       11   -1    0    0    0    0  0.00000000000E+00  0.00000000000E+00  0.39999999673E+01  0.40000000000E+01  0.51109989000E-03 0. -1.
     -623   -1    0    0    0    0  0.00000000000E+00  0.00000000000E+00  0.12525980253E-10  0.17130000000E+03  0.17130000000E+03 0.  1.
       11    1    1    2    0    0 -0.16828459700E-01  0.12806911728E+00 -0.22634517984E-01  0.13113915694E+00  0.51109989000E-03 0. -1.
     -623    1    1    2    0    0 -0.87449715360E+00 -0.20433910644E-01  0.90554323449E+00  0.17130462682E+03  0.17130000000E+03 0.  1.
      622    1    1    2    0    0  0.89132561330E+00 -0.10763520664E+00  0.31170912509E+01  0.38642340189E+01  0.21000000000E+01 0. -1.
</event>
<event>
 5   0  0.7462600E-02  0.9118800E+02  0.7818608E-02  0.1180000E+00
       11   -1    0    0    0    0  0.00000000000E+00  0.00000000000E+00  0.39999999673E+01  0.40000000000E+01  0.51109989000E-03 0.  1.
     -623   -1    0    0    0    0  0.00000000000E+00  0.00000000000E+00  0.12525980253E-10  0.17130000000E+03  0.17130000000E+03 0.  1.
       11    1    1    2    0    0 -0.14978048568E+00  0.26246016960E+00  0.81789254164E-01  0.31306433498E+00  0.51109989000E-03 0.  1.
     -623    1    1    2    0    0 -0.88462592476E-01 -0.10710350371E+00  0.90414450259E+00  0.17130244241E+03  0.17130000000E+03 0.  1.
      622    1    1    2    0    0  0.23824307816E+00 -0.15535666589E+00  0.30140662106E+01  0.36844932596E+01  0.21000000000E+01 0.  1.
</event>
<event>
 5   0  0.7462600E-02  0.9118800E+02  0.7818608E-02  0.1180000E+00
       11   -1    0    0    0    0  0.00000000000E+00  0.00000000000E+00  0.39999999673E+01  0.40000000000E+01  0.51109989000E-03 0.  1.
     -623   -1    0    0    0    0  0.00000000000E+00  0.00000000000E+00  0.12525980253E-10  0.17130000000E+03  0.17130000000E+03 0. -1.
       11    1    1    2    0    0  0.84140037341E-01  0.46993096860E-01 -0.90167625075E-02  0.96795972361E-01  0.51109989000E-03 0.  1.
     -623    1    1    2    0    0 -0.16582433221E+00 -0.89559551367E-01  0.72209876228E+00  0.17130162564E+03  0.17130000000E+03 0. -1.
      622    1    1    2    0    0  0.81684294873E-01  0.42566454507E-01  0.32869179676E+01  0.39015783925E+01  0.21000000000E+01 0.  1.
</event>
<event>
 5   0  0.7462600E-02  0.9118800E+02  0.7818608E-02  0.1180000E+00
       11   -1    0    0    0    0  0.00000000000E+00  0.00000000000E+00  0.39999999673E+01  0.40000000000E+01  0.51109989000E-03 0. -1.
     -623   -1    0    0    0    0  0.00000000000E+00  0.00000000000E+00  0.12525980253E-10  0.17130000000E+03  0.17130000000E+03 0.  1.
       11    1    1    2    0    0  0.33225059706E-01 -0.57040820058E-01  0.18919932054E-01  0.68671571959E-01  0.51109989000E-03 0. -1.
     -623    1    1    2    0    0  0.23819126578E+00  0.32910112719E+00  0.68211091346E+00  0.17130183980E+03  0.17130000000E+03 0.  1.
      622    1    1    2    0    0 -0.27141632549E+00 -0.27206030713E+00  0.32989691218E+01  0.39294886308E+01  0.21000000000E+01 0. -1.
</event>
<event>
 5   0  0.7462600E-02  0.9118800E+02  0.7818608E-02  0.1180000E+00
       11   -1    0    0    0    0  0.00000000000E+00  0.00000000000E+00  0.39999999673E+01  0.40000000000E+01  0.51109989000E-03 0. -1.
     -623   -1    0    0    0    0  0.00000000000E+00  0.00000000000E+00  0.12525980253E-10  0.17130000000E+03  0.17130000000E+03 0.  1.
       11    1    1    2    0    0  0.64173883737E-02 -0.15043540468E+00  0.12206024773E+00  0.19383229647E+00  0.51109989000E-03 0. -1.
     -623    1    1    2    0    0 -0.32249771782E+00  0.24110704175E+00  0.72301168264E+00  0.17130199906E+03  0.17130000000E+03 0.  1.
      622    1    1    2    0    0  0.31608032944E+00 -0.90671637061E-01  0.31549280370E+01  0.38041686397E+01  0.21000000000E+01 0. -1.
</event>
<event>
 5   0  0.7462600E-02  0.9118800E+02  0.7818608E-02  0.1180000E+00
       11   -1    0    0    0    0  0.00000000000E+00  0.00000000000E+00  0.39999999673E+01  0.40000000000E+01  0.51109989000E-03 0.  1.
     -623   -1    0    0    0    0  0.00000000000E+00  0.00000000000E+00  0.12525980253E-10  0.17130000000E+03  0.17130000000E+03 0.  1.
       11    1    1    2    0    0 -0.15729815732E+00 -0.10245298733E+00  0.20483331832E+00  0.27784217539E+00  0.51109989000E-03 0.  1.
     -623    1    1    2    0    0  0.19815318982E+00  0.22981958620E+00  0.72709188470E+00  0.17130181185E+03  0.17130000000E+03 0.  1.
      622    1    1    2    0    0 -0.40855032505E-01 -0.12736659887E+00  0.30680747643E+01  0.37203459710E+01  0.21000000000E+01 0.  1.
</event>
<event>
 5   0  0.7462600E-02  0.9118800E+02  0.7818608E-02  0.1180000E+00
       11   -1    0    0    0    0  0.00000000000E+00  0.00000000000E+00  0.39999999673E+01  0.40000000000E+01  0.51109989000E-03 0.  1.
     -623   -1    0    0    0    0  0.00000000000E+00  0.00000000000E+00  0.12525980253E-10  0.17130000000E+03  0.17130000000E+03 0.  1.
       11    1    1    2    0    0 -0.42044867205E-01  0.16058482403E+00  0.50433081686E+00  0.53094735202E+00  0.51109989000E-03 0.  1.
     -623    1    1    2    0    0 -0.33647810461E-01 -0.43222353719E+00  0.75166367676E+00  0.17130219773E+03  0.17130000000E+03 0.  1.
      622    1    1    2    0    0  0.75692677666E-01  0.27163871316E+00  0.27440054737E+01  0.34668549165E+01  0.21000000000E+01 0.  1.
</event>
<event>
 5   0  0.7462600E-02  0.9118800E+02  0.7818608E-02  0.1180000E+00
       11   -1    0    0    0    0  0.00000000000E+00  0.00000000000E+00  0.39999999673E+01  0.40000000000E+01  0.51109989000E-03 0.  1.
     -623   -1    0    0    0    0  0.00000000000E+00  0.00000000000E+00  0.12525980253E-10  0.17130000000E+03  0.17130000000E+03 0.  1.
       11    1    1    2    0    0 -0.12453947735E+00  0.49596128626E-01 -0.17856703955E+00  0.22328525753E+00  0.51109989000E-03 0.  1.
     -623    1    1    2    0    0 -0.51539383041E-01  0.13132149053E-01  0.10489785488E+01  0.17130322001E+03  0.17130000000E+03 0.  1.
      622    1    1    2    0    0  0.17607886039E+00 -0.62728277679E-01  0.31295884581E+01  0.37734947355E+01  0.21000000000E+01 0.  1.
</event>
<event>
 5   0  0.7462600E-02  0.9118800E+02  0.7818608E-02  0.1180000E+00
       11   -1    0    0    0    0  0.00000000000E+00  0.00000000000E+00  0.39999999673E+01  0.40000000000E+01  0.51109989000E-03 0.  1.
     -623   -1    0    0    0    0  0.00000000000E+00  0.00000000000E+00  0.12525980253E-10  0.17130000000E+03  0.17130000000E+03 0. -1.
       11    1    1    2    0    0  0.13153054956E+00  0.74796683270E-01  0.28212788139E-01  0.15391897847E+00  0.51109989000E-03 0.  1.
     -623    1    1    2    0    0 -0.23432774838E+00  0.13170705300E+00  0.76016211700E+00  0.17130189755E+03  0.17130000000E+03 0. -1.
      622    1    1    2    0    0  0.10279719882E+00 -0.20650373627E+00  0.32116250622E+01  0.38441834760E+01  0.21000000000E+01 0.  1.
</event>
<event>
 5   0  0.7462600E-02  0.9118800E+02  0.7818608E-02  0.1180000E+00
       11   -1    0    0    0    0  0.00000000000E+00  0.00000000000E+00  0.39999999673E+01  0.40000000000E+01  0.51109989000E-03 0.  1.
     -623   -1    0    0    0    0  0.00000000000E+00  0.00000000000E+00  0.12525980253E-10  0.17130000000E+03  0.17130000000E+03 0. -1.
       11    1    1    2    0    0  0.41339881845E-01  0.30773426203E+00  0.17858822085E+00  0.35819460592E+00  0.51109989000E-03 0.  1.
     -623    1    1    2    0    0 -0.17930098379E+00 -0.28489167370E+00  0.85234733914E+00  0.17130245126E+03  0.17130000000E+03 0. -1.
      622    1    1    2    0    0  0.13796110195E+00 -0.22842588329E-01  0.29690644074E+01  0.36393541329E+01  0.21000000000E+01 0.  1.
</event>
<event>
 5   0  0.7462600E-02  0.9118800E+02  0.7818608E-02  0.1180000E+00
       11   -1    0    0    0    0  0.00000000000E+00  0.00000000000E+00  0.39999999673E+01  0.40000000000E+01  0.51109989000E-03 0.  1.
     -623   -1    0    0    0    0  0.00000000000E+00  0.00000000000E+00  0.12525980253E-10  0.17130000000E+03  0.17130000000E+03 0. -1.
       11    1    1    2    0    0 -0.23317439362E-01 -0.40464489135E-01  0.14740619207E-01  0.48975758639E-01  0.51109989000E-03 0.  1.
     -623    1    1    2    0    0  0.14141182579E+00  0.52476711038E+00  0.67849791336E+00  0.17130220587E+03  0.17130000000E+03 0. -1.
      622    1    1    2    0    0 -0.11809438642E+00 -0.48430262124E+00  0.33067614348E+01  0.39488183675E+01  0.21000000000E+01 0.  1.
</event>
<event>
 5   0  0.7462600E-02  0.9118800E+02  0.7818608E-02  0.1180000E+00
       11   -1    0    0    0    0  0.00000000000E+00  0.00000000000E+00  0.39999999673E+01  0.40000000000E+01  0.51109989000E-03 0. -1.
     -623   -1    0    0    0    0  0.00000000000E+00  0.00000000000E+00  0.12525980253E-10  0.17130000000E+03  0.17130000000E+03 0. -1.
       11    1    1    2    0    0 -0.39690504941E+00  0.19793799746E+00  0.64971937362E+00  0.78666930458E+00  0.51109989000E-03 0. -1.
     -623    1    1    2    0    0  0.38384586082E+00 -0.41182437137E+00  0.93215244028E+00  0.17130346128E+03  0.17130000000E+03 0. -1.
      622    1    1    2    0    0  0.13059188586E-01  0.21388637390E+00  0.24181281535E+01  0.32098694194E+01  0.21000000000E+01 0. -1.
</event>
<event>
 5   0  0.7462600E-02  0.9118800E+02  0.7818608E-02  0.1180000E+00
       11   -1    0    0    0    0  0.00000000000E+00  0.00000000000E+00  0.39999999673E+01  0.40000000000E+01  0.51109989000E-03 0.  1.
     -623   -1    0    0    0    0  0.00000000000E+00  0.00000000000E+00  0.12525980253E-10  0.17130000000E+03  0.17130000000E+03 0.  1.
       11    1    1    2    0    0 -0.11306390658E+00 -0.20250221917E+00  0.26067569538E+00  0.34891643000E+00  0.51109989000E-03 0.  1.
     -623    1    1    2    0    0  0.89045175292E-01  0.14930413425E+00  0.75533313701E+00  0.17130175349E+03  0.17130000000E+03 0.  1.
      622    1    1    2    0    0  0.24018731287E-01  0.53198084915E-01  0.29839911350E+01  0.36493300795E+01  0.21000000000E+01 0.  1.
</event>
<event>
 5   0  0.7462600E-02  0.9118800E+02  0.7818608E-02  0.1180000E+00
       11   -1    0    0    0    0  0.00000000000E+00  0.00000000000E+00  0.39999999673E+01  0.40000000000E+01  0.51109989000E-03 0.  1.
     -623   -1    0    0    0    0  0.00000000000E+00  0.00000000000E+00  0.12525980253E-10  0.17130000000E+03  0.17130000000E+03 0.  1.
       11    1    1    2    0    0  0.65138034388E+00  0.27672807414E+00 -0.14091317877E+00  0.72161732559E+00  0.51109989000E-03 0.  1.
     -623    1    1    2    0    0  0.50496702584E-01 -0.52831518635E-01  0.17457759225E+01  0.17130891125E+03  0.17130000000E+03 0.  1.
      622    1    1    2    0    0 -0.70187704646E+00 -0.22389655551E+00  0.23951372236E+01  0.32694714215E+01  0.21000000000E+01 0.  1.
</event>
<event>
 5   0  0.7462600E-02  0.9118800E+02  0.7818608E-02  0.1180000E+00
       11   -1    0    0    0    0  0.00000000000E+00  0.00000000000E+00  0.39999999673E+01  0.40000000000E+01  0.51109989000E-03 0. -1.
     -623   -1    0    0    0    0  0.00000000000E+00  0.00000000000E+00  0.12525980253E-10  0.17130000000E+03  0.17130000000E+03 0. -1.
       11    1    1    2    0    0  0.45374945723E-01 -0.97859135036E-01 -0.88369471207E-02  0.10822961178E+00  0.51109989000E-03 0. -1.
     -623    1    1    2    0    0 -0.56620144954E-01  0.18895618192E+00  0.73556971929E+00  0.17130169285E+03  0.17130000000E+03 0. -1.
      622    1    1    2    0    0  0.11245199230E-01 -0.91097046887E-01  0.32732671952E+01  0.38900775388E+01  0.21000000000E+01 0. -1.
</event>
<event>
 5   0  0.7462600E-02  0.9118800E+02  0.7818608E-02  0.1180000E+00
       11   -1    0    0    0    0  0.00000000000E+00  0.00000000000E+00  0.39999999673E+01  0.40000000000E+01  0.51109989000E-03 0.  1.
     -623   -1    0    0    0    0  0.00000000000E+00  0.00000000000E+00  0.12525980253E-10  0.17130000000E+03  0.17130000000E+03 0. -1.
       11    1    1    2    0    0 -0.14145972572E+00 -0.14665832586E-01  0.31741925877E-01  0.14571805560E+00  0.51109989000E-03 0.  1.
     -623    1    1    2    0    0  0.47193270815E+00  0.26779297713E+00  0.76632547121E+00  0.17130257350E+03  0.17130000000E+03 0. -1.
      622    1    1    2    0    0 -0.33047298243E+00 -0.25312714455E+00  0.32019325703E+01  0.38517084428E+01  0.21000000000E+01 0.  1.
</event>
<event>
 5   0  0.7462600E-02  0.9118800E+02  0.7818608E-02  0.1180000E+00
       11   -1    0    0    0    0  0.00000000000E+00  0.00000000000E+00  0.39999999673E+01  0.40000000000E+01  0.51109989000E-03 0.  1.
     -623   -1    0    0    0    0  0.00000000000E+00  0.00000000000E+00  0.12525980253E-10  0.17130000000E+03  0.17130000000E+03 0. -1.
       11    1    1    2    0    0  0.56489024737E-01  0.10135874744E+00  0.78494533360E-01  0.14009374928E+00  0.51109989000E-03 0.  1.
     -623    1    1    2    0    0 -0.10179486307E+00 -0.31953743039E+00  0.69259202030E+00  0.17130172839E+03  0.17130000000E+03 0. -1.
      622    1    1    2    0    0  0.45305838333E-01  0.21817868295E+00  0.32289134137E+01  0.38581778588E+01  0.21000000000E+01 0.  1.
</event>
<event>
 5   0  0.7462600E-02  0.9118800E+02  0.7818608E-02  0.1180000E+00
       11   -1    0    0    0    0  0.00000000000E+00  0.00000000000E+00  0.39999999673E+01  0.40000000000E+01  0.51109989000E-03 0. -1.
     -623   -1    0    0    0    0  0.00000000000E+00  0.00000000000E+00  0.12525980253E-10  0.17130000000E+03  0.17130000000E+03 0.  1.
       11    1    1    2    0    0 -0.41385849868E-01 -0.14097104170E-01 -0.11926016938E-01  0.45321165236E-01  0.51109989000E-03 0. -1.
     -623    1    1    2    0    0  0.36852723093E-01 -0.38990987025E+00  0.68750230204E+00  0.17130182733E+03  0.17130000000E+03 0.  1.
      622    1    1    2    0    0  0.45331267751E-02  0.40400697442E+00  0.33244236823E+01  0.39528515029E+01  0.21000000000E+01 0. -1.
</event>
<event>
 5   0  0.7462600E-02  0.9118800E+02  0.7818608E-02  0.1180000E+00
       11   -1    0    0    0    0  0.00000000000E+00  0.00000000000E+00  0.39999999673E+01  0.40000000000E+01  0.51109989000E-03 0.  1.
     -623   -1    0    0    0    0  0.00000000000E+00  0.00000000000E+00  0.12525980253E-10  0.17130000000E+03  0.17130000000E+03 0.  1.
       11    1    1    2    0    0 -0.95345755405E-01 -0.70626850637E-01  0.28173225190E+00  0.30569966976E+00  0.51109989000E-03 0.  1.
     -623    1    1    2    0    0  0.28761179563E+00  0.27182866105E+00  0.69392519085E+00  0.17130186264E+03  0.17130000000E+03 0.  1.
      622    1    1    2    0    0 -0.19226604022E+00 -0.20120181041E+00  0.30243425246E+01  0.36924376914E+01  0.21000000000E+01 0.  1.
</event>
<event>
 5   0  0.7462600E-02  0.9118800E+02  0.7818608E-02  0.1180000E+00
       11   -1    0    0    0    0  0.00000000000E+00  0.00000000000E+00  0.39999999673E+01  0.40000000000E+01  0.51109989000E-03 0.  1.
     -623   -1    0    0    0    0  0.00000000000E+00  0.00000000000E+00  0.12525980253E-10  0.17130000000E+03  0.17130000000E+03 0.  1.
       11    1    1    2    0    0  0.46052294113E-01  0.38811429634E-01 -0.53673988604E-01  0.80674030140E-01  0.51109989000E-03 0.  1.
     -623    1    1    2    0    0 -0.31790804923E-01  0.16639396748E+00  0.75288910687E+00  0.17130173829E+03  0.17130000000E+03 0.  1.
      622    1    1    2    0    0 -0.14261489190E-01 -0.20520539711E+00  0.33007848491E+01  0.39175876844E+01  0.21000000000E+01 0.  1.
</event>
<event>
 5   0  0.7462600E-02  0.9118800E+02  0.7818608E-02  0.1180000E+00
       11   -1    0    0    0    0  0.00000000000E+00  0.00000000000E+00  0.39999999673E+01  0.40000000000E+01  0.51109989000E-03 0.  1.
     -623   -1    0    0    0    0  0.00000000000E+00  0.00000000000E+00  0.12525980253E-10  0.17130000000E+03  0.17130000000E+03 0.  1.
       11    1    1    2    0    0 -0.14304092077E+00  0.35241125484E+00  0.35577153100E+00  0.52079558470E+00  0.51109989000E-03 0.  1.
     -623    1    1    2    0    0  0.35567366628E-01 -0.14831329804E+00  0.88282293089E+00  0.17130234277E+03  0.17130000000E+03 0.  1.
      622    1    1    2    0    0  0.10747355414E+00 -0.20409795679E+00  0.27614055055E+01  0.34768616462E+01  0.21000000000E+01 0.  1.
</event>
<event>
 5   0  0.7462600E-02  0.9118800E+02  0.7818608E-02  0.1180000E+00
       11   -1    0    0    0    0  0.00000000000E+00  0.00000000000E+00  0.39999999673E+01  0.40000000000E+01  0.51109989000E-03 0.  1.
     -623   -1    0    0    0    0  0.00000000000E+00  0.00000000000E+00  0.12525980253E-10  0.17130000000E+03  0.17130000000E+03 0.  1.
       11    1    1    2    0    0 -0.39845146682E+00  0.16490915625E+00  0.34279404149E+00  0.55087804216E+00  0.51109989000E-03 0.  1.
     -623    1    1    2    0    0  0.17951807801E-01  0.20689015426E+00  0.97702919548E+00  0.17130291215E+03  0.17130000000E+03 0.  1.
      622    1    1    2    0    0  0.38049965902E+00 -0.37179931051E+00  0.26801767304E+01  0.34462098056E+01  0.21000000000E+01 0.  1.
</event>
<event>
 5   0  0.7462600E-02  0.9118800E+02  0.7818608E-02  0.1180000E+00
       11   -1    0    0    0    0  0.00000000000E+00  0.00000000000E+00  0.39999999673E+01  0.40000000000E+01  0.51109989000E-03 0.  1.
     -623   -1    0    0    0    0  0.00000000000E+00  0.00000000000E+00  0.12525980253E-10  0.17130000000E+03  0.17130000000E+03 0. -1.
       11    1    1    2    0    0  0.25724218485E+00 -0.93888240919E-01  0.38688239506E+00  0.47399028712E+00  0.51109989000E-03 0.  1.
     -623    1    1    2    0    0  0.19612326559E-01 -0.30194030487E+00  0.82501316172E+00  0.17130225392E+03  0.17130000000E+03 0. -1.
      622    1    1    2    0    0 -0.27685451141E+00  0.39582854579E+00  0.27881044106E+01  0.35237557893E+01  0.21000000000E+01 0.  1.
</event>
<event>
 5   0  0.7462600E-02  0.9118800E+02  0.7818608E-02  0.1180000E+00
       11   -1    0    0    0    0  0.00000000000E+00  0.00000000000E+00  0.39999999673E+01  0.40000000000E+01  0.51109989000E-03 0.  1.
     -623   -1    0    0    0    0  0.00000000000E+00  0.00000000000E+00  0.12525980253E-10  0.17130000000E+03  0.17130000000E+03 0. -1.
       11    1    1    2    0    0 -0.23423785500E+00  0.27002143055E+00  0.83367649068E+00  0.90708086630E+00  0.51109989000E-03 0.  1.
     -623    1    1    2    0    0  0.42447611762E+00 -0.28421066794E+00  0.90796782757E+00  0.17130316798E+03  0.17130000000E+03 0. -1.
      622    1    1    2    0    0 -0.19023826261E+00  0.14189237398E-01  0.22583556491E+01  0.30897511500E+01  0.21000000000E+01 0.  1.
</event>
<event>
 5   0  0.7462600E-02  0.9118800E+02  0.7818608E-02  0.1180000E+00
       11   -1    0    0    0    0  0.00000000000E+00  0.00000000000E+00  0.39999999673E+01  0.40000000000E+01  0.51109989000E-03 0. -1.
     -623   -1    0    0    0    0  0.00000000000E+00  0.00000000000E+00  0.12525980253E-10  0.17130000000E+03  0.17130000000E+03 0. -1.
       11    1    1    2    0    0  0.32007109519E+00 -0.42447619703E+00  0.37198291917E+00  0.64884289408E+00  0.51109989000E-03 0. -1.
     -623    1    1    2    0    0 -0.68883845362E+00  0.18411460532E+00  0.10600244240E+01  0.17130476365E+03  0.17130000000E+03 0. -1.
      622    1    1    2    0    0  0.36876735842E+00  0.24036159171E+00  0.25679926242E+01  0.33463934583E+01  0.21000000000E+01 0. -1.
</event>
<event>
 5   0  0.7462600E-02  0.9118800E+02  0.7818608E-02  0.1180000E+00
       11   -1    0    0    0    0  0.00000000000E+00  0.00000000000E+00  0.39999999673E+01  0.40000000000E+01  0.51109989000E-03 0.  1.
     -623   -1    0    0    0    0  0.00000000000E+00  0.00000000000E+00  0.12525980253E-10  0.17130000000E+03  0.17130000000E+03 0.  1.
       11    1    1    2    0    0  0.16774109850E+00 -0.10498109072E+00  0.10065899012E-01  0.19814057908E+00  0.51109989000E-03 0.  1.
     -623    1    1    2    0    0 -0.44691667217E+00  0.10288755159E+00  0.83620421214E+00  0.17130265485E+03  0.17130000000E+03 0.  1.
      622    1    1    2    0    0  0.27917557367E+00  0.20935391316E-02  0.31537298562E+01  0.37992045733E+01  0.21000000000E+01 0.  1.
</event>
<event>
 5   0  0.7462600E-02  0.9118800E+02  0.7818608E-02  0.1180000E+00
       11   -1    0    0    0    0  0.00000000000E+00  0.00000000000E+00  0.39999999673E+01  0.40000000000E+01  0.51109989000E-03 0. -1.
     -623   -1    0    0    0    0  0.00000000000E+00  0.00000000000E+00  0.12525980253E-10  0.17130000000E+03  0.17130000000E+03 0.  1.
       11    1    1    2    0    0 -0.17757160787E+00 -0.11634888173E+00  0.25412712485E-01  0.21381020878E+00  0.51109989000E-03 0. -1.
     -623    1    1    2    0    0 -0.37444252403E+00  0.56925075879E-01  0.87671211966E+00  0.17130266219E+03  0.17130000000E+03 0.  1.
      622    1    1    2    0    0  0.55201413190E+00  0.59423805849E-01  0.30978751352E+01  0.37835276058E+01  0.21000000000E+01 0. -1.
</event>
<event>
 5   0  0.7462600E-02  0.9118800E+02  0.7818608E-02  0.1180000E+00
       11   -1    0    0    0    0  0.00000000000E+00  0.00000000000E+00  0.39999999673E+01  0.40000000000E+01  0.51109989000E-03 0.  1.
     -623   -1    0    0    0    0  0.00000000000E+00  0.00000000000E+00  0.12525980253E-10  0.17130000000E+03  0.17130000000E+03 0. -1.
       11    1    1    2    0    0  0.21242241978E+00  0.19094754586E+00  0.10828215684E+00  0.30546609699E+00  0.51109989000E-03 0.  1.
     -623    1    1    2    0    0 -0.16458837141E+00 -0.25395426754E+00  0.85600538175E+00  0.17130240608E+03  0.17130000000E+03 0. -1.
      622    1    1    2    0    0 -0.47834048375E-01  0.63006721672E-01  0.30357124288E+01  0.36921278273E+01  0.21000000000E+01 0.  1.
</event>
<event>
 5   0  0.7462600E-02  0.9118800E+02  0.7818608E-02  0.1180000E+00
       11   -1    0    0    0    0  0.00000000000E+00  0.00000000000E+00  0.39999999673E+01  0.40000000000E+01  0.51109989000E-03 0.  1.
     -623   -1    0    0    0    0  0.00000000000E+00  0.00000000000E+00  0.12525980253E-10  0.17130000000E+03  0.17130000000E+03 0. -1.
       11    1    1    2    0    0  0.29958988797E-01 -0.91047301269E-01 -0.32323815633E-01  0.10115454690E+00  0.51109989000E-03 0.  1.
     -623    1    1    2    0    0 -0.51350657281E-01  0.42172094196E+00  0.76679042617E+00  0.17130224299E+03  0.17130000000E+03 0. -1.
      622    1    1    2    0    0  0.21391668484E-01 -0.33067364069E+00  0.32655333568E+01  0.38966024643E+01  0.21000000000E+01 0.  1.
</event>
<event>
 5   0  0.7462600E-02  0.9118800E+02  0.7818608E-02  0.1180000E+00
       11   -1    0    0    0    0  0.00000000000E+00  0.00000000000E+00  0.39999999673E+01  0.40000000000E+01  0.51109989000E-03 0. -1.
     -623   -1    0    0    0    0  0.00000000000E+00  0.00000000000E+00  0.12525980253E-10  0.17130000000E+03  0.17130000000E+03 0. -1.
       11    1    1    2    0    0  0.91263630705E-02 -0.65251465057E-01 -0.14362333251E-01  0.67435762275E-01  0.51109989000E-03 0. -1.
     -623    1    1    2    0    0  0.20666374516E+00  0.53249629895E-01  0.69832343526E+00  0.17130155633E+03  0.17130000000E+03 0. -1.
      622    1    1    2    0    0 -0.21579010823E+00  0.12001835162E-01  0.33160388653E+01  0.39310079078E+01  0.21000000000E+01 0. -1.
</event>
<event>
 5   0  0.7462600E-02  0.9118800E+02  0.7818608E-02  0.1180000E+00
       11   -1    0    0    0    0  0.00000000000E+00  0.00000000000E+00  0.39999999673E+01  0.40000000000E+01  0.51109989000E-03 0.  1.
     -623   -1    0    0    0    0  0.00000000000E+00  0.00000000000E+00  0.12525980253E-10  0.17130000000E+03  0.17130000000E+03 0. -1.
       11    1    1    2    0    0  0.13192591092E+00 -0.59531731683E-01  0.12374123892E+00  0.19042223736E+00  0.51109989000E-03 0.  1.
     -623    1    1    2    0    0  0.13196382649E+00  0.38450491076E+00  0.72789673011E+00  0.17130202886E+03  0.17130000000E+03 0. -1.
      622    1    1    2    0    0 -0.26388973742E+00 -0.32497317907E+00  0.31483619983E+01  0.38075489010E+01  0.21000000000E+01 0.  1.
</event>
<event>
 5   0  0.7462600E-02  0.9118800E+02  0.7818608E-02  0.1180000E+00
       11   -1    0    0    0    0  0.00000000000E+00  0.00000000000E+00  0.39999999673E+01  0.40000000000E+01  0.51109989000E-03 0.  1.
     -623   -1    0    0    0    0  0.00000000000E+00  0.00000000000E+00  0.12525980253E-10  0.17130000000E+03  0.17130000000E+03 0.  1.
       11    1    1    2    0    0  0.56942284998E-03 -0.51886813319E-03 -0.49642974788E-01  0.49651582406E-01  0.51109989000E-03 0.  1.
     -623    1    1    2    0    0  0.22959924691E+00 -0.15288127500E+00  0.71720696928E+00  0.17130172350E+03  0.17130000000E+03 0.  1.
      622    1    1    2    0    0 -0.23016866976E+00  0.15340014314E+00  0.33324359729E+01  0.39486249168E+01  0.21000000000E+01 0.  1.
</event>
<event>
 5   0  0.7462600E-02  0.9118800E+02  0.7818608E-02  0.1180000E+00
       11   -1    0    0    0    0  0.00000000000E+00  0.00000000000E+00  0.39999999673E+01  0.40000000000E+01  0.51109989000E-03 0. -1.
     -623   -1    0    0    0    0  0.00000000000E+00  0.00000000000E+00  0.12525980253E-10  0.17130000000E+03  0.17130000000E+03 0. -1.
       11    1    1    2    0    0  0.43561352597E-01 -0.18003603761E+00  0.10597889896E+00  0.21340654753E+00  0.51109989000E-03 0. -1.
     -623    1    1    2    0    0 -0.15973051367E+00  0.47070764063E+00  0.76160553077E+00  0.17130241423E+03  0.17130000000E+03 0. -1.
      622    1    1    2    0    0  0.11616916108E+00 -0.29067160302E+00  0.31324155376E+01  0.37841792182E+01  0.21000000000E+01 0. -1.
</event>
<event>
 5   0  0.7462600E-02  0.9118800E+02  0.7818608E-02  0.1180000E+00
       11   -1    0    0    0    0  0.00000000000E+00  0.00000000000E+00  0.39999999673E+01  0.40000000000E+01  0.51109989000E-03 0. -1.
     -623   -1    0    0    0    0  0.00000000000E+00  0.00000000000E+00  0.12525980253E-10  0.17130000000E+03  0.17130000000E+03 0. -1.
       11    1    1    2    0    0 -0.13194207128E+00 -0.10305008925E+00  0.95497757126E-01  0.19273845985E+00  0.51109989000E-03 0. -1.
     -623    1    1    2    0    0  0.24095629870E-01  0.14935797340E+00  0.73290630087E+00  0.17130163467E+03  0.17130000000E+03 0. -1.
      622    1    1    2    0    0  0.10784644141E+00 -0.46307884147E-01  0.31715959094E+01  0.38056268718E+01  0.21000000000E+01 0. -1.
</event>
<event>
 5   0  0.7462600E-02  0.9118800E+02  0.7818608E-02  0.1180000E+00
       11   -1    0    0    0    0  0.00000000000E+00  0.00000000000E+00  0.39999999673E+01  0.40000000000E+01  0.51109989000E-03 0.  1.
     -623   -1    0    0    0    0  0.00000000000E+00  0.00000000000E+00  0.12525980253E-10  0.17130000000E+03  0.17130000000E+03 0. -1.
       11    1    1    2    0    0  0.35974811334E+00 -0.12214301389E-01  0.10428134270E+00  0.37475692638E+00  0.51109989000E-03 0.  1.
     -623    1    1    2    0    0 -0.18150531298E+00  0.32432926772E+00  0.96646612657E+00  0.17130312954E+03  0.17130000000E+03 0. -1.
      622    1    1    2    0    0 -0.17824280036E+00 -0.31211496633E+00  0.29292524981E+01  0.36221135330E+01  0.21000000000E+01 0.  1.
</event>
<event>
 5   0  0.7462600E-02  0.9118800E+02  0.7818608E-02  0.1180000E+00
       11   -1    0    0    0    0  0.00000000000E+00  0.00000000000E+00  0.39999999673E+01  0.40000000000E+01  0.51109989000E-03 0. -1.
     -623   -1    0    0    0    0  0.00000000000E+00  0.00000000000E+00  0.12525980253E-10  0.17130000000E+03  0.17130000000E+03 0.  1.
       11    1    1    2    0    0 -0.43637609504E-01 -0.15433160624E-01  0.41904300606E-02  0.46478428730E-01  0.51109989000E-03 0. -1.
     -623    1    1    2    0    0  0.18551954274E+00  0.40545659000E-02  0.65073753057E+00  0.17130133652E+03  0.17130000000E+03 0.  1.
      622    1    1    2    0    0 -0.14188193324E+00  0.11378594724E-01  0.33450720067E+01  0.39521850520E+01  0.21000000000E+01 0. -1.
</event>
<event>
 5   0  0.7462600E-02  0.9118800E+02  0.7818608E-02  0.1180000E+00
       11   -1    0    0    0    0  0.00000000000E+00  0.00000000000E+00  0.39999999673E+01  0.40000000000E+01  0.51109989000E-03 0. -1.
     -623   -1    0    0    0    0  0.00000000000E+00  0.00000000000E+00  0.12525980253E-10  0.17130000000E+03  0.17130000000E+03 0.  1.
       11    1    1    2    0    0 -0.16925841182E-02  0.18975315861E+00  0.32139301170E-01  0.19246381984E+00  0.51109989000E-03 0. -1.
     -623    1    1    2    0    0 -0.38124788255E+00  0.24791194321E+00  0.84880081854E+00  0.17130270656E+03  0.17130000000E+03 0.  1.
      622    1    1    2    0    0  0.38294046667E+00 -0.43766510182E+00  0.31190598477E+01  0.38048296250E+01  0.21000000000E+01 0. -1.
</event>
<event>
 5   0  0.7462600E-02  0.9118800E+02  0.7818608E-02  0.1180000E+00
       11   -1    0    0    0    0  0.00000000000E+00  0.00000000000E+00  0.39999999673E+01  0.40000000000E+01  0.51109989000E-03 0.  1.
     -623   -1    0    0    0    0  0.00000000000E+00  0.00000000000E+00  0.12525980253E-10  0.17130000000E+03  0.17130000000E+03 0. -1.
       11    1    1    2    0    0  0.42112905859E-02 -0.50046859966E+00  0.17006045222E+00  0.52858998557E+00  0.51109989000E-03 0.  1.
     -623    1    1    2    0    0 -0.43228592861E+00  0.67700398806E+00  0.11118188494E+01  0.17130549129E+03  0.17130000000E+03 0. -1.
      622    1    1    2    0    0  0.42807463802E+00 -0.17653538840E+00  0.27181206658E+01  0.34659187228E+01  0.21000000000E+01 0.  1.
</event>
<event>
 5   0  0.7462600E-02  0.9118800E+02  0.7818608E-02  0.1180000E+00
       11   -1    0    0    0    0  0.00000000000E+00  0.00000000000E+00  0.39999999673E+01  0.40000000000E+01  0.51109989000E-03 0. -1.
     -623   -1    0    0    0    0  0.00000000000E+00  0.00000000000E+00  0.12525980253E-10  0.17130000000E+03  0.17130000000E+03 0. -1.
       11    1    1    2    0    0 -0.70638064215E-01  0.22897546387E+00  0.57084335753E+00  0.61909764919E+00  0.51109989000E-03 0. -1.
     -623    1    1    2    0    0  0.28213862759E+00  0.19217275188E+00  0.82479849522E+00  0.17130232580E+03  0.17130000000E+03 0. -1.
      622    1    1    2    0    0 -0.21150056338E+00 -0.42114821575E+00  0.26043581146E+01  0.33785765489E+01  0.21000000000E+01 0. -1.
</event>
<event>
 5   0  0.7462600E-02  0.9118800E+02  0.7818608E-02  0.1180000E+00
       11   -1    0    0    0    0  0.00000000000E+00  0.00000000000E+00  0.39999999673E+01  0.40000000000E+01  0.51109989000E-03 0.  1.
     -623   -1    0    0    0    0  0.00000000000E+00  0.00000000000E+00  0.12525980253E-10  0.17130000000E+03  0.17130000000E+03 0.  1.
       11    1    1    2    0    0 -0.46862488337E+00 -0.46868002050E+00  0.89880433189E+00  0.11167451505E+01  0.51109989000E-03 0.  1.
     -623    1    1    2    0    0  0.55539376228E+00  0.53396291856E+00  0.11365928925E+01  0.17130550319E+03  0.17130000000E+03 0.  1.
      622    1    1    2    0    0 -0.86768878904E-01 -0.65282898060E-01  0.19646027430E+01  0.28777516628E+01  0.21000000000E+01 0.  1.
</event>
<event>
 5   0  0.7462600E-02  0.9118800E+02  0.7818608E-02  0.1180000E+00
       11   -1    0    0    0    0  0.00000000000E+00  0.00000000000E+00  0.39999999673E+01  0.40000000000E+01  0.51109989000E-03 0. -1.
     -623   -1    0    0    0    0  0.00000000000E+00  0.00000000000E+00  0.12525980253E-10  0.17130000000E+03  0.17130000000E+03 0. -1.
       11    1    1    2    0    0  0.66221208943E-01 -0.78043231153E-01  0.20861914141E-01  0.10445800653E+00  0.51109989000E-03 0. -1.
     -623    1    1    2    0    0  0.48106571038E-01  0.89076527846E-01  0.70184924796E+00  0.17130146771E+03  0.17130000000E+03 0. -1.
      622    1    1    2    0    0 -0.11432777998E+00 -0.11033296693E-01  0.32772888053E+01  0.38940742787E+01  0.21000000000E+01 0. -1.
</event>
<event>
 5   0  0.7462600E-02  0.9118800E+02  0.7818608E-02  0.1180000E+00
       11   -1    0    0    0    0  0.00000000000E+00  0.00000000000E+00  0.39999999673E+01  0.40000000000E+01  0.51109989000E-03 0. -1.
     -623   -1    0    0    0    0  0.00000000000E+00  0.00000000000E+00  0.12525980253E-10  0.17130000000E+03  0.17130000000E+03 0.  1.
       11    1    1    2    0    0 -0.38732223639E+00  0.49533778554E-01 -0.47807133184E-01  0.39339279763E+00  0.51109989000E-03 0. -1.
     -623    1    1    2    0    0  0.48157429888E-01 -0.28752808021E+00  0.11501672322E+01  0.17130410934E+03  0.17130000000E+03 0.  1.
      622    1    1    2    0    0  0.33916480650E+00  0.23799430166E+00  0.28976398684E+01  0.36024978640E+01  0.21000000000E+01 0. -1.
</event>
<event>
 5   0  0.7462600E-02  0.9118800E+02  0.7818608E-02  0.1180000E+00
       11   -1    0    0    0    0  0.00000000000E+00  0.00000000000E+00  0.39999999673E+01  0.40000000000E+01  0.51109989000E-03 0. -1.
     -623   -1    0    0    0    0  0.00000000000E+00  0.00000000000E+00  0.12525980253E-10  0.17130000000E+03  0.17130000000E+03 0. -1.
       11    1    1    2    0    0 -0.25748167341E+00  0.81428959296E-01  0.29616468548E+00  0.40080078555E+00  0.51109989000E-03 0. -1.
     -623    1    1    2    0    0  0.15749935194E+00 -0.17259903363E+00  0.78633778899E+00  0.17130196416E+03  0.17130000000E+03 0. -1.
      622    1    1    2    0    0  0.99982321474E-01  0.91170074338E-01  0.29174974929E+01  0.35972350588E+01  0.21000000000E+01 0. -1.
</event>
<event>
 5   0  0.7462600E-02  0.9118800E+02  0.7818608E-02  0.1180000E+00
       11   -1    0    0    0    0  0.00000000000E+00  0.00000000000E+00  0.39999999673E+01  0.40000000000E+01  0.51109989000E-03 0.  1.
     -623   -1    0    0    0    0  0.00000000000E+00  0.00000000000E+00  0.12525980253E-10  0.17130000000E+03  0.17130000000E+03 0.  1.
       11    1    1    2    0    0 -0.21253576858E+00 -0.11683820566E+00  0.14268189908E+00  0.28139119527E+00  0.51109989000E-03 0.  1.
     -623    1    1    2    0    0  0.11930757180E+00  0.19968547095E+00  0.79338902366E+00  0.17130199524E+03  0.17130000000E+03 0.  1.
      622    1    1    2    0    0  0.93228196779E-01 -0.82847265292E-01  0.30639290446E+01  0.37166135603E+01  0.21000000000E+01 0.  1.
</event>
<event>
 5   0  0.7462600E-02  0.9118800E+02  0.7818608E-02  0.1180000E+00
       11   -1    0    0    0    0  0.00000000000E+00  0.00000000000E+00  0.39999999673E+01  0.40000000000E+01  0.51109989000E-03 0.  1.
     -623   -1    0    0    0    0  0.00000000000E+00  0.00000000000E+00  0.12525980253E-10  0.17130000000E+03  0.17130000000E+03 0. -1.
       11    1    1    2    0    0 -0.51422578896E-01  0.66678874717E-01  0.16505007858E+00  0.18528935106E+00  0.51109989000E-03 0.  1.
     -623    1    1    2    0    0  0.90534248286E-01 -0.19664075896E+00  0.65485459550E+00  0.17130138849E+03  0.17130000000E+03 0. -1.
      622    1    1    2    0    0 -0.39111669390E-01  0.12996188424E+00  0.31800952933E+01  0.38133221590E+01  0.21000000000E+01 0.  1.
</event>
<event>
 5   0  0.7462600E-02  0.9118800E+02  0.7818608E-02  0.1180000E+00
       11   -1    0    0    0    0  0.00000000000E+00  0.00000000000E+00  0.39999999673E+01  0.40000000000E+01  0.51109989000E-03 0. -1.
     -623   -1    0    0    0    0  0.00000000000E+00  0.00000000000E+00  0.12525980253E-10  0.17130000000E+03  0.17130000000E+03 0. -1.
       11    1    1    2    0    0  0.94614261844E-01  0.14034158672E-01 -0.42539707038E-01  0.10468382899E+00  0.51109989000E-03 0. -1.
     -623    1    1    2    0    0 -0.22381908416E-01  0.16955769505E+00  0.76986106446E+00  0.17130181533E+03  0.17130000000E+03 0. -1.
      622    1    1    2    0    0 -0.72232353428E-01 -0.18359185372E+00  0.32726786099E+01  0.38935008367E+01  0.21000000000E+01 0. -1.
</event>
<event>
 5   0  0.7462600E-02  0.9118800E+02  0.7818608E-02  0.1180000E+00
       11   -1    0    0    0    0  0.00000000000E+00  0.00000000000E+00  0.39999999673E+01  0.40000000000E+01  0.51109989000E-03 0.  1.
     -623   -1    0    0    0    0  0.00000000000E+00  0.00000000000E+00  0.12525980253E-10  0.17130000000E+03  0.17130000000E+03 0. -1.
       11    1    1    2    0    0 -0.27505003501E+00  0.25132129918E-01  0.19851561143E+00  0.34013652394E+00  0.51109989000E-03 0.  1.
     -623    1    1    2    0    0  0.16455596465E-03 -0.25837685227E+00  0.82851474904E+00  0.17130219845E+03  0.17130000000E+03 0. -1.
      622    1    1    2    0    0  0.27488547904E+00  0.23324472235E+00  0.29729696069E+01  0.36576650217E+01  0.21000000000E+01 0.  1.
</event>
<event>
 5   0  0.7462600E-02  0.9118800E+02  0.7818608E-02  0.1180000E+00
       11   -1    0    0    0    0  0.00000000000E+00  0.00000000000E+00  0.39999999673E+01  0.40000000000E+01  0.51109989000E-03 0. -1.
     -623   -1    0    0    0    0  0.00000000000E+00  0.00000000000E+00  0.12525980253E-10  0.17130000000E+03  0.17130000000E+03 0.  1.
       11    1    1    2    0    0  0.17769368544E+00  0.32052906256E-01  0.44828650165E+00  0.48328406080E+00  0.51109989000E-03 0. -1.
     -623    1    1    2    0    0 -0.75968893930E+00 -0.93079125125E-01  0.79675380691E+00  0.17130356274E+03  0.17130000000E+03 0.  1.
      622    1    1    2    0    0  0.58199525386E+00  0.61026218869E-01  0.27549596588E+01  0.35131531986E+01  0.21000000000E+01 0. -1.
</event>
<event>
 5   0  0.7462600E-02  0.9118800E+02  0.7818608E-02  0.1180000E+00
       11   -1    0    0    0    0  0.00000000000E+00  0.00000000000E+00  0.39999999673E+01  0.40000000000E+01  0.51109989000E-03 0.  1.
     -623   -1    0    0    0    0  0.00000000000E+00  0.00000000000E+00  0.12525980253E-10  0.17130000000E+03  0.17130000000E+03 0.  1.
       11    1    1    2    0    0  0.88989938307E-02 -0.12803260889E-01  0.53818298436E-01  0.56033793818E-01  0.51109989000E-03 0.  1.
     -623    1    1    2    0    0  0.49424781305E+00  0.21118129227E+00  0.65439602082E+00  0.17130209314E+03  0.17130000000E+03 0.  1.
      622    1    1    2    0    0 -0.50314680688E+00 -0.19837803138E+00  0.32917856481E+01  0.39418730707E+01  0.21000000000E+01 0.  1.
</event>
<event>
 5   0  0.7462600E-02  0.9118800E+02  0.7818608E-02  0.1180000E+00
       11   -1    0    0    0    0  0.00000000000E+00  0.00000000000E+00  0.39999999673E+01  0.40000000000E+01  0.51109989000E-03 0.  1.
     -623   -1    0    0    0    0  0.00000000000E+00  0.00000000000E+00  0.12525980253E-10  0.17130000000E+03  0.17130000000E+03 0.  1.
       11    1    1    2    0    0 -0.61810142754E-01  0.92107680025E-01  0.24149680941E+00  0.26575418839E+00  0.51109989000E-03 0.  1.
     -623    1    1    2    0    0  0.52692613057E+00  0.92698777261E-01  0.71437007374E+00  0.17130232505E+03  0.17130000000E+03 0.  1.
      622    1    1    2    0    0 -0.46511598782E+00 -0.18480645729E+00  0.30441330842E+01  0.37319207579E+01  0.21000000000E+01 0.  1.
</event>
<event>
 5   0  0.7462600E-02  0.9118800E+02  0.7818608E-02  0.1180000E+00
       11   -1    0    0    0    0  0.00000000000E+00  0.00000000000E+00  0.39999999673E+01  0.40000000000E+01  0.51109989000E-03 0. -1.
     -623   -1    0    0    0    0  0.00000000000E+00  0.00000000000E+00  0.12525980253E-10  0.17130000000E+03  0.17130000000E+03 0. -1.
       11    1    1    2    0    0 -0.29113730731E-02 -0.35379469364E-01  0.13243500332E-01  0.37892406492E-01  0.51109989000E-03 0. -1.
     -623    1    1    2    0    0  0.36371985050E-01  0.54016192328E-01  0.62854337158E+00  0.17130116552E+03  0.17130000000E+03 0. -1.
      622    1    1    2    0    0 -0.33460611977E-01 -0.18636722964E-01  0.33582130954E+01  0.39609420766E+01  0.21000000000E+01 0. -1.
</event>
<event>
 5   0  0.7462600E-02  0.9118800E+02  0.7818608E-02  0.1180000E+00
       11   -1    0    0    0    0  0.00000000000E+00  0.00000000000E+00  0.39999999673E+01  0.40000000000E+01  0.51109989000E-03 0.  1.
     -623   -1    0    0    0    0  0.00000000000E+00  0.00000000000E+00  0.12525980253E-10  0.17130000000E+03  0.17130000000E+03 0.  1.
       11    1    1    2    0    0 -0.25678253751E+00 -0.26481834156E-01  0.20713943736E+00  0.33097668626E+00  0.51109989000E-03 0.  1.
     -623    1    1    2    0    0  0.18222517065E+00  0.27162073646E+00  0.79783806401E+00  0.17130217024E+03  0.17130000000E+03 0.  1.
      622    1    1    2    0    0  0.74557366866E-01 -0.24513890231E+00  0.29950224660E+01  0.36668530723E+01  0.21000000000E+01 0.  1.
</event>
<event>
 5   0  0.7462600E-02  0.9118800E+02  0.7818608E-02  0.1180000E+00
       11   -1    0    0    0    0  0.00000000000E+00  0.00000000000E+00  0.39999999673E+01  0.40000000000E+01  0.51109989000E-03 0. -1.
     -623   -1    0    0    0    0  0.00000000000E+00  0.00000000000E+00  0.12525980253E-10  0.17130000000E+03  0.17130000000E+03 0. -1.
       11    1    1    2    0    0 -0.10439646636E+00 -0.16132309834E+00  0.47527126089E-02  0.19221501957E+00  0.51109989000E-03 0. -1.
     -623    1    1    2    0    0 -0.54556208494E+00  0.96875994357E-01  0.89070584167E+00  0.17130321182E+03  0.17130000000E+03 0. -1.
      622    1    1    2    0    0  0.64995855130E+00  0.64447103983E-01  0.31045414131E+01  0.38045731604E+01  0.21000000000E+01 0. -1.
</event>
<event>
 5   0  0.7462600E-02  0.9118800E+02  0.7818608E-02  0.1180000E+00
       11   -1    0    0    0    0  0.00000000000E+00  0.00000000000E+00  0.39999999673E+01  0.40000000000E+01  0.51109989000E-03 0. -1.
     -623   -1    0    0    0    0  0.00000000000E+00  0.00000000000E+00  0.12525980253E-10  0.17130000000E+03  0.17130000000E+03 0. -1.
       11    1    1    2    0    0  0.53991479450E+00 -0.53838644937E+00  0.39970634018E+00  0.86089103480E+00  0.51109989000E-03 0. -1.
     -623    1    1    2    0    0 -0.30696776710E+00  0.52795898092E+00  0.12867483930E+01  0.17130592136E+03  0.17130000000E+03 0. -1.
      622    1    1    2    0    0 -0.23294702741E+00  0.10427468456E-01  0.23135452341E+01  0.31331876101E+01  0.21000000000E+01 0. -1.
</event>
<event>
 5   0  0.7462600E-02  0.9118800E+02  0.7818608E-02  0.1180000E+00
       11   -1    0    0    0    0  0.00000000000E+00  0.00000000000E+00  0.39999999673E+01  0.40000000000E+01  0.51109989000E-03 0.  1.
     -623   -1    0    0    0    0  0.00000000000E+00  0.00000000000E+00  0.12525980253E-10  0.17130000000E+03  0.17130000000E+03 0. -1.
       11    1    1    2    0    0  0.14499192871E+00 -0.32761298796E+00  0.28963138863E+00  0.46069461878E+00  0.51109989000E-03 0.  1.
     -623    1    1    2    0    0 -0.30579739743E+00  0.25385185219E-01  0.88523982081E+00  0.17130256217E+03  0.17130000000E+03 0. -1.
      622    1    1    2    0    0  0.16080546872E+00  0.30222780274E+00  0.28251287579E+01  0.35367432113E+01  0.21000000000E+01 0.  1.
</event>
<event>
 5   0  0.7462600E-02  0.9118800E+02  0.7818608E-02  0.1180000E+00
       11   -1    0    0    0    0  0.00000000000E+00  0.00000000000E+00  0.39999999673E+01  0.40000000000E+01  0.51109989000E-03 0. -1.
     -623   -1    0    0    0    0  0.00000000000E+00  0.00000000000E+00  0.12525980253E-10  0.17130000000E+03  0.17130000000E+03 0. -1.
       11    1    1    2    0    0  0.30545690088E+00 -0.23539929376E+00  0.25322327207E+00  0.46134480873E+00  0.51109989000E-03 0. -1.
     -623    1    1    2    0    0 -0.23775811863E+00  0.36738631604E+00  0.90614864850E+00  0.17130295563E+03  0.17130000000E+03 0. -1.
      622    1    1    2    0    0 -0.67698782255E-01 -0.13198702228E+00  0.28406280468E+01  0.35356995629E+01  0.21000000000E+01 0. -1.
</event>
<event>
 5   0  0.7462600E-02  0.9118800E+02  0.7818608E-02  0.1180000E+00
       11   -1    0    0    0    0  0.00000000000E+00  0.00000000000E+00  0.39999999673E+01  0.40000000000E+01  0.51109989000E-03 0. -1.
     -623   -1    0    0    0    0  0.00000000000E+00  0.00000000000E+00  0.12525980253E-10  0.17130000000E+03  0.17130000000E+03 0. -1.
       11    1    1    2    0    0 -0.14421054980E+00 -0.24085415922E+00  0.20599080781E+00  0.34819517919E+00  0.51109989000E-03 0. -1.
     -623    1    1    2    0    0  0.15269295459E+00 -0.20616477633E+00  0.84286739921E+00  0.17130226573E+03  0.17130000000E+03 0. -1.
      622    1    1    2    0    0 -0.84824047971E-02  0.44701893554E+00  0.29511417603E+01  0.36495390900E+01  0.21000000000E+01 0. -1.
</event>
<event>
 5   0  0.7462600E-02  0.9118800E+02  0.7818608E-02  0.1180000E+00
       11   -1    0    0    0    0  0.00000000000E+00  0.00000000000E+00  0.39999999673E+01  0.40000000000E+01  0.51109989000E-03 0.  1.
     -623   -1    0    0    0    0  0.00000000000E+00  0.00000000000E+00  0.12525980253E-10  0.17130000000E+03  0.17130000000E+03 0. -1.
       11    1    1    2    0    0 -0.94328723157E-01  0.82394622692E-01  0.15496471825E+00  0.19925136634E+00  0.51109989000E-03 0.  1.
     -623    1    1    2    0    0 -0.64750324348E+00 -0.15421878970E+00  0.76977123312E+00  0.17130302272E+03  0.17130000000E+03 0. -1.
      622    1    1    2    0    0  0.74183196663E+00  0.71824167013E-01  0.30752640160E+01  0.37977259177E+01  0.21000000000E+01 0.  0.
</event>
<event>
 5   0  0.7462600E-02  0.9118800E+02  0.7818608E-02  0.1180000E+00
       11   -1    0    0    0    0  0.00000000000E+00  0.00000000000E+00  0.39999999673E+01  0.40000000000E+01  0.51109989000E-03 0.  1.
     -623   -1    0    0    0    0  0.00000000000E+00  0.00000000000E+00  0.12525980253E-10  0.17130000000E+03  0.17130000000E+03 0.  1.
       11    1    1    2    0    0 -0.12517207889E+00  0.27000986733E+00  0.35941297314E+00  0.46663832276E+00  0.51109989000E-03 0.  1.
     -623    1    1    2    0    0  0.18867241804E+00 -0.77932318724E+00  0.85077755045E+00  0.17130398934E+03  0.17130000000E+03 0.  1.
      622    1    1    2    0    0 -0.63500339150E-01  0.50931331991E+00  0.27898094438E+01  0.35293723356E+01  0.21000000000E+01 0.  1.
</event>
<event>
 5   0  0.7462600E-02  0.9118800E+02  0.7818608E-02  0.1180000E+00
       11   -1    0    0    0    0  0.00000000000E+00  0.00000000000E+00  0.39999999673E+01  0.40000000000E+01  0.51109989000E-03 0. -1.
     -623   -1    0    0    0    0  0.00000000000E+00  0.00000000000E+00  0.12525980253E-10  0.17130000000E+03  0.17130000000E+03 0. -1.
       11    1    1    2    0    0 -0.68904661657E-01  0.38360310708E+00  0.26997493123E+00  0.47411593611E+00  0.51109989000E-03 0. -1.
     -623    1    1    2    0    0  0.17270888724E-01 -0.23556749346E+00  0.90526518497E+00  0.17130255484E+03  0.17130000000E+03 0. -1.
      622    1    1    2    0    0  0.51633772932E-01 -0.14803561362E+00  0.28247598512E+01  0.35233292219E+01  0.21000000000E+01 0. -1.
</event>
<event>
 5   0  0.7462600E-02  0.9118800E+02  0.7818608E-02  0.1180000E+00
       11   -1    0    0    0    0  0.00000000000E+00  0.00000000000E+00  0.39999999673E+01  0.40000000000E+01  0.51109989000E-03 0. -1.
     -623   -1    0    0    0    0  0.00000000000E+00  0.00000000000E+00  0.12525980253E-10  0.17130000000E+03  0.17130000000E+03 0.  1.
       11    1    1    2    0    0  0.24101555939E+00  0.35790498095E+00  0.42883014242E+00  0.60834203169E+00  0.51109989000E-03 0. -1.
     -623    1    1    2    0    0  0.13614086421E+00 -0.33909955636E+00  0.93855375924E+00  0.17130296088E+03  0.17130000000E+03 0.  1.
      622    1    1    2    0    0 -0.37715642360E+00 -0.18805424586E-01  0.26326160657E+01  0.33886970890E+01  0.21000000000E+01 0. -1.
</event>
<event>
 5   0  0.7462600E-02  0.9118800E+02  0.7818608E-02  0.1180000E+00
       11   -1    0    0    0    0  0.00000000000E+00  0.00000000000E+00  0.39999999673E+01  0.40000000000E+01  0.51109989000E-03 0.  1.
     -623   -1    0    0    0    0  0.00000000000E+00  0.00000000000E+00  0.12525980253E-10  0.17130000000E+03  0.17130000000E+03 0.  1.
       11    1    1    2    0    0  0.27027711269E+00  0.14140703540E-01  0.53577056609E-01  0.27589932830E+00  0.51109989000E-03 0.  1.
     -623    1    1    2    0    0  0.43412327032E-01  0.68238476482E+00  0.97242351651E+00  0.17130412471E+03  0.17130000000E+03 0.  1.
      622    1    1    2    0    0 -0.31368943972E+00 -0.69652546836E+00  0.29739993942E+01  0.37199759663E+01  0.21000000000E+01 0.  1.
</event>
<event>
 5   0  0.7462600E-02  0.9118800E+02  0.7818608E-02  0.1180000E+00
       11   -1    0    0    0    0  0.00000000000E+00  0.00000000000E+00  0.39999999673E+01  0.40000000000E+01  0.51109989000E-03 0. -1.
     -623   -1    0    0    0    0  0.00000000000E+00  0.00000000000E+00  0.12525980253E-10  0.17130000000E+03  0.17130000000E+03 0.  1.
       11    1    1    2    0    0  0.18828572603E-01 -0.70446552668E-01  0.67105331174E-01  0.99099034426E-01  0.51109989000E-03 0. -1.
     -623    1    1    2    0    0  0.23668423067E+00 -0.20073359916E+00  0.66856724154E+00  0.17130158579E+03  0.17130000000E+03 0.  1.
      622    1    1    2    0    0 -0.25551280327E+00  0.27118015183E+00  0.32643273946E+01  0.38993151715E+01  0.21000000000E+01 0. -1.
</event>
<event>
 5   0  0.7462600E-02  0.9118800E+02  0.7818608E-02  0.1180000E+00
       11   -1    0    0    0    0  0.00000000000E+00  0.00000000000E+00  0.39999999673E+01  0.40000000000E+01  0.51109989000E-03 0.  1.
     -623   -1    0    0    0    0  0.00000000000E+00  0.00000000000E+00  0.12525980253E-10  0.17130000000E+03  0.17130000000E+03 0.  1.
       11    1    1    2    0    0  0.18603206666E+00 -0.26117736266E-01  0.20781689123E+00  0.28013958571E+00  0.51109989000E-03 0.  1.
     -623    1    1    2    0    0 -0.28143975421E+00  0.80522689225E-01  0.72591525295E+00  0.17130178821E+03  0.17130000000E+03 0.  1.
      622    1    1    2    0    0  0.95407687548E-01 -0.54404952958E-01  0.30662678232E+01  0.37180722006E+01  0.21000000000E+01 0.  1.
</event>
<event>
 5   0  0.7462600E-02  0.9118800E+02  0.7818608E-02  0.1180000E+00
       11   -1    0    0    0    0  0.00000000000E+00  0.00000000000E+00  0.39999999673E+01  0.40000000000E+01  0.51109989000E-03 0. -1.
     -623   -1    0    0    0    0  0.00000000000E+00  0.00000000000E+00  0.12525980253E-10  0.17130000000E+03  0.17130000000E+03 0. -1.
       11    1    1    2    0    0  0.11365898042E+00 -0.47385970601E-01  0.71938690797E-01  0.14261567408E+00  0.51109989000E-03 0. -1.
     -623    1    1    2    0    0  0.33630890976E+00  0.65425283809E+00  0.78599672336E+00  0.17130338275E+03  0.17130000000E+03 0. -1.
      622    1    1    2    0    0 -0.44996789018E+00 -0.60686686749E+00  0.31420645532E+01  0.38540015767E+01  0.21000000000E+01 0. -1.
</event>
<event>
 5   0  0.7462600E-02  0.9118800E+02  0.7818608E-02  0.1180000E+00
       11   -1    0    0    0    0  0.00000000000E+00  0.00000000000E+00  0.39999999673E+01  0.40000000000E+01  0.51109989000E-03 0. -1.
     -623   -1    0    0    0    0  0.00000000000E+00  0.00000000000E+00  0.12525980253E-10  0.17130000000E+03  0.17130000000E+03 0.  1.
       11    1    1    2    0    0 -0.20099516048E+00 -0.13451934841E+00 -0.76355083892E-03  0.24185812756E+00  0.51109989000E-03 0. -1.
     -623    1    1    2    0    0 -0.15744242467E+00 -0.39642436677E-03  0.91074479728E+00  0.17130249340E+03  0.17130000000E+03 0.  1.
      622    1    1    2    0    0  0.35843758515E+00  0.13491577278E+00  0.30900187209E+01  0.37556484745E+01  0.21000000000E+01 0. -1.
</event>
<event>
 5   0  0.7462600E-02  0.9118800E+02  0.7818608E-02  0.1180000E+00
       11   -1    0    0    0    0  0.00000000000E+00  0.00000000000E+00  0.39999999673E+01  0.40000000000E+01  0.51109989000E-03 0.  1.
     -623   -1    0    0    0    0  0.00000000000E+00  0.00000000000E+00  0.12525980253E-10  0.17130000000E+03  0.17130000000E+03 0.  1.
       11    1    1    2    0    0  0.23496307789E+00  0.17695130465E+00  0.95422986610E-02  0.29429700793E+00  0.51109989000E-03 0.  1.
     -623    1    1    2    0    0  0.29621770245E+00 -0.21095592894E+00  0.98796539321E+00  0.17130323500E+03  0.17130000000E+03 0.  1.
      622    1    1    2    0    0 -0.53118078034E+00  0.34004624287E-01  0.30024922755E+01  0.37024679877E+01  0.21000000000E+01 0.  1.
</event>
<event>
 5   0  0.7462600E-02  0.9118800E+02  0.7818608E-02  0.1180000E+00
       11   -1    0    0    0    0  0.00000000000E+00  0.00000000000E+00  0.39999999673E+01  0.40000000000E+01  0.51109989000E-03 0. -1.
     -623   -1    0    0    0    0  0.00000000000E+00  0.00000000000E+00  0.12525980253E-10  0.17130000000E+03  0.17130000000E+03 0.  1.
       11    1    1    2    0    0 -0.13199714571E+00  0.21743672433E-01 -0.46151244766E-01  0.14151407132E+00  0.51109989000E-03 0. -1.
     -623    1    1    2    0    0 -0.93567323440E-02 -0.78245999878E-01  0.81510822134E+00  0.17130195741E+03  0.17130000000E+03 0.  1.
      622    1    1    2    0    0  0.14135387806E+00  0.56502327445E-01  0.32310429908E+01  0.38565285219E+01  0.21000000000E+01 0. -1.
</event>
<event>
 5   0  0.7462600E-02  0.9118800E+02  0.7818608E-02  0.1180000E+00
       11   -1    0    0    0    0  0.00000000000E+00  0.00000000000E+00  0.39999999673E+01  0.40000000000E+01  0.51109989000E-03 0. -1.
     -623   -1    0    0    0    0  0.00000000000E+00  0.00000000000E+00  0.12525980253E-10  0.17130000000E+03  0.17130000000E+03 0.  1.
       11    1    1    2    0    0  0.21426747285E-01 -0.23428279423E-01 -0.35529064089E-01  0.47650450093E-01  0.51109989000E-03 0. -1.
     -623    1    1    2    0    0 -0.67159513077E-01  0.18481954539E+00  0.69323184943E+00  0.17130151558E+03  0.17130000000E+03 0.  1.
      622    1    1    2    0    0  0.45732765792E-01 -0.16139126596E+00  0.33422971820E+01  0.39508339727E+01  0.21000000000E+01 0. -1.
</event>
<event>
 5   0  0.7462600E-02  0.9118800E+02  0.7818608E-02  0.1180000E+00
       11   -1    0    0    0    0  0.00000000000E+00  0.00000000000E+00  0.39999999673E+01  0.40000000000E+01  0.51109989000E-03 0. -1.
     -623   -1    0    0    0    0  0.00000000000E+00  0.00000000000E+00  0.12525980253E-10  0.17130000000E+03  0.17130000000E+03 0. -1.
       11    1    1    2    0    0 -0.14627822797E-02  0.15914523522E-01  0.79885907181E-01  0.81470431311E-01  0.51109989000E-03 0. -1.
     -623    1    1    2    0    0 -0.22749664707E+00 -0.42439433917E-01  0.62137303713E+00  0.17130128330E+03  0.17130000000E+03 0. -1.
      622    1    1    2    0    0  0.22895942935E+00  0.26524910395E-01  0.32987410231E+01  0.39172462685E+01  0.21000000000E+01 0. -1.
</event>
<event>
 5   0  0.7462600E-02  0.9118800E+02  0.7818608E-02  0.1180000E+00
       11   -1    0    0    0    0  0.00000000000E+00  0.00000000000E+00  0.39999999673E+01  0.40000000000E+01  0.51109989000E-03 0. -1.
     -623   -1    0    0    0    0  0.00000000000E+00  0.00000000000E+00  0.12525980253E-10  0.17130000000E+03  0.17130000000E+03 0. -1.
       11    1    1    2    0    0  0.14474345784E-01  0.22968574987E+00  0.79116940004E-02  0.23027788974E+00  0.51109989000E-03 0. -1.
     -623    1    1    2    0    0  0.45970637620E+00 -0.45947051197E+00  0.91059087417E+00  0.17130365326E+03  0.17130000000E+03 0. -1.
      622    1    1    2    0    0 -0.47418072198E+00  0.22978476210E+00  0.30814973992E+01  0.37660688543E+01  0.21000000000E+01 0. -1.
</event>
<event>
 5   0  0.7462600E-02  0.9118800E+02  0.7818608E-02  0.1180000E+00
       11   -1    0    0    0    0  0.00000000000E+00  0.00000000000E+00  0.39999999673E+01  0.40000000000E+01  0.51109989000E-03 0. -1.
     -623   -1    0    0    0    0  0.00000000000E+00  0.00000000000E+00  0.12525980253E-10  0.17130000000E+03  0.17130000000E+03 0. -1.
       11    1    1    2    0    0 -0.37833794011E+00 -0.39795529550E+00  0.40923742773E+00  0.68482373471E+00  0.51109989000E-03 0. -1.
     -623    1    1    2    0    0 -0.19951526023E-01  0.53773695055E+00  0.10659568242E+01  0.17130416172E+03  0.17130000000E+03 0. -1.
      622    1    1    2    0    0  0.39828946614E+00 -0.13978165505E+00  0.25248057154E+01  0.33110145440E+01  0.21000000000E+01 0. -1.
</event>
<event>
 5   0  0.7462600E-02  0.9118800E+02  0.7818608E-02  0.1180000E+00
       11   -1    0    0    0    0  0.00000000000E+00  0.00000000000E+00  0.39999999673E+01  0.40000000000E+01  0.51109989000E-03 0. -1.
     -623   -1    0    0    0    0  0.00000000000E+00  0.00000000000E+00  0.12525980253E-10  0.17130000000E+03  0.17130000000E+03 0. -1.
       11    1    1    2    0    0  0.46797411362E-01 -0.23675029821E+00  0.64153732395E+00  0.68542767719E+00  0.51109989000E-03 0. -1.
     -623    1    1    2    0    0 -0.37301860270E+00 -0.33202016309E+00  0.88327428342E+00  0.17130300509E+03  0.17130000000E+03 0. -1.
      622    1    1    2    0    0  0.32622119134E+00  0.56877046130E+00  0.24751883600E+01  0.33115672303E+01  0.21000000000E+01 0.  0.
</event>
<event>
 5   0  0.7462600E-02  0.9118800E+02  0.7818608E-02  0.1180000E+00
       11   -1    0    0    0    0  0.00000000000E+00  0.00000000000E+00  0.39999999673E+01  0.40000000000E+01  0.51109989000E-03 0.  1.
     -623   -1    0    0    0    0  0.00000000000E+00  0.00000000000E+00  0.12525980253E-10  0.17130000000E+03  0.17130000000E+03 0.  1.
       11    1    1    2    0    0 -0.16477670989E+00  0.73727087490E-02  0.20260432510E-01  0.16618203063E+00  0.51109989000E-03 0.  1.
     -623    1    1    2    0    0  0.13816027196E-01  0.33134155241E+00  0.79634605299E+00  0.17130217204E+03  0.17130000000E+03 0.  1.
      622    1    1    2    0    0  0.15096068270E+00 -0.33871426116E+00  0.31833934819E+01  0.38316459308E+01  0.21000000000E+01 0.  0.
</event>
<event>
 5   0  0.7462600E-02  0.9118800E+02  0.7818608E-02  0.1180000E+00
       11   -1    0    0    0    0  0.00000000000E+00  0.00000000000E+00  0.39999999673E+01  0.40000000000E+01  0.51109989000E-03 0. -1.
     -623   -1    0    0    0    0  0.00000000000E+00  0.00000000000E+00  0.12525980253E-10  0.17130000000E+03  0.17130000000E+03 0.  1.
       11    1    1    2    0    0 -0.11925156154E+00 -0.21326096683E-02  0.25073103791E+00  0.27765409694E+00  0.51109989000E-03 0. -1.
     -623    1    1    2    0    0  0.10119076047E+00  0.34060204876E+00  0.69678123326E+00  0.17130178561E+03  0.17130000000E+03 0.  1.
      622    1    1    2    0    0  0.18060801071E-01 -0.33846943910E+00  0.30524876962E+01  0.37205602924E+01  0.21000000000E+01 0. -1.
</event>
<event>
 5   0  0.7462600E-02  0.9118800E+02  0.7818608E-02  0.1180000E+00
       11   -1    0    0    0    0  0.00000000000E+00  0.00000000000E+00  0.39999999673E+01  0.40000000000E+01  0.51109989000E-03 0.  1.
     -623   -1    0    0    0    0  0.00000000000E+00  0.00000000000E+00  0.12525980253E-10  0.17130000000E+03  0.17130000000E+03 0. -1.
       11    1    1    2    0    0  0.38346474521E+00  0.65447379558E-01  0.27883790223E+00  0.47862240572E+00  0.51109989000E-03 0.  1.
     -623    1    1    2    0    0 -0.13779616143E+00 -0.56692184970E+00  0.95483872236E+00  0.17130365468E+03  0.17130000000E+03 0. -1.
      622    1    1    2    0    0 -0.24566858377E+00  0.50147447015E+00  0.27663233428E+01  0.35177229189E+01  0.21000000000E+01 0.  1.
</event>
<event>
 5   0  0.7462600E-02  0.9118800E+02  0.7818608E-02  0.1180000E+00
       11   -1    0    0    0    0  0.00000000000E+00  0.00000000000E+00  0.39999999673E+01  0.40000000000E+01  0.51109989000E-03 0. -1.
     -623   -1    0    0    0    0  0.00000000000E+00  0.00000000000E+00  0.12525980253E-10  0.17130000000E+03  0.17130000000E+03 0.  1.
       11    1    1    2    0    0  0.13381780840E-01  0.64746143320E-01  0.45567532271E-01  0.80298171546E-01  0.51109989000E-03 0. -1.
     -623    1    1    2    0    0  0.28551846158E-01 -0.25009701781E+00  0.65189141276E+00  0.17130142535E+03  0.17130000000E+03 0.  1.
      622    1    1    2    0    0 -0.41933626998E-01  0.18535087449E+00  0.33025410223E+01  0.39182764808E+01  0.21000000000E+01 0. -1.
</event>
<event>
 5   0  0.7462600E-02  0.9118800E+02  0.7818608E-02  0.1180000E+00
       11   -1    0    0    0    0  0.00000000000E+00  0.00000000000E+00  0.39999999673E+01  0.40000000000E+01  0.51109989000E-03 0. -1.
     -623   -1    0    0    0    0  0.00000000000E+00  0.00000000000E+00  0.12525980253E-10  0.17130000000E+03  0.17130000000E+03 0.  1.
       11    1    1    2    0    0  0.59917426087E-01 -0.41709676000E-01 -0.17700164980E-01  0.75122247599E-01  0.51109989000E-03 0. -1.
     -623    1    1    2    0    0 -0.32854877162E+00  0.31012343677E+00  0.72624151228E+00  0.17130213527E+03  0.17130000000E+03 0.  1.
      622    1    1    2    0    0  0.26863134553E+00 -0.26841376077E+00  0.32914586201E+01  0.39227424838E+01  0.21000000000E+01 0. -1.
</event>
<event>
 5   0  0.7462600E-02  0.9118800E+02  0.7818608E-02  0.1180000E+00
       11   -1    0    0    0    0  0.00000000000E+00  0.00000000000E+00  0.39999999673E+01  0.40000000000E+01  0.51109989000E-03 0. -1.
     -623   -1    0    0    0    0  0.00000000000E+00  0.00000000000E+00  0.12525980253E-10  0.17130000000E+03  0.17130000000E+03 0.  1.
       11    1    1    2    0    0 -0.25825582890E+00 -0.31455524558E+00  0.80227696495E+00  0.89960528311E+00  0.51109989000E-03 0. -1.
     -623    1    1    2    0    0 -0.14118381765E+01  0.58372123098E+00  0.16988774813E+01  0.17131523634E+03  0.17130000000E+03 0.  1.
      622    1    1    2    0    0  0.16700940054E+01 -0.26916598540E+00  0.14988455212E+01  0.30851583770E+01  0.21000000000E+01 0. -1.
</event>
<event>
 5   0  0.7462600E-02  0.9118800E+02  0.7818608E-02  0.1180000E+00
       11   -1    0    0    0    0  0.00000000000E+00  0.00000000000E+00  0.39999999673E+01  0.40000000000E+01  0.51109989000E-03 0.  1.
     -623   -1    0    0    0    0  0.00000000000E+00  0.00000000000E+00  0.12525980253E-10  0.17130000000E+03  0.17130000000E+03 0. -1.
       11    1    1    2    0    0 -0.14028837746E+00  0.15494990364E-01  0.42547033238E-02  0.14120654128E+00  0.51109989000E-03 0.  1.
     -623    1    1    2    0    0  0.37750584979E+00  0.41929960530E+00  0.79990543513E+00  0.17130279674E+03  0.17130000000E+03 0. -1.
      622    1    1    2    0    0 -0.23721747233E+00 -0.43479459566E+00  0.31958398289E+01  0.38559967170E+01  0.21000000000E+01 0.  1.
</event>
<event>
 5   0  0.7462600E-02  0.9118800E+02  0.7818608E-02  0.1180000E+00
       11   -1    0    0    0    0  0.00000000000E+00  0.00000000000E+00  0.39999999673E+01  0.40000000000E+01  0.51109989000E-03 0.  1.
     -623   -1    0    0    0    0  0.00000000000E+00  0.00000000000E+00  0.12525980253E-10  0.17130000000E+03  0.17130000000E+03 0. -1.
       11    1    1    2    0    0 -0.30798036914E+00  0.37564445523E+00  0.77454923921E+00  0.91426880604E+00  0.51109989000E-03 0.  1.
     -623    1    1    2    0    0  0.88737118635E+00  0.20539594783E-01  0.10844843572E+01  0.17130573241E+03  0.17130000000E+03 0. -1.
      622    1    1    2    0    0 -0.57939081720E+00 -0.39618405001E+00  0.21409663709E+01  0.30799987860E+01  0.21000000000E+01 0.  1.
</event>
<event>
 5   0  0.7462600E-02  0.9118800E+02  0.7818608E-02  0.1180000E+00
       11   -1    0    0    0    0  0.00000000000E+00  0.00000000000E+00  0.39999999673E+01  0.40000000000E+01  0.51109989000E-03 0. -1.
     -623   -1    0    0    0    0  0.00000000000E+00  0.00000000000E+00  0.12525980253E-10  0.17130000000E+03  0.17130000000E+03 0. -1.
       11    1    1    2    0    0 -0.27655064590E+00  0.79994673791E-01  0.48894278240E+00  0.56740172124E+00  0.51109989000E-03 0. -1.
     -623    1    1    2    0    0 -0.84217103940E-01 -0.16461686598E+00  0.82384012275E+00  0.17130208085E+03  0.17130000000E+03 0. -1.
      622    1    1    2    0    0  0.36076774984E+00  0.84622192191E-01  0.26872170622E+01  0.34305174281E+01  0.21000000000E+01 0. -1.
</event>
<event>
 5   0  0.7462600E-02  0.9118800E+02  0.7818608E-02  0.1180000E+00
       11   -1    0    0    0    0  0.00000000000E+00  0.00000000000E+00  0.39999999673E+01  0.40000000000E+01  0.51109989000E-03 0. -1.
     -623   -1    0    0    0    0  0.00000000000E+00  0.00000000000E+00  0.12525980253E-10  0.17130000000E+03  0.17130000000E+03 0. -1.
       11    1    1    2    0    0 -0.31124493145E+00 -0.21107069704E+00  0.26168439731E+00  0.45815197427E+00  0.51109989000E-03 0. -1.
     -623    1    1    2    0    0  0.17301796503E+00  0.18993532428E+00  0.89274059236E+00  0.17130251894E+03  0.17130000000E+03 0. -1.
      622    1    1    2    0    0  0.13822696642E+00  0.21135372766E-01  0.28455749777E+01  0.35393290822E+01  0.21000000000E+01 0. -1.
</event>
<event>
 5   0  0.7462600E-02  0.9118800E+02  0.7818608E-02  0.1180000E+00
       11   -1    0    0    0    0  0.00000000000E+00  0.00000000000E+00  0.39999999673E+01  0.40000000000E+01  0.51109989000E-03 0. -1.
     -623   -1    0    0    0    0  0.00000000000E+00  0.00000000000E+00  0.12525980253E-10  0.17130000000E+03  0.17130000000E+03 0. -1.
       11    1    1    2    0    0 -0.29938875590E-01  0.27683180229E+00  0.40779563772E+00  0.49379117691E+00  0.51109989000E-03 0. -1.
     -623    1    1    2    0    0 -0.59775341785E-01 -0.29301213449E+00  0.78852151060E+00  0.17130207586E+03  0.17130000000E+03 0. -1.
      622    1    1    2    0    0  0.89714217375E-01  0.16180332198E-01  0.28036828190E+01  0.35041329589E+01  0.21000000000E+01 0. -1.
</event>
<event>
 5   0  0.7462600E-02  0.9118800E+02  0.7818608E-02  0.1180000E+00
       11   -1    0    0    0    0  0.00000000000E+00  0.00000000000E+00  0.39999999673E+01  0.40000000000E+01  0.51109989000E-03 0.  1.
     -623   -1    0    0    0    0  0.00000000000E+00  0.00000000000E+00  0.12525980253E-10  0.17130000000E+03  0.17130000000E+03 0.  1.
       11    1    1    2    0    0  0.29307207921E+00 -0.18874442127E-01  0.91246683712E+00  0.95856323643E+00  0.51109989000E-03 0.  1.
     -623    1    1    2    0    0  0.52301868327E+00 -0.22205684801E+00  0.10650516155E+01  0.17130425328E+03  0.17130000000E+03 0.  1.
      622    1    1    2    0    0 -0.81609076248E+00  0.24093129014E+00  0.20224815147E+01  0.30371834809E+01  0.21000000000E+01 0.  0.
</event>
<event>
 5   0  0.7462600E-02  0.9118800E+02  0.7818608E-02  0.1180000E+00
       11   -1    0    0    0    0  0.00000000000E+00  0.00000000000E+00  0.39999999673E+01  0.40000000000E+01  0.51109989000E-03 0. -1.
     -623   -1    0    0    0    0  0.00000000000E+00  0.00000000000E+00  0.12525980253E-10  0.17130000000E+03  0.17130000000E+03 0.  1.
       11    1    1    2    0    0  0.31154928876E-01  0.59930659519E-01  0.48527589524E-01  0.83171519828E-01  0.51109989000E-03 0. -1.
     -623    1    1    2    0    0  0.15159529893E+00 -0.10714873031E-01  0.65215816021E+00  0.17130130883E+03  0.17130000000E+03 0.  1.
      622    1    1    2    0    0 -0.18275022780E+00 -0.49215786488E-01  0.32993142176E+01  0.39155196521E+01  0.21000000000E+01 0. -1.
</event>
<event>
 5   0  0.7462600E-02  0.9118800E+02  0.7818608E-02  0.1180000E+00
       11   -1    0    0    0    0  0.00000000000E+00  0.00000000000E+00  0.39999999673E+01  0.40000000000E+01  0.51109989000E-03 0. -1.
     -623   -1    0    0    0    0  0.00000000000E+00  0.00000000000E+00  0.12525980253E-10  0.17130000000E+03  0.17130000000E+03 0.  1.
       11    1    1    2    0    0 -0.49549352339E-01  0.16325435585E+00 -0.26878570424E-01  0.17271317782E+00  0.51109989000E-03 0. -1.
     -623    1    1    2    0    0 -0.80118187568E-02 -0.45001370021E+00  0.84377400058E+00  0.17130266936E+03  0.17130000000E+03 0.  1.
      622    1    1    2    0    0  0.57561171095E-01  0.28675934435E+00  0.31831045372E+01  0.38246174586E+01  0.21000000000E+01 0. -1.
</event>
<event>
 5   0  0.7462600E-02  0.9118800E+02  0.7818608E-02  0.1180000E+00
       11   -1    0    0    0    0  0.00000000000E+00  0.00000000000E+00  0.39999999673E+01  0.40000000000E+01  0.51109989000E-03 0.  1.
     -623   -1    0    0    0    0  0.00000000000E+00  0.00000000000E+00  0.12525980253E-10  0.17130000000E+03  0.17130000000E+03 0. -1.
       11    1    1    2    0    0 -0.13887072290E+00  0.22924341225E-01  0.27670501674E+00  0.31044569672E+00  0.51109989000E-03 0.  1.
     -623    1    1    2    0    0 -0.15602517327E+00  0.40656653141E+00  0.73739585365E+00  0.17130214065E+03  0.17130000000E+03 0. -1.
      622    1    1    2    0    0  0.29489589617E+00 -0.42949087263E+00  0.29858990970E+01  0.36874136487E+01  0.21000000000E+01 0.  1.
</event>
<event>
 5   0  0.7462600E-02  0.9118800E+02  0.7818608E-02  0.1180000E+00
       11   -1    0    0    0    0  0.00000000000E+00  0.00000000000E+00  0.39999999673E+01  0.40000000000E+01  0.51109989000E-03 0. -1.
     -623   -1    0    0    0    0  0.00000000000E+00  0.00000000000E+00  0.12525980253E-10  0.17130000000E+03  0.17130000000E+03 0. -1.
       11    1    1    2    0    0  0.95218069647E-01  0.29451758613E+00  0.23825760940E+00  0.39060726950E+00  0.51109989000E-03 0. -1.
     -623    1    1    2    0    0  0.45899007051E-01 -0.10193233146E+00  0.83844946565E+00  0.17130208841E+03  0.17130000000E+03 0. -1.
      622    1    1    2    0    0 -0.14111707670E+00 -0.19258525467E+00  0.29232928923E+01  0.36073043182E+01  0.21000000000E+01 0. -1.
</event>
<event>
 5   0  0.7462600E-02  0.9118800E+02  0.7818608E-02  0.1180000E+00
       11   -1    0    0    0    0  0.00000000000E+00  0.00000000000E+00  0.39999999673E+01  0.40000000000E+01  0.51109989000E-03 0.  1.
     -623   -1    0    0    0    0  0.00000000000E+00  0.00000000000E+00  0.12525980253E-10  0.17130000000E+03  0.17130000000E+03 0.  1.
       11    1    1    2    0    0 -0.26934191449E-01  0.78924188740E-01  0.78454847118E-01  0.11449848251E+00  0.51109989000E-03 0.  1.
     -623    1    1    2    0    0  0.32220515715E+00 -0.22616421062E+00  0.67123344545E+00  0.17130176742E+03  0.17130000000E+03 0.  1.
      622    1    1    2    0    0 -0.29527096570E+00  0.14724002188E+00  0.32503116748E+01  0.38837340988E+01  0.21000000000E+01 0.  1.
</event>
<event>
 5   0  0.7462600E-02  0.9118800E+02  0.7818608E-02  0.1180000E+00
       11   -1    0    0    0    0  0.00000000000E+00  0.00000000000E+00  0.39999999673E+01  0.40000000000E+01  0.51109989000E-03 0.  1.
     -623   -1    0    0    0    0  0.00000000000E+00  0.00000000000E+00  0.12525980253E-10  0.17130000000E+03  0.17130000000E+03 0.  1.
       11    1    1    2    0    0 -0.11954678671E+00  0.19340654447E+00  0.34586445911E+00  0.41390821561E+00  0.51109989000E-03 0.  1.
     -623    1    1    2    0    0 -0.26040218525E+00  0.18746995549E+00  0.80017833282E+00  0.17130216940E+03  0.17130000000E+03 0.  1.
      622    1    1    2    0    0  0.37994897196E+00 -0.38087649995E+00  0.28539571754E+01  0.35839223888E+01  0.21000000000E+01 0.  1.
</event>
<event>
 5   0  0.7462600E-02  0.9118800E+02  0.7818608E-02  0.1180000E+00
       11   -1    0    0    0    0  0.00000000000E+00  0.00000000000E+00  0.39999999673E+01  0.40000000000E+01  0.51109989000E-03 0. -1.
     -623   -1    0    0    0    0  0.00000000000E+00  0.00000000000E+00  0.12525980253E-10  0.17130000000E+03  0.17130000000E+03 0. -1.
       11    1    1    2    0    0 -0.69041833310E-01  0.97426242974E-01  0.12777371467E+00  0.17488576543E+00  0.51109989000E-03 0. -1.
     -623    1    1    2    0    0  0.54010508829E-02 -0.31522069403E+00  0.68517201811E+00  0.17130166039E+03  0.17130000000E+03 0. -1.
      622    1    1    2    0    0  0.63640782427E-01  0.21779445106E+00  0.31870542346E+01  0.38234538400E+01  0.21000000000E+01 0. -1.
</event>
<event>
 5   0  0.7462600E-02  0.9118800E+02  0.7818608E-02  0.1180000E+00
       11   -1    0    0    0    0  0.00000000000E+00  0.00000000000E+00  0.39999999673E+01  0.40000000000E+01  0.51109989000E-03 0.  1.
     -623   -1    0    0    0    0  0.00000000000E+00  0.00000000000E+00  0.12525980253E-10  0.17130000000E+03  0.17130000000E+03 0.  1.
       11    1    1    2    0    0  0.52944380376E-01 -0.16534512939E+00 -0.19770640124E-01  0.17473768528E+00  0.51109989000E-03 0.  1.
     -623    1    1    2    0    0 -0.40661146501E-01  0.13983928781E+00  0.82506250597E+00  0.17130204884E+03  0.17130000000E+03 0.  1.
      622    1    1    2    0    0 -0.12283233875E-01  0.25505841580E-01  0.31947081015E+01  0.38232134756E+01  0.21000000000E+01 0.  1.
</event>
<event>
 5   0  0.7462600E-02  0.9118800E+02  0.7818608E-02  0.1180000E+00
       11   -1    0    0    0    0  0.00000000000E+00  0.00000000000E+00  0.39999999673E+01  0.40000000000E+01  0.51109989000E-03 0. -1.
     -623   -1    0    0    0    0  0.00000000000E+00  0.00000000000E+00  0.12525980253E-10  0.17130000000E+03  0.17130000000E+03 0. -1.
       11    1    1    2    0    0  0.26524201356E-01  0.42691423916E-01 -0.28010012707E-01  0.57540533265E-01  0.51109989000E-03 0. -1.
     -623    1    1    2    0    0 -0.29396380058E+00 -0.25712231901E-01  0.70419282069E+00  0.17130170158E+03  0.17130000000E+03 0. -1.
      622    1    1    2    0    0  0.26743959922E+00 -0.16979192015E-01  0.33238171594E+01  0.39407578892E+01  0.21000000000E+01 0. -1.
</event>
<event>
 5   0  0.7462600E-02  0.9118800E+02  0.7818608E-02  0.1180000E+00
       11   -1    0    0    0    0  0.00000000000E+00  0.00000000000E+00  0.39999999673E+01  0.40000000000E+01  0.51109989000E-03 0.  1.
     -623   -1    0    0    0    0  0.00000000000E+00  0.00000000000E+00  0.12525980253E-10  0.17130000000E+03  0.17130000000E+03 0.  1.
       11    1    1    2    0    0 -0.33413451979E+00 -0.10036831035E-01  0.59396690589E+00  0.68157432596E+00  0.51109989000E-03 0.  1.
     -623    1    1    2    0    0 -0.10244076061E+00 -0.37119010279E+00  0.90658693980E+00  0.17130283178E+03  0.17130000000E+03 0.  1.
      622    1    1    2    0    0  0.43657528040E+00  0.38122693382E+00  0.24994461217E+01  0.33155938934E+01  0.21000000000E+01 0.  1.
</event>
<event>
 5   0  0.7462600E-02  0.9118800E+02  0.7818608E-02  0.1180000E+00
       11   -1    0    0    0    0  0.00000000000E+00  0.00000000000E+00  0.39999999673E+01  0.40000000000E+01  0.51109989000E-03 0. -1.
     -623   -1    0    0    0    0  0.00000000000E+00  0.00000000000E+00  0.12525980253E-10  0.17130000000E+03  0.17130000000E+03 0. -1.
       11    1    1    2    0    0  0.20167872866E+00  0.20765746378E+00  0.30893813088E+00  0.42336622656E+00  0.51109989000E-03 0. -1.
     -623    1    1    2    0    0 -0.33486487711E+00  0.10609941172E+00  0.81885777454E+00  0.17130231732E+03  0.17130000000E+03 0. -1.
      622    1    1    2    0    0  0.13318614845E+00 -0.31375687550E+00  0.28722040619E+01  0.35743164522E+01  0.21000000000E+01 0. -1.
</event>
<event>
 5   0  0.7462600E-02  0.9118800E+02  0.7818608E-02  0.1180000E+00
       11   -1    0    0    0    0  0.00000000000E+00  0.00000000000E+00  0.39999999673E+01  0.40000000000E+01  0.51109989000E-03 0. -1.
     -623   -1    0    0    0    0  0.00000000000E+00  0.00000000000E+00  0.12525980253E-10  0.17130000000E+03  0.17130000000E+03 0.  1.
       11    1    1    2    0    0  0.47962813956E-01  0.22740988498E-01  0.81139504083E+00  0.81312960689E+00  0.51109989000E-03 0. -1.
     -623    1    1    2    0    0  0.28335572781E+00 -0.51572430600E+00  0.87067398002E+00  0.17130322336E+03  0.17130000000E+03 0.  1.
      622    1    1    2    0    0 -0.33131854176E+00  0.49298331750E+00  0.23179309465E+01  0.31836470282E+01  0.21000000000E+01 0. -1.
</event>
<event>
 5   0  0.7462600E-02  0.9118800E+02  0.7818608E-02  0.1180000E+00
       11   -1    0    0    0    0  0.00000000000E+00  0.00000000000E+00  0.39999999673E+01  0.40000000000E+01  0.51109989000E-03 0.  1.
     -623   -1    0    0    0    0  0.00000000000E+00  0.00000000000E+00  0.12525980253E-10  0.17130000000E+03  0.17130000000E+03 0.  1.
       11    1    1    2    0    0  0.15699282370E+00  0.99772278718E-01  0.79159139905E-01  0.20215757455E+00  0.51109989000E-03 0.  1.
     -623    1    1    2    0    0 -0.67748208552E+00  0.22150281209E+00  0.82030700237E+00  0.17130344699E+03  0.17130000000E+03 0.  1.
      622    1    1    2    0    0  0.52048926182E+00 -0.32127509081E+00  0.31005338251E+01  0.37943954401E+01  0.21000000000E+01 0.  1.
</event>
<event>
 5   0  0.7462600E-02  0.9118800E+02  0.7818608E-02  0.1180000E+00
       11   -1    0    0    0    0  0.00000000000E+00  0.00000000000E+00  0.39999999673E+01  0.40000000000E+01  0.51109989000E-03 0.  1.
     -623   -1    0    0    0    0  0.00000000000E+00  0.00000000000E+00  0.12525980253E-10  0.17130000000E+03  0.17130000000E+03 0.  1.
       11    1    1    2    0    0 -0.15693932969E+00  0.28860078592E-01  0.62633990282E-01  0.17142384695E+00  0.51109989000E-03 0.  1.
     -623    1    1    2    0    0  0.45188043268E-01 -0.75999853420E-01  0.74035768030E+00  0.17130162272E+03  0.17130000000E+03 0.  1.
      622    1    1    2    0    0  0.11175128642E+00  0.47139774828E-01  0.31970082968E+01  0.38269534303E+01  0.21000000000E+01 0.  1.
</event>
<event>
 5   0  0.7462600E-02  0.9118800E+02  0.7818608E-02  0.1180000E+00
       11   -1    0    0    0    0  0.00000000000E+00  0.00000000000E+00  0.39999999673E+01  0.40000000000E+01  0.51109989000E-03 0.  1.
     -623   -1    0    0    0    0  0.00000000000E+00  0.00000000000E+00  0.12525980253E-10  0.17130000000E+03  0.17130000000E+03 0. -1.
       11    1    1    2    0    0 -0.28068407936E+00  0.16699783043E+00  0.55517269959E+00  0.64411863454E+00  0.51109989000E-03 0.  1.
     -623    1    1    2    0    0  0.54113656604E+00 -0.27052579845E+00  0.84632891721E+00  0.17130315901E+03  0.17130000000E+03 0. -1.
      622    1    1    2    0    0 -0.26045248669E+00  0.10352796802E+00  0.25984983506E+01  0.33527223589E+01  0.21000000000E+01 0.  1.
</event>
<event>
 5   0  0.7462600E-02  0.9118800E+02  0.7818608E-02  0.1180000E+00
       11   -1    0    0    0    0  0.00000000000E+00  0.00000000000E+00  0.39999999673E+01  0.40000000000E+01  0.51109989000E-03 0. -1.
     -623   -1    0    0    0    0  0.00000000000E+00  0.00000000000E+00  0.12525980253E-10  0.17130000000E+03  0.17130000000E+03 0. -1.
       11    1    1    2    0    0 -0.20872622404E-01 -0.14489310227E-01 -0.21753667974E-01  0.33452799140E-01  0.51109989000E-03 0. -1.
     -623    1    1    2    0    0 -0.16286155238E+00 -0.42314852926E+00  0.69273826364E+00  0.17130200076E+03  0.17130000000E+03 0. -1.
      622    1    1    2    0    0  0.18373417478E+00  0.43763783949E+00  0.33290153717E+01  0.39645464394E+01  0.21000000000E+01 0. -1.
</event>
<event>
 5   0  0.7462600E-02  0.9118800E+02  0.7818608E-02  0.1180000E+00
       11   -1    0    0    0    0  0.00000000000E+00  0.00000000000E+00  0.39999999673E+01  0.40000000000E+01  0.51109989000E-03 0.  1.
     -623   -1    0    0    0    0  0.00000000000E+00  0.00000000000E+00  0.12525980253E-10  0.17130000000E+03  0.17130000000E+03 0.  1.
       11    1    1    2    0    0 -0.18644101627E+00  0.23155691276E+00  0.18168704680E+00  0.34840967351E+00  0.51109989000E-03 0.  1.
     -623    1    1    2    0    0 -0.13019513952E+00 -0.28820625417E+00  0.85131628687E+00  0.17130240732E+03  0.17130000000E+03 0.  1.
      622    1    1    2    0    0  0.31663615579E+00  0.56649341410E-01  0.29669966337E+01  0.36491830082E+01  0.21000000000E+01 0.  1.
</event>
<event>
 5   0  0.7462600E-02  0.9118800E+02  0.7818608E-02  0.1180000E+00
       11   -1    0    0    0    0  0.00000000000E+00  0.00000000000E+00  0.39999999673E+01  0.40000000000E+01  0.51109989000E-03 0.  1.
     -623   -1    0    0    0    0  0.00000000000E+00  0.00000000000E+00  0.12525980253E-10  0.17130000000E+03  0.17130000000E+03 0.  1.
       11    1    1    2    0    0  0.53005016848E-01  0.99810330132E-01  0.89070273844E-01  0.14389374106E+00  0.51109989000E-03 0.  1.
     -623    1    1    2    0    0 -0.20856851631E+00 -0.30696561116E+00  0.68933875517E+00  0.17130178901E+03  0.17130000000E+03 0.  1.
      622    1    1    2    0    0  0.15556349946E+00  0.20715528103E+00  0.32215909383E+01  0.38543172530E+01  0.21000000000E+01 0.  1.
</event>
<event>
 5   0  0.7462600E-02  0.9118800E+02  0.7818608E-02  0.1180000E+00
       11   -1    0    0    0    0  0.00000000000E+00  0.00000000000E+00  0.39999999673E+01  0.40000000000E+01  0.51109989000E-03 0. -1.
     -623   -1    0    0    0    0  0.00000000000E+00  0.00000000000E+00  0.12525980253E-10  0.17130000000E+03  0.17130000000E+03 0.  1.
       11    1    1    2    0    0  0.12882300669E+00 -0.10615887000E+00  0.54098831069E+00  0.56615694489E+00  0.51109989000E-03 0. -1.
     -623    1    1    2    0    0 -0.46733162882E+00 -0.13724120549E+00  0.77748602914E+00  0.17130245684E+03  0.17130000000E+03 0.  1.
      622    1    1    2    0    0  0.33850862213E+00  0.24340007549E+00  0.26815256275E+01  0.34313862177E+01  0.21000000000E+01 0. -1.
</event>
<event>
 5   0  0.7462600E-02  0.9118800E+02  0.7818608E-02  0.1180000E+00
       11   -1    0    0    0    0  0.00000000000E+00  0.00000000000E+00  0.39999999673E+01  0.40000000000E+01  0.51109989000E-03 0.  1.
     -623   -1    0    0    0    0  0.00000000000E+00  0.00000000000E+00  0.12525980253E-10  0.17130000000E+03  0.17130000000E+03 0. -1.
       11    1    1    2    0    0 -0.27449347120E+00  0.39892195169E-01  0.38544010268E+00  0.47487091608E+00  0.51109989000E-03 0.  1.
     -623    1    1    2    0    0  0.18181921849E+00 -0.19678763552E+00  0.79162498352E+00  0.17130203867E+03  0.17130000000E+03 0. -1.
      622    1    1    2    0    0  0.92674252705E-01  0.15689544036E+00  0.28229348812E+01  0.35230904104E+01  0.21000000000E+01 0.  1.
</event>
<event>
 5   0  0.7462600E-02  0.9118800E+02  0.7818608E-02  0.1180000E+00
       11   -1    0    0    0    0  0.00000000000E+00  0.00000000000E+00  0.39999999673E+01  0.40000000000E+01  0.51109989000E-03 0. -1.
     -623   -1    0    0    0    0  0.00000000000E+00  0.00000000000E+00  0.12525980253E-10  0.17130000000E+03  0.17130000000E+03 0.  1.
       11    1    1    2    0    0 -0.12480596119E+00 -0.60223714295E+00  0.40902866736E+00  0.73862765738E+00  0.51109989000E-03 0. -1.
     -623    1    1    2    0    0 -0.15095331154E+00  0.31691875982E+00  0.11328547265E+01  0.17130410557E+03  0.17130000000E+03 0.  1.
      622    1    1    2    0    0  0.27575927273E+00  0.28531838313E+00  0.24581165735E+01  0.32572667753E+01  0.21000000000E+01 0. -1.
</event>
<event>
 5   0  0.7462600E-02  0.9118800E+02  0.7818608E-02  0.1180000E+00
       11   -1    0    0    0    0  0.00000000000E+00  0.00000000000E+00  0.39999999673E+01  0.40000000000E+01  0.51109989000E-03 0. -1.
     -623   -1    0    0    0    0  0.00000000000E+00  0.00000000000E+00  0.12525980253E-10  0.17130000000E+03  0.17130000000E+03 0.  1.
       11    1    1    2    0    0 -0.21736215849E+00  0.91707093197E-01  0.39352239385E+00  0.45882091775E+00  0.51109989000E-03 0. -1.
     -623    1    1    2    0    0  0.75537969602E+00 -0.21286958950E+00  0.81373710638E+00  0.17130373049E+03  0.17130000000E+03 0.  1.
      622    1    1    2    0    0 -0.53801753753E+00  0.12116249630E+00  0.27927404671E+01  0.35374485916E+01  0.21000000000E+01 0. -1.
</event>
<event>
 5   0  0.7462600E-02  0.9118800E+02  0.7818608E-02  0.1180000E+00
       11   -1    0    0    0    0  0.00000000000E+00  0.00000000000E+00  0.39999999673E+01  0.40000000000E+01  0.51109989000E-03 0.  1.
     -623   -1    0    0    0    0  0.00000000000E+00  0.00000000000E+00  0.12525980253E-10  0.17130000000E+03  0.17130000000E+03 0.  1.
       11    1    1    2    0    0 -0.13318350944E+00 -0.12658593603E+00 -0.86098162247E-02  0.18394628712E+00  0.51109989000E-03 0.  1.
     -623    1    1    2    0    0  0.16979182239E+00  0.32423046933E+00  0.83158619532E+00  0.17130240947E+03  0.17130000000E+03 0.  1.
      622    1    1    2    0    0 -0.36608312954E-01 -0.19764453329E+00  0.31770235883E+01  0.38136442428E+01  0.21000000000E+01 0.  1.
</event>
<event>
 5   0  0.7462600E-02  0.9118800E+02  0.7818608E-02  0.1180000E+00
       11   -1    0    0    0    0  0.00000000000E+00  0.00000000000E+00  0.39999999673E+01  0.40000000000E+01  0.51109989000E-03 0. -1.
     -623   -1    0    0    0    0  0.00000000000E+00  0.00000000000E+00  0.12525980253E-10  0.17130000000E+03  0.17130000000E+03 0. -1.
       11    1    1    2    0    0 -0.15023548264E+00 -0.23786781851E+00  0.94531460546E-01  0.29679666033E+00  0.51109989000E-03 0. -1.
     -623    1    1    2    0    0  0.13652385615E+00  0.34244230336E+00  0.86019946772E+00  0.17130255646E+03  0.17130000000E+03 0. -1.
      622    1    1    2    0    0  0.13711626489E-01 -0.10457448485E+00  0.30452690391E+01  0.37006468829E+01  0.21000000000E+01 0. -1.
</event>
<event>
 5   0  0.7462600E-02  0.9118800E+02  0.7818608E-02  0.1180000E+00
       11   -1    0    0    0    0  0.00000000000E+00  0.00000000000E+00  0.39999999673E+01  0.40000000000E+01  0.51109989000E-03 0. -1.
     -623   -1    0    0    0    0  0.00000000000E+00  0.00000000000E+00  0.12525980253E-10  0.17130000000E+03  0.17130000000E+03 0.  1.
       11    1    1    2    0    0 -0.27135534744E-01 -0.38817489350E+00  0.81110408458E+00  0.89961446321E+00  0.51109989000E-03 0. -1.
     -623    1    1    2    0    0  0.10407805871E+00 -0.10065419116E+00  0.96622910989E+00  0.17130278621E+03  0.17130000000E+03 0.  1.
      622    1    1    2    0    0 -0.76942523967E-01  0.48882908466E+00  0.22226667729E+01  0.30975993300E+01  0.21000000000E+01 0. -1.
</event>
<event>
 5   0  0.7462600E-02  0.9118800E+02  0.7818608E-02  0.1180000E+00
       11   -1    0    0    0    0  0.00000000000E+00  0.00000000000E+00  0.39999999673E+01  0.40000000000E+01  0.51109989000E-03 0. -1.
     -623   -1    0    0    0    0  0.00000000000E+00  0.00000000000E+00  0.12525980253E-10  0.17130000000E+03  0.17130000000E+03 0.  1.
       11    1    1    2    0    0  0.19844992477E+00 -0.66790732410E-01  0.12801924253E+00  0.24542323089E+00  0.51109989000E-03 0. -1.
     -623    1    1    2    0    0  0.18100402174E+00  0.18342558066E+00  0.78746865329E+00  0.17130200382E+03  0.17130000000E+03 0.  1.
      622    1    1    2    0    0 -0.37945394651E+00 -0.11663484825E+00  0.30845120715E+01  0.37525729446E+01  0.21000000000E+01 0. -1.
</event>
<event>
 5   0  0.7462600E-02  0.9118800E+02  0.7818608E-02  0.1180000E+00
       11   -1    0    0    0    0  0.00000000000E+00  0.00000000000E+00  0.39999999673E+01  0.40000000000E+01  0.51109989000E-03 0. -1.
     -623   -1    0    0    0    0  0.00000000000E+00  0.00000000000E+00  0.12525980253E-10  0.17130000000E+03  0.17130000000E+03 0. -1.
       11    1    1    2    0    0  0.16320031411E+00 -0.20266881843E+00  0.13683170011E+00  0.29399348269E+00  0.51109989000E-03 0. -1.
     -623    1    1    2    0    0 -0.36392476641E+00 -0.20167702808E-01  0.82723933341E+00  0.17130238519E+03  0.17130000000E+03 0. -1.
      622    1    1    2    0    0  0.20072445230E+00  0.22283652124E+00  0.30359289338E+01  0.37036213241E+01  0.21000000000E+01 0. -1.
</event>
<event>
 5   0  0.7462600E-02  0.9118800E+02  0.7818608E-02  0.1180000E+00
       11   -1    0    0    0    0  0.00000000000E+00  0.00000000000E+00  0.39999999673E+01  0.40000000000E+01  0.51109989000E-03 0.  1.
     -623   -1    0    0    0    0  0.00000000000E+00  0.00000000000E+00  0.12525980253E-10  0.17130000000E+03  0.17130000000E+03 0. -1.
       11    1    1    2    0    0 -0.16195049392E+00  0.10575951219E-01  0.38859392513E+00  0.42112386907E+00  0.51109989000E-03 0.  1.
     -623    1    1    2    0    0  0.56772300183E+00  0.45012148200E+00  0.78338841396E+00  0.17130332342E+03  0.17130000000E+03 0. -1.
      622    1    1    2    0    0 -0.40577250790E+00 -0.46069743321E+00  0.28280176283E+01  0.35755527068E+01  0.21000000000E+01 0.  1.
</event>
<event>
 5   0  0.7462600E-02  0.9118800E+02  0.7818608E-02  0.1180000E+00
       11   -1    0    0    0    0  0.00000000000E+00  0.00000000000E+00  0.39999999673E+01  0.40000000000E+01  0.51109989000E-03 0. -1.
     -623   -1    0    0    0    0  0.00000000000E+00  0.00000000000E+00  0.12525980253E-10  0.17130000000E+03  0.17130000000E+03 0. -1.
       11    1    1    2    0    0  0.27379549170E+00  0.37846430934E-01  0.35386511743E+00  0.44901793524E+00  0.51109989000E-03 0. -1.
     -623    1    1    2    0    0 -0.63230188485E+00 -0.14470479499E+00  0.81114328041E+00  0.17130314854E+03  0.17130000000E+03 0. -1.
      622    1    1    2    0    0  0.35850639315E+00  0.10685836405E+00  0.28349915695E+01  0.35478335281E+01  0.21000000000E+01 0. -1.
</event>
<event>
 5   0  0.7462600E-02  0.9118800E+02  0.7818608E-02  0.1180000E+00
       11   -1    0    0    0    0  0.00000000000E+00  0.00000000000E+00  0.39999999673E+01  0.40000000000E+01  0.51109989000E-03 0.  1.
     -623   -1    0    0    0    0  0.00000000000E+00  0.00000000000E+00  0.12525980253E-10  0.17130000000E+03  0.17130000000E+03 0. -1.
       11    1    1    2    0    0  0.14147308786E+00 -0.84608522789E-01 -0.49608123380E-01  0.17214663471E+00  0.51109989000E-03 0.  1.
     -623    1    1    2    0    0 -0.37724804951E+00  0.88004672085E-01  0.86104312396E+00  0.17130260201E+03  0.17130000000E+03 0. -1.
      622    1    1    2    0    0  0.23577496165E+00 -0.33961492959E-02  0.31885649668E+01  0.38252513530E+01  0.21000000000E+01 0.  1.
</event>
<event>
 5   0  0.7462600E-02  0.9118800E+02  0.7818608E-02  0.1180000E+00
       11   -1    0    0    0    0  0.00000000000E+00  0.00000000000E+00  0.39999999673E+01  0.40000000000E+01  0.51109989000E-03 0.  1.
     -623   -1    0    0    0    0  0.00000000000E+00  0.00000000000E+00  0.12525980253E-10  0.17130000000E+03  0.17130000000E+03 0.  1.
       11    1    1    2    0    0  0.12448905185E+00 -0.19950885439E-01  0.24595649996E+00  0.27638817441E+00  0.51109989000E-03 0.  1.
     -623    1    1    2    0    0  0.68334420325E-02  0.47473523077E+00  0.71840571437E+00  0.17130216440E+03  0.17130000000E+03 0.  1.
      622    1    1    2    0    0 -0.13132249388E+00 -0.45478434533E+00  0.30356377530E+01  0.37214474289E+01  0.21000000000E+01 0.  1.
</event>
<event>
 5   0  0.7462600E-02  0.9118800E+02  0.7818608E-02  0.1180000E+00
       11   -1    0    0    0    0  0.00000000000E+00  0.00000000000E+00  0.39999999673E+01  0.40000000000E+01  0.51109989000E-03 0. -1.
     -623   -1    0    0    0    0  0.00000000000E+00  0.00000000000E+00  0.12525980253E-10  0.17130000000E+03  0.17130000000E+03 0. -1.
       11    1    1    2    0    0 -0.33011004959E+00 -0.47420132381E-02  0.28385005372E+00  0.43539205982E+00  0.51109989000E-03 0. -1.
     -623    1    1    2    0    0  0.27945515726E+00  0.20273636407E+00  0.84608172001E+00  0.17130243738E+03  0.17130000000E+03 0. -1.
      622    1    1    2    0    0  0.50654892339E-01 -0.19799435083E+00  0.28700681936E+01  0.35621705626E+01  0.21000000000E+01 0. -1.
</event>
<event>
 5   0  0.7462600E-02  0.9118800E+02  0.7818608E-02  0.1180000E+00
       11   -1    0    0    0    0  0.00000000000E+00  0.00000000000E+00  0.39999999673E+01  0.40000000000E+01  0.51109989000E-03 0.  1.
     -623   -1    0    0    0    0  0.00000000000E+00  0.00000000000E+00  0.12525980253E-10  0.17130000000E+03  0.17130000000E+03 0.  1.
       11    1    1    2    0    0  0.76451163189E-01 -0.55432809147E-01  0.16744671793E-01  0.95907361237E-01  0.51109989000E-03 0.  1.
     -623    1    1    2    0    0 -0.71328017925E-01 -0.28796238304E-02  0.69427169508E+00  0.17130142180E+03  0.17130000000E+03 0.  1.
      622    1    1    2    0    0 -0.51231452649E-02  0.58312432978E-01  0.32889836005E+01  0.39026708432E+01  0.21000000000E+01 0.  1.
</event>
<event>
 5   0  0.7462600E-02  0.9118800E+02  0.7818608E-02  0.1180000E+00
       11   -1    0    0    0    0  0.00000000000E+00  0.00000000000E+00  0.39999999673E+01  0.40000000000E+01  0.51109989000E-03 0. -1.
     -623   -1    0    0    0    0  0.00000000000E+00  0.00000000000E+00  0.12525980253E-10  0.17130000000E+03  0.17130000000E+03 0. -1.
       11    1    1    2    0    0 -0.65667598273E-01  0.24580853337E+00  0.39758352594E-01  0.25751709917E+00  0.51109989000E-03 0. -1.
     -623    1    1    2    0    0  0.27145976358E+00 -0.61810731207E-01  0.87779919344E+00  0.17130247530E+03  0.17130000000E+03 0. -1.
      622    1    1    2    0    0 -0.20579216531E+00 -0.18399780216E+00  0.30824424213E+01  0.37400076052E+01  0.21000000000E+01 0. -1.
</event>
<event>
 5   0  0.7462600E-02  0.9118800E+02  0.7818608E-02  0.1180000E+00
       11   -1    0    0    0    0  0.00000000000E+00  0.00000000000E+00  0.39999999673E+01  0.40000000000E+01  0.51109989000E-03 0. -1.
     -623   -1    0    0    0    0  0.00000000000E+00  0.00000000000E+00  0.12525980253E-10  0.17130000000E+03  0.17130000000E+03 0. -1.
       11    1    1    2    0    0 -0.12200032436E+00  0.21408269326E-01  0.15052076282E+00  0.19493371797E+00  0.51109989000E-03 0. -1.
     -623    1    1    2    0    0  0.15471587923E+00 -0.25774343774E+00  0.68734291048E+00  0.17130164275E+03  0.17130000000E+03 0. -1.
      622    1    1    2    0    0 -0.32715554871E-01  0.23633516841E+00  0.31621362941E+01  0.38034235317E+01  0.21000000000E+01 0. -1.
</event>
<event>
 5   0  0.7462600E-02  0.9118800E+02  0.7818608E-02  0.1180000E+00
       11   -1    0    0    0    0  0.00000000000E+00  0.00000000000E+00  0.39999999673E+01  0.40000000000E+01  0.51109989000E-03 0.  1.
     -623   -1    0    0    0    0  0.00000000000E+00  0.00000000000E+00  0.12525980253E-10  0.17130000000E+03  0.17130000000E+03 0.  1.
       11    1    1    2    0    0  0.44493893691E-01  0.57422900567E+00  0.74483526370E+00  0.94154048708E+00  0.51109989000E-03 0.  1.
     -623    1    1    2    0    0 -0.31955036574E+00 -0.10844707318E+01  0.11190354658E+01  0.17130738580E+03  0.17130000000E+03 0.  1.
      622    1    1    2    0    0  0.27505647205E+00  0.51024172609E+00  0.21361292378E+01  0.30510737131E+01  0.21000000000E+01 0.  1.
</event>
<event>
 5   0  0.7462600E-02  0.9118800E+02  0.7818608E-02  0.1180000E+00
       11   -1    0    0    0    0  0.00000000000E+00  0.00000000000E+00  0.39999999673E+01  0.40000000000E+01  0.51109989000E-03 0.  1.
     -623   -1    0    0    0    0  0.00000000000E+00  0.00000000000E+00  0.12525980253E-10  0.17130000000E+03  0.17130000000E+03 0. -1.
       11    1    1    2    0    0 -0.14060078689E+00  0.22487181107E-01  0.27309109896E-01  0.14498380355E+00  0.51109989000E-03 0.  1.
     -623    1    1    2    0    0 -0.37782205195E+00  0.18704661149E+00  0.79143435815E+00  0.17130234705E+03  0.17130000000E+03 0. -1.
      622    1    1    2    0    0  0.51842283884E+00 -0.20953379259E+00  0.31812564993E+01  0.38526691481E+01  0.21000000000E+01 0.  1.
</event>
<event>
 5   0  0.7462600E-02  0.9118800E+02  0.7818608E-02  0.1180000E+00
       11   -1    0    0    0    0  0.00000000000E+00  0.00000000000E+00  0.39999999673E+01  0.40000000000E+01  0.51109989000E-03 0.  1.
     -623   -1    0    0    0    0  0.00000000000E+00  0.00000000000E+00  0.12525980253E-10  0.17130000000E+03  0.17130000000E+03 0. -1.
       11    1    1    2    0    0  0.63548209717E-01  0.26429118231E+00  0.54705581819E+00  0.61086703418E+00  0.51109989000E-03 0.  1.
     -623    1    1    2    0    0 -0.10250182121E+00 -0.44186603604E+00  0.80221309185E+00  0.17130247896E+03  0.17130000000E+03 0. -1.
      622    1    1    2    0    0  0.38953611489E-01  0.17757485373E+00  0.26507310573E+01  0.33866540052E+01  0.21000000000E+01 0.  1.
</event>
<event>
 5   0  0.7462600E-02  0.9118800E+02  0.7818608E-02  0.1180000E+00
       11   -1    0    0    0    0  0.00000000000E+00  0.00000000000E+00  0.39999999673E+01  0.40000000000E+01  0.51109989000E-03 0. -1.
     -623   -1    0    0    0    0  0.00000000000E+00  0.00000000000E+00  0.12525980253E-10  0.17130000000E+03  0.17130000000E+03 0. -1.
       11    1    1    2    0    0 -0.12618877214E+00 -0.48212044070E-01  0.15956014787E+00  0.20906388836E+00  0.51109989000E-03 0. -1.
     -623    1    1    2    0    0  0.36608888925E+00  0.19740202880E+00  0.69930306905E+00  0.17130193231E+03  0.17130000000E+03 0. -1.
      622    1    1    2    0    0 -0.23990011711E+00 -0.14918998473E+00  0.31411367504E+01  0.37890038008E+01  0.21000000000E+01 0. -1.
</event>
<event>
 5   0  0.7462600E-02  0.9118800E+02  0.7818608E-02  0.1180000E+00
       11   -1    0    0    0    0  0.00000000000E+00  0.00000000000E+00  0.39999999673E+01  0.40000000000E+01  0.51109989000E-03 0.  1.
     -623   -1    0    0    0    0  0.00000000000E+00  0.00000000000E+00  0.12525980253E-10  0.17130000000E+03  0.17130000000E+03 0.  1.
       11    1    1    2    0    0  0.13426955894E+00  0.20591408127E+00  0.11784473979E+00  0.27261065137E+00  0.51109989000E-03 0.  1.
     -623    1    1    2    0    0 -0.19541836207E+00 -0.77382743033E-01  0.80839613135E+00  0.17130203642E+03  0.17130000000E+03 0.  1.
      622    1    1    2    0    0  0.61148803128E-01 -0.12853133824E+00  0.30737590962E+01  0.37253529313E+01  0.21000000000E+01 0.  1.
</event>
<event>
 5   0  0.7462600E-02  0.9118800E+02  0.7818608E-02  0.1180000E+00
       11   -1    0    0    0    0  0.00000000000E+00  0.00000000000E+00  0.39999999673E+01  0.40000000000E+01  0.51109989000E-03 0. -1.
     -623   -1    0    0    0    0  0.00000000000E+00  0.00000000000E+00  0.12525980253E-10  0.17130000000E+03  0.17130000000E+03 0. -1.
       11    1    1    2    0    0 -0.21891135267E-01  0.12517186523E+00 -0.23867115450E-02  0.12709514256E+00  0.51109989000E-03 0. -1.
     -623    1    1    2    0    0 -0.28609866680E+00 -0.14455126220E+00  0.76532049278E+00  0.17130200951E+03  0.17130000000E+03 0. -1.
      622    1    1    2    0    0  0.30798980207E+00  0.19379396975E-01  0.32370661861E+01  0.38708953451E+01  0.21000000000E+01 0. -1.
</event>
<event>
 5   0  0.7462600E-02  0.9118800E+02  0.7818608E-02  0.1180000E+00
       11   -1    0    0    0    0  0.00000000000E+00  0.00000000000E+00  0.39999999673E+01  0.40000000000E+01  0.51109989000E-03 0. -1.
     -623   -1    0    0    0    0  0.00000000000E+00  0.00000000000E+00  0.12525980253E-10  0.17130000000E+03  0.17130000000E+03 0. -1.
       11    1    1    2    0    0 -0.19042345865E-01  0.21840360467E-01 -0.18151940558E-01  0.34196000504E-01  0.51109989000E-03 0. -1.
     -623    1    1    2    0    0  0.50433586412E+00  0.16050360660E+00  0.69683884645E+00  0.17130223495E+03  0.17130000000E+03 0. -1.
      622    1    1    2    0    0 -0.48529351826E+00 -0.18234396706E+00  0.33213130615E+01  0.39635690449E+01  0.21000000000E+01 0. -1.
</event>
<event>
 5   0  0.7462600E-02  0.9118800E+02  0.7818608E-02  0.1180000E+00
       11   -1    0    0    0    0  0.00000000000E+00  0.00000000000E+00  0.39999999673E+01  0.40000000000E+01  0.51109989000E-03 0.  1.
     -623   -1    0    0    0    0  0.00000000000E+00  0.00000000000E+00  0.12525980253E-10  0.17130000000E+03  0.17130000000E+03 0.  1.
       11    1    1    2    0    0  0.11559882831E+00 -0.23096619401E+00  0.37237266535E-01  0.26095085193E+00  0.51109989000E-03 0.  1.
     -623    1    1    2    0    0  0.30296816656E-01  0.39871632041E+00  0.88044863553E+00  0.17130272935E+03  0.17130000000E+03 0.  1.
      622    1    1    2    0    0 -0.14589564496E+00 -0.16775012640E+00  0.30823140653E+01  0.37363197991E+01  0.21000000000E+01 0.  1.
</event>
<event>
 5   0  0.7462600E-02  0.9118800E+02  0.7818608E-02  0.1180000E+00
       11   -1    0    0    0    0  0.00000000000E+00  0.00000000000E+00  0.39999999673E+01  0.40000000000E+01  0.51109989000E-03 0. -1.
     -623   -1    0    0    0    0  0.00000000000E+00  0.00000000000E+00  0.12525980253E-10  0.17130000000E+03  0.17130000000E+03 0. -1.
       11    1    1    2    0    0 -0.13135254485E+00 -0.22071309312E-01  0.48902819513E-01  0.14188862080E+00  0.51109989000E-03 0. -1.
     -623    1    1    2    0    0 -0.30611446883E+00 -0.24207580927E+00  0.75774236929E+00  0.17130212048E+03  0.17130000000E+03 0. -1.
      622    1    1    2    0    0  0.43746701367E+00  0.26414711858E+00  0.31933547786E+01  0.38559909012E+01  0.21000000000E+01 0. -1.
</event>
<event>
 5   0  0.7462600E-02  0.9118800E+02  0.7818608E-02  0.1180000E+00
       11   -1    0    0    0    0  0.00000000000E+00  0.00000000000E+00  0.39999999673E+01  0.40000000000E+01  0.51109989000E-03 0. -1.
     -623   -1    0    0    0    0  0.00000000000E+00  0.00000000000E+00  0.12525980253E-10  0.17130000000E+03  0.17130000000E+03 0.  1.
       11    1    1    2    0    0 -0.17261351644E+00  0.14725780367E+00  0.64010449760E+00  0.67912761383E+00  0.51109989000E-03 0. -1.
     -623    1    1    2    0    0  0.31047343316E+00 -0.38021966397E+00  0.80496087889E+00  0.17130259462E+03  0.17130000000E+03 0.  1.
      622    1    1    2    0    0 -0.13785991672E+00  0.23296186030E+00  0.25549345909E+01  0.33182777685E+01  0.21000000000E+01 0. -1.
</event>
<event>
 5   0  0.7462600E-02  0.9118800E+02  0.7818608E-02  0.1180000E+00
       11   -1    0    0    0    0  0.00000000000E+00  0.00000000000E+00  0.39999999673E+01  0.40000000000E+01  0.51109989000E-03 0.  1.
     -623   -1    0    0    0    0  0.00000000000E+00  0.00000000000E+00  0.12525980253E-10  0.17130000000E+03  0.17130000000E+03 0. -1.
       11    1    1    2    0    0  0.11241621452E+00  0.42482399558E-01  0.31341053750E+00  0.33566141542E+00  0.51109989000E-03 0.  1.
     -623    1    1    2    0    0 -0.22090714079E+00 -0.10305643437E+00  0.68816671499E+00  0.17130155573E+03  0.17130000000E+03 0. -1.
      622    1    1    2    0    0  0.10849092626E+00  0.60574034812E-01  0.29984227149E+01  0.36627828590E+01  0.21000000000E+01 0.  1.
</event>
<event>
 5   0  0.7462600E-02  0.9118800E+02  0.7818608E-02  0.1180000E+00
       11   -1    0    0    0    0  0.00000000000E+00  0.00000000000E+00  0.39999999673E+01  0.40000000000E+01  0.51109989000E-03 0. -1.
     -623   -1    0    0    0    0  0.00000000000E+00  0.00000000000E+00  0.12525980253E-10  0.17130000000E+03  0.17130000000E+03 0. -1.
       11    1    1    2    0    0  0.15482079403E+00 -0.89235020803E-01  0.76621031614E-01  0.19443099267E+00  0.51109989000E-03 0. -1.
     -623    1    1    2    0    0  0.29534402544E-01 -0.73563248765E-01  0.76128255158E+00  0.17130170996E+03  0.17130000000E+03 0. -1.
      622    1    1    2    0    0 -0.18435519657E+00  0.16279826957E+00  0.31620963842E+01  0.38038590481E+01  0.21000000000E+01 0. -1.
</event>
<event>
 5   0  0.7462600E-02  0.9118800E+02  0.7818608E-02  0.1180000E+00
       11   -1    0    0    0    0  0.00000000000E+00  0.00000000000E+00  0.39999999673E+01  0.40000000000E+01  0.51109989000E-03 0.  1.
     -623   -1    0    0    0    0  0.00000000000E+00  0.00000000000E+00  0.12525980253E-10  0.17130000000E+03  0.17130000000E+03 0.  1.
       11    1    1    2    0    0 -0.31135678001E-01 -0.96209528481E-02 -0.80231741507E-01  0.86598999678E-01  0.51109989000E-03 0.  1.
     -623    1    1    2    0    0 -0.32383221010E-03 -0.13556229885E+00  0.78353673549E+00  0.17130184560E+03  0.17130000000E+03 0.  1.
      622    1    1    2    0    0  0.31459510212E-01  0.14518325170E+00  0.32966949734E+01  0.39115553971E+01  0.21000000000E+01 0.  1.
</event>
<event>
 5   0  0.7462600E-02  0.9118800E+02  0.7818608E-02  0.1180000E+00
       11   -1    0    0    0    0  0.00000000000E+00  0.00000000000E+00  0.39999999673E+01  0.40000000000E+01  0.51109989000E-03 0. -1.
     -623   -1    0    0    0    0  0.00000000000E+00  0.00000000000E+00  0.12525980253E-10  0.17130000000E+03  0.17130000000E+03 0.  1.
       11    1    1    2    0    0 -0.48296692744E-01  0.14542315770E+00 -0.10476928733E+00  0.18562685720E+00  0.51109989000E-03 0. -1.
     -623    1    1    2    0    0 -0.11866161930E+00  0.11335217898E+00  0.93863723606E+00  0.17130265021E+03  0.17130000000E+03 0.  1.
      622    1    1    2    0    0  0.16695831204E+00 -0.25877533668E+00  0.31661320186E+01  0.38117229322E+01  0.21000000000E+01 0. -1.
</event>
<event>
 5   0  0.7462600E-02  0.9118800E+02  0.7818608E-02  0.1180000E+00
       11   -1    0    0    0    0  0.00000000000E+00  0.00000000000E+00  0.39999999673E+01  0.40000000000E+01  0.51109989000E-03 0. -1.
     -623   -1    0    0    0    0  0.00000000000E+00  0.00000000000E+00  0.12525980253E-10  0.17130000000E+03  0.17130000000E+03 0.  1.
       11    1    1    2    0    0  0.60714663244E+00  0.41353964834E+00  0.55593520013E+00  0.92125256146E+00  0.51109989000E-03 0. -1.
     -623    1    1    2    0    0 -0.11677511475E+01 -0.57048569219E+00  0.12830633549E+01  0.17130973512E+03  0.17130000000E+03 0.  1.
      622    1    1    2    0    0  0.56060451510E+00  0.15694604385E+00  0.21610014123E+01  0.30690123146E+01  0.21000000000E+01 0.  0.
</event>
<event>
 5   0  0.7462600E-02  0.9118800E+02  0.7818608E-02  0.1180000E+00
       11   -1    0    0    0    0  0.00000000000E+00  0.00000000000E+00  0.39999999673E+01  0.40000000000E+01  0.51109989000E-03 0. -1.
     -623   -1    0    0    0    0  0.00000000000E+00  0.00000000000E+00  0.12525980253E-10  0.17130000000E+03  0.17130000000E+03 0. -1.
       11    1    1    2    0    0  0.57837412615E-01 -0.32699039568E+00  0.14367516441E+00  0.36181583610E+00  0.51109989000E-03 0. -1.
     -623    1    1    2    0    0 -0.58679001918E-01  0.14605627309E+00  0.89386700782E+00  0.17130240446E+03  0.17130000000E+03 0. -1.
      622    1    1    2    0    0  0.84158930361E-03  0.18093412258E+00  0.29624577951E+01  0.36357797036E+01  0.21000000000E+01 0. -1.
</event>
<event>
 5   0  0.7462600E-02  0.9118800E+02  0.7818608E-02  0.1180000E+00
       11   -1    0    0    0    0  0.00000000000E+00  0.00000000000E+00  0.39999999673E+01  0.40000000000E+01  0.51109989000E-03 0.  1.
     -623   -1    0    0    0    0  0.00000000000E+00  0.00000000000E+00  0.12525980253E-10  0.17130000000E+03  0.17130000000E+03 0.  1.
       11    1    1    2    0    0  0.87911089027E-01  0.25396135397E+00  0.39578677582E+00  0.47840585492E+00  0.51109989000E-03 0.  1.
     -623    1    1    2    0    0  0.54322946967E+00  0.11875752393E+00  0.87801202318E+00  0.17130315265E+03  0.17130000000E+03 0.  1.
      622    1    1    2    0    0 -0.63114055869E+00 -0.37271887790E+00  0.27262011684E+01  0.35184414983E+01  0.21000000000E+01 0.  1.
</event>
<event>
 5   0  0.7462600E-02  0.9118800E+02  0.7818608E-02  0.1180000E+00
       11   -1    0    0    0    0  0.00000000000E+00  0.00000000000E+00  0.39999999673E+01  0.40000000000E+01  0.51109989000E-03 0.  1.
     -623   -1    0    0    0    0  0.00000000000E+00  0.00000000000E+00  0.12525980253E-10  0.17130000000E+03  0.17130000000E+03 0. -1.
       11    1    1    2    0    0  0.80379489786E-02 -0.13240845906E+00  0.20527890279E+00  0.24441010169E+00  0.51109989000E-03 0.  1.
     -623    1    1    2    0    0 -0.22702445410E+00  0.23076253072E+00  0.69246063539E+00  0.17130170546E+03  0.17130000000E+03 0. -1.
      622    1    1    2    0    0  0.21898650513E+00 -0.98354071661E-01  0.31022604292E+01  0.37538844393E+01  0.21000000000E+01 0.  1.
</event>
<event>
 5   0  0.7462600E-02  0.9118800E+02  0.7818608E-02  0.1180000E+00
       11   -1    0    0    0    0  0.00000000000E+00  0.00000000000E+00  0.39999999673E+01  0.40000000000E+01  0.51109989000E-03 0.  1.
     -623   -1    0    0    0    0  0.00000000000E+00  0.00000000000E+00  0.12525980253E-10  0.17130000000E+03  0.17130000000E+03 0. -1.
       11    1    1    2    0    0  0.12180789077E+00  0.57617951770E-02  0.36113814103E+00  0.38117106221E+00  0.51109989000E-03 0.  1.
     -623    1    1    2    0    0  0.65648629096E-01  0.19018909157E+00  0.70611562838E+00  0.17130157349E+03  0.17130000000E+03 0. -1.
      622    1    1    2    0    0 -0.18745651987E+00 -0.19595088675E+00  0.29327461979E+01  0.36172554456E+01  0.21000000000E+01 0.  1.
</event>
<event>
 5   0  0.7462600E-02  0.9118800E+02  0.7818608E-02  0.1180000E+00
       11   -1    0    0    0    0  0.00000000000E+00  0.00000000000E+00  0.39999999673E+01  0.40000000000E+01  0.51109989000E-03 0. -1.
     -623   -1    0    0    0    0  0.00000000000E+00  0.00000000000E+00  0.12525980253E-10  0.17130000000E+03  0.17130000000E+03 0.  1.
       11    1    1    2    0    0 -0.65776116465E-02 -0.97590922432E-02  0.47459254017E+00  0.47473871263E+00  0.51109989000E-03 0. -1.
     -623    1    1    2    0    0 -0.55702637411E-01  0.58917887898E+00  0.75794681018E+00  0.17130269910E+03  0.17130000000E+03 0.  1.
      622    1    1    2    0    0  0.62280249058E-01 -0.57941978673E+00  0.27674606170E+01  0.35225621904E+01  0.21000000000E+01 0. -1.
</event>
<event>
 5   0  0.7462600E-02  0.9118800E+02  0.7818608E-02  0.1180000E+00
       11   -1    0    0    0    0  0.00000000000E+00  0.00000000000E+00  0.39999999673E+01  0.40000000000E+01  0.51109989000E-03 0.  1.
     -623   -1    0    0    0    0  0.00000000000E+00  0.00000000000E+00  0.12525980253E-10  0.17130000000E+03  0.17130000000E+03 0. -1.
       11    1    1    2    0    0 -0.44123447261E+00 -0.13333953282E+00 -0.95402900350E-01  0.47071144606E+00  0.51109989000E-03 0.  1.
     -623    1    1    2    0    0 -0.17348418876E+00 -0.49483760555E+00  0.14070987609E+01  0.17130658157E+03  0.17130000000E+03 0. -1.
      622    1    1    2    0    0  0.61471866137E+00  0.62817713838E+00  0.26883041068E+01  0.35227069876E+01  0.21000000000E+01 0.  1.
</event>
<event>
 5   0  0.7462600E-02  0.9118800E+02  0.7818608E-02  0.1180000E+00
       11   -1    0    0    0    0  0.00000000000E+00  0.00000000000E+00  0.39999999673E+01  0.40000000000E+01  0.51109989000E-03 0. -1.
     -623   -1    0    0    0    0  0.00000000000E+00  0.00000000000E+00  0.12525980253E-10  0.17130000000E+03  0.17130000000E+03 0.  1.
       11    1    1    2    0    0 -0.41045604441E-01 -0.82443036109E-01  0.69642327685E-01  0.11546389425E+00  0.51109989000E-03 0. -1.
     -623    1    1    2    0    0 -0.43185367458E-01  0.36373303911E-01  0.66534704237E+00  0.17130130144E+03  0.17130000000E+03 0.  1.
      622    1    1    2    0    0  0.84230971899E-01  0.46069732199E-01  0.32650105973E+01  0.38832346668E+01  0.21000000000E+01 0. -1.
</event>
<event>
 5   0  0.7462600E-02  0.9118800E+02  0.7818608E-02  0.1180000E+00
       11   -1    0    0    0    0  0.00000000000E+00  0.00000000000E+00  0.39999999673E+01  0.40000000000E+01  0.51109989000E-03 0. -1.
     -623   -1    0    0    0    0  0.00000000000E+00  0.00000000000E+00  0.12525980253E-10  0.17130000000E+03  0.17130000000E+03 0. -1.
       11    1    1    2    0    0 -0.52714241465E-01 -0.14654945428E+00  0.82583001117E-01  0.17628314468E+00  0.51109989000E-03 0. -1.
     -623    1    1    2    0    0 -0.17192459631E+00  0.22422680479E+00  0.73299513807E+00  0.17130180127E+03  0.17130000000E+03 0. -1.
      622    1    1    2    0    0  0.22463883778E+00 -0.77677350513E-01  0.31844218282E+01  0.38219155875E+01  0.21000000000E+01 0. -1.
</event>
<event>
 5   0  0.7462600E-02  0.9118800E+02  0.7818608E-02  0.1180000E+00
       11   -1    0    0    0    0  0.00000000000E+00  0.00000000000E+00  0.39999999673E+01  0.40000000000E+01  0.51109989000E-03 0.  1.
     -623   -1    0    0    0    0  0.00000000000E+00  0.00000000000E+00  0.12525980253E-10  0.17130000000E+03  0.17130000000E+03 0. -1.
       11    1    1    2    0    0  0.33025965515E-01 -0.74374632975E-01  0.74177631955E-01  0.11011304525E+00  0.51109989000E-03 0.  1.
     -623    1    1    2    0    0 -0.53246242734E+00 -0.20802798408E+00  0.70505700286E+00  0.17130240482E+03  0.17130000000E+03 0. -1.
      622    1    1    2    0    0  0.49943646182E+00  0.28240261705E+00  0.32207653325E+01  0.38874821343E+01  0.21000000000E+01 0.  1.
</event>
<event>
 5   0  0.7462600E-02  0.9118800E+02  0.7818608E-02  0.1180000E+00
       11   -1    0    0    0    0  0.00000000000E+00  0.00000000000E+00  0.39999999673E+01  0.40000000000E+01  0.51109989000E-03 0.  1.
     -623   -1    0    0    0    0  0.00000000000E+00  0.00000000000E+00  0.12525980253E-10  0.17130000000E+03  0.17130000000E+03 0.  1.
       11    1    1    2    0    0  0.18896130731E+00  0.97749252730E-01  0.82637068859E+00  0.85331709712E+00  0.51109989000E-03 0.  1.
     -623    1    1    2    0    0 -0.26382663200E+00 -0.16996726783E+00  0.83564685817E+00  0.17130232573E+03  0.17130000000E+03 0.  1.
      622    1    1    2    0    0  0.74865324692E-01  0.72218015104E-01  0.23379824206E+01  0.31443571772E+01  0.21000000000E+01 0.  1.
</event>
<event>
 5   0  0.7462600E-02  0.9118800E+02  0.7818608E-02  0.1180000E+00
       11   -1    0    0    0    0  0.00000000000E+00  0.00000000000E+00  0.39999999673E+01  0.40000000000E+01  0.51109989000E-03 0. -1.
     -623   -1    0    0    0    0  0.00000000000E+00  0.00000000000E+00  0.12525980253E-10  0.17130000000E+03  0.17130000000E+03 0. -1.
       11    1    1    2    0    0 -0.48356807209E-01  0.54230705933E-01  0.34241730776E-01  0.80325012406E-01  0.51109989000E-03 0. -1.
     -623    1    1    2    0    0  0.13796862474E+00 -0.16978526779E+00  0.66100742648E+00  0.17130141504E+03  0.17130000000E+03 0. -1.
      622    1    1    2    0    0 -0.89611817526E-01  0.11555456186E+00  0.33047508101E+01  0.39182599520E+01  0.21000000000E+01 0. -1.
</event>
<event>
 5   0  0.7462600E-02  0.9118800E+02  0.7818608E-02  0.1180000E+00
       11   -1    0    0    0    0  0.00000000000E+00  0.00000000000E+00  0.39999999673E+01  0.40000000000E+01  0.51109989000E-03 0.  1.
     -623   -1    0    0    0    0  0.00000000000E+00  0.00000000000E+00  0.12525980253E-10  0.17130000000E+03  0.17130000000E+03 0.  1.
       11    1    1    2    0    0  0.77435971086E-01  0.32925104560E+00  0.95789069392E-01  0.35153717824E+00  0.51109989000E-03 0.  1.
     -623    1    1    2    0    0 -0.38098998295E+00 -0.45671842806E+00  0.94339828624E+00  0.17130363028E+03  0.17130000000E+03 0. -1.
      622    1    1    2    0    0  0.30355401186E+00  0.12746738246E+00  0.29608126117E+01  0.36448325467E+01  0.21000000000E+01 0.  1.
</event>
<event>
 5   0  0.7462600E-02  0.9118800E+02  0.7818608E-02  0.1180000E+00
       11   -1    0    0    0    0  0.00000000000E+00  0.00000000000E+00  0.39999999673E+01  0.40000000000E+01  0.51109989000E-03 0. -1.
     -623   -1    0    0    0    0  0.00000000000E+00  0.00000000000E+00  0.12525980253E-10  0.17130000000E+03  0.17130000000E+03 0.  1.
       11    1    1    2    0    0  0.80874520449E-01  0.18557588592E+00  0.20003084237E-01  0.20341947324E+00  0.51109989000E-03 0. -1.
     -623    1    1    2    0    0 -0.58996890240E+00 -0.57905103238E-01  0.86484172742E+00  0.17130320887E+03  0.17130000000E+03 0.  1.
      622    1    1    2    0    0  0.50909438195E+00 -0.12767078268E+00  0.31151551557E+01  0.37933716615E+01  0.21000000000E+01 0. -1.
</event>
<event>
 5   0  0.7462600E-02  0.9118800E+02  0.7818608E-02  0.1180000E+00
       11   -1    0    0    0    0  0.00000000000E+00  0.00000000000E+00  0.39999999673E+01  0.40000000000E+01  0.51109989000E-03 0. -1.
     -623   -1    0    0    0    0  0.00000000000E+00  0.00000000000E+00  0.12525980253E-10  0.17130000000E+03  0.17130000000E+03 0.  1.
       11    1    1    2    0    0  0.51968824240E-01  0.74232240311E-01 -0.82961451286E-02  0.90995996844E-01  0.51109989000E-03 0. -1.
     -623    1    1    2    0    0 -0.13246432258E-01  0.42821058770E-01  0.71536581544E+00  0.17130149958E+03  0.17130000000E+03 0.  1.
      622    1    1    2    0    0 -0.38722391982E-01 -0.11705329908E+00  0.32929302971E+01  0.39075044261E+01  0.21000000000E+01 0. -1.
</event>
<event>
 5   0  0.7462600E-02  0.9118800E+02  0.7818608E-02  0.1180000E+00
       11   -1    0    0    0    0  0.00000000000E+00  0.00000000000E+00  0.39999999673E+01  0.40000000000E+01  0.51109989000E-03 0. -1.
     -623   -1    0    0    0    0  0.00000000000E+00  0.00000000000E+00  0.12525980253E-10  0.17130000000E+03  0.17130000000E+03 0.  1.
       11    1    1    2    0    0  0.31450286130E-01 -0.14813294675E+00  0.30874646702E+00  0.34388534794E+00  0.51109989000E-03 0. -1.
     -623    1    1    2    0    0 -0.13269580471E-01  0.33864318781E+00  0.70671977570E+00  0.17130179307E+03  0.17130000000E+03 0.  1.
      622    1    1    2    0    0 -0.18180705659E-01 -0.19051024106E+00  0.29845337246E+01  0.36543215846E+01  0.21000000000E+01 0. -1.
</event>
<event>
 5   0  0.7462600E-02  0.9118800E+02  0.7818608E-02  0.1180000E+00
       11   -1    0    0    0    0  0.00000000000E+00  0.00000000000E+00  0.39999999673E+01  0.40000000000E+01  0.51109989000E-03 0. -1.
     -623   -1    0    0    0    0  0.00000000000E+00  0.00000000000E+00  0.12525980253E-10  0.17130000000E+03  0.17130000000E+03 0.  1.
       11    1    1    2    0    0  0.10101524384E+00 -0.31225094752E-01  0.52555560153E+00  0.53608584905E+00  0.51109989000E-03 0. -1.
     -623    1    1    2    0    0 -0.17616754841E+00  0.34786732164E+00  0.74157032447E+00  0.17130204895E+03  0.17130000000E+03 0.  1.
      622    1    1    2    0    0  0.75152304568E-01 -0.31664222689E+00  0.27328740414E+01  0.34618652046E+01  0.21000000000E+01 0. -1.
</event>
<event>
 5   0  0.7462600E-02  0.9118800E+02  0.7818608E-02  0.1180000E+00
       11   -1    0    0    0    0  0.00000000000E+00  0.00000000000E+00  0.39999999673E+01  0.40000000000E+01  0.51109989000E-03 0.  1.
     -623   -1    0    0    0    0  0.00000000000E+00  0.00000000000E+00  0.12525980253E-10  0.17130000000E+03  0.17130000000E+03 0.  1.
       11    1    1    2    0    0 -0.42792678367E+00  0.27934815829E+00  0.31410582396E+00  0.59984952746E+00  0.51109989000E-03 0.  1.
     -623    1    1    2    0    0  0.30774235693E-01  0.71440005895E-02  0.10612318320E+01  0.17130329014E+03  0.17130000000E+03 0.  1.
      622    1    1    2    0    0  0.39715254798E+00 -0.28649215888E+00  0.26246623114E+01  0.33968603375E+01  0.21000000000E+01 0.  1.
</event>
<event>
 5   0  0.7462600E-02  0.9118800E+02  0.7818608E-02  0.1180000E+00
       11   -1    0    0    0    0  0.00000000000E+00  0.00000000000E+00  0.39999999673E+01  0.40000000000E+01  0.51109989000E-03 0.  1.
     -623   -1    0    0    0    0  0.00000000000E+00  0.00000000000E+00  0.12525980253E-10  0.17130000000E+03  0.17130000000E+03 0.  1.
       11    1    1    2    0    0 -0.21080235245E+00 -0.31996100776E+00  0.48190443572E+00  0.61566616333E+00  0.51109989000E-03 0.  1.
     -623    1    1    2    0    0  0.14013663424E-01  0.27100956978E+00  0.87498773632E+00  0.17130244962E+03  0.17130000000E+03 0.  1.
      622    1    1    2    0    0  0.19678868902E+00  0.48951437979E-01  0.26431077953E+01  0.33818842158E+01  0.21000000000E+01 0.  1.
</event>
<event>
 5   0  0.7462600E-02  0.9118800E+02  0.7818608E-02  0.1180000E+00
       11   -1    0    0    0    0  0.00000000000E+00  0.00000000000E+00  0.39999999673E+01  0.40000000000E+01  0.51109989000E-03 0. -1.
     -623   -1    0    0    0    0  0.00000000000E+00  0.00000000000E+00  0.12525980253E-10  0.17130000000E+03  0.17130000000E+03 0. -1.
       11    1    1    2    0    0 -0.67519169474E-01  0.11031939895E+00 -0.40832529521E+00  0.42832115983E+00  0.51109989000E-03 0. -1.
     -623    1    1    2    0    0  0.17836628997E+00  0.24041385276E+00  0.15518303678E+01  0.17130729054E+03  0.17130000000E+03 0. -1.
      622    1    1    2    0    0 -0.11084712049E+00 -0.35073325172E+00  0.28564948947E+01  0.35643883040E+01  0.21000000000E+01 0. -1.
</event>
<event>
 5   0  0.7462600E-02  0.9118800E+02  0.7818608E-02  0.1180000E+00
       11   -1    0    0    0    0  0.00000000000E+00  0.00000000000E+00  0.39999999673E+01  0.40000000000E+01  0.51109989000E-03 0.  1.
     -623   -1    0    0    0    0  0.00000000000E+00  0.00000000000E+00  0.12525980253E-10  0.17130000000E+03  0.17130000000E+03 0.  1.
       11    1    1    2    0    0 -0.59739012768E-01  0.14758946675E+00  0.12723387029E+00  0.20381393307E+00  0.51109989000E-03 0.  1.
     -623    1    1    2    0    0  0.57502467953E+00 -0.53218997630E+00  0.78076165170E+00  0.17130357109E+03  0.17130000000E+03 0.  1.
      622    1    1    2    0    0 -0.51528566676E+00  0.38460050955E+00  0.30920044454E+01  0.37926149766E+01  0.21000000000E+01 0.  1.
</event>
<event>
 5   0  0.7462600E-02  0.9118800E+02  0.7818608E-02  0.1180000E+00
       11   -1    0    0    0    0  0.00000000000E+00  0.00000000000E+00  0.39999999673E+01  0.40000000000E+01  0.51109989000E-03 0.  1.
     -623   -1    0    0    0    0  0.00000000000E+00  0.00000000000E+00  0.12525980253E-10  0.17130000000E+03  0.17130000000E+03 0.  1.
       11    1    1    2    0    0  0.62682425880E-01  0.97423828834E-01 -0.57758074572E-01  0.12944784795E+00  0.51109989000E-03 0.  1.
     -623    1    1    2    0    0 -0.27049175777E+00 -0.11959415100E+00  0.81576950658E+00  0.17130219773E+03  0.17130000000E+03 0.  1.
      622    1    1    2    0    0  0.20780933189E+00  0.22170322167E-01  0.32419885354E+01  0.38683544182E+01  0.21000000000E+01 0.  1.
</event>
<event>
 5   0  0.7462600E-02  0.9118800E+02  0.7818608E-02  0.1180000E+00
       11   -1    0    0    0    0  0.00000000000E+00  0.00000000000E+00  0.39999999673E+01  0.40000000000E+01  0.51109989000E-03 0.  1.
     -623   -1    0    0    0    0  0.00000000000E+00  0.00000000000E+00  0.12525980253E-10  0.17130000000E+03  0.17130000000E+03 0. -1.
       11    1    1    2    0    0  0.21884174936E+00 -0.30155015302E+00  0.36151584054E+00  0.51915139433E+00  0.51109989000E-03 0.  1.
     -623    1    1    2    0    0 -0.37831850264E+00  0.38619350991E+00  0.87220105024E+00  0.17130307354E+03  0.17130000000E+03 0. -1.
      622    1    1    2    0    0  0.15947675328E+00 -0.84643356893E-01  0.27662830766E+01  0.34777750635E+01  0.21000000000E+01 0.  1.
</event>
<event>
 5   0  0.7462600E-02  0.9118800E+02  0.7818608E-02  0.1180000E+00
       11   -1    0    0    0    0  0.00000000000E+00  0.00000000000E+00  0.39999999673E+01  0.40000000000E+01  0.51109989000E-03 0. -1.
     -623   -1    0    0    0    0  0.00000000000E+00  0.00000000000E+00  0.12525980253E-10  0.17130000000E+03  0.17130000000E+03 0.  1.
       11    1    1    2    0    0  0.12394698853E+00  0.25296732773E+00  0.29770402919E+00  0.40985762782E+00  0.51109989000E-03 0. -1.
     -623    1    1    2    0    0  0.60352046807E-01 -0.31275268571E+00  0.79952780707E+00  0.17130216199E+03  0.17130000000E+03 0.  1.
      622    1    1    2    0    0 -0.18429903534E+00  0.59785357985E-01  0.29027681311E+01  0.35879803855E+01  0.21000000000E+01 0. -1.
</event>
<event>
 5   0  0.7462600E-02  0.9118800E+02  0.7818608E-02  0.1180000E+00
       11   -1    0    0    0    0  0.00000000000E+00  0.00000000000E+00  0.39999999673E+01  0.40000000000E+01  0.51109989000E-03 0.  1.
     -623   -1    0    0    0    0  0.00000000000E+00  0.00000000000E+00  0.12525980253E-10  0.17130000000E+03  0.17130000000E+03 0.  1.
       11    1    1    2    0    0  0.26811704075E+00  0.54593402119E-01  0.10525410297E+00  0.29316526825E+00  0.51109989000E-03 0.  1.
     -623    1    1    2    0    0 -0.12953538192E+00 -0.23077074956E+00  0.85119664679E+00  0.17130231922E+03  0.17130000000E+03 0.  1.
      622    1    1    2    0    0 -0.13858165882E+00  0.17617734744E+00  0.30435492176E+01  0.37045155114E+01  0.21000000000E+01 0.  1.
</event>
<event>
 5   0  0.7462600E-02  0.9118800E+02  0.7818608E-02  0.1180000E+00
       11   -1    0    0    0    0  0.00000000000E+00  0.00000000000E+00  0.39999999673E+01  0.40000000000E+01  0.51109989000E-03 0.  1.
     -623   -1    0    0    0    0  0.00000000000E+00  0.00000000000E+00  0.12525980253E-10  0.17130000000E+03  0.17130000000E+03 0.  1.
       11    1    1    2    0    0  0.16654434064E-01 -0.11042715246E+00 -0.21123135601E-01  0.11365726662E+00  0.51109989000E-03 0.  1.
     -623    1    1    2    0    0 -0.17633328892E-01 -0.18634923233E+00  0.76667140406E+00  0.17130181792E+03  0.17130000000E+03 0.  1.
      622    1    1    2    0    0  0.97889482789E-03  0.29677638479E+00  0.32544516989E+01  0.38845248154E+01  0.21000000000E+01 0.  1.
</event>
<event>
 5   0  0.7462600E-02  0.9118800E+02  0.7818608E-02  0.1180000E+00
       11   -1    0    0    0    0  0.00000000000E+00  0.00000000000E+00  0.39999999673E+01  0.40000000000E+01  0.51109989000E-03 0.  1.
     -623   -1    0    0    0    0  0.00000000000E+00  0.00000000000E+00  0.12525980253E-10  0.17130000000E+03  0.17130000000E+03 0. -1.
       11    1    1    2    0    0 -0.17223742902E+00 -0.18578957333E+00  0.45259802262E+00  0.51867979411E+00  0.51109989000E-03 0.  1.
     -623    1    1    2    0    0  0.27984343263E+00  0.28375949332E+00  0.77740047346E+00  0.17130222761E+03  0.17130000000E+03 0. -1.
      622    1    1    2    0    0 -0.10760600361E+00 -0.97969919991E-01  0.27700014713E+01  0.34790925984E+01  0.21000000000E+01 0.  1.
</event>
<event>
 5   0  0.7462600E-02  0.9118800E+02  0.7818608E-02  0.1180000E+00
       11   -1    0    0    0    0  0.00000000000E+00  0.00000000000E+00  0.39999999673E+01  0.40000000000E+01  0.51109989000E-03 0.  1.
     -623   -1    0    0    0    0  0.00000000000E+00  0.00000000000E+00  0.12525980253E-10  0.17130000000E+03  0.17130000000E+03 0.  1.
       11    1    1    2    0    0  0.10619542493E+00 -0.13014610885E-01  0.13500583639E+00  0.17226051624E+00  0.51109989000E-03 0.  1.
     -623    1    1    2    0    0  0.22623040303E+00  0.14710836106E-02  0.68390049484E+00  0.17130151459E+03  0.17130000000E+03 0.  1.
      622    1    1    2    0    0 -0.33242582796E+00  0.11543527275E-01  0.31810936361E+01  0.38262248896E+01  0.21000000000E+01 0.  1.
</event>
<event>
 5   0  0.7462600E-02  0.9118800E+02  0.7818608E-02  0.1180000E+00
       11   -1    0    0    0    0  0.00000000000E+00  0.00000000000E+00  0.39999999673E+01  0.40000000000E+01  0.51109989000E-03 0. -1.
     -623   -1    0    0    0    0  0.00000000000E+00  0.00000000000E+00  0.12525980253E-10  0.17130000000E+03  0.17130000000E+03 0. -1.
       11    1    1    2    0    0  0.14356809366E+00  0.31768249196E+00  0.22604713084E+00  0.41548950625E+00  0.51109989000E-03 0. -1.
     -623    1    1    2    0    0  0.25397396276E-01 -0.11324298139E+00  0.88401486113E+00  0.17130232033E+03  0.17130000000E+03 0. -1.
      622    1    1    2    0    0 -0.16896548994E+00 -0.20443951057E+00  0.28899379754E+01  0.35821901613E+01  0.21000000000E+01 0. -1.
</event>
<event>
 5   0  0.7462600E-02  0.9118800E+02  0.7818608E-02  0.1180000E+00
       11   -1    0    0    0    0  0.00000000000E+00  0.00000000000E+00  0.39999999673E+01  0.40000000000E+01  0.51109989000E-03 0.  1.
     -623   -1    0    0    0    0  0.00000000000E+00  0.00000000000E+00  0.12525980253E-10  0.17130000000E+03  0.17130000000E+03 0. -1.
       11    1    1    2    0    0  0.63565021343E+00 -0.20439653475E+00  0.99036467953E+00  0.11944252161E+01  0.51109989000E-03 0.  1.
     -623    1    1    2    0    0  0.12237598891E-01  0.24116591134E+00  0.12739428782E+01  0.17130490723E+03  0.17130000000E+03 0. -1.
      622    1    1    2    0    0 -0.64788781232E+00 -0.36769376591E-01  0.17356924096E+01  0.28006675535E+01  0.21000000000E+01 0.  1.
</event>
<event>
 5   0  0.7462600E-02  0.9118800E+02  0.7818608E-02  0.1180000E+00
       11   -1    0    0    0    0  0.00000000000E+00  0.00000000000E+00  0.39999999673E+01  0.40000000000E+01  0.51109989000E-03 0.  1.
     -623   -1    0    0    0    0  0.00000000000E+00  0.00000000000E+00  0.12525980253E-10  0.17130000000E+03  0.17130000000E+03 0. -1.
       11    1    1    2    0    0 -0.14448660450E+00 -0.43431383440E-02  0.40714643396E-01  0.15017717916E+00  0.51109989000E-03 0.  1.
     -623    1    1    2    0    0  0.13686935452E+00 -0.18939661326E+00  0.74059116292E+00  0.17130176029E+03  0.17130000000E+03 0. -1.
      622    1    1    2    0    0  0.76172499843E-02  0.19373975161E+00  0.32186941610E+01  0.38480625276E+01  0.21000000000E+01 0.  1.
</event>
<event>
 5   0  0.7462600E-02  0.9118800E+02  0.7818608E-02  0.1180000E+00
       11   -1    0    0    0    0  0.00000000000E+00  0.00000000000E+00  0.39999999673E+01  0.40000000000E+01  0.51109989000E-03 0.  1.
     -623   -1    0    0    0    0  0.00000000000E+00  0.00000000000E+00  0.12525980253E-10  0.17130000000E+03  0.17130000000E+03 0. -1.
       11    1    1    2    0    0  0.79861498108E-01 -0.44568876504E+00  0.73893302365E+00  0.86662483741E+00  0.51109989000E-03 0.  1.
     -623    1    1    2    0    0 -0.13078181891E+00  0.47945935724E+00  0.94080627137E+00  0.17130330441E+03  0.17130000000E+03 0. -1.
      622    1    1    2    0    0  0.50920320806E-01 -0.33770592206E-01  0.23202606723E+01  0.31300707531E+01  0.21000000000E+01 0.  1.
</event>
<event>
 5   0  0.7462600E-02  0.9118800E+02  0.7818608E-02  0.1180000E+00
       11   -1    0    0    0    0  0.00000000000E+00  0.00000000000E+00  0.39999999673E+01  0.40000000000E+01  0.51109989000E-03 0.  1.
     -623   -1    0    0    0    0  0.00000000000E+00  0.00000000000E+00  0.12525980253E-10  0.17130000000E+03  0.17130000000E+03 0. -1.
       11    1    1    2    0    0 -0.10837083923E+00 -0.21283891766E+00  0.33060026985E+00  0.40784978033E+00  0.51109989000E-03 0.  1.
     -623    1    1    2    0    0  0.45477518040E-01  0.25316388844E+00  0.75829686199E+00  0.17130187149E+03  0.17130000000E+03 0. -1.
      622    1    1    2    0    0  0.62893321189E-01 -0.40324970781E-01  0.29111028355E+01  0.35902787346E+01  0.21000000000E+01 0.  1.
</event>
<event>
 5   0  0.7462600E-02  0.9118800E+02  0.7818608E-02  0.1180000E+00
       11   -1    0    0    0    0  0.00000000000E+00  0.00000000000E+00  0.39999999673E+01  0.40000000000E+01  0.51109989000E-03 0.  1.
     -623   -1    0    0    0    0  0.00000000000E+00  0.00000000000E+00  0.12525980253E-10  0.17130000000E+03  0.17130000000E+03 0.  1.
       11    1    1    2    0    0  0.29361616386E+00  0.10553857205E+00  0.33606123146E+00  0.45856979227E+00  0.51109989000E-03 0.  1.
     -623    1    1    2    0    0 -0.20395085909E+00  0.54084041441E+00  0.89220114312E+00  0.17130329865E+03  0.17130000000E+03 0.  1.
      622    1    1    2    0    0 -0.89665304773E-01 -0.64637898646E+00  0.27717375928E+01  0.35381315612E+01  0.21000000000E+01 0.  1.
</event>
<event>
 5   0  0.7462600E-02  0.9118800E+02  0.7818608E-02  0.1180000E+00
       11   -1    0    0    0    0  0.00000000000E+00  0.00000000000E+00  0.39999999673E+01  0.40000000000E+01  0.51109989000E-03 0. -1.
     -623   -1    0    0    0    0  0.00000000000E+00  0.00000000000E+00  0.12525980253E-10  0.17130000000E+03  0.17130000000E+03 0. -1.
       11    1    1    2    0    0  0.19067517670E-01 -0.16429333992E+00  0.56522449950E-01  0.17478821569E+00  0.51109989000E-03 0. -1.
     -623    1    1    2    0    0 -0.20641975028E+00  0.52328376974E-01  0.75587017421E+00  0.17130180001E+03  0.17130000000E+03 0. -1.
      622    1    1    2    0    0  0.18735223261E+00  0.11196496294E+00  0.31876073432E+01  0.38234117731E+01  0.21000000000E+01 0. -1.
</event>
<event>
 5   0  0.7462600E-02  0.9118800E+02  0.7818608E-02  0.1180000E+00
       11   -1    0    0    0    0  0.00000000000E+00  0.00000000000E+00  0.39999999673E+01  0.40000000000E+01  0.51109989000E-03 0.  1.
     -623   -1    0    0    0    0  0.00000000000E+00  0.00000000000E+00  0.12525980253E-10  0.17130000000E+03  0.17130000000E+03 0.  1.
       11    1    1    2    0    0  0.63168623555E-01  0.36767320057E-02 -0.61311747253E-01  0.88108937880E-01  0.51109989000E-03 0.  1.
     -623    1    1    2    0    0  0.26142138745E+00 -0.32138820160E+00  0.79508418021E+00  0.17130234613E+03  0.17130000000E+03 0.  1.
      622    1    1    2    0    0 -0.32459001100E+00  0.31771146959E+00  0.32662275344E+01  0.39095449300E+01  0.21000000000E+01 0.  1.
</event>
<event>
 5   0  0.7462600E-02  0.9118800E+02  0.7818608E-02  0.1180000E+00
       11   -1    0    0    0    0  0.00000000000E+00  0.00000000000E+00  0.39999999673E+01  0.40000000000E+01  0.51109989000E-03 0.  1.
     -623   -1    0    0    0    0  0.00000000000E+00  0.00000000000E+00  0.12525980253E-10  0.17130000000E+03  0.17130000000E+03 0. -1.
       11    1    1    2    0    0 -0.13267398638E+00 -0.11717829821E+00  0.24721625386E+00  0.30405472801E+00  0.51109989000E-03 0.  1.
     -623    1    1    2    0    0  0.12775087093E+00  0.35860810432E+00  0.72338017771E+00  0.17130195037E+03  0.17130000000E+03 0. -1.
      622    1    1    2    0    0  0.49231154464E-02 -0.24142980611E+00  0.30294035358E+01  0.36939949067E+01  0.21000000000E+01 0.  1.
</event>
<event>
 5   0  0.7462600E-02  0.9118800E+02  0.7818608E-02  0.1180000E+00
       11   -1    0    0    0    0  0.00000000000E+00  0.00000000000E+00  0.39999999673E+01  0.40000000000E+01  0.51109989000E-03 0. -1.
     -623   -1    0    0    0    0  0.00000000000E+00  0.00000000000E+00  0.12525980253E-10  0.17130000000E+03  0.17130000000E+03 0.  1.
       11    1    1    2    0    0 -0.61138946922E-01 -0.63045556790E-01  0.57310123894E-01  0.10486860629E+00  0.51109989000E-03 0. -1.
     -623    1    1    2    0    0  0.11137168930E+00 -0.19075791196E+00  0.67410160964E+00  0.17130146878E+03  0.17130000000E+03 0.  1.
      622    1    1    2    0    0 -0.50232742374E-01  0.25380346875E+00  0.32685882338E+01  0.38936626165E+01  0.21000000000E+01 0. -1.
</event>
<event>
 5   0  0.7462600E-02  0.9118800E+02  0.7818608E-02  0.1180000E+00
       11   -1    0    0    0    0  0.00000000000E+00  0.00000000000E+00  0.39999999673E+01  0.40000000000E+01  0.51109989000E-03 0. -1.
     -623   -1    0    0    0    0  0.00000000000E+00  0.00000000000E+00  0.12525980253E-10  0.17130000000E+03  0.17130000000E+03 0. -1.
       11    1    1    2    0    0  0.34607285024E+00 -0.31631859633E+00  0.66501294365E+00  0.81367459620E+00  0.51109989000E-03 0. -1.
     -623    1    1    2    0    0 -0.48460831652E+00  0.10160683181E+01  0.10569338537E+01  0.17130695943E+03  0.17130000000E+03 0.  1.
      622    1    1    2    0    0  0.13853546628E+00 -0.69974972176E+00  0.22780531701E+01  0.31793659736E+01  0.21000000000E+01 0. -1.
</event>
<event>
 5   0  0.7462600E-02  0.9118800E+02  0.7818608E-02  0.1180000E+00
       11   -1    0    0    0    0  0.00000000000E+00  0.00000000000E+00  0.39999999673E+01  0.40000000000E+01  0.51109989000E-03 0. -1.
     -623   -1    0    0    0    0  0.00000000000E+00  0.00000000000E+00  0.12525980253E-10  0.17130000000E+03  0.17130000000E+03 0.  1.
       11    1    1    2    0    0 -0.51156774523E+00 -0.77742417787E-01  0.10633006424E+01  0.11825201727E+01  0.51109989000E-03 0. -1.
     -623    1    1    2    0    0  0.51000551080E+00 -0.47378160794E+00  0.11494278973E+01  0.17130527067E+03  0.17130000000E+03 0.  1.
      622    1    1    2    0    0  0.15622344319E-02  0.55152402573E+00  0.17872714277E+01  0.28122091579E+01  0.21000000000E+01 0. -1.
</event>
<event>
 5   0  0.7462600E-02  0.9118800E+02  0.7818608E-02  0.1180000E+00
       11   -1    0    0    0    0  0.00000000000E+00  0.00000000000E+00  0.39999999673E+01  0.40000000000E+01  0.51109989000E-03 0. -1.
     -623   -1    0    0    0    0  0.00000000000E+00  0.00000000000E+00  0.12525980253E-10  0.17130000000E+03  0.17130000000E+03 0. -1.
       11    1    1    2    0    0  0.11560397625E+00 -0.11876418156E+00  0.99730576129E-01  0.19343127768E+00  0.51109989000E-03 0. -1.
     -623    1    1    2    0    0 -0.34670814909E+00  0.54467859925E+00  0.76612593274E+00  0.17130293001E+03  0.17130000000E+03 0. -1.
      622    1    1    2    0    0  0.23110417284E+00 -0.42591441770E+00  0.31341434585E+01  0.38036387116E+01  0.21000000000E+01 0. -1.
</event>
<event>
 5   0  0.7462600E-02  0.9118800E+02  0.7818608E-02  0.1180000E+00
       11   -1    0    0    0    0  0.00000000000E+00  0.00000000000E+00  0.39999999673E+01  0.40000000000E+01  0.51109989000E-03 0. -1.
     -623   -1    0    0    0    0  0.00000000000E+00  0.00000000000E+00  0.12525980253E-10  0.17130000000E+03  0.17130000000E+03 0. -1.
       11    1    1    2    0    0  0.17413098728E+00  0.14822007077E+00  0.12459109157E+00  0.26041119682E+00  0.51109989000E-03 0. -1.
     -623    1    1    2    0    0 -0.14744728404E+00 -0.40463700474E-01  0.78538811854E+00  0.17130186868E+03  0.17130000000E+03 0. -1.
      622    1    1    2    0    0 -0.26683703233E-01 -0.10775637029E+00  0.30900207573E+01  0.37377201254E+01  0.21000000000E+01 0. -1.
</event>
<event>
 5   0  0.7462600E-02  0.9118800E+02  0.7818608E-02  0.1180000E+00
       11   -1    0    0    0    0  0.00000000000E+00  0.00000000000E+00  0.39999999673E+01  0.40000000000E+01  0.51109989000E-03 0. -1.
     -623   -1    0    0    0    0  0.00000000000E+00  0.00000000000E+00  0.12525980253E-10  0.17130000000E+03  0.17130000000E+03 0. -1.
       11    1    1    2    0    0 -0.94804638976E-01 -0.35090628382E-01 -0.55703641170E-01  0.11542282544E+00  0.51109989000E-03 0. -1.
     -623    1    1    2    0    0  0.35598875464E+00 -0.41920567315E+00  0.83347862416E+00  0.17130291051E+03  0.17130000000E+03 0. -1.
      622    1    1    2    0    0 -0.26118411567E+00  0.45429630153E+00  0.32222249844E+01  0.38816666680E+01  0.21000000000E+01 0. -1.
</event>
<event>
 5   0  0.7462600E-02  0.9118800E+02  0.7818608E-02  0.1180000E+00
       11   -1    0    0    0    0  0.00000000000E+00  0.00000000000E+00  0.39999999673E+01  0.40000000000E+01  0.51109989000E-03 0. -1.
     -623   -1    0    0    0    0  0.00000000000E+00  0.00000000000E+00  0.12525980253E-10  0.17130000000E+03  0.17130000000E+03 0.  1.
       11    1    1    2    0    0  0.11187688808E+00  0.36509782857E-01  0.70300970729E-01  0.13708351483E+00  0.51109989000E-03 0. -1.
     -623    1    1    2    0    0 -0.63443440589E-01 -0.16848522927E+00  0.69228890027E+00  0.17130149350E+03  0.17130000000E+03 0.  1.
      622    1    1    2    0    0 -0.48433447490E-01  0.13197544641E+00  0.32374100964E+01  0.38614229824E+01  0.21000000000E+01 0. -1.
</event>
<event>
 5   0  0.7462600E-02  0.9118800E+02  0.7818608E-02  0.1180000E+00
       11   -1    0    0    0    0  0.00000000000E+00  0.00000000000E+00  0.39999999673E+01  0.40000000000E+01  0.51109989000E-03 0.  1.
     -623   -1    0    0    0    0  0.00000000000E+00  0.00000000000E+00  0.12525980253E-10  0.17130000000E+03  0.17130000000E+03 0. -1.
       11    1    1    2    0    0 -0.14062182860E+00 -0.14177987399E+00 -0.40061331551E-02  0.19973067284E+00  0.51109989000E-03 0.  1.
     -623    1    1    2    0    0 -0.49229155215E+00  0.68822001670E-01  0.90521692060E+00  0.17130311295E+03  0.17130000000E+03 0. -1.
      622    1    1    2    0    0  0.63291338076E+00  0.72957872315E-01  0.30987891799E+01  0.37971563808E+01  0.21000000000E+01 0.  1.
</event>
<event>
 5   0  0.7462600E-02  0.9118800E+02  0.7818608E-02  0.1180000E+00
       11   -1    0    0    0    0  0.00000000000E+00  0.00000000000E+00  0.39999999673E+01  0.40000000000E+01  0.51109989000E-03 0.  1.
     -623   -1    0    0    0    0  0.00000000000E+00  0.00000000000E+00  0.12525980253E-10  0.17130000000E+03  0.17130000000E+03 0.  1.
       11    1    1    2    0    0 -0.11442650197E+00  0.42489262315E-01 -0.65531619775E-01  0.13854030525E+00  0.51109989000E-03 0.  1.
     -623    1    1    2    0    0 -0.11713830679E+00 -0.26617505675E+00  0.84384556175E+00  0.17130232528E+03  0.17130000000E+03 0.  1.
      622    1    1    2    0    0  0.23156480877E+00  0.22368579443E+00  0.32216860254E+01  0.38591344161E+01  0.21000000000E+01 0.  1.
</event>
<event>
 5   0  0.7462600E-02  0.9118800E+02  0.7818608E-02  0.1180000E+00
       11   -1    0    0    0    0  0.00000000000E+00  0.00000000000E+00  0.39999999673E+01  0.40000000000E+01  0.51109989000E-03 0.  1.
     -623   -1    0    0    0    0  0.00000000000E+00  0.00000000000E+00  0.12525980253E-10  0.17130000000E+03  0.17130000000E+03 0. -1.
       11    1    1    2    0    0 -0.38599400221E-02 -0.18280132693E+00  0.25655712922E+00  0.31504451438E+00  0.51109989000E-03 0.  1.
     -623    1    1    2    0    0  0.10200615111E+00  0.20072807067E+00  0.71908642345E+00  0.17130165727E+03  0.17130000000E+03 0. -1.
      622    1    1    2    0    0 -0.98146211083E-01 -0.17926743743E-01  0.30243564147E+01  0.36832982190E+01  0.21000000000E+01 0.  1.
</event>
<event>
 5   0  0.7462600E-02  0.9118800E+02  0.7818608E-02  0.1180000E+00
       11   -1    0    0    0    0  0.00000000000E+00  0.00000000000E+00  0.39999999673E+01  0.40000000000E+01  0.51109989000E-03 0. -1.
     -623   -1    0    0    0    0  0.00000000000E+00  0.00000000000E+00  0.12525980253E-10  0.17130000000E+03  0.17130000000E+03 0. -1.
       11    1    1    2    0    0 -0.17662715044E-01 -0.13429390987E+00 -0.19855847759E-01  0.13689901988E+00  0.51109989000E-03 0. -1.
     -623    1    1    2    0    0  0.31947336782E+00  0.15897382957E+00  0.79421499524E+00  0.17130221281E+03  0.17130000000E+03 0. -1.
      622    1    1    2    0    0 -0.30181065278E+00 -0.24679919702E-01  0.32256408199E+01  0.38608881708E+01  0.21000000000E+01 0. -1.
</event>
<event>
 5   0  0.7462600E-02  0.9118800E+02  0.7818608E-02  0.1180000E+00
       11   -1    0    0    0    0  0.00000000000E+00  0.00000000000E+00  0.39999999673E+01  0.40000000000E+01  0.51109989000E-03 0. -1.
     -623   -1    0    0    0    0  0.00000000000E+00  0.00000000000E+00  0.12525980253E-10  0.17130000000E+03  0.17130000000E+03 0. -1.
       11    1    1    2    0    0  0.14721366564E+00  0.41034178973E-01  0.42845911771E-01  0.15871893577E+00  0.51109989000E-03 0. -1.
     -623    1    1    2    0    0  0.84413773359E-01  0.25400486640E+00  0.76497364990E+00  0.17130191718E+03  0.17130000000E+03 0. -1.
      622    1    1    2    0    0 -0.23162743900E+00 -0.29503904537E+00  0.31921804057E+01  0.38393638863E+01  0.21000000000E+01 0. -1.
</event>
<event>
 5   0  0.7462600E-02  0.9118800E+02  0.7818608E-02  0.1180000E+00
       11   -1    0    0    0    0  0.00000000000E+00  0.00000000000E+00  0.39999999673E+01  0.40000000000E+01  0.51109989000E-03 0.  1.
     -623   -1    0    0    0    0  0.00000000000E+00  0.00000000000E+00  0.12525980253E-10  0.17130000000E+03  0.17130000000E+03 0.  1.
       11    1    1    2    0    0 -0.19430636997E-01 -0.14524154772E+00  0.10875152412E+00  0.18248236095E+00  0.51109989000E-03 0.  1.
     -623    1    1    2    0    0 -0.19115338871E+00  0.49333564663E+00  0.73217475346E+00  0.17130238177E+03  0.17130000000E+03 0.  1.
      622    1    1    2    0    0  0.21058402571E+00 -0.34809409891E+00  0.31590736898E+01  0.38151358706E+01  0.21000000000E+01 0.  1.
</event>
<event>
 5   0  0.7462600E-02  0.9118800E+02  0.7818608E-02  0.1180000E+00
       11   -1    0    0    0    0  0.00000000000E+00  0.00000000000E+00  0.39999999673E+01  0.40000000000E+01  0.51109989000E-03 0.  1.
     -623   -1    0    0    0    0  0.00000000000E+00  0.00000000000E+00  0.12525980253E-10  0.17130000000E+03  0.17130000000E+03 0. -1.
       11    1    1    2    0    0 -0.11009150519E+00 -0.23349563870E+00  0.18502748913E-01  0.25881067549E+00  0.51109989000E-03 0.  1.
     -623    1    1    2    0    0 -0.17155631863E+00  0.23789066466E+00  0.90131232016E+00  0.17130262224E+03  0.17130000000E+03 0. -1.
      622    1    1    2    0    0  0.28164782382E+00 -0.43950259609E-02  0.30801848983E+01  0.37385670812E+01  0.21000000000E+01 0.  1.
</event>
<event>
 5   0  0.7462600E-02  0.9118800E+02  0.7818608E-02  0.1180000E+00
       11   -1    0    0    0    0  0.00000000000E+00  0.00000000000E+00  0.39999999673E+01  0.40000000000E+01  0.51109989000E-03 0.  1.
     -623   -1    0    0    0    0  0.00000000000E+00  0.00000000000E+00  0.12525980253E-10  0.17130000000E+03  0.17130000000E+03 0. -1.
       11    1    1    2    0    0  0.41877127742E-01 -0.64664289349E-01  0.30948417528E-01  0.83025477505E-01  0.51109989000E-03 0.  1.
     -623    1    1    2    0    0  0.12940945844E+00  0.49948542107E+00  0.69841792569E+00  0.17130220086E+03  0.17130000000E+03 0. -1.
      622    1    1    2    0    0 -0.17128658618E+00 -0.43482113172E+00  0.32706336241E+01  0.39147736607E+01  0.21000000000E+01 0.  1.
</event>
<event>
 5   0  0.7462600E-02  0.9118800E+02  0.7818608E-02  0.1180000E+00
       11   -1    0    0    0    0  0.00000000000E+00  0.00000000000E+00  0.39999999673E+01  0.40000000000E+01  0.51109989000E-03 0. -1.
     -623   -1    0    0    0    0  0.00000000000E+00  0.00000000000E+00  0.12525980253E-10  0.17130000000E+03  0.17130000000E+03 0.  1.
       11    1    1    2    0    0  0.62749070314E+00 -0.20403826240E+00  0.79430389380E+00  0.10326156749E+01  0.51109989000E-03 0. -1.
     -623    1    1    2    0    0 -0.64442008255E+00  0.51920968022E+00  0.11413915537E+01  0.17130580151E+03  0.17130000000E+03 0.  1.
      622    1    1    2    0    0  0.16929379408E-01 -0.31517141782E+00  0.20643045199E+01  0.29615828162E+01  0.21000000000E+01 0. -1.
</event>
<event>
 5   0  0.7462600E-02  0.9118800E+02  0.7818608E-02  0.1180000E+00
       11   -1    0    0    0    0  0.00000000000E+00  0.00000000000E+00  0.39999999673E+01  0.40000000000E+01  0.51109989000E-03 0. -1.
     -623   -1    0    0    0    0  0.00000000000E+00  0.00000000000E+00  0.12525980253E-10  0.17130000000E+03  0.17130000000E+03 0. -1.
       11    1    1    2    0    0 -0.17135997288E+00  0.22620283918E+00  0.21147095280E+00  0.35390986121E+00  0.51109989000E-03 0. -1.
     -623    1    1    2    0    0  0.19803114189E+00 -0.11097505909E+00  0.81282244091E+00  0.17130207883E+03  0.17130000000E+03 0. -1.
      622    1    1    2    0    0 -0.26671169012E-01 -0.11522778009E+00  0.29757065737E+01  0.36440113069E+01  0.21000000000E+01 0. -1.
</event>
<event>
 5   0  0.7462600E-02  0.9118800E+02  0.7818608E-02  0.1180000E+00
       11   -1    0    0    0    0  0.00000000000E+00  0.00000000000E+00  0.39999999673E+01  0.40000000000E+01  0.51109989000E-03 0.  1.
     -623   -1    0    0    0    0  0.00000000000E+00  0.00000000000E+00  0.12525980253E-10  0.17130000000E+03  0.17130000000E+03 0.  1.
       11    1    1    2    0    0  0.18674977378E-01  0.61120817012E-02 -0.61521834821E-01  0.64585677249E-01  0.51109989000E-03 0.  1.
     -623    1    1    2    0    0 -0.46656683980E+00  0.67745539805E-01  0.76716266966E+00  0.17130236663E+03  0.17130000000E+03 0.  1.
      622    1    1    2    0    0  0.44789186242E+00 -0.73857621507E-01  0.32943591325E+01  0.39330476939E+01  0.21000000000E+01 0.  1.
</event>
<event>
 5   0  0.7462600E-02  0.9118800E+02  0.7818608E-02  0.1180000E+00
       11   -1    0    0    0    0  0.00000000000E+00  0.00000000000E+00  0.39999999673E+01  0.40000000000E+01  0.51109989000E-03 0. -1.
     -623   -1    0    0    0    0  0.00000000000E+00  0.00000000000E+00  0.12525980253E-10  0.17130000000E+03  0.17130000000E+03 0. -1.
       11    1    1    2    0    0 -0.72177520535E-02  0.10949591245E+00 -0.85415863773E-01  0.13905963395E+00  0.51109989000E-03 0. -1.
     -623    1    1    2    0    0  0.12791179266E-01 -0.24463336779E+00  0.85108529035E+00  0.17130228940E+03  0.17130000000E+03 0. -1.
      622    1    1    2    0    0 -0.55734272124E-02  0.13513745534E+00  0.32343305408E+01  0.38586509614E+01  0.21000000000E+01 0. -1.
</event>
<event>
 5   0  0.7462600E-02  0.9118800E+02  0.7818608E-02  0.1180000E+00
       11   -1    0    0    0    0  0.00000000000E+00  0.00000000000E+00  0.39999999673E+01  0.40000000000E+01  0.51109989000E-03 0. -1.
     -623   -1    0    0    0    0  0.00000000000E+00  0.00000000000E+00  0.12525980253E-10  0.17130000000E+03  0.17130000000E+03 0. -1.
       11    1    1    2    0    0 -0.26346228148E+00  0.34658758389E-01  0.21720187039E+00  0.34320623103E+00  0.51109989000E-03 0. -1.
     -623    1    1    2    0    0  0.48204126946E-01 -0.71993485959E-01  0.79940874693E+00  0.17130188721E+03  0.17130000000E+03 0. -1.
      622    1    1    2    0    0  0.21525815454E+00  0.37334727570E-01  0.29833893500E+01  0.36549065609E+01  0.21000000000E+01 0. -1.
</event>
<event>
 5   0  0.7462600E-02  0.9118800E+02  0.7818608E-02  0.1180000E+00
       11   -1    0    0    0    0  0.00000000000E+00  0.00000000000E+00  0.39999999673E+01  0.40000000000E+01  0.51109989000E-03 0. -1.
     -623   -1    0    0    0    0  0.00000000000E+00  0.00000000000E+00  0.12525980253E-10  0.17130000000E+03  0.17130000000E+03 0. -1.
       11    1    1    2    0    0 -0.12075449470E+00  0.21945968764E-01 -0.25949752717E-01  0.12544689882E+00  0.51109989000E-03 0. -1.
     -623    1    1    2    0    0  0.32714760311E+00 -0.93548447176E-01  0.77971009818E+00  0.17130211244E+03  0.17130000000E+03 0. -1.
      622    1    1    2    0    0 -0.20639310841E+00  0.71602478412E-01  0.32462396219E+01  0.38724406662E+01  0.21000000000E+01 0. -1.
</event>
<event>
 5   0  0.7462600E-02  0.9118800E+02  0.7818608E-02  0.1180000E+00
       11   -1    0    0    0    0  0.00000000000E+00  0.00000000000E+00  0.39999999673E+01  0.40000000000E+01  0.51109989000E-03 0. -1.
     -623   -1    0    0    0    0  0.00000000000E+00  0.00000000000E+00  0.12525980253E-10  0.17130000000E+03  0.17130000000E+03 0.  1.
       11    1    1    2    0    0  0.21988713258E+00 -0.37290584704E-01 -0.30678874136E-01  0.22512750459E+00  0.51109989000E-03 0. -1.
     -623    1    1    2    0    0  0.85091957089E-01 -0.17684597037E-01  0.91216443657E+00  0.17130245065E+03  0.17130000000E+03 0.  1.
      622    1    1    2    0    0 -0.30497908967E+00  0.54975181741E-01  0.31185144049E+01  0.37724218494E+01  0.21000000000E+01 0. -1.
</event>
<event>
 5   0  0.7462600E-02  0.9118800E+02  0.7818608E-02  0.1180000E+00
       11   -1    0    0    0    0  0.00000000000E+00  0.00000000000E+00  0.39999999673E+01  0.40000000000E+01  0.51109989000E-03 0.  1.
     -623   -1    0    0    0    0  0.00000000000E+00  0.00000000000E+00  0.12525980253E-10  0.17130000000E+03  0.17130000000E+03 0. -1.
       11    1    1    2    0    0 -0.46186395345E-01  0.60930979021E-02 -0.54828570336E-01  0.71949581689E-01  0.51109989000E-03 0.  1.
     -623    1    1    2    0    0 -0.20648207271E+00 -0.33334408820E+00  0.76366587938E+00  0.17130215100E+03  0.17130000000E+03 0. -1.
      622    1    1    2    0    0  0.25266846806E+00  0.32725099030E+00  0.32911626583E+01  0.39258994140E+01  0.21000000000E+01 0.  1.
</event>
<event>
 5   0  0.7462600E-02  0.9118800E+02  0.7818608E-02  0.1180000E+00
       11   -1    0    0    0    0  0.00000000000E+00  0.00000000000E+00  0.39999999673E+01  0.40000000000E+01  0.51109989000E-03 0.  1.
     -623   -1    0    0    0    0  0.00000000000E+00  0.00000000000E+00  0.12525980253E-10  0.17130000000E+03  0.17130000000E+03 0. -1.
       11    1    1    2    0    0 -0.11684087457E+00 -0.12823629517E+00  0.47763169005E+00  0.50816201149E+00  0.51109989000E-03 0.  1.
     -623    1    1    2    0    0  0.13741846709E+00  0.50175921258E+00  0.76090544132E+00  0.17130247991E+03  0.17130000000E+03 0. -1.
      622    1    1    2    0    0 -0.20577592526E-01 -0.37352291741E+00  0.27614628360E+01  0.34893580787E+01  0.21000000000E+01 0.  1.
</event>
<event>
 5   0  0.7462600E-02  0.9118800E+02  0.7818608E-02  0.1180000E+00
       11   -1    0    0    0    0  0.00000000000E+00  0.00000000000E+00  0.39999999673E+01  0.40000000000E+01  0.51109989000E-03 0.  1.
     -623   -1    0    0    0    0  0.00000000000E+00  0.00000000000E+00  0.12525980253E-10  0.17130000000E+03  0.17130000000E+03 0.  1.
       11    1    1    2    0    0  0.26419530016E+00 -0.25347463567E+00  0.12062248551E+00  0.38548488010E+00  0.51109989000E-03 0.  1.
     -623    1    1    2    0    0  0.16141430070E+00  0.29970846345E-01  0.98062410794E+00  0.17130288549E+03  0.17130000000E+03 0.  1.
      622    1    1    2    0    0 -0.42560960086E+00  0.22350378933E+00  0.28987533739E+01  0.36116296320E+01  0.21000000000E+01 0.  1.
</event>
<event>
 5   0  0.7462600E-02  0.9118800E+02  0.7818608E-02  0.1180000E+00
       11   -1    0    0    0    0  0.00000000000E+00  0.00000000000E+00  0.39999999673E+01  0.40000000000E+01  0.51109989000E-03 0.  1.
     -623   -1    0    0    0    0  0.00000000000E+00  0.00000000000E+00  0.12525980253E-10  0.17130000000E+03  0.17130000000E+03 0. -1.
       11    1    1    2    0    0 -0.16890462817E+00 -0.82114466054E-01  0.39936580353E+00  0.44132172528E+00  0.51109989000E-03 0.  1.
     -623    1    1    2    0    0  0.71049176922E-01  0.50916804541E-01  0.73142313041E+00  0.17130158382E+03  0.17130000000E+03 0. -1.
      622    1    1    2    0    0  0.97855451249E-01  0.31197661513E-01  0.28692110334E+01  0.35570944516E+01  0.21000000000E+01 0.  1.
</event>
<event>
 5   0  0.7462600E-02  0.9118800E+02  0.7818608E-02  0.1180000E+00
       11   -1    0    0    0    0  0.00000000000E+00  0.00000000000E+00  0.39999999673E+01  0.40000000000E+01  0.51109989000E-03 0.  1.
     -623   -1    0    0    0    0  0.00000000000E+00  0.00000000000E+00  0.12525980253E-10  0.17130000000E+03  0.17130000000E+03 0. -1.
       11    1    1    2    0    0  0.41362928188E-01 -0.44127599196E-01 -0.38718008287E-01  0.71815612703E-01  0.51109989000E-03 0.  1.
     -623    1    1    2    0    0  0.29476649644E+00  0.23844876608E+00  0.74419270448E+00  0.17130203609E+03  0.17130000000E+03 0. -1.
      622    1    1    2    0    0 -0.33612942463E+00 -0.19432116689E+00  0.32945252712E+01  0.39261482993E+01  0.21000000000E+01 0.  1.
</event>
<event>
 5   0  0.7462600E-02  0.9118800E+02  0.7818608E-02  0.1180000E+00
       11   -1    0    0    0    0  0.00000000000E+00  0.00000000000E+00  0.39999999673E+01  0.40000000000E+01  0.51109989000E-03 0. -1.
     -623   -1    0    0    0    0  0.00000000000E+00  0.00000000000E+00  0.12525980253E-10  0.17130000000E+03  0.17130000000E+03 0.  1.
       11    1    1    2    0    0  0.40714283567E-02 -0.20890820786E+00  0.17361395197E+00  0.27166391256E+00  0.51109989000E-03 0. -1.
     -623    1    1    2    0    0 -0.60245471446E-01  0.14148447725E+00  0.74903888458E+00  0.17130170667E+03  0.17130000000E+03 0.  1.
      622    1    1    2    0    0  0.56174043090E-01  0.67423730611E-01  0.30773471308E+01  0.37266294216E+01  0.21000000000E+01 0. -1.
</event>
<event>
 5   0  0.7462600E-02  0.9118800E+02  0.7818608E-02  0.1180000E+00
       11   -1    0    0    0    0  0.00000000000E+00  0.00000000000E+00  0.39999999673E+01  0.40000000000E+01  0.51109989000E-03 0. -1.
     -623   -1    0    0    0    0  0.00000000000E+00  0.00000000000E+00  0.12525980253E-10  0.17130000000E+03  0.17130000000E+03 0. -1.
       11    1    1    2    0    0 -0.31629771496E-01 -0.81031735125E-01 -0.10702271151E+00  0.13791557760E+00  0.51109989000E-03 0. -1.
     -623    1    1    2    0    0 -0.43783648589E+00  0.18374221637E+00  0.90527351651E+00  0.17130305013E+03  0.17130000000E+03 0. -1.
      622    1    1    2    0    0  0.46946625739E+00 -0.10271048124E+00  0.32017491624E+01  0.38590342974E+01  0.21000000000E+01 0. -1.
</event>
<event>
 5   0  0.7462600E-02  0.9118800E+02  0.7818608E-02  0.1180000E+00
       11   -1    0    0    0    0  0.00000000000E+00  0.00000000000E+00  0.39999999673E+01  0.40000000000E+01  0.51109989000E-03 0.  1.
     -623   -1    0    0    0    0  0.00000000000E+00  0.00000000000E+00  0.12525980253E-10  0.17130000000E+03  0.17130000000E+03 0.  1.
       11    1    1    2    0    0  0.34835279056E+00 -0.85240158920E-01  0.17606572279E+00  0.39951839926E+00  0.51109989000E-03 0.  1.
     -623    1    1    2    0    0  0.13986654753E+00  0.34349120674E+00  0.95577561122E+00  0.17130306785E+03  0.17130000000E+03 0.  1.
      622    1    1    2    0    0 -0.48821933808E+00 -0.25825104782E+00  0.28681586333E+01  0.35974137477E+01  0.21000000000E+01 0.  1.
</event>
<event>
 5   0  0.7462600E-02  0.9118800E+02  0.7818608E-02  0.1180000E+00
       11   -1    0    0    0    0  0.00000000000E+00  0.00000000000E+00  0.39999999673E+01  0.40000000000E+01  0.51109989000E-03 0.  1.
     -623   -1    0    0    0    0  0.00000000000E+00  0.00000000000E+00  0.12525980253E-10  0.17130000000E+03  0.17130000000E+03 0. -1.
       11    1    1    2    0    0  0.78161901208E-02  0.21108680269E-01  0.65262095311E-02  0.23441882231E-01  0.51109989000E-03 0.  1.
     -623    1    1    2    0    0 -0.31661734529E+00 -0.27289700161E+00  0.64226050254E+00  0.17130171400E+03  0.17130000000E+03 0. -1.
      622    1    1    2    0    0  0.30880115517E+00  0.25178832134E+00  0.33512132553E+01  0.39748441221E+01  0.21000000000E+01 0.  1.
</event>
<event>
 5   0  0.7462600E-02  0.9118800E+02  0.7818608E-02  0.1180000E+00
       11   -1    0    0    0    0  0.00000000000E+00  0.00000000000E+00  0.39999999673E+01  0.40000000000E+01  0.51109989000E-03 0.  1.
     -623   -1    0    0    0    0  0.00000000000E+00  0.00000000000E+00  0.12525980253E-10  0.17130000000E+03  0.17130000000E+03 0. -1.
       11    1    1    2    0    0  0.99067575882E-01  0.23402459781E+00 -0.47784863046E-01  0.25858374143E+00  0.51109989000E-03 0.  1.
     -623    1    1    2    0    0 -0.57297702142E+00 -0.26998750334E+00  0.99294736902E+00  0.17130404881E+03  0.17130000000E+03 0. -1.
      622    1    1    2    0    0  0.47390944554E+00  0.35962905534E-01  0.30548374614E+01  0.37373674436E+01  0.21000000000E+01 0.  1.
</event>
<event>
 5   0  0.7462600E-02  0.9118800E+02  0.7818608E-02  0.1180000E+00
       11   -1    0    0    0    0  0.00000000000E+00  0.00000000000E+00  0.39999999673E+01  0.40000000000E+01  0.51109989000E-03 0.  1.
     -623   -1    0    0    0    0  0.00000000000E+00  0.00000000000E+00  0.12525980253E-10  0.17130000000E+03  0.17130000000E+03 0. -1.
       11    1    1    2    0    0  0.18811784802E+00  0.10584938486E+00  0.26806224540E+00  0.34416572411E+00  0.51109989000E-03 0.  1.
     -623    1    1    2    0    0  0.12266037600E+00  0.28089299737E-01  0.76075695000E+00  0.17130173550E+03  0.17130000000E+03 0. -1.
      622    1    1    2    0    0 -0.31077822402E+00 -0.13393868460E+00  0.29711807720E+01  0.36540987747E+01  0.21000000000E+01 0.  1.
</event>
<event>
 5   0  0.7462600E-02  0.9118800E+02  0.7818608E-02  0.1180000E+00
       11   -1    0    0    0    0  0.00000000000E+00  0.00000000000E+00  0.39999999673E+01  0.40000000000E+01  0.51109989000E-03 0.  1.
     -623   -1    0    0    0    0  0.00000000000E+00  0.00000000000E+00  0.12525980253E-10  0.17130000000E+03  0.17130000000E+03 0.  1.
       11    1    1    2    0    0  0.36899445133E+00  0.18740950039E+00  0.58005568193E+00  0.71256163334E+00  0.51109989000E-03 0.  1.
     -623    1    1    2    0    0 -0.28339007421E+00 -0.23327388804E+00  0.89609180358E+00  0.17130273701E+03  0.17130000000E+03 0.  1.
      622    1    1    2    0    0 -0.85604377125E-01  0.45864387651E-01  0.25238524819E+01  0.32847013565E+01  0.21000000000E+01 0.  1.
</event>
<event>
 5   0  0.7462600E-02  0.9118800E+02  0.7818608E-02  0.1180000E+00
       11   -1    0    0    0    0  0.00000000000E+00  0.00000000000E+00  0.39999999673E+01  0.40000000000E+01  0.51109989000E-03 0.  1.
     -623   -1    0    0    0    0  0.00000000000E+00  0.00000000000E+00  0.12525980253E-10  0.17130000000E+03  0.17130000000E+03 0.  1.
       11    1    1    2    0    0 -0.68217568513E-01  0.49827285332E-01  0.41690142205E-01  0.94205754588E-01  0.51109989000E-03 0.  1.
     -623    1    1    2    0    0  0.15886193310E-02 -0.19374580125E+00  0.67061019177E+00  0.17130142223E+03  0.17130000000E+03 0.  1.
      622    1    1    2    0    0  0.66628949182E-01  0.14391851592E+00  0.32876996334E+01  0.39043720155E+01  0.21000000000E+01 0.  1.
</event>
<event>
 5   0  0.7462600E-02  0.9118800E+02  0.7818608E-02  0.1180000E+00
       11   -1    0    0    0    0  0.00000000000E+00  0.00000000000E+00  0.39999999673E+01  0.40000000000E+01  0.51109989000E-03 0.  1.
     -623   -1    0    0    0    0  0.00000000000E+00  0.00000000000E+00  0.12525980253E-10  0.17130000000E+03  0.17130000000E+03 0.  1.
       11    1    1    2    0    0  0.22346693911E+00  0.73896911385E-02  0.10255144886E+00  0.24598605915E+00  0.51109989000E-03 0.  1.
     -623    1    1    2    0    0 -0.14396322330E+00 -0.17205756170E+00  0.79353394299E+00  0.17130198488E+03  0.17130000000E+03 0.  1.
      622    1    1    2    0    0 -0.79503715808E-01  0.16466787057E+00  0.31039145755E+01  0.37520290565E+01  0.21000000000E+01 0.  1.
</event>
<event>
 5   0  0.7462600E-02  0.9118800E+02  0.7818608E-02  0.1180000E+00
       11   -1    0    0    0    0  0.00000000000E+00  0.00000000000E+00  0.39999999673E+01  0.40000000000E+01  0.51109989000E-03 0.  1.
     -623   -1    0    0    0    0  0.00000000000E+00  0.00000000000E+00  0.12525980253E-10  0.17130000000E+03  0.17130000000E+03 0. -1.
       11    1    1    2    0    0 -0.22798978896E-01  0.15731263475E+00  0.18987845763E+00  0.24763107315E+00  0.51109989000E-03 0.  1.
     -623    1    1    2    0    0  0.87962958831E-01 -0.13252730907E+00  0.70302746283E+00  0.17130151648E+03  0.17130000000E+03 0. -1.
      622    1    1    2    0    0 -0.65163979935E-01 -0.24785325683E-01  0.31070940469E+01  0.37508524462E+01  0.21000000000E+01 0.  1.
</event>
<event>
 5   0  0.7462600E-02  0.9118800E+02  0.7818608E-02  0.1180000E+00
       11   -1    0    0    0    0  0.00000000000E+00  0.00000000000E+00  0.39999999673E+01  0.40000000000E+01  0.51109989000E-03 0.  1.
     -623   -1    0    0    0    0  0.00000000000E+00  0.00000000000E+00  0.12525980253E-10  0.17130000000E+03  0.17130000000E+03 0.  1.
       11    1    1    2    0    0  0.36581759050E-01 -0.14550856586E-01  0.13235241890E+00  0.13808467160E+00  0.51109989000E-03 0.  1.
     -623    1    1    2    0    0 -0.41270027834E+00  0.26260322626E+00  0.66044149445E+00  0.17130197157E+03  0.17130000000E+03 0.  1.
      622    1    1    2    0    0  0.37611851929E+00 -0.24805236967E+00  0.32072060540E+01  0.38599437550E+01  0.21000000000E+01 0.  1.
</event>
<event>
 5   0  0.7462600E-02  0.9118800E+02  0.7818608E-02  0.1180000E+00
       11   -1    0    0    0    0  0.00000000000E+00  0.00000000000E+00  0.39999999673E+01  0.40000000000E+01  0.51109989000E-03 0. -1.
     -623   -1    0    0    0    0  0.00000000000E+00  0.00000000000E+00  0.12525980253E-10  0.17130000000E+03  0.17130000000E+03 0.  1.
       11    1    1    2    0    0  0.22340243512E+00  0.26817791544E-01  0.41358028430E+00  0.47082560970E+00  0.51109989000E-03 0. -1.
     -623    1    1    2    0    0 -0.52332498044E-01 -0.48141612411E+00  0.79513016674E+00  0.17130252985E+03  0.17130000000E+03 0.  1.
      622    1    1    2    0    0 -0.17106993708E+00  0.45459833256E+00  0.27912895163E+01  0.35266445428E+01  0.21000000000E+01 0. -1.
</event>
<event>
 5   0  0.7462600E-02  0.9118800E+02  0.7818608E-02  0.1180000E+00
       11   -1    0    0    0    0  0.00000000000E+00  0.00000000000E+00  0.39999999673E+01  0.40000000000E+01  0.51109989000E-03 0. -1.
     -623   -1    0    0    0    0  0.00000000000E+00  0.00000000000E+00  0.12525980253E-10  0.17130000000E+03  0.17130000000E+03 0.  1.
       11    1    1    2    0    0 -0.92731991481E-01  0.12740024708E-01 -0.65889165597E-01  0.11446909556E+00  0.51109989000E-03 0. -1.
     -623    1    1    2    0    0  0.23981276771E+00 -0.46383402346E-01  0.80266633690E+00  0.17130205467E+03  0.17130000000E+03 0.  1.
      622    1    1    2    0    0 -0.14708077623E+00  0.33643377638E-01  0.32632227961E+01  0.38834762325E+01  0.21000000000E+01 0. -1.
</event>
<event>
 5   0  0.7462600E-02  0.9118800E+02  0.7818608E-02  0.1180000E+00
       11   -1    0    0    0    0  0.00000000000E+00  0.00000000000E+00  0.39999999673E+01  0.40000000000E+01  0.51109989000E-03 0.  1.
     -623   -1    0    0    0    0  0.00000000000E+00  0.00000000000E+00  0.12525980253E-10  0.17130000000E+03  0.17130000000E+03 0. -1.
       11    1    1    2    0    0 -0.19700361114E-01  0.10851465069E+00 -0.74041402143E-01  0.13283796180E+00  0.51109989000E-03 0.  1.
     -623    1    1    2    0    0 -0.14936992417E+00 -0.37845360397E+00  0.84547783928E+00  0.17130256966E+03  0.17130000000E+03 0. -1.
      622    1    1    2    0    0  0.16907028528E+00  0.26993895329E+00  0.32285635302E+01  0.38645923806E+01  0.21000000000E+01 0.  1.
</event>
<event>
 5   0  0.7462600E-02  0.9118800E+02  0.7818608E-02  0.1180000E+00
       11   -1    0    0    0    0  0.00000000000E+00  0.00000000000E+00  0.39999999673E+01  0.40000000000E+01  0.51109989000E-03 0. -1.
     -623   -1    0    0    0    0  0.00000000000E+00  0.00000000000E+00  0.12525980253E-10  0.17130000000E+03  0.17130000000E+03 0. -1.
       11    1    1    2    0    0  0.17673752574E+00  0.36829061857E+00 -0.12511213512E-01  0.40869416978E+00  0.51109989000E-03 0. -1.
     -623    1    1    2    0    0  0.79611333130E+00 -0.15357496871E-01  0.12981231009E+01  0.17130676915E+03  0.17130000000E+03 0. -1.
      622    1    1    2    0    0 -0.97285085704E+00 -0.35293312170E+00  0.27143880800E+01  0.35845366824E+01  0.21000000000E+01 0. -1.
</event>
<event>
 5   0  0.7462600E-02  0.9118800E+02  0.7818608E-02  0.1180000E+00
       11   -1    0    0    0    0  0.00000000000E+00  0.00000000000E+00  0.39999999673E+01  0.40000000000E+01  0.51109989000E-03 0.  1.
     -623   -1    0    0    0    0  0.00000000000E+00  0.00000000000E+00  0.12525980253E-10  0.17130000000E+03  0.17130000000E+03 0.  1.
       11    1    1    2    0    0  0.17347938021E+00  0.14493819073E-01  0.20490174237E+00  0.26886827890E+00  0.51109989000E-03 0.  1.
     -623    1    1    2    0    0 -0.38839017471E+00  0.23936866632E+00  0.73168158703E+00  0.17130217016E+03  0.17130000000E+03 0.  1.
      622    1    1    2    0    0  0.21491079450E+00 -0.25386248539E+00  0.30634166380E+01  0.37289615590E+01  0.21000000000E+01 0.  1.
</event>
<event>
 5   0  0.7462600E-02  0.9118800E+02  0.7818608E-02  0.1180000E+00
       11   -1    0    0    0    0  0.00000000000E+00  0.00000000000E+00  0.39999999673E+01  0.40000000000E+01  0.51109989000E-03 0. -1.
     -623   -1    0    0    0    0  0.00000000000E+00  0.00000000000E+00  0.12525980253E-10  0.17130000000E+03  0.17130000000E+03 0.  1.
       11    1    1    2    0    0 -0.15682652487E+00 -0.76359878082E-01  0.24748092274E+00  0.30277459971E+00  0.51109989000E-03 0. -1.
     -623    1    1    2    0    0 -0.32850223000E-01  0.19853924944E+00  0.71994386920E+00  0.17130163110E+03  0.17130000000E+03 0.  1.
      622    1    1    2    0    0  0.18967674787E+00 -0.12217937136E+00  0.30325751754E+01  0.36955943043E+01  0.21000000000E+01 0. -1.
</event>
<event>
 5   0  0.7462600E-02  0.9118800E+02  0.7818608E-02  0.1180000E+00
       11   -1    0    0    0    0  0.00000000000E+00  0.00000000000E+00  0.39999999673E+01  0.40000000000E+01  0.51109989000E-03 0.  1.
     -623   -1    0    0    0    0  0.00000000000E+00  0.00000000000E+00  0.12525980253E-10  0.17130000000E+03  0.17130000000E+03 0. -1.
       11    1    1    2    0    0  0.79270560539E-01  0.56293178197E-01  0.56447571592E-01  0.11242478926E+00  0.51109989000E-03 0.  1.
     -623    1    1    2    0    0 -0.21126917987E+00 -0.18628180735E+00  0.67909895976E+00  0.17130157767E+03  0.17130000000E+03 0. -1.
      622    1    1    2    0    0  0.13199861933E+00  0.12998862916E+00  0.32644534360E+01  0.38859975444E+01  0.21000000000E+01 0.  1.
</event>
<event>
 5   0  0.7462600E-02  0.9118800E+02  0.7818608E-02  0.1180000E+00
       11   -1    0    0    0    0  0.00000000000E+00  0.00000000000E+00  0.39999999673E+01  0.40000000000E+01  0.51109989000E-03 0. -1.
     -623   -1    0    0    0    0  0.00000000000E+00  0.00000000000E+00  0.12525980253E-10  0.17130000000E+03  0.17130000000E+03 0.  1.
       11    1    1    2    0    0 -0.20043704985E+00 -0.38781055099E-01  0.54541660918E+00  0.58237317931E+00  0.51109989000E-03 0. -1.
     -623    1    1    2    0    0  0.44971983600E+00 -0.13625317086E+00  0.77859755360E+00  0.17130241396E+03  0.17130000000E+03 0.  1.
      622    1    1    2    0    0 -0.24928278616E+00  0.17503422596E+00  0.26759858046E+01  0.34152128651E+01  0.21000000000E+01 0. -1.
</event>
<event>
 5   0  0.7462600E-02  0.9118800E+02  0.7818608E-02  0.1180000E+00
       11   -1    0    0    0    0  0.00000000000E+00  0.00000000000E+00  0.39999999673E+01  0.40000000000E+01  0.51109989000E-03 0. -1.
     -623   -1    0    0    0    0  0.00000000000E+00  0.00000000000E+00  0.12525980253E-10  0.17130000000E+03  0.17130000000E+03 0. -1.
       11    1    1    2    0    0  0.56021207954E+00 -0.28146232315E+00  0.77705564775E+00  0.99843595405E+00  0.51109989000E-03 0. -1.
     -623    1    1    2    0    0 -0.42587139530E+00  0.24917847191E+00  0.10886334698E+01  0.17130416977E+03  0.17130000000E+03 0. -1.
      622    1    1    2    0    0 -0.13434068424E+00  0.32283851236E-01  0.21343108498E+01  0.29973942800E+01  0.21000000000E+01 0. -1.
</event>
<event>
 5   0  0.7462600E-02  0.9118800E+02  0.7818608E-02  0.1180000E+00
       11   -1    0    0    0    0  0.00000000000E+00  0.00000000000E+00  0.39999999673E+01  0.40000000000E+01  0.51109989000E-03 0.  1.
     -623   -1    0    0    0    0  0.00000000000E+00  0.00000000000E+00  0.12525980253E-10  0.17130000000E+03  0.17130000000E+03 0.  1.
       11    1    1    2    0    0 -0.27063525656E-01  0.13520495552E+00  0.11923333370E+00  0.18229005323E+00  0.51109989000E-03 0.  1.
     -623    1    1    2    0    0  0.25801705716E+00 -0.89836992107E-01  0.70321574138E+00  0.17130166128E+03  0.17130000000E+03 0.  1.
      622    1    1    2    0    0 -0.23095353150E+00 -0.45367963417E-01  0.31775508923E+01  0.38160486709E+01  0.21000000000E+01 0.  1.
</event>
<event>
 5   0  0.7462600E-02  0.9118800E+02  0.7818608E-02  0.1180000E+00
       11   -1    0    0    0    0  0.00000000000E+00  0.00000000000E+00  0.39999999673E+01  0.40000000000E+01  0.51109989000E-03 0.  1.
     -623   -1    0    0    0    0  0.00000000000E+00  0.00000000000E+00  0.12525980253E-10  0.17130000000E+03  0.17130000000E+03 0. -1.
       11    1    1    2    0    0  0.46997551027E-01 -0.19253049989E-01  0.16646499656E+00  0.17404110444E+00  0.51109989000E-03 0.  1.
     -623    1    1    2    0    0 -0.35887554887E+00 -0.31007766573E+00  0.67012145398E+00  0.17130196731E+03  0.17130000000E+03 0. -1.
      622    1    1    2    0    0  0.31187799785E+00  0.32933071572E+00  0.31634135168E+01  0.38239915905E+01  0.21000000000E+01 0.  1.
</event>
<event>
 5   0  0.7462600E-02  0.9118800E+02  0.7818608E-02  0.1180000E+00
       11   -1    0    0    0    0  0.00000000000E+00  0.00000000000E+00  0.39999999673E+01  0.40000000000E+01  0.51109989000E-03 0.  1.
     -623   -1    0    0    0    0  0.00000000000E+00  0.00000000000E+00  0.12525980253E-10  0.17130000000E+03  0.17130000000E+03 0. -1.
       11    1    1    2    0    0  0.40150101769E-01  0.19462654650E+00  0.61737819026E+00  0.64857352267E+00  0.51109989000E-03 0.  1.
     -623    1    1    2    0    0  0.17771550978E+00 -0.47334009865E-01  0.78644376900E+00  0.17130190401E+03  0.17130000000E+03 0. -1.
      622    1    1    2    0    0 -0.21786561155E+00 -0.14729253663E+00  0.25961780081E+01  0.33495224683E+01  0.21000000000E+01 0.  1.
</event>
<event>
 5   0  0.7462600E-02  0.9118800E+02  0.7818608E-02  0.1180000E+00
       11   -1    0    0    0    0  0.00000000000E+00  0.00000000000E+00  0.39999999673E+01  0.40000000000E+01  0.51109989000E-03 0.  1.
     -623   -1    0    0    0    0  0.00000000000E+00  0.00000000000E+00  0.12525980253E-10  0.17130000000E+03  0.17130000000E+03 0. -1.
       11    1    1    2    0    0 -0.33024186645E-01 -0.97838887281E-01 -0.10166515358E+00  0.14491069470E+00  0.51109989000E-03 0.  1.
     -623    1    1    2    0    0 -0.11398206949E+00  0.69832443270E-01  0.87494957076E+00  0.17130228663E+03  0.17130000000E+03 0. -1.
      622    1    1    2    0    0  0.14700625613E+00  0.28006444012E-01  0.32267155502E+01  0.38528026736E+01  0.21000000000E+01 0.  1.
</event>
<event>
 5   0  0.7462600E-02  0.9118800E+02  0.7818608E-02  0.1180000E+00
       11   -1    0    0    0    0  0.00000000000E+00  0.00000000000E+00  0.39999999673E+01  0.40000000000E+01  0.51109989000E-03 0.  1.
     -623   -1    0    0    0    0  0.00000000000E+00  0.00000000000E+00  0.12525980253E-10  0.17130000000E+03  0.17130000000E+03 0.  1.
       11    1    1    2    0    0 -0.17930850691E+00 -0.40441737572E-01  0.22506304359E-01  0.18518604091E+00  0.51109989000E-03 0.  1.
     -623    1    1    2    0    0  0.17590294003E+00  0.15210665255E+00  0.79708871979E+00  0.17130201233E+03  0.17130000000E+03 0.  1.
      622    1    1    2    0    0  0.34055668863E-02 -0.11166491498E+00  0.31804049432E+01  0.38128016279E+01  0.21000000000E+01 0.  1.
</event>
<event>
 5   0  0.7462600E-02  0.9118800E+02  0.7818608E-02  0.1180000E+00
       11   -1    0    0    0    0  0.00000000000E+00  0.00000000000E+00  0.39999999673E+01  0.40000000000E+01  0.51109989000E-03 0.  1.
     -623   -1    0    0    0    0  0.00000000000E+00  0.00000000000E+00  0.12525980253E-10  0.17130000000E+03  0.17130000000E+03 0.  1.
       11    1    1    2    0    0  0.10879387789E+00 -0.30680484188E-01 -0.13530615790E-01  0.11384524041E+00  0.51109989000E-03 0.  1.
     -623    1    1    2    0    0 -0.15017215950E+00  0.22946433814E+00  0.75217597045E+00  0.17130187090E+03  0.17130000000E+03 0.  1.
      622    1    1    2    0    0  0.41378281606E-01 -0.19878385395E+00  0.32613546127E+01  0.38842838584E+01  0.21000000000E+01 0.  1.
</event>
<event>
 5   0  0.7462600E-02  0.9118800E+02  0.7818608E-02  0.1180000E+00
       11   -1    0    0    0    0  0.00000000000E+00  0.00000000000E+00  0.39999999673E+01  0.40000000000E+01  0.51109989000E-03 0.  1.
     -623   -1    0    0    0    0  0.00000000000E+00  0.00000000000E+00  0.12525980253E-10  0.17130000000E+03  0.17130000000E+03 0. -1.
       11    1    1    2    0    0  0.16177504090E+00 -0.31425948718E-02  0.90156923956E-01  0.18522843173E+00  0.51109989000E-03 0.  1.
     -623    1    1    2    0    0 -0.19534877342E+00 -0.11356057989E+00  0.72947342440E+00  0.17130170224E+03  0.17130000000E+03 0. -1.
      622    1    1    2    0    0  0.33573732528E-01  0.11670317476E+00  0.31803696190E+01  0.38130693332E+01  0.21000000000E+01 0.  1.
</event>
<event>
 5   0  0.7462600E-02  0.9118800E+02  0.7818608E-02  0.1180000E+00
       11   -1    0    0    0    0  0.00000000000E+00  0.00000000000E+00  0.39999999673E+01  0.40000000000E+01  0.51109989000E-03 0.  1.
     -623   -1    0    0    0    0  0.00000000000E+00  0.00000000000E+00  0.12525980253E-10  0.17130000000E+03  0.17130000000E+03 0. -1.
       11    1    1    2    0    0  0.15009155732E+00  0.10815461048E+00  0.34419336524E-01  0.18817504430E+00  0.51109989000E-03 0.  1.
     -623    1    1    2    0    0 -0.29081998507E+00 -0.23284464971E-01  0.79112237655E+00  0.17130207527E+03  0.17130000000E+03 0. -1.
      622    1    1    2    0    0  0.14072842775E+00 -0.84870145508E-01  0.31744582543E+01  0.38097496821E+01  0.21000000000E+01 0.  1.
</event>
<event>
 5   0  0.7462600E-02  0.9118800E+02  0.7818608E-02  0.1180000E+00
       11   -1    0    0    0    0  0.00000000000E+00  0.00000000000E+00  0.39999999673E+01  0.40000000000E+01  0.51109989000E-03 0.  1.
     -623   -1    0    0    0    0  0.00000000000E+00  0.00000000000E+00  0.12525980253E-10  0.17130000000E+03  0.17130000000E+03 0. -1.
       11    1    1    2    0    0  0.16484056487E+00 -0.59384118758E-01  0.24502777825E+00  0.30122708830E+00  0.51109989000E-03 0.  1.
     -623    1    1    2    0    0  0.44561462622E-02  0.13280197932E-01  0.71704024050E+00  0.17130150129E+03  0.17130000000E+03 0. -1.
      622    1    1    2    0    0 -0.16929671113E+00  0.46103920826E-01  0.30379319486E+01  0.36972716254E+01  0.21000000000E+01 0.  1.
</event>
<event>
 5   0  0.7462600E-02  0.9118800E+02  0.7818608E-02  0.1180000E+00
       11   -1    0    0    0    0  0.00000000000E+00  0.00000000000E+00  0.39999999673E+01  0.40000000000E+01  0.51109989000E-03 0.  1.
     -623   -1    0    0    0    0  0.00000000000E+00  0.00000000000E+00  0.12525980253E-10  0.17130000000E+03  0.17130000000E+03 0. -1.
       11    1    1    2    0    0  0.21344056393E+00  0.34352540423E-01  0.23012583989E+00  0.31574536382E+00  0.51109989000E-03 0.  1.
     -623    1    1    2    0    0 -0.29312494887E+00 -0.11722515130E+00  0.74723189070E+00  0.17130192065E+03  0.17130000000E+03 0. -1.
      622    1    1    2    0    0  0.79684384943E-01  0.82872610879E-01  0.30226422368E+01  0.36823339830E+01  0.21000000000E+01 0.  1.
</event>
<event>
 5   0  0.7462600E-02  0.9118800E+02  0.7818608E-02  0.1180000E+00
       11   -1    0    0    0    0  0.00000000000E+00  0.00000000000E+00  0.39999999673E+01  0.40000000000E+01  0.51109989000E-03 0. -1.
     -623   -1    0    0    0    0  0.00000000000E+00  0.00000000000E+00  0.12525980253E-10  0.17130000000E+03  0.17130000000E+03 0. -1.
       11    1    1    2    0    0 -0.26656224990E+00  0.87903079844E-01  0.24763745771E+00  0.37430863762E+00  0.51109989000E-03 0. -1.
     -623    1    1    2    0    0  0.19422428507E+00 -0.23478459909E+00  0.80394079365E+00  0.17130215751E+03  0.17130000000E+03 0. -1.
      622    1    1    2    0    0  0.72337964826E-01  0.14688151925E+00  0.29484217160E+01  0.36235338521E+01  0.21000000000E+01 0. -1.
</event>
<event>
 5   0  0.7462600E-02  0.9118800E+02  0.7818608E-02  0.1180000E+00
       11   -1    0    0    0    0  0.00000000000E+00  0.00000000000E+00  0.39999999673E+01  0.40000000000E+01  0.51109989000E-03 0.  1.
     -623   -1    0    0    0    0  0.00000000000E+00  0.00000000000E+00  0.12525980253E-10  0.17130000000E+03  0.17130000000E+03 0. -1.
       11    1    1    2    0    0  0.49145999543E-01 -0.82034702989E-01  0.65349490405E+00  0.66045504965E+00  0.51109989000E-03 0.  1.
     -623    1    1    2    0    0  0.26379787330E+00 -0.58071552701E-01  0.77515046546E+00  0.17130196677E+03  0.17130000000E+03 0. -1.
      622    1    1    2    0    0 -0.31294387284E+00  0.14010625569E+00  0.25713545978E+01  0.33375781786E+01  0.21000000000E+01 0. -1.
</event>
<event>
 5   0  0.7462600E-02  0.9118800E+02  0.7818608E-02  0.1180000E+00
       11   -1    0    0    0    0  0.00000000000E+00  0.00000000000E+00  0.39999999673E+01  0.40000000000E+01  0.51109989000E-03 0.  1.
     -623   -1    0    0    0    0  0.00000000000E+00  0.00000000000E+00  0.12525980253E-10  0.17130000000E+03  0.17130000000E+03 0. -1.
       11    1    1    2    0    0 -0.92743762104E-01 -0.50075559287E+00  0.12635349460E+00  0.52471233645E+00  0.51109989000E-03 0.  1.
     -623    1    1    2    0    0 -0.18472271403E+00  0.81368205388E+00  0.11437962024E+01  0.17130585066E+03  0.17130000000E+03 0. -1.
      622    1    1    2    0    0  0.27746647613E+00 -0.31292646101E+00  0.27298502704E+01  0.34694370025E+01  0.21000000000E+01 0.  1.
</event>
<event>
 5   0  0.7462600E-02  0.9118800E+02  0.7818608E-02  0.1180000E+00
       11   -1    0    0    0    0  0.00000000000E+00  0.00000000000E+00  0.39999999673E+01  0.40000000000E+01  0.51109989000E-03 0. -1.
     -623   -1    0    0    0    0  0.00000000000E+00  0.00000000000E+00  0.12525980253E-10  0.17130000000E+03  0.17130000000E+03 0.  1.
       11    1    1    2    0    0 -0.35537040440E+00  0.13689390056E+00  0.13647914228E+00  0.40454280594E+00  0.51109989000E-03 0. -1.
     -623    1    1    2    0    0 -0.14881551178E+00 -0.40687818131E+00  0.10060664092E+01  0.17130350220E+03  0.17130000000E+03 0.  1.
      622    1    1    2    0    0  0.50418591618E+00  0.26998428075E+00  0.28574544159E+01  0.35919549954E+01  0.21000000000E+01 0. -1.
</event>
<event>
 5   0  0.7462600E-02  0.9118800E+02  0.7818608E-02  0.1180000E+00
       11   -1    0    0    0    0  0.00000000000E+00  0.00000000000E+00  0.39999999673E+01  0.40000000000E+01  0.51109989000E-03 0.  1.
     -623   -1    0    0    0    0  0.00000000000E+00  0.00000000000E+00  0.12525980253E-10  0.17130000000E+03  0.17130000000E+03 0.  1.
       11    1    1    2    0    0 -0.52338857349E+00 -0.57964348441E+00 -0.54982754780E+00  0.95510876942E+00  0.51109989000E-03 0.  1.
     -623    1    1    2    0    0  0.72775674066E+00 -0.31913862209E+00  0.25793547955E+01  0.17132126123E+03  0.17130000000E+03 0.  1.
      622    1    1    2    0    0 -0.20436816717E+00  0.89878210650E+00  0.19704727197E+01  0.30236299975E+01  0.21000000000E+01 0.  0.
</event>
<event>
 5   0  0.7462600E-02  0.9118800E+02  0.7818608E-02  0.1180000E+00
       11   -1    0    0    0    0  0.00000000000E+00  0.00000000000E+00  0.39999999673E+01  0.40000000000E+01  0.51109989000E-03 0. -1.
     -623   -1    0    0    0    0  0.00000000000E+00  0.00000000000E+00  0.12525980253E-10  0.17130000000E+03  0.17130000000E+03 0. -1.
       11    1    1    2    0    0 -0.93872776223E-01 -0.46230530381E-01 -0.52960545622E-01  0.11727932755E+00  0.51109989000E-03 0. -1.
     -623    1    1    2    0    0 -0.75510968714E-01 -0.48792680129E-01  0.79515623890E+00  0.17130186910E+03  0.17130000000E+03 0. -1.
      622    1    1    2    0    0  0.16938374494E+00  0.95023210510E-01  0.32578042741E+01  0.38808515756E+01  0.21000000000E+01 0. -1.
</event>
<event>
 5   0  0.7462600E-02  0.9118800E+02  0.7818608E-02  0.1180000E+00
       11   -1    0    0    0    0  0.00000000000E+00  0.00000000000E+00  0.39999999673E+01  0.40000000000E+01  0.51109989000E-03 0. -1.
     -623   -1    0    0    0    0  0.00000000000E+00  0.00000000000E+00  0.12525980253E-10  0.17130000000E+03  0.17130000000E+03 0. -1.
       11    1    1    2    0    0  0.64170062503E-01  0.25899790612E-01 -0.18414834176E-02  0.69226067053E-01  0.51109989000E-03 0. -1.
     -623    1    1    2    0    0 -0.64496625270E-01  0.95375978472E-02  0.68084836056E+00  0.17130136545E+03  0.17130000000E+03 0. -1.
      622    1    1    2    0    0  0.32656276710E-03 -0.35437388459E-01  0.33209930902E+01  0.39294084823E+01  0.21000000000E+01 0. -1.
</event>
<event>
 5   0  0.7462600E-02  0.9118800E+02  0.7818608E-02  0.1180000E+00
       11   -1    0    0    0    0  0.00000000000E+00  0.00000000000E+00  0.39999999673E+01  0.40000000000E+01  0.51109989000E-03 0.  1.
     -623   -1    0    0    0    0  0.00000000000E+00  0.00000000000E+00  0.12525980253E-10  0.17130000000E+03  0.17130000000E+03 0. -1.
       11    1    1    2    0    0 -0.70534625589E-02 -0.40119872129E-01  0.13291090049E+00  0.13901411498E+00  0.51109989000E-03 0.  1.
     -623    1    1    2    0    0  0.20200933367E+00  0.18077746243E+00  0.63775510546E+00  0.17130140169E+03  0.17130000000E+03 0. -1.
      622    1    1    2    0    0 -0.19495587112E+00 -0.14065759030E+00  0.32293339614E+01  0.38595841983E+01  0.21000000000E+01 0.  1.
</event>
<event>
 5   0  0.7462600E-02  0.9118800E+02  0.7818608E-02  0.1180000E+00
       11   -1    0    0    0    0  0.00000000000E+00  0.00000000000E+00  0.39999999673E+01  0.40000000000E+01  0.51109989000E-03 0. -1.
     -623   -1    0    0    0    0  0.00000000000E+00  0.00000000000E+00  0.12525980253E-10  0.17130000000E+03  0.17130000000E+03 0.  1.
       11    1    1    2    0    0 -0.60170871492E-01  0.12814665792E+00  0.87449264695E-01  0.16640232820E+00  0.51109989000E-03 0. -1.
     -623    1    1    2    0    0  0.48917891697E-01 -0.34148083834E-01  0.70845976405E+00  0.17130147540E+03  0.17130000000E+03 0.  1.
      622    1    1    2    0    0  0.11252979795E-01 -0.93998574089E-01  0.32040909386E+01  0.38321222716E+01  0.21000000000E+01 0. -1.
</event>
<event>
 5   0  0.7462600E-02  0.9118800E+02  0.7818608E-02  0.1180000E+00
       11   -1    0    0    0    0  0.00000000000E+00  0.00000000000E+00  0.39999999673E+01  0.40000000000E+01  0.51109989000E-03 0.  1.
     -623   -1    0    0    0    0  0.00000000000E+00  0.00000000000E+00  0.12525980253E-10  0.17130000000E+03  0.17130000000E+03 0. -1.
       11    1    1    2    0    0 -0.39588868899E-01 -0.85993940036E-01  0.85126868606E-01  0.12731489011E+00  0.51109989000E-03 0.  1.
     -623    1    1    2    0    0  0.67230862966E-01 -0.26507326113E+00  0.68199910838E+00  0.17130157590E+03  0.17130000000E+03 0. -1.
      622    1    1    2    0    0 -0.27641994066E-01  0.35106720117E+00  0.32328739904E+01  0.38711092076E+01  0.21000000000E+01 0.  1.
</event>
<event>
 5   0  0.7462600E-02  0.9118800E+02  0.7818608E-02  0.1180000E+00
       11   -1    0    0    0    0  0.00000000000E+00  0.00000000000E+00  0.39999999673E+01  0.40000000000E+01  0.51109989000E-03 0.  1.
     -623   -1    0    0    0    0  0.00000000000E+00  0.00000000000E+00  0.12525980253E-10  0.17130000000E+03  0.17130000000E+03 0.  1.
       11    1    1    2    0    0  0.31372631397E-01  0.45934319310E-01 -0.17789638976E+00  0.18639096116E+00  0.51109989000E-03 0.  1.
     -623    1    1    2    0    0 -0.16922543251E+00 -0.10426623497E+00  0.10017355135E+01  0.17130304429E+03  0.17130000000E+03 0.  1.
      622    1    1    2    0    0  0.13785280112E+00  0.58331915657E-01  0.31761608436E+01  0.38105647497E+01  0.21000000000E+01 0.  1.
</event>
<event>
 5   0  0.7462600E-02  0.9118800E+02  0.7818608E-02  0.1180000E+00
       11   -1    0    0    0    0  0.00000000000E+00  0.00000000000E+00  0.39999999673E+01  0.40000000000E+01  0.51109989000E-03 0. -1.
     -623   -1    0    0    0    0  0.00000000000E+00  0.00000000000E+00  0.12525980253E-10  0.17130000000E+03  0.17130000000E+03 0.  1.
       11    1    1    2    0    0 -0.86734875642E-01 -0.50583938313E-01 -0.51335955712E-01  0.11277107360E+00  0.51109989000E-03 0. -1.
     -623    1    1    2    0    0 -0.23348808318E+00  0.16437832747E+00  0.80038623955E+00  0.17130210785E+03  0.17130000000E+03 0.  1.
      622    1    1    2    0    0  0.32022295882E+00 -0.11379438916E+00  0.32509496835E+01  0.38851210729E+01  0.21000000000E+01 0. -1.
</event>
<event>
 5   0  0.7462600E-02  0.9118800E+02  0.7818608E-02  0.1180000E+00
       11   -1    0    0    0    0  0.00000000000E+00  0.00000000000E+00  0.39999999673E+01  0.40000000000E+01  0.51109989000E-03 0. -1.
     -623   -1    0    0    0    0  0.00000000000E+00  0.00000000000E+00  0.12525980253E-10  0.17130000000E+03  0.17130000000E+03 0.  1.
       11    1    1    2    0    0  0.14054894995E+00  0.45676413515E-02  0.17587731996E+00  0.22518428804E+00  0.51109989000E-03 0. -1.
     -623    1    1    2    0    0 -0.29736880382E+00 -0.10999328032E+00  0.69511854862E+00  0.17130170378E+03  0.17130000000E+03 0.  1.
      622    1    1    2    0    0  0.15681985387E+00  0.10542563897E+00  0.31290040988E+01  0.37731119361E+01  0.21000000000E+01 0. -1.
</event>
<event>
 5   0  0.7462600E-02  0.9118800E+02  0.7818608E-02  0.1180000E+00
       11   -1    0    0    0    0  0.00000000000E+00  0.00000000000E+00  0.39999999673E+01  0.40000000000E+01  0.51109989000E-03 0.  1.
     -623   -1    0    0    0    0  0.00000000000E+00  0.00000000000E+00  0.12525980253E-10  0.17130000000E+03  0.17130000000E+03 0.  1.
       11    1    1    2    0    0 -0.13143010076E+00 -0.34291056895E-01  0.22152745428E+00  0.25985461742E+00  0.51109989000E-03 0.  1.
     -623    1    1    2    0    0  0.42446395461E-01 -0.18160670010E+00  0.69417695768E+00  0.17130150806E+03  0.17130000000E+03 0.  1.
      622    1    1    2    0    0  0.88983705303E-01  0.21589775699E+00  0.30842955554E+01  0.37386373205E+01  0.21000000000E+01 0.  1.
</event>
<event>
 5   0  0.7462600E-02  0.9118800E+02  0.7818608E-02  0.1180000E+00
       11   -1    0    0    0    0  0.00000000000E+00  0.00000000000E+00  0.39999999673E+01  0.40000000000E+01  0.51109989000E-03 0. -1.
     -623   -1    0    0    0    0  0.00000000000E+00  0.00000000000E+00  0.12525980253E-10  0.17130000000E+03  0.17130000000E+03 0.  1.
       11    1    1    2    0    0  0.27119857702E+00 -0.16480266425E+00  0.55047240732E+00  0.63539650516E+00  0.51109989000E-03 0. -1.
     -623    1    1    2    0    0 -0.53834315980E+00  0.77201552237E+00  0.91245113755E+00  0.17130501565E+03  0.17130000000E+03 0.  1.
      622    1    1    2    0    0  0.26714458278E+00 -0.60721285811E+00  0.25370764225E+01  0.33595878403E+01  0.21000000000E+01 0. -1.
</event>
<event>
 5   0  0.7462600E-02  0.9118800E+02  0.7818608E-02  0.1180000E+00
       11   -1    0    0    0    0  0.00000000000E+00  0.00000000000E+00  0.39999999673E+01  0.40000000000E+01  0.51109989000E-03 0.  1.
     -623   -1    0    0    0    0  0.00000000000E+00  0.00000000000E+00  0.12525980253E-10  0.17130000000E+03  0.17130000000E+03 0.  1.
       11    1    1    2    0    0 -0.27897476440E+00  0.17306375285E+00  0.47398215517E-01  0.33169991526E+00  0.51109989000E-03 0.  1.
     -623    1    1    2    0    0  0.27254139694E+00  0.17693765387E+00  0.96905994313E+00  0.17130304919E+03  0.17130000000E+03 0.  1.
      622    1    1    2    0    0  0.64333674631E-02 -0.35000140672E+00  0.29835418087E+01  0.36652508914E+01  0.21000000000E+01 0.  1.
</event>
<event>
 5   0  0.7462600E-02  0.9118800E+02  0.7818608E-02  0.1180000E+00
       11   -1    0    0    0    0  0.00000000000E+00  0.00000000000E+00  0.39999999673E+01  0.40000000000E+01  0.51109989000E-03 0.  1.
     -623   -1    0    0    0    0  0.00000000000E+00  0.00000000000E+00  0.12525980253E-10  0.17130000000E+03  0.17130000000E+03 0.  1.
       11    1    1    2    0    0 -0.90899567161E-01 -0.24505007457E+00  0.59387335866E+00  0.64884366199E+00  0.51109989000E-03 0.  1.
     -623    1    1    2    0    0 -0.70450400034E+00  0.10177542495E+00  0.92816273238E+00  0.17130399344E+03  0.17130000000E+03 0.  1.
      622    1    1    2    0    0  0.79540356750E+00  0.14327464963E+00  0.24779638763E+01  0.33471628931E+01  0.21000000000E+01 0.  0.
</event>
<event>
 5   0  0.7462600E-02  0.9118800E+02  0.7818608E-02  0.1180000E+00
       11   -1    0    0    0    0  0.00000000000E+00  0.00000000000E+00  0.39999999673E+01  0.40000000000E+01  0.51109989000E-03 0. -1.
     -623   -1    0    0    0    0  0.00000000000E+00  0.00000000000E+00  0.12525980253E-10  0.17130000000E+03  0.17130000000E+03 0. -1.
       11    1    1    2    0    0  0.23992245980E+00  0.22412849811E+00  0.15380195472E+00  0.36256264683E+00  0.51109989000E-03 0. -1.
     -623    1    1    2    0    0 -0.86710897585E+00 -0.51031458344E-01  0.95443646696E+00  0.17130486108E+03  0.17130000000E+03 0. -1.
      622    1    1    2    0    0  0.62718651604E+00 -0.17309703976E+00  0.28917615457E+01  0.36325762687E+01  0.21000000000E+01 0. -1.
</event>
<event>
 5   0  0.7462600E-02  0.9118800E+02  0.7818608E-02  0.1180000E+00
       11   -1    0    0    0    0  0.00000000000E+00  0.00000000000E+00  0.39999999673E+01  0.40000000000E+01  0.51109989000E-03 0.  1.
     -623   -1    0    0    0    0  0.00000000000E+00  0.00000000000E+00  0.12525980253E-10  0.17130000000E+03  0.17130000000E+03 0.  1.
       11    1    1    2    0    0  0.14413875334E+00 -0.22629430286E-01  0.19354731686E+00  0.24238171634E+00  0.51109989000E-03 0.  1.
     -623    1    1    2    0    0  0.42167976585E+00  0.78715161198E+00  0.84470888325E+00  0.17130441020E+03  0.17130000000E+03 0.  1.
      622    1    1    2    0    0 -0.56581851919E+00 -0.76452218170E+00  0.29617437673E+01  0.37532080819E+01  0.21000000000E+01 0.  1.
</event>
<event>
 5   0  0.7462600E-02  0.9118800E+02  0.7818608E-02  0.1180000E+00
       11   -1    0    0    0    0  0.00000000000E+00  0.00000000000E+00  0.39999999673E+01  0.40000000000E+01  0.51109989000E-03 0.  1.
     -623   -1    0    0    0    0  0.00000000000E+00  0.00000000000E+00  0.12525980253E-10  0.17130000000E+03  0.17130000000E+03 0.  1.
       11    1    1    2    0    0 -0.10936544749E+00  0.42489860447E-01  0.27443555806E+00  0.29846494953E+00  0.51109989000E-03 0.  1.
     -623    1    1    2    0    0 -0.69201658719E+00  0.73507607000E-01  0.79099129494E+00  0.17130323978E+03  0.17130000000E+03 0.  1.
      622    1    1    2    0    0  0.80138203469E+00 -0.11599746745E+00  0.29345731144E+01  0.36982952751E+01  0.21000000000E+01 0.  0.
</event>
<event>
 5   0  0.7462600E-02  0.9118800E+02  0.7818608E-02  0.1180000E+00
       11   -1    0    0    0    0  0.00000000000E+00  0.00000000000E+00  0.39999999673E+01  0.40000000000E+01  0.51109989000E-03 0. -1.
     -623   -1    0    0    0    0  0.00000000000E+00  0.00000000000E+00  0.12525980253E-10  0.17130000000E+03  0.17130000000E+03 0.  1.
       11    1    1    2    0    0  0.32289186661E+00 -0.14498314317E+00  0.43839801309E+00  0.56344684615E+00  0.51109989000E-03 0. -1.
     -623    1    1    2    0    0 -0.13844105345E+00  0.48509303270E+00  0.87276894094E+00  0.17130296614E+03  0.17130000000E+03 0.  1.
      622    1    1    2    0    0 -0.18445081316E+00 -0.34010988953E+00  0.26888330133E+01  0.34335870184E+01  0.21000000000E+01 0. -1.
</event>
<event>
 5   0  0.7462600E-02  0.9118800E+02  0.7818608E-02  0.1180000E+00
       11   -1    0    0    0    0  0.00000000000E+00  0.00000000000E+00  0.39999999673E+01  0.40000000000E+01  0.51109989000E-03 0.  1.
     -623   -1    0    0    0    0  0.00000000000E+00  0.00000000000E+00  0.12525980253E-10  0.17130000000E+03  0.17130000000E+03 0. -1.
       11    1    1    2    0    0  0.39729839298E+00  0.18401130515E+00  0.29064526025E+00  0.52552935410E+00  0.51109989000E-03 0.  1.
     -623    1    1    2    0    0 -0.23466047961E+00 -0.21047496259E+00  0.94991891157E+00  0.17130292383E+03  0.17130000000E+03 0. -1.
      622    1    1    2    0    0 -0.16263791337E+00  0.26463657440E-01  0.27594357955E+01  0.34715468203E+01  0.21000000000E+01 0.  1.
</event>
<event>
 5   0  0.7462600E-02  0.9118800E+02  0.7818608E-02  0.1180000E+00
       11   -1    0    0    0    0  0.00000000000E+00  0.00000000000E+00  0.39999999673E+01  0.40000000000E+01  0.51109989000E-03 0. -1.
     -623   -1    0    0    0    0  0.00000000000E+00  0.00000000000E+00  0.12525980253E-10  0.17130000000E+03  0.17130000000E+03 0. -1.
       11    1    1    2    0    0 -0.82605858826E-01  0.46338305233E-01  0.17495082546E+00  0.19894476368E+00  0.51109989000E-03 0. -1.
     -623    1    1    2    0    0  0.26528552058E+00  0.18945860500E+00  0.67280405431E+00  0.17130163145E+03  0.17130000000E+03 0. -1.
      622    1    1    2    0    0 -0.18267966176E+00 -0.23579691023E+00  0.31522450876E+01  0.37994237897E+01  0.21000000000E+01 0. -1.
</event>
<event>
 5   0  0.7462600E-02  0.9118800E+02  0.7818608E-02  0.1180000E+00
       11   -1    0    0    0    0  0.00000000000E+00  0.00000000000E+00  0.39999999673E+01  0.40000000000E+01  0.51109989000E-03 0.  1.
     -623   -1    0    0    0    0  0.00000000000E+00  0.00000000000E+00  0.12525980253E-10  0.17130000000E+03  0.17130000000E+03 0.  1.
       11    1    1    2    0    0 -0.10580685979E+00 -0.49373133116E-01 -0.12672702984E-01  0.11744639831E+00  0.51109989000E-03 0.  1.
     -623    1    1    2    0    0 -0.19758957285E+00  0.35828106119E+00  0.77860097022E+00  0.17130225809E+03  0.17130000000E+03 0.  1.
      622    1    1    2    0    0  0.30339643264E+00 -0.30890792807E+00  0.32340717001E+01  0.38802955126E+01  0.21000000000E+01 0.  1.
</event>
<event>
 5   0  0.7462600E-02  0.9118800E+02  0.7818608E-02  0.1180000E+00
       11   -1    0    0    0    0  0.00000000000E+00  0.00000000000E+00  0.39999999673E+01  0.40000000000E+01  0.51109989000E-03 0.  1.
     -623   -1    0    0    0    0  0.00000000000E+00  0.00000000000E+00  0.12525980253E-10  0.17130000000E+03  0.17130000000E+03 0. -1.
       11    1    1    2    0    0  0.71896255668E-01  0.51466712471E-01 -0.72244831659E-02  0.88714984370E-01  0.51109989000E-03 0.  1.
     -623    1    1    2    0    0  0.27040261240E+00  0.37076114994E+00  0.75532096355E+00  0.17130227988E+03  0.17130000000E+03 0. -1.
      622    1    1    2    0    0 -0.34229886807E+00 -0.42222786241E+00  0.32519034870E+01  0.39090051383E+01  0.21000000000E+01 0.  1.
</event>
<event>
 5   0  0.7462600E-02  0.9118800E+02  0.7818608E-02  0.1180000E+00
       11   -1    0    0    0    0  0.00000000000E+00  0.00000000000E+00  0.39999999673E+01  0.40000000000E+01  0.51109989000E-03 0. -1.
     -623   -1    0    0    0    0  0.00000000000E+00  0.00000000000E+00  0.12525980253E-10  0.17130000000E+03  0.17130000000E+03 0. -1.
       11    1    1    2    0    0 -0.12117829865E+00 -0.56797650201E-01  0.93769081721E-01  0.16341069439E+00  0.51109989000E-03 0. -1.
     -623    1    1    2    0    0  0.24273176748E+00  0.23923220412E+00  0.70503912470E+00  0.17130178992E+03  0.17130000000E+03 0. -1.
      622    1    1    2    0    0 -0.12155346883E+00 -0.18243455391E+00  0.32011917609E+01  0.38347993823E+01  0.21000000000E+01 0. -1.
</event>
<event>
 5   0  0.7462600E-02  0.9118800E+02  0.7818608E-02  0.1180000E+00
       11   -1    0    0    0    0  0.00000000000E+00  0.00000000000E+00  0.39999999673E+01  0.40000000000E+01  0.51109989000E-03 0.  1.
     -623   -1    0    0    0    0  0.00000000000E+00  0.00000000000E+00  0.12525980253E-10  0.17130000000E+03  0.17130000000E+03 0.  1.
       11    1    1    2    0    0  0.58798345153E-02  0.36916768219E-01 -0.61897719232E-01  0.72311887653E-01  0.51109989000E-03 0.  1.
     -623    1    1    2    0    0 -0.13161167973E+00 -0.29347530830E+00  0.75741870381E+00  0.17130197644E+03  0.17130000000E+03 0.  1.
      622    1    1    2    0    0  0.12573184521E+00  0.25655854008E+00  0.33044789828E+01  0.39257116717E+01  0.21000000000E+01 0.  1.
</event>
<event>
 5   0  0.7462600E-02  0.9118800E+02  0.7818608E-02  0.1180000E+00
       11   -1    0    0    0    0  0.00000000000E+00  0.00000000000E+00  0.39999999673E+01  0.40000000000E+01  0.51109989000E-03 0.  1.
     -623   -1    0    0    0    0  0.00000000000E+00  0.00000000000E+00  0.12525980253E-10  0.17130000000E+03  0.17130000000E+03 0.  1.
       11    1    1    2    0    0 -0.15866254260E+00  0.10794843207E+00  0.11935605292E-01  0.19227424764E+00  0.51109989000E-03 0.  1.
     -623    1    1    2    0    0  0.61639409227E+00 -0.68605396211E-01  0.84909253429E+00  0.17130322708E+03  0.17130000000E+03 0.  1.
      622    1    1    2    0    0 -0.45773154968E+00 -0.39343035857E-01  0.31389718278E+01  0.38044986768E+01  0.21000000000E+01 0.  1.
</event>
<event>
 5   0  0.7462600E-02  0.9118800E+02  0.7818608E-02  0.1180000E+00
       11   -1    0    0    0    0  0.00000000000E+00  0.00000000000E+00  0.39999999673E+01  0.40000000000E+01  0.51109989000E-03 0.  1.
     -623   -1    0    0    0    0  0.00000000000E+00  0.00000000000E+00  0.12525980253E-10  0.17130000000E+03  0.17130000000E+03 0.  1.
       11    1    1    2    0    0 -0.54415842515E-02  0.51330561258E-01 -0.44710099912E-01  0.68291226490E-01  0.51109989000E-03 0.  1.
     -623    1    1    2    0    0 -0.28174123619E+00  0.45557940887E-01  0.73681865361E+00  0.17130182239E+03  0.17130000000E+03 0.  1.
      622    1    1    2    0    0  0.28718282045E+00 -0.96888502145E-01  0.33078914137E+01  0.39298863799E+01  0.21000000000E+01 0.  1.
</event>
<event>
 5   0  0.7462600E-02  0.9118800E+02  0.7818608E-02  0.1180000E+00
       11   -1    0    0    0    0  0.00000000000E+00  0.00000000000E+00  0.39999999673E+01  0.40000000000E+01  0.51109989000E-03 0.  1.
     -623   -1    0    0    0    0  0.00000000000E+00  0.00000000000E+00  0.12525980253E-10  0.17130000000E+03  0.17130000000E+03 0. -1.
       11    1    1    2    0    0 -0.10042861014E+00  0.99282600651E-01 -0.43137529838E-01  0.14766193900E+00  0.51109989000E-03 0.  1.
     -623    1    1    2    0    0  0.37700035954E+00 -0.92417303842E-01  0.82830346093E+00  0.17130244236E+03  0.17130000000E+03 0. -1.
      622    1    1    2    0    0 -0.27657174940E+00 -0.68652968093E-02  0.32148340363E+01  0.38498957058E+01  0.21000000000E+01 0.  1.
</event>
<event>
 5   0  0.7462600E-02  0.9118800E+02  0.7818608E-02  0.1180000E+00
       11   -1    0    0    0    0  0.00000000000E+00  0.00000000000E+00  0.39999999673E+01  0.40000000000E+01  0.51109989000E-03 0.  1.
     -623   -1    0    0    0    0  0.00000000000E+00  0.00000000000E+00  0.12525980253E-10  0.17130000000E+03  0.17130000000E+03 0.  1.
       11    1    1    2    0    0  0.19049361332E+00 -0.19227834699E+00  0.37892177247E+00  0.46566162641E+00  0.51109989000E-03 0.  1.
     -623    1    1    2    0    0 -0.25151038091E+00 -0.46204760972E+00  0.85905811881E+00  0.17130296181E+03  0.17130000000E+03 0.  1.
      622    1    1    2    0    0  0.61016767584E-01  0.65432595671E+00  0.27620200761E+01  0.35313765594E+01  0.21000000000E+01 0.  1.
</event>
<event>
 5   0  0.7462600E-02  0.9118800E+02  0.7818608E-02  0.1180000E+00
       11   -1    0    0    0    0  0.00000000000E+00  0.00000000000E+00  0.39999999673E+01  0.40000000000E+01  0.51109989000E-03 0.  1.
     -623   -1    0    0    0    0  0.00000000000E+00  0.00000000000E+00  0.12525980253E-10  0.17130000000E+03  0.17130000000E+03 0.  1.
       11    1    1    2    0    0 -0.39497594364E+00  0.31213427389E+00  0.19838820417E+00  0.54110252427E+00  0.51109989000E-03 0.  1.
     -623    1    1    2    0    0  0.29568374528E+00 -0.62060314051E-01  0.10709364523E+01  0.17130361405E+03  0.17130000000E+03 0.  1.
      622    1    1    2    0    0  0.99292198362E-01 -0.25007395984E+00  0.27306753108E+01  0.34552834297E+01  0.21000000000E+01 0.  1.
</event>
<event>
 5   0  0.7462600E-02  0.9118800E+02  0.7818608E-02  0.1180000E+00
       11   -1    0    0    0    0  0.00000000000E+00  0.00000000000E+00  0.39999999673E+01  0.40000000000E+01  0.51109989000E-03 0.  1.
     -623   -1    0    0    0    0  0.00000000000E+00  0.00000000000E+00  0.12525980253E-10  0.17130000000E+03  0.17130000000E+03 0.  1.
       11    1    1    2    0    0 -0.79972713980E-01 -0.16286147782E-01 -0.35592940982E-01  0.89039273704E-01  0.51109989000E-03 0.  1.
     -623    1    1    2    0    0 -0.52162294477E+00  0.74440528370E-01  0.79529312630E+00  0.17130265650E+03  0.17130000000E+03 0.  1.
      622    1    1    2    0    0  0.60159565875E+00 -0.58154380588E-01  0.32402997820E+01  0.39083042290E+01  0.21000000000E+01 0.  1.
</event>
<event>
 5   0  0.7462600E-02  0.9118800E+02  0.7818608E-02  0.1180000E+00
       11   -1    0    0    0    0  0.00000000000E+00  0.00000000000E+00  0.39999999673E+01  0.40000000000E+01  0.51109989000E-03 0. -1.
     -623   -1    0    0    0    0  0.00000000000E+00  0.00000000000E+00  0.12525980253E-10  0.17130000000E+03  0.17130000000E+03 0. -1.
       11    1    1    2    0    0 -0.25039518853E+00 -0.14469325959E+00  0.71610967442E+00  0.77229995263E+00  0.51109989000E-03 0. -1.
     -623    1    1    2    0    0  0.24626652316E+00  0.24527196103E+00  0.83799324809E+00  0.17130240231E+03  0.17130000000E+03 0. -1.
      622    1    1    2    0    0  0.41286653681E-02 -0.10057870144E+00  0.24458970449E+01  0.32252977343E+01  0.21000000000E+01 0.  1.
</event>
<event>
 5   0  0.7462600E-02  0.9118800E+02  0.7818608E-02  0.1180000E+00
       11   -1    0    0    0    0  0.00000000000E+00  0.00000000000E+00  0.39999999673E+01  0.40000000000E+01  0.51109989000E-03 0.  1.
     -623   -1    0    0    0    0  0.00000000000E+00  0.00000000000E+00  0.12525980253E-10  0.17130000000E+03  0.17130000000E+03 0.  1.
       11    1    1    2    0    0 -0.67530995003E-01  0.35353714265E+00  0.29993442180E+00  0.46851879911E+00  0.51109989000E-03 0.  1.
     -623    1    1    2    0    0  0.32912105339E+00 -0.21269783527E+00  0.87978558906E+00  0.17130270746E+03  0.17130000000E+03 0.  1.
      622    1    1    2    0    0 -0.26159005839E+00 -0.14083930738E+00  0.28202799565E+01  0.35287737392E+01  0.21000000000E+01 0.  1.
</event>
<event>
 5   0  0.7462600E-02  0.9118800E+02  0.7818608E-02  0.1180000E+00
       11   -1    0    0    0    0  0.00000000000E+00  0.00000000000E+00  0.39999999673E+01  0.40000000000E+01  0.51109989000E-03 0.  1.
     -623   -1    0    0    0    0  0.00000000000E+00  0.00000000000E+00  0.12525980253E-10  0.17130000000E+03  0.17130000000E+03 0. -1.
       11    1    1    2    0    0 -0.15022056250E+00 -0.60362154682E-01  0.17244783002E+00  0.23653397730E+00  0.51109989000E-03 0.  1.
     -623    1    1    2    0    0  0.86221208734E-01  0.16561658066E+00  0.70878612959E+00  0.17130156812E+03  0.17130000000E+03 0. -1.
      622    1    1    2    0    0  0.63999353765E-01 -0.10525442597E+00  0.31187660077E+01  0.37618979017E+01  0.21000000000E+01 0.  1.
</event>
<event>
 5   0  0.7462600E-02  0.9118800E+02  0.7818608E-02  0.1180000E+00
       11   -1    0    0    0    0  0.00000000000E+00  0.00000000000E+00  0.39999999673E+01  0.40000000000E+01  0.51109989000E-03 0. -1.
     -623   -1    0    0    0    0  0.00000000000E+00  0.00000000000E+00  0.12525980253E-10  0.17130000000E+03  0.17130000000E+03 0.  1.
       11    1    1    2    0    0  0.29525338810E+00 -0.14559974697E+00  0.12193711106E+00  0.35105949606E+00  0.51109989000E-03 0. -1.
     -623    1    1    2    0    0  0.26368522340E+00 -0.38970332027E+00  0.10006030763E+01  0.17130356857E+03  0.17130000000E+03 0.  1.
      622    1    1    2    0    0 -0.55893861150E+00  0.53530306723E+00  0.28774597800E+01  0.36453719331E+01  0.21000000000E+01 0. -1.
</event>
<event>
 5   0  0.7462600E-02  0.9118800E+02  0.7818608E-02  0.1180000E+00
       11   -1    0    0    0    0  0.00000000000E+00  0.00000000000E+00  0.39999999673E+01  0.40000000000E+01  0.51109989000E-03 0. -1.
     -623   -1    0    0    0    0  0.00000000000E+00  0.00000000000E+00  0.12525980253E-10  0.17130000000E+03  0.17130000000E+03 0.  1.
       11    1    1    2    0    0 -0.76983951610E-01 -0.31410799161E+00 -0.34509276070E-01  0.32524069634E+00  0.51109989000E-03 0. -1.
     -623    1    1    2    0    0  0.30289368392E+00  0.33877063798E+00  0.10320188543E+01  0.17130371150E+03  0.17130000000E+03 0.  1.
      622    1    1    2    0    0 -0.22590973231E+00 -0.24662646369E-01  0.30024903892E+01  0.36710478055E+01  0.21000000000E+01 0. -1.
</event>
<event>
 5   0  0.7462600E-02  0.9118800E+02  0.7818608E-02  0.1180000E+00
       11   -1    0    0    0    0  0.00000000000E+00  0.00000000000E+00  0.39999999673E+01  0.40000000000E+01  0.51109989000E-03 0.  1.
     -623   -1    0    0    0    0  0.00000000000E+00  0.00000000000E+00  0.12525980253E-10  0.17130000000E+03  0.17130000000E+03 0. -1.
       11    1    1    2    0    0  0.28870422039E+00  0.44810896425E+00  0.22729194624E+00  0.57949431469E+00  0.51109989000E-03 0.  1.
     -623    1    1    2    0    0 -0.47020673566E+00 -0.14464699160E+00  0.11014182394E+01  0.17130424729E+03  0.17130000000E+03 0. -1.
      622    1    1    2    0    0  0.18150251526E+00 -0.30346197265E+00  0.26712897818E+01  0.34162583963E+01  0.21000000000E+01 0.  1.
</event>
<event>
 5   0  0.7462600E-02  0.9118800E+02  0.7818608E-02  0.1180000E+00
       11   -1    0    0    0    0  0.00000000000E+00  0.00000000000E+00  0.39999999673E+01  0.40000000000E+01  0.51109989000E-03 0. -1.
     -623   -1    0    0    0    0  0.00000000000E+00  0.00000000000E+00  0.12525980253E-10  0.17130000000E+03  0.17130000000E+03 0. -1.
       11    1    1    2    0    0 -0.57923823910E-01 -0.92388908161E-01  0.11472829819E+00  0.15828368000E+00  0.51109989000E-03 0. -1.
     -623    1    1    2    0    0  0.10897788607E+00  0.29805278168E+00  0.67726022139E+00  0.17130163278E+03  0.17130000000E+03 0. -1.
      622    1    1    2    0    0 -0.51054062163E-01 -0.20566387352E+00  0.32080114478E+01  0.38400835401E+01  0.21000000000E+01 0. -1.
</event>
<event>
 5   0  0.7462600E-02  0.9118800E+02  0.7818608E-02  0.1180000E+00
       11   -1    0    0    0    0  0.00000000000E+00  0.00000000000E+00  0.39999999673E+01  0.40000000000E+01  0.51109989000E-03 0. -1.
     -623   -1    0    0    0    0  0.00000000000E+00  0.00000000000E+00  0.12525980253E-10  0.17130000000E+03  0.17130000000E+03 0.  1.
       11    1    1    2    0    0  0.43336408297E-01  0.13151964003E-01 -0.60884612182E-01  0.75882907594E-01  0.51109989000E-03 0. -1.
     -623    1    1    2    0    0 -0.57661343095E+00 -0.21690040810E+00  0.79906219006E+00  0.17130297145E+03  0.17130000000E+03 0.  1.
      622    1    1    2    0    0  0.53327702266E+00  0.20374844409E+00  0.32618223895E+01  0.39211456377E+01  0.21000000000E+01 0. -1.
</event>
<event>
 5   0  0.7462600E-02  0.9118800E+02  0.7818608E-02  0.1180000E+00
       11   -1    0    0    0    0  0.00000000000E+00  0.00000000000E+00  0.39999999673E+01  0.40000000000E+01  0.51109989000E-03 0. -1.
     -623   -1    0    0    0    0  0.00000000000E+00  0.00000000000E+00  0.12525980253E-10  0.17130000000E+03  0.17130000000E+03 0.  1.
       11    1    1    2    0    0 -0.32404846716E-02  0.27601907189E-01  0.27897993688E-02  0.27935823327E-01  0.51109989000E-03 0. -1.
     -623    1    1    2    0    0  0.29116350444E+00  0.12859222883E+00  0.64339863284E+00  0.17130150400E+03  0.17130000000E+03 0.  1.
      622    1    1    2    0    0 -0.28792301977E+00 -0.15619413602E+00  0.33538115352E+01  0.39705601729E+01  0.21000000000E+01 0. -1.
</event>
<event>
 5   0  0.7462600E-02  0.9118800E+02  0.7818608E-02  0.1180000E+00
       11   -1    0    0    0    0  0.00000000000E+00  0.00000000000E+00  0.39999999673E+01  0.40000000000E+01  0.51109989000E-03 0. -1.
     -623   -1    0    0    0    0  0.00000000000E+00  0.00000000000E+00  0.12525980253E-10  0.17130000000E+03  0.17130000000E+03 0. -1.
       11    1    1    2    0    0 -0.30868848767E-01  0.52628174623E-01  0.16318538882E+00  0.17421923813E+00  0.51109989000E-03 0. -1.
     -623    1    1    2    0    0  0.46503116746E+00 -0.62754050425E-01  0.67089722999E+00  0.17130195648E+03  0.17130000000E+03 0. -1.
      622    1    1    2    0    0 -0.43416231869E+00  0.10125875802E-01  0.31659173485E+01  0.38238242782E+01  0.21000000000E+01 0. -1.
</event>
<event>
 5   0  0.7462600E-02  0.9118800E+02  0.7818608E-02  0.1180000E+00
       11   -1    0    0    0    0  0.00000000000E+00  0.00000000000E+00  0.39999999673E+01  0.40000000000E+01  0.51109989000E-03 0. -1.
     -623   -1    0    0    0    0  0.00000000000E+00  0.00000000000E+00  0.12525980253E-10  0.17130000000E+03  0.17130000000E+03 0.  1.
       11    1    1    2    0    0 -0.10581704021E-01 -0.11682910415E+00  0.73621571612E-01  0.13849696409E+00  0.51109989000E-03 0. -1.
     -623    1    1    2    0    0 -0.12258739597E+00  0.30349994342E+00  0.69600791691E+00  0.17130172669E+03  0.17130000000E+03 0.  1.
      622    1    1    2    0    0  0.13316909999E+00 -0.18667083927E+00  0.32303704788E+01  0.38597763461E+01  0.21000000000E+01 0. -1.
</event>
<event>
 5   0  0.7462600E-02  0.9118800E+02  0.7818608E-02  0.1180000E+00
       11   -1    0    0    0    0  0.00000000000E+00  0.00000000000E+00  0.39999999673E+01  0.40000000000E+01  0.51109989000E-03 0. -1.
     -623   -1    0    0    0    0  0.00000000000E+00  0.00000000000E+00  0.12525980253E-10  0.17130000000E+03  0.17130000000E+03 0. -1.
       11    1    1    2    0    0  0.14350547217E+00  0.65506364383E-01  0.83326394093E+00  0.84806483289E+00  0.51109989000E-03 0. -1.
     -623    1    1    2    0    0 -0.31702359304E+00 -0.56843892276E+00  0.88210342281E+00  0.17130350765E+03  0.17130000000E+03 0. -1.
      622    1    1    2    0    0  0.17351812087E+00  0.50293255838E+00  0.22846326036E+01  0.31484275170E+01  0.21000000000E+01 0. -1.
</event>
<event>
 5   0  0.7462600E-02  0.9118800E+02  0.7818608E-02  0.1180000E+00
       11   -1    0    0    0    0  0.00000000000E+00  0.00000000000E+00  0.39999999673E+01  0.40000000000E+01  0.51109989000E-03 0.  1.
     -623   -1    0    0    0    0  0.00000000000E+00  0.00000000000E+00  0.12525980253E-10  0.17130000000E+03  0.17130000000E+03 0.  1.
       11    1    1    2    0    0  0.21350700379E-01 -0.31459174854E+00  0.25501948084E-01  0.31634543025E+00  0.51109989000E-03 0.  1.
     -623    1    1    2    0    0 -0.10868687032E+00  0.38123696862E+00  0.95385121694E+00  0.17130311435E+03  0.17130000000E+03 0.  1.
      622    1    1    2    0    0  0.87336169940E-01 -0.66645220079E-01  0.30206468023E+01  0.36805402180E+01  0.21000000000E+01 0.  1.
</event>
<event>
 5   0  0.7462600E-02  0.9118800E+02  0.7818608E-02  0.1180000E+00
       11   -1    0    0    0    0  0.00000000000E+00  0.00000000000E+00  0.39999999673E+01  0.40000000000E+01  0.51109989000E-03 0.  1.
     -623   -1    0    0    0    0  0.00000000000E+00  0.00000000000E+00  0.12525980253E-10  0.17130000000E+03  0.17130000000E+03 0. -1.
       11    1    1    2    0    0 -0.55199883128E-01 -0.12234574854E+00  0.82715644828E+00  0.83797587104E+00  0.51109989000E-03 0.  1.
     -623    1    1    2    0    0  0.31813134134E+00  0.35634281171E+00  0.83889535980E+00  0.17130272016E+03  0.17130000000E+03 0. -1.
      622    1    1    2    0    0 -0.26293145821E+00 -0.23399706317E+00  0.23339481593E+01  0.31593039720E+01  0.21000000000E+01 0.  1.
</event>
<event>
 5   0  0.7462600E-02  0.9118800E+02  0.7818608E-02  0.1180000E+00
       11   -1    0    0    0    0  0.00000000000E+00  0.00000000000E+00  0.39999999673E+01  0.40000000000E+01  0.51109989000E-03 0.  1.
     -623   -1    0    0    0    0  0.00000000000E+00  0.00000000000E+00  0.12525980253E-10  0.17130000000E+03  0.17130000000E+03 0.  1.
       11    1    1    2    0    0 -0.30055199143E+00 -0.15977519430E+00 -0.27114448836E+00  0.43517721339E+00  0.51109989000E-03 0.  1.
     -623    1    1    2    0    0  0.17058609153E+00 -0.29603372456E-01  0.14069829505E+01  0.17130586557E+03  0.17130000000E+03 0.  1.
      622    1    1    2    0    0  0.12996589990E+00  0.18937856676E+00  0.28641615052E+01  0.35589572215E+01  0.21000000000E+01 0.  1.
</event>
<event>
 5   0  0.7462600E-02  0.9118800E+02  0.7818608E-02  0.1180000E+00
       11   -1    0    0    0    0  0.00000000000E+00  0.00000000000E+00  0.39999999673E+01  0.40000000000E+01  0.51109989000E-03 0.  1.
     -623   -1    0    0    0    0  0.00000000000E+00  0.00000000000E+00  0.12525980253E-10  0.17130000000E+03  0.17130000000E+03 0. -1.
       11    1    1    2    0    0 -0.87674166409E-01  0.11759086407E+00 -0.25393175405E-02  0.14670064800E+00  0.51109989000E-03 0.  1.
     -623    1    1    2    0    0 -0.41263806686E+00 -0.10815840556E+00  0.81372558125E+00  0.17130246384E+03  0.17130000000E+03 0. -1.
      622    1    1    2    0    0  0.50031223327E+00 -0.94324585079E-02  0.31888137037E+01  0.38508355118E+01  0.21000000000E+01 0.  1.
</event>
<event>
 5   0  0.7462600E-02  0.9118800E+02  0.7818608E-02  0.1180000E+00
       11   -1    0    0    0    0  0.00000000000E+00  0.00000000000E+00  0.39999999673E+01  0.40000000000E+01  0.51109989000E-03 0. -1.
     -623   -1    0    0    0    0  0.00000000000E+00  0.00000000000E+00  0.12525980253E-10  0.17130000000E+03  0.17130000000E+03 0. -1.
       11    1    1    2    0    0  0.74139667976E-01 -0.11346682958E+00  0.32621093604E-01  0.13941236944E+00  0.51109989000E-03 0. -1.
     -623    1    1    2    0    0  0.99695188581E-01  0.14474067040E+00  0.73472034731E+00  0.17130166579E+03  0.17130000000E+03 0. -1.
      622    1    1    2    0    0 -0.17383485656E+00 -0.31273840824E-01  0.32326585264E+01  0.38589218389E+01  0.21000000000E+01 0. -1.
</event>
<event>
 5   0  0.7462600E-02  0.9118800E+02  0.7818608E-02  0.1180000E+00
       11   -1    0    0    0    0  0.00000000000E+00  0.00000000000E+00  0.39999999673E+01  0.40000000000E+01  0.51109989000E-03 0.  1.
     -623   -1    0    0    0    0  0.00000000000E+00  0.00000000000E+00  0.12525980253E-10  0.17130000000E+03  0.17130000000E+03 0.  1.
       11    1    1    2    0    0 -0.26127473232E+00  0.16811227121E-01  0.11239699264E+00  0.28492182837E+00  0.51109989000E-03 0.  1.
     -623    1    1    2    0    0  0.20373064529E+00  0.72706452771E-01  0.82743589753E+00  0.17130213496E+03  0.17130000000E+03 0.  1.
      622    1    1    2    0    0  0.57544087034E-01 -0.89517679892E-01  0.30601670772E+01  0.37129432095E+01  0.21000000000E+01 0.  1.
</event>
<event>
 5   0  0.7462600E-02  0.9118800E+02  0.7818608E-02  0.1180000E+00
       11   -1    0    0    0    0  0.00000000000E+00  0.00000000000E+00  0.39999999673E+01  0.40000000000E+01  0.51109989000E-03 0.  1.
     -623   -1    0    0    0    0  0.00000000000E+00  0.00000000000E+00  0.12525980253E-10  0.17130000000E+03  0.17130000000E+03 0.  1.
       11    1    1    2    0    0 -0.10841574220E+00 -0.47378275935E-01 -0.25994045893E-01  0.12113887002E+00  0.51109989000E-03 0.  1.
     -623    1    1    2    0    0 -0.10168835673E+00  0.37536241775E-01  0.77368622075E+00  0.17130178148E+03  0.17130000000E+03 0.  1.
      622    1    1    2    0    0  0.21010409893E+00  0.98420341604E-02  0.32523077925E+01  0.38770796452E+01  0.21000000000E+01 0.  1.
</event>
<event>
 5   0  0.7462600E-02  0.9118800E+02  0.7818608E-02  0.1180000E+00
       11   -1    0    0    0    0  0.00000000000E+00  0.00000000000E+00  0.39999999673E+01  0.40000000000E+01  0.51109989000E-03 0.  1.
     -623   -1    0    0    0    0  0.00000000000E+00  0.00000000000E+00  0.12525980253E-10  0.17130000000E+03  0.17130000000E+03 0. -1.
       11    1    1    2    0    0  0.25057963505E+00 -0.12362501930E+00  0.18017737970E+00  0.33247172553E+00  0.51109989000E-03 0.  1.
     -623    1    1    2    0    0 -0.39920308459E+00 -0.44707107854E-01  0.82443644365E+00  0.17130245491E+03  0.17130000000E+03 0. -1.
      622    1    1    2    0    0  0.14862344954E+00  0.16833212715E+00  0.29953861440E+01  0.36650733671E+01  0.21000000000E+01 0.  1.
</event>
<event>
 5   0  0.7462600E-02  0.9118800E+02  0.7818608E-02  0.1180000E+00
       11   -1    0    0    0    0  0.00000000000E+00  0.00000000000E+00  0.39999999673E+01  0.40000000000E+01  0.51109989000E-03 0.  1.
     -623   -1    0    0    0    0  0.00000000000E+00  0.00000000000E+00  0.12525980253E-10  0.17130000000E+03  0.17130000000E+03 0. -1.
       11    1    1    2    0    0 -0.49550445269E+00  0.44644047815E-01 -0.30657229336E+00  0.58438393709E+00  0.51109989000E-03 0.  1.
     -623    1    1    2    0    0 -0.15925720964E+00 -0.51021185175E+00  0.17483663885E+01  0.17130975589E+03  0.17130000000E+03 0. -1.
      622    1    1    2    0    0  0.65476166234E+00  0.46556780393E+00  0.25582058722E+01  0.34058601702E+01  0.21000000000E+01 0.  1.
</event>
<event>
 5   0  0.7462600E-02  0.9118800E+02  0.7818608E-02  0.1180000E+00
       11   -1    0    0    0    0  0.00000000000E+00  0.00000000000E+00  0.39999999673E+01  0.40000000000E+01  0.51109989000E-03 0. -1.
     -623   -1    0    0    0    0  0.00000000000E+00  0.00000000000E+00  0.12525980253E-10  0.17130000000E+03  0.17130000000E+03 0.  1.
       11    1    1    2    0    0  0.45666734818E-01  0.76967507825E-01  0.37135717482E-01  0.96895668962E-01  0.51109989000E-03 0. -1.
     -623    1    1    2    0    0 -0.63700396435E-01  0.34932044560E-01  0.67640207540E+00  0.17130135083E+03  0.17130000000E+03 0.  1.
      622    1    1    2    0    0  0.18033661616E-01 -0.11189955239E+00  0.32864621745E+01  0.39017534964E+01  0.21000000000E+01 0. -1.
</event>
<event>
 5   0  0.7462600E-02  0.9118800E+02  0.7818608E-02  0.1180000E+00
       11   -1    0    0    0    0  0.00000000000E+00  0.00000000000E+00  0.39999999673E+01  0.40000000000E+01  0.51109989000E-03 0.  1.
     -623   -1    0    0    0    0  0.00000000000E+00  0.00000000000E+00  0.12525980253E-10  0.17130000000E+03  0.17130000000E+03 0.  1.
       11    1    1    2    0    0 -0.11128559051E+00 -0.22306974203E+00  0.27445986056E+00  0.37077360848E+00  0.51109989000E-03 0.  1.
     -623    1    1    2    0    0  0.56364383803E+00 -0.15427214322E+00  0.82855912276E+00  0.17130300057E+03  0.17130000000E+03 0.  1.
      622    1    1    2    0    0 -0.45235824753E+00  0.37734188525E+00  0.28969809840E+01  0.36262258209E+01  0.21000000000E+01 0.  1.
</event>
<event>
 5   0  0.7462600E-02  0.9118800E+02  0.7818608E-02  0.1180000E+00
       11   -1    0    0    0    0  0.00000000000E+00  0.00000000000E+00  0.39999999673E+01  0.40000000000E+01  0.51109989000E-03 0. -1.
     -623   -1    0    0    0    0  0.00000000000E+00  0.00000000000E+00  0.12525980253E-10  0.17130000000E+03  0.17130000000E+03 0.  1.
       11    1    1    2    0    0  0.18187361951E-01  0.23204119434E+00  0.61761031980E-01  0.24080818570E+00  0.51109989000E-03 0. -1.
     -623    1    1    2    0    0  0.26758695681E+00 -0.23415139609E+00  0.83634708559E+00  0.17130241068E+03  0.17130000000E+03 0.  1.
      622    1    1    2    0    0 -0.28577431876E+00  0.21102017538E-02  0.31018918498E+01  0.37567811304E+01  0.21000000000E+01 0. -1.
</event>
<event>
 5   0  0.7462600E-02  0.9118800E+02  0.7818608E-02  0.1180000E+00
       11   -1    0    0    0    0  0.00000000000E+00  0.00000000000E+00  0.39999999673E+01  0.40000000000E+01  0.51109989000E-03 0.  1.
     -623   -1    0    0    0    0  0.00000000000E+00  0.00000000000E+00  0.12525980253E-10  0.17130000000E+03  0.17130000000E+03 0. -1.
       11    1    1    2    0    0 -0.10492873704E+00  0.11145952137E+00  0.13909900257E+00  0.20683824235E+00  0.51109989000E-03 0.  1.
     -623    1    1    2    0    0  0.21236803529E+00 -0.64622719547E+00  0.75320771994E+00  0.17130300649E+03  0.17130000000E+03 0. -1.
      622    1    1    2    0    0 -0.10743929825E+00  0.53476767410E+00  0.31076932449E+01  0.37901552702E+01  0.21000000000E+01 0.  1.
</event>
<event>
 5   0  0.7462600E-02  0.9118800E+02  0.7818608E-02  0.1180000E+00
       11   -1    0    0    0    0  0.00000000000E+00  0.00000000000E+00  0.39999999673E+01  0.40000000000E+01  0.51109989000E-03 0. -1.
     -623   -1    0    0    0    0  0.00000000000E+00  0.00000000000E+00  0.12525980253E-10  0.17130000000E+03  0.17130000000E+03 0.  1.
       11    1    1    2    0    0  0.63361956833E-01 -0.24648573121E+00  0.65131712515E+00  0.69927406072E+00  0.51109989000E-03 0. -1.
     -623    1    1    2    0    0  0.59910130621E+00  0.16360270483E+00  0.89589267420E+00  0.17130346848E+03  0.17130000000E+03 0.  1.
      622    1    1    2    0    0 -0.66246326304E+00  0.82883026382E-01  0.24527901680E+01  0.32972574633E+01  0.21000000000E+01 0. -1.
</event>
<event>
 5   0  0.7462600E-02  0.9118800E+02  0.7818608E-02  0.1180000E+00
       11   -1    0    0    0    0  0.00000000000E+00  0.00000000000E+00  0.39999999673E+01  0.40000000000E+01  0.51109989000E-03 0.  1.
     -623   -1    0    0    0    0  0.00000000000E+00  0.00000000000E+00  0.12525980253E-10  0.17130000000E+03  0.17130000000E+03 0.  1.
       11    1    1    2    0    0  0.38125029328E-01 -0.12731233680E+00  0.10616449669E+00  0.17009735607E+00  0.51109989000E-03 0.  1.
     -623    1    1    2    0    0  0.68885839665E-01  0.84236560535E-01  0.69480570653E+00  0.17130144365E+03  0.17130000000E+03 0.  1.
      622    1    1    2    0    0 -0.10701086899E+00  0.43075776265E-01  0.31990297641E+01  0.38284589955E+01  0.21000000000E+01 0.  1.
</event>
<event>
 5   0  0.7462600E-02  0.9118800E+02  0.7818608E-02  0.1180000E+00
       11   -1    0    0    0    0  0.00000000000E+00  0.00000000000E+00  0.39999999673E+01  0.40000000000E+01  0.51109989000E-03 0. -1.
     -623   -1    0    0    0    0  0.00000000000E+00  0.00000000000E+00  0.12525980253E-10  0.17130000000E+03  0.17130000000E+03 0. -1.
       11    1    1    2    0    0 -0.23842375005E-01 -0.33977767172E+00  0.30603529253E+00  0.45790303181E+00  0.51109989000E-03 0. -1.
     -623    1    1    2    0    0  0.27148412597E+00  0.93056526071E+00  0.92103275832E+00  0.17130521871E+03  0.17130000000E+03 0. -1.
      622    1    1    2    0    0 -0.24764175096E+00 -0.59078758898E+00  0.27729319165E+01  0.35368782599E+01  0.21000000000E+01 0. -1.
</event>
<event>
 5   0  0.7462600E-02  0.9118800E+02  0.7818608E-02  0.1180000E+00
       11   -1    0    0    0    0  0.00000000000E+00  0.00000000000E+00  0.39999999673E+01  0.40000000000E+01  0.51109989000E-03 0. -1.
     -623   -1    0    0    0    0  0.00000000000E+00  0.00000000000E+00  0.12525980253E-10  0.17130000000E+03  0.17130000000E+03 0.  1.
       11    1    1    2    0    0 -0.40621818080E-01 -0.61438831140E-01 -0.49033301464E-01  0.88483828757E-01  0.51109989000E-03 0. -1.
     -623    1    1    2    0    0 -0.43813377606E+00  0.63681319450E-01  0.78680383349E+00  0.17130237908E+03  0.17130000000E+03 0.  1.
      622    1    1    2    0    0  0.47875559414E+00 -0.22424883105E-02  0.32622294353E+01  0.39091370961E+01  0.21000000000E+01 0. -1.
</event>
<event>
 5   0  0.7462600E-02  0.9118800E+02  0.7818608E-02  0.1180000E+00
       11   -1    0    0    0    0  0.00000000000E+00  0.00000000000E+00  0.39999999673E+01  0.40000000000E+01  0.51109989000E-03 0.  1.
     -623   -1    0    0    0    0  0.00000000000E+00  0.00000000000E+00  0.12525980253E-10  0.17130000000E+03  0.17130000000E+03 0.  1.
       11    1    1    2    0    0 -0.29881181040E+00 -0.16395140068E+00  0.15483941089E+00  0.37435820307E+00  0.51109989000E-03 0.  1.
     -623    1    1    2    0    0  0.30493253462E+00  0.41149152232E+00  0.90388006116E+00  0.17130315032E+03  0.17130000000E+03 0.  1.
      622    1    1    2    0    0 -0.61207242140E-02 -0.24754012164E+00  0.29412804953E+01  0.36224914806E+01  0.21000000000E+01 0.  1.
</event>
<event>
 5   0  0.7462600E-02  0.9118800E+02  0.7818608E-02  0.1180000E+00
       11   -1    0    0    0    0  0.00000000000E+00  0.00000000000E+00  0.39999999673E+01  0.40000000000E+01  0.51109989000E-03 0. -1.
     -623   -1    0    0    0    0  0.00000000000E+00  0.00000000000E+00  0.12525980253E-10  0.17130000000E+03  0.17130000000E+03 0.  1.
       11    1    1    2    0    0  0.85333272860E-01 -0.96004132393E-01  0.20324121391E-01  0.13004573052E+00  0.51109989000E-03 0. -1.
     -623    1    1    2    0    0  0.20405987814E+00 -0.13488229138E-02  0.74551037963E+00  0.17130174380E+03  0.17130000000E+03 0.  1.
      622    1    1    2    0    0 -0.28939315100E+00  0.97352955307E-01  0.32341654663E+01  0.38682104722E+01  0.21000000000E+01 0. -1.
</event>
<event>
 5   0  0.7462600E-02  0.9118800E+02  0.7818608E-02  0.1180000E+00
       11   -1    0    0    0    0  0.00000000000E+00  0.00000000000E+00  0.39999999673E+01  0.40000000000E+01  0.51109989000E-03 0. -1.
     -623   -1    0    0    0    0  0.00000000000E+00  0.00000000000E+00  0.12525980253E-10  0.17130000000E+03  0.17130000000E+03 0. -1.
       11    1    1    2    0    0  0.23690215917E+00  0.15759177586E-01  0.85132161687E-01  0.25222753790E+00  0.51109989000E-03 0. -1.
     -623    1    1    2    0    0 -0.91480280195E-01  0.16073952360E+00  0.82165188245E+00  0.17130207038E+03  0.17130000000E+03 0. -1.
      622    1    1    2    0    0 -0.14542187898E+00 -0.17649870119E+00  0.30932159232E+01  0.37457020787E+01  0.21000000000E+01 0. -1.
</event>
<event>
 5   0  0.7462600E-02  0.9118800E+02  0.7818608E-02  0.1180000E+00
       11   -1    0    0    0    0  0.00000000000E+00  0.00000000000E+00  0.39999999673E+01  0.40000000000E+01  0.51109989000E-03 0.  1.
     -623   -1    0    0    0    0  0.00000000000E+00  0.00000000000E+00  0.12525980253E-10  0.17130000000E+03  0.17130000000E+03 0.  1.
       11    1    1    2    0    0 -0.23604836261E-02 -0.31538391579E+00 -0.19703865284E-01  0.31600805330E+00  0.51109989000E-03 0.  1.
     -623    1    1    2    0    0  0.53264682770E-02  0.29150933652E+00  0.99678607310E+00  0.17130314822E+03  0.17130000000E+03 0.  1.
      622    1    1    2    0    0 -0.29659846510E-02  0.23874579268E-01  0.30229177595E+01  0.36808437312E+01  0.21000000000E+01 0.  0.
</event>
<event>
 5   0  0.7462600E-02  0.9118800E+02  0.7818608E-02  0.1180000E+00
       11   -1    0    0    0    0  0.00000000000E+00  0.00000000000E+00  0.39999999673E+01  0.40000000000E+01  0.51109989000E-03 0. -1.
     -623   -1    0    0    0    0  0.00000000000E+00  0.00000000000E+00  0.12525980253E-10  0.17130000000E+03  0.17130000000E+03 0. -1.
       11    1    1    2    0    0  0.13686139959E+00 -0.54226762665E-01 -0.98960969361E-01  0.17738410066E+00  0.51109989000E-03 0. -1.
     -623    1    1    2    0    0 -0.28814012105E+00 -0.16318274071E+00  0.91918944678E+00  0.17130278621E+03  0.17130000000E+03 0. -1.
      622    1    1    2    0    0  0.15127872147E+00  0.21740950338E+00  0.31797714899E+01  0.38198296915E+01  0.21000000000E+01 0. -1.
</event>
<event>
 5   0  0.7462600E-02  0.9118800E+02  0.7818608E-02  0.1180000E+00
       11   -1    0    0    0    0  0.00000000000E+00  0.00000000000E+00  0.39999999673E+01  0.40000000000E+01  0.51109989000E-03 0. -1.
     -623   -1    0    0    0    0  0.00000000000E+00  0.00000000000E+00  0.12525980253E-10  0.17130000000E+03  0.17130000000E+03 0.  1.
       11    1    1    2    0    0  0.30492183578E-01  0.18908431862E+00  0.10193286718E+00  0.21696364543E+00  0.51109989000E-03 0. -1.
     -623    1    1    2    0    0  0.45455725771E+00 -0.40850713533E+00  0.80039745775E+00  0.17130296009E+03  0.17130000000E+03 0.  1.
      622    1    1    2    0    0 -0.48504944129E+00  0.21942281671E+00  0.30976696424E+01  0.37800762620E+01  0.21000000000E+01 0. -1.
</event>
<event>
 5   0  0.7462600E-02  0.9118800E+02  0.7818608E-02  0.1180000E+00
       11   -1    0    0    0    0  0.00000000000E+00  0.00000000000E+00  0.39999999673E+01  0.40000000000E+01  0.51109989000E-03 0.  1.
     -623   -1    0    0    0    0  0.00000000000E+00  0.00000000000E+00  0.12525980253E-10  0.17130000000E+03  0.17130000000E+03 0.  1.
       11    1    1    2    0    0  0.23203441782E+00  0.20070153993E-01  0.97497498024E-01  0.25248525794E+00  0.51109989000E-03 0.  1.
     -623    1    1    2    0    0 -0.41556154320E-01 -0.28622792043E+00  0.81863173563E+00  0.17130220025E+03  0.17130000000E+03 0.  1.
      622    1    1    2    0    0 -0.19047826350E+00  0.26615776644E+00  0.30838707337E+01  0.37453144898E+01  0.21000000000E+01 0.  1.
</event>
<event>
 5   0  0.7462600E-02  0.9118800E+02  0.7818608E-02  0.1180000E+00
       11   -1    0    0    0    0  0.00000000000E+00  0.00000000000E+00  0.39999999673E+01  0.40000000000E+01  0.51109989000E-03 0.  1.
     -623   -1    0    0    0    0  0.00000000000E+00  0.00000000000E+00  0.12525980253E-10  0.17130000000E+03  0.17130000000E+03 0.  1.
       11    1    1    2    0    0 -0.50910361159E+00  0.18962431004E+00  0.60214845888E+00  0.81100363381E+00  0.51109989000E-03 0.  1.
     -623    1    1    2    0    0 -0.10191252723E+00 -0.10508038037E+00  0.10833376788E+01  0.17130348814E+03  0.17130000000E+03 0.  1.
      622    1    1    2    0    0  0.61101613882E+00 -0.84543929669E-01  0.23145138297E+01  0.31855082272E+01  0.21000000000E+01 0.  1.
</event>
<event>
 5   0  0.7462600E-02  0.9118800E+02  0.7818608E-02  0.1180000E+00
       11   -1    0    0    0    0  0.00000000000E+00  0.00000000000E+00  0.39999999673E+01  0.40000000000E+01  0.51109989000E-03 0.  1.
     -623   -1    0    0    0    0  0.00000000000E+00  0.00000000000E+00  0.12525980253E-10  0.17130000000E+03  0.17130000000E+03 0. -1.
       11    1    1    2    0    0 -0.18698892462E-01 -0.22157232377E-01 -0.12076470050E-01  0.31411683780E-01  0.51109989000E-03 0.  1.
     -623    1    1    2    0    0 -0.14773720335E+00  0.61199184187E+00  0.70399092209E+00  0.17130260349E+03  0.17130000000E+03 0. -1.
      622    1    1    2    0    0  0.16643609581E+00 -0.58983460949E+00  0.33080855153E+01  0.39659848231E+01  0.21000000000E+01 0.  1.
</event>
<event>
 5   0  0.7462600E-02  0.9118800E+02  0.7818608E-02  0.1180000E+00
       11   -1    0    0    0    0  0.00000000000E+00  0.00000000000E+00  0.39999999673E+01  0.40000000000E+01  0.51109989000E-03 0. -1.
     -623   -1    0    0    0    0  0.00000000000E+00  0.00000000000E+00  0.12525980253E-10  0.17130000000E+03  0.17130000000E+03 0.  1.
       11    1    1    2    0    0  0.27217485990E+00  0.25069821171E+00  0.72158077440E+00  0.81093022074E+00  0.51109989000E-03 0. -1.
     -623    1    1    2    0    0 -0.21820701125E+00 -0.58705938797E+00  0.90745005819E+00  0.17130354847E+03  0.17130000000E+03 0.  1.
      622    1    1    2    0    0 -0.53967848656E-01  0.33636117626E+00  0.23709691348E+01  0.31855213086E+01  0.21000000000E+01 0. -1.
</event>
<event>
 5   0  0.7462600E-02  0.9118800E+02  0.7818608E-02  0.1180000E+00
       11   -1    0    0    0    0  0.00000000000E+00  0.00000000000E+00  0.39999999673E+01  0.40000000000E+01  0.51109989000E-03 0.  1.
     -623   -1    0    0    0    0  0.00000000000E+00  0.00000000000E+00  0.12525980253E-10  0.17130000000E+03  0.17130000000E+03 0. -1.
       11    1    1    2    0    0 -0.49590034824E+00 -0.73199671753E-01  0.15188021032E+00  0.52377782202E+00  0.51109989000E-03 0.  1.
     -623    1    1    2    0    0 -0.22064466379E+00  0.62575610432E-01  0.11776558409E+01  0.17130420156E+03  0.17130000000E+03 0. -1.
      622    1    1    2    0    0  0.71654501203E+00  0.10624061321E-01  0.26704639162E+01  0.34720206152E+01  0.21000000000E+01 0.  0.
</event>
<event>
 5   0  0.7462600E-02  0.9118800E+02  0.7818608E-02  0.1180000E+00
       11   -1    0    0    0    0  0.00000000000E+00  0.00000000000E+00  0.39999999673E+01  0.40000000000E+01  0.51109989000E-03 0. -1.
     -623   -1    0    0    0    0  0.00000000000E+00  0.00000000000E+00  0.12525980253E-10  0.17130000000E+03  0.17130000000E+03 0.  1.
       11    1    1    2    0    0  0.14169619145E+00  0.48767692957E+00  0.12019952128E+00  0.52187621563E+00  0.51109989000E-03 0. -1.
     -623    1    1    2    0    0 -0.51862838270E+00 -0.51148543418E-01  0.11740226737E+01  0.17130481581E+03  0.17130000000E+03 0.  1.
      622    1    1    2    0    0  0.37693219124E+00 -0.43652838615E+00  0.27057777724E+01  0.34733079711E+01  0.21000000000E+01 0.  0.
</event>
<event>
 5   0  0.7462600E-02  0.9118800E+02  0.7818608E-02  0.1180000E+00
       11   -1    0    0    0    0  0.00000000000E+00  0.00000000000E+00  0.39999999673E+01  0.40000000000E+01  0.51109989000E-03 0.  1.
     -623   -1    0    0    0    0  0.00000000000E+00  0.00000000000E+00  0.12525980253E-10  0.17130000000E+03  0.17130000000E+03 0. -1.
       11    1    1    2    0    0 -0.22634075578E+00 -0.27144411916E+00  0.39559328544E+00  0.53047747950E+00  0.51109989000E-03 0.  1.
     -623    1    1    2    0    0 -0.70011335369E+00  0.93194437562E+00  0.10981903611E+01  0.17130748583E+03  0.17130000000E+03 0. -1.
      622    1    1    2    0    0  0.92645410946E+00 -0.66050025646E+00  0.25062163208E+01  0.34620366914E+01  0.21000000000E+01 0.  1.
</event>
<event>
 5   0  0.7462600E-02  0.9118800E+02  0.7818608E-02  0.1180000E+00
       11   -1    0    0    0    0  0.00000000000E+00  0.00000000000E+00  0.39999999673E+01  0.40000000000E+01  0.51109989000E-03 0.  1.
     -623   -1    0    0    0    0  0.00000000000E+00  0.00000000000E+00  0.12525980253E-10  0.17130000000E+03  0.17130000000E+03 0. -1.
       11    1    1    2    0    0 -0.30134345682E-01 -0.34318239192E-01  0.15044387952E+00  0.15722417893E+00  0.51109989000E-03 0.  1.
     -623    1    1    2    0    0 -0.33071297613E+00 -0.15494334598E+00  0.65923371277E+00  0.17130165781E+03  0.17130000000E+03 0. -1.
      622    1    1    2    0    0  0.36084732181E+00  0.18926158517E+00  0.31903223751E+01  0.38411180136E+01  0.21000000000E+01 0.  1.
</event>
<event>
 5   0  0.7462600E-02  0.9118800E+02  0.7818608E-02  0.1180000E+00
       11   -1    0    0    0    0  0.00000000000E+00  0.00000000000E+00  0.39999999673E+01  0.40000000000E+01  0.51109989000E-03 0.  1.
     -623   -1    0    0    0    0  0.00000000000E+00  0.00000000000E+00  0.12525980253E-10  0.17130000000E+03  0.17130000000E+03 0. -1.
       11    1    1    2    0    0 -0.17085300241E+00 -0.48173776978E-02  0.11748217811E+00  0.20740366187E+00  0.51109989000E-03 0.  1.
     -623    1    1    2    0    0  0.28256707628E-01  0.25437382362E+00  0.73965040469E+00  0.17130178804E+03  0.17130000000E+03 0. -1.
      622    1    1    2    0    0  0.14259629478E+00 -0.24955644593E+00  0.31428673846E+01  0.37908082937E+01  0.21000000000E+01 0.  1.
</event>
<event>
 5   0  0.7462600E-02  0.9118800E+02  0.7818608E-02  0.1180000E+00
       11   -1    0    0    0    0  0.00000000000E+00  0.00000000000E+00  0.39999999673E+01  0.40000000000E+01  0.51109989000E-03 0.  1.
     -623   -1    0    0    0    0  0.00000000000E+00  0.00000000000E+00  0.12525980253E-10  0.17130000000E+03  0.17130000000E+03 0. -1.
       11    1    1    2    0    0  0.36512106734E-02 -0.17995714868E+00  0.67096297545E-01  0.19209393813E+00  0.51109989000E-03 0.  1.
     -623    1    1    2    0    0  0.61681773324E-01 -0.72931341597E-01  0.76927078553E+00  0.17130175393E+03  0.17130000000E+03 0. -1.
      622    1    1    2    0    0 -0.65332983998E-01  0.25288849028E+00  0.31636328843E+01  0.38061521270E+01  0.21000000000E+01 0.  1.
</event>
<event>
 5   0  0.7462600E-02  0.9118800E+02  0.7818608E-02  0.1180000E+00
       11   -1    0    0    0    0  0.00000000000E+00  0.00000000000E+00  0.39999999673E+01  0.40000000000E+01  0.51109989000E-03 0.  1.
     -623   -1    0    0    0    0  0.00000000000E+00  0.00000000000E+00  0.12525980253E-10  0.17130000000E+03  0.17130000000E+03 0.  1.
       11    1    1    2    0    0 -0.79729328555E-01  0.12269364706E+00  0.27994421115E+00  0.31587896328E+00  0.51109989000E-03 0.  1.
     -623    1    1    2    0    0  0.30525355977E-02 -0.25875604398E+00  0.69906123337E+00  0.17130162186E+03  0.17130000000E+03 0.  1.
      622    1    1    2    0    0  0.76676792957E-01  0.13606239692E+00  0.30209945228E+01  0.36824991804E+01  0.21000000000E+01 0.  1.
</event>
<event>
 5   0  0.7462600E-02  0.9118800E+02  0.7818608E-02  0.1180000E+00
       11   -1    0    0    0    0  0.00000000000E+00  0.00000000000E+00  0.39999999673E+01  0.40000000000E+01  0.51109989000E-03 0. -1.
     -623   -1    0    0    0    0  0.00000000000E+00  0.00000000000E+00  0.12525980253E-10  0.17130000000E+03  0.17130000000E+03 0.  1.
       11    1    1    2    0    0  0.20063330382E+00 -0.29101724464E+00  0.33752339519E+00  0.48874028154E+00  0.51109989000E-03 0. -1.
     -623    1    1    2    0    0  0.86590559335E-01  0.20307689564E+00  0.86742787963E+00  0.17130233848E+03  0.17130000000E+03 0.  1.
      622    1    1    2    0    0 -0.28722386316E+00  0.87940348992E-01  0.27950486925E+01  0.35089212368E+01  0.21000000000E+01 0. -1.
</event>
<event>
 5   0  0.7462600E-02  0.9118800E+02  0.7818608E-02  0.1180000E+00
       11   -1    0    0    0    0  0.00000000000E+00  0.00000000000E+00  0.39999999673E+01  0.40000000000E+01  0.51109989000E-03 0. -1.
     -623   -1    0    0    0    0  0.00000000000E+00  0.00000000000E+00  0.12525980253E-10  0.17130000000E+03  0.17130000000E+03 0. -1.
       11    1    1    2    0    0 -0.99308468215E-02 -0.17812755395E-01  0.20974482585E-01  0.29259291108E-01  0.51109989000E-03 0. -1.
     -623    1    1    2    0    0 -0.10822225466E+00  0.28308679225E+00  0.62323637441E+00  0.17130140184E+03  0.17130000000E+03 0. -1.
      622    1    1    2    0    0  0.11815310149E+00 -0.26527403685E+00  0.33557891104E+01  0.39693388648E+01  0.21000000000E+01 0.  0.
</event>
<event>
 5   0  0.7462600E-02  0.9118800E+02  0.7818608E-02  0.1180000E+00
       11   -1    0    0    0    0  0.00000000000E+00  0.00000000000E+00  0.39999999673E+01  0.40000000000E+01  0.51109989000E-03 0.  1.
     -623   -1    0    0    0    0  0.00000000000E+00  0.00000000000E+00  0.12525980253E-10  0.17130000000E+03  0.17130000000E+03 0. -1.
       11    1    1    2    0    0 -0.10677529131E+00 -0.19907507151E-01  0.58737435280E-01  0.12348125040E+00  0.51109989000E-03 0.  1.
     -623    1    1    2    0    0  0.12676730628E+00 -0.13382797654E-01  0.68474393059E+00  0.17130141600E+03  0.17130000000E+03 0. -1.
      622    1    1    2    0    0 -0.19992014970E-01  0.33290304805E-01  0.32565186015E+01  0.38751027505E+01  0.21000000000E+01 0.  1.
</event>
<event>
 5   0  0.7462600E-02  0.9118800E+02  0.7818608E-02  0.1180000E+00
       11   -1    0    0    0    0  0.00000000000E+00  0.00000000000E+00  0.39999999673E+01  0.40000000000E+01  0.51109989000E-03 0.  1.
     -623   -1    0    0    0    0  0.00000000000E+00  0.00000000000E+00  0.12525980253E-10  0.17130000000E+03  0.17130000000E+03 0. -1.
       11    1    1    2    0    0 -0.27793547062E+00 -0.11411525900E+00  0.93263944949E-01  0.31459313854E+00  0.51109989000E-03 0.  1.
     -623    1    1    2    0    0  0.32615982400E+00  0.24353076563E+00  0.88469132969E+00  0.17130276812E+03  0.17130000000E+03 0. -1.
      622    1    1    2    0    0 -0.48224353385E-01 -0.12941550663E+00  0.30220446927E+01  0.36826387396E+01  0.21000000000E+01 0.  1.
</event>
<event>
 5   0  0.7462600E-02  0.9118800E+02  0.7818608E-02  0.1180000E+00
       11   -1    0    0    0    0  0.00000000000E+00  0.00000000000E+00  0.39999999673E+01  0.40000000000E+01  0.51109989000E-03 0. -1.
     -623   -1    0    0    0    0  0.00000000000E+00  0.00000000000E+00  0.12525980253E-10  0.17130000000E+03  0.17130000000E+03 0. -1.
       11    1    1    2    0    0 -0.13458771731E-01  0.36198650481E-01  0.27088479306E-01  0.47175499651E-01  0.51109989000E-03 0. -1.
     -623    1    1    2    0    0  0.24170019195E+00  0.14148914905E+00  0.63825313770E+00  0.17130141799E+03  0.17130000000E+03 0. -1.
      622    1    1    2    0    0 -0.22824142022E+00 -0.17768779953E+00  0.33346583504E+01  0.39514065108E+01  0.21000000000E+01 0. -1.
</event>
<event>
 5   0  0.7462600E-02  0.9118800E+02  0.7818608E-02  0.1180000E+00
       11   -1    0    0    0    0  0.00000000000E+00  0.00000000000E+00  0.39999999673E+01  0.40000000000E+01  0.51109989000E-03 0. -1.
     -623   -1    0    0    0    0  0.00000000000E+00  0.00000000000E+00  0.12525980253E-10  0.17130000000E+03  0.17130000000E+03 0. -1.
       11    1    1    2    0    0 -0.16722932945E+00 -0.10190110359E+00  0.48977063939E-01  0.20186257097E+00  0.51109989000E-03 0. -1.
     -623    1    1    2    0    0 -0.32600267430E+00  0.10723471304E+00  0.82776443364E+00  0.17130234374E+03  0.17130000000E+03 0. -1.
      622    1    1    2    0    0  0.49323200375E+00 -0.53336094500E-02  0.31232584698E+01  0.37957936885E+01  0.21000000000E+01 0. -1.
</event>
<event>
 5   0  0.7462600E-02  0.9118800E+02  0.7818608E-02  0.1180000E+00
       11   -1    0    0    0    0  0.00000000000E+00  0.00000000000E+00  0.39999999673E+01  0.40000000000E+01  0.51109989000E-03 0. -1.
     -623   -1    0    0    0    0  0.00000000000E+00  0.00000000000E+00  0.12525980253E-10  0.17130000000E+03  0.17130000000E+03 0.  1.
       11    1    1    2    0    0  0.43942764332E-01 -0.24786388347E+00 -0.13722055550E+00  0.28670056390E+00  0.51109989000E-03 0. -1.
     -623    1    1    2    0    0 -0.25977672411E-01 -0.47673700878E-01  0.10933806044E+01  0.17130349801E+03  0.17130000000E+03 0.  1.
      622    1    1    2    0    0 -0.17965091921E-01  0.29553758435E+00  0.30438399185E+01  0.37098014310E+01  0.21000000000E+01 0. -1.
</event>
<event>
 5   0  0.7462600E-02  0.9118800E+02  0.7818608E-02  0.1180000E+00
       11   -1    0    0    0    0  0.00000000000E+00  0.00000000000E+00  0.39999999673E+01  0.40000000000E+01  0.51109989000E-03 0.  1.
     -623   -1    0    0    0    0  0.00000000000E+00  0.00000000000E+00  0.12525980253E-10  0.17130000000E+03  0.17130000000E+03 0.  1.
       11    1    1    2    0    0 -0.10419566006E+00 -0.65042832123E+00  0.39817730708E+00  0.76971369076E+00  0.51109989000E-03 0.  1.
     -623    1    1    2    0    0  0.42497136138E-01  0.16083030760E+00  0.12031908830E+01  0.17130430625E+03  0.17130000000E+03 0.  1.
      622    1    1    2    0    0  0.61698523918E-01  0.48959801363E+00  0.23986317773E+01  0.32259800566E+01  0.21000000000E+01 0.  1.
</event>
<event>
 5   0  0.7462600E-02  0.9118800E+02  0.7818608E-02  0.1180000E+00
       11   -1    0    0    0    0  0.00000000000E+00  0.00000000000E+00  0.39999999673E+01  0.40000000000E+01  0.51109989000E-03 0. -1.
     -623   -1    0    0    0    0  0.00000000000E+00  0.00000000000E+00  0.12525980253E-10  0.17130000000E+03  0.17130000000E+03 0. -1.
       11    1    1    2    0    0 -0.30450380729E-01  0.25510584155E-01  0.65422828928E-01  0.76540338113E-01  0.51109989000E-03 0. -1.
     -623    1    1    2    0    0 -0.12330032738E+00 -0.89805879963E-01  0.62606482530E+00  0.17130121198E+03  0.17130000000E+03 0. -1.
      622    1    1    2    0    0  0.15375070811E+00  0.64295295807E-01  0.33085123131E+01  0.39222476836E+01  0.21000000000E+01 0. -1.
</event>
<event>
 5   0  0.7462600E-02  0.9118800E+02  0.7818608E-02  0.1180000E+00
       11   -1    0    0    0    0  0.00000000000E+00  0.00000000000E+00  0.39999999673E+01  0.40000000000E+01  0.51109989000E-03 0.  1.
     -623   -1    0    0    0    0  0.00000000000E+00  0.00000000000E+00  0.12525980253E-10  0.17130000000E+03  0.17130000000E+03 0.  1.
       11    1    1    2    0    0  0.11184258244E+00  0.13992988460E+00  0.12560866790E+00  0.21878513324E+00  0.51109989000E-03 0.  1.
     -623    1    1    2    0    0 -0.48552351602E+00 -0.21023121364E-01  0.75735086513E+00  0.17130236354E+03  0.17130000000E+03 0.  1.
      622    1    1    2    0    0  0.37368093359E+00 -0.11890676324E+00  0.31170404343E+01  0.37788513238E+01  0.21000000000E+01 0.  1.
</event>
<event>
 5   0  0.7462600E-02  0.9118800E+02  0.7818608E-02  0.1180000E+00
       11   -1    0    0    0    0  0.00000000000E+00  0.00000000000E+00  0.39999999673E+01  0.40000000000E+01  0.51109989000E-03 0.  1.
     -623   -1    0    0    0    0  0.00000000000E+00  0.00000000000E+00  0.12525980253E-10  0.17130000000E+03  0.17130000000E+03 0. -1.
       11    1    1    2    0    0  0.57683405479E-01 -0.10990184381E+00  0.14256682780E-02  0.12412930473E+00  0.51109989000E-03 0.  1.
     -623    1    1    2    0    0 -0.14827040523E+00  0.25315534367E+00  0.74756561502E+00  0.17130188244E+03  0.17130000000E+03 0. -1.
      622    1    1    2    0    0  0.90586999754E-01 -0.14325349986E+00  0.32510086841E+01  0.38739882593E+01  0.21000000000E+01 0.  1.
</event>
<event>
 5   0  0.7462600E-02  0.9118800E+02  0.7818608E-02  0.1180000E+00
       11   -1    0    0    0    0  0.00000000000E+00  0.00000000000E+00  0.39999999673E+01  0.40000000000E+01  0.51109989000E-03 0.  1.
     -623   -1    0    0    0    0  0.00000000000E+00  0.00000000000E+00  0.12525980253E-10  0.17130000000E+03  0.17130000000E+03 0. -1.
       11    1    1    2    0    0  0.69967145057E-01  0.68497552805E-01  0.36271229882E+00  0.37569640545E+00  0.51109989000E-03 0.  1.
     -623    1    1    2    0    0 -0.12448978605E+00 -0.18212691334E+00  0.68793998255E+00  0.17130152343E+03  0.17130000000E+03 0. -1.
      622    1    1    2    0    0  0.54522640992E-01  0.11362936054E+00  0.29493476860E+01  0.36227801648E+01  0.21000000000E+01 0.  1.
</event>
<event>
 5   0  0.7462600E-02  0.9118800E+02  0.7818608E-02  0.1180000E+00
       11   -1    0    0    0    0  0.00000000000E+00  0.00000000000E+00  0.39999999673E+01  0.40000000000E+01  0.51109989000E-03 0.  1.
     -623   -1    0    0    0    0  0.00000000000E+00  0.00000000000E+00  0.12525980253E-10  0.17130000000E+03  0.17130000000E+03 0.  1.
       11    1    1    2    0    0  0.56805724325E-02 -0.65296514314E-01  0.67036074723E-02  0.65887049262E-01  0.51109989000E-03 0.  1.
     -623    1    1    2    0    0 -0.49446882775E+00  0.74376964051E-02  0.70575439191E+00  0.17130216766E+03  0.17130000000E+03 0.  1.
      622    1    1    2    0    0  0.48878825531E+00  0.57858817909E-01  0.32875419680E+01  0.39319452937E+01  0.21000000000E+01 0.  1.
</event>
<event>
 5   0  0.7462600E-02  0.9118800E+02  0.7818608E-02  0.1180000E+00
       11   -1    0    0    0    0  0.00000000000E+00  0.00000000000E+00  0.39999999673E+01  0.40000000000E+01  0.51109989000E-03 0.  1.
     -623   -1    0    0    0    0  0.00000000000E+00  0.00000000000E+00  0.12525980253E-10  0.17130000000E+03  0.17130000000E+03 0.  1.
       11    1    1    2    0    0 -0.54672961943E-01  0.36787243538E-01 -0.18675117207E-01  0.68494198874E-01  0.51109989000E-03 0.  1.
     -623    1    1    2    0    0  0.32190658112E+00  0.10683328888E+00  0.71103894132E+00  0.17130181147E+03  0.17130000000E+03 0.  1.
      622    1    1    2    0    0 -0.26723361918E+00 -0.14362053242E+00  0.33076361433E+01  0.39296943292E+01  0.21000000000E+01 0.  1.
</event>
<event>
 5   0  0.7462600E-02  0.9118800E+02  0.7818608E-02  0.1180000E+00
       11   -1    0    0    0    0  0.00000000000E+00  0.00000000000E+00  0.39999999673E+01  0.40000000000E+01  0.51109989000E-03 0. -1.
     -623   -1    0    0    0    0  0.00000000000E+00  0.00000000000E+00  0.12525980253E-10  0.17130000000E+03  0.17130000000E+03 0. -1.
       11    1    1    2    0    0 -0.16211220457E-01 -0.18718161720E-01  0.22262426282E-01  0.33302403726E-01  0.51109989000E-03 0. -1.
     -623    1    1    2    0    0  0.26799116500E+00  0.62666205794E-01  0.62384412265E+00  0.17130135705E+03  0.17130000000E+03 0. -1.
      622    1    1    2    0    0 -0.25177994454E+00 -0.43948044075E-01  0.33538934184E+01  0.39653405444E+01  0.21000000000E+01 0. -1.
</event>
<event>
 5   0  0.7462600E-02  0.9118800E+02  0.7818608E-02  0.1180000E+00
       11   -1    0    0    0    0  0.00000000000E+00  0.00000000000E+00  0.39999999673E+01  0.40000000000E+01  0.51109989000E-03 0. -1.
     -623   -1    0    0    0    0  0.00000000000E+00  0.00000000000E+00  0.12525980253E-10  0.17130000000E+03  0.17130000000E+03 0. -1.
       11    1    1    2    0    0 -0.28043957485E+00 -0.88976850234E-01  0.40734272579E+00  0.50248541521E+00  0.51109989000E-03 0. -1.
     -623    1    1    2    0    0  0.50242044069E+00 -0.14382103888E+00  0.81778522052E+00  0.17130274920E+03  0.17130000000E+03 0. -1.
      622    1    1    2    0    0 -0.22198086584E+00  0.23279788912E+00  0.27748720210E+01  0.34947653849E+01  0.21000000000E+01 0. -1.
</event>
<event>
 5   0  0.7462600E-02  0.9118800E+02  0.7818608E-02  0.1180000E+00
       11   -1    0    0    0    0  0.00000000000E+00  0.00000000000E+00  0.39999999673E+01  0.40000000000E+01  0.51109989000E-03 0.  1.
     -623   -1    0    0    0    0  0.00000000000E+00  0.00000000000E+00  0.12525980253E-10  0.17130000000E+03  0.17130000000E+03 0.  1.
       11    1    1    2    0    0 -0.16555807364E+00  0.17011140574E+00  0.39818684213E+00  0.46357349857E+00  0.51109989000E-03 0.  1.
     -623    1    1    2    0    0  0.92214280764E-01  0.53195146760E-01  0.76832597905E+00  0.17130175614E+03  0.17130000000E+03 0.  1.
      622    1    1    2    0    0  0.73343792877E-01 -0.22330655250E+00  0.28334871462E+01  0.35346703575E+01  0.21000000000E+01 0.  1.
</event>
<event>
 5   0  0.7462600E-02  0.9118800E+02  0.7818608E-02  0.1180000E+00
       11   -1    0    0    0    0  0.00000000000E+00  0.00000000000E+00  0.39999999673E+01  0.40000000000E+01  0.51109989000E-03 0. -1.
     -623   -1    0    0    0    0  0.00000000000E+00  0.00000000000E+00  0.12525980253E-10  0.17130000000E+03  0.17130000000E+03 0.  1.
       11    1    1    2    0    0 -0.61974388755E-02 -0.10550879420E+00 -0.23915289221E+00  0.26146678752E+00  0.51109989000E-03 0. -1.
     -623    1    1    2    0    0  0.27833360392E+00  0.24894183406E+00  0.11668145400E+01  0.17130438085E+03  0.17130000000E+03 0.  1.
      622    1    1    2    0    0 -0.27213616504E+00 -0.14343303986E+00  0.30723383196E+01  0.37341523642E+01  0.21000000000E+01 0. -1.
</event>
<event>
 5   0  0.7462600E-02  0.9118800E+02  0.7818608E-02  0.1180000E+00
       11   -1    0    0    0    0  0.00000000000E+00  0.00000000000E+00  0.39999999673E+01  0.40000000000E+01  0.51109989000E-03 0.  1.
     -623   -1    0    0    0    0  0.00000000000E+00  0.00000000000E+00  0.12525980253E-10  0.17130000000E+03  0.17130000000E+03 0. -1.
       11    1    1    2    0    0  0.11378390315E+00  0.36316283940E-01  0.35611568952E-01  0.12463584621E+00  0.51109989000E-03 0.  1.
     -623    1    1    2    0    0  0.17825776327E-01  0.84946252679E-01  0.71404707113E+00  0.17130151020E+03  0.17130000000E+03 0. -1.
      622    1    1    2    0    0 -0.13160967947E+00 -0.12126253662E+00  0.32503413273E+01  0.38738539537E+01  0.21000000000E+01 0.  1.
</event>
<event>
 5   0  0.7462600E-02  0.9118800E+02  0.7818608E-02  0.1180000E+00
       11   -1    0    0    0    0  0.00000000000E+00  0.00000000000E+00  0.39999999673E+01  0.40000000000E+01  0.51109989000E-03 0. -1.
     -623   -1    0    0    0    0  0.00000000000E+00  0.00000000000E+00  0.12525980253E-10  0.17130000000E+03  0.17130000000E+03 0. -1.
       11    1    1    2    0    0  0.31580465139E+00 -0.17364614948E+00 -0.33782248221E+00  0.49397353550E+00  0.51109989000E-03 0. -1.
     -623    1    1    2    0    0 -0.40665757788E+00  0.90800962783E-01  0.15423042684E+01  0.17130744969E+03  0.17130000000E+03 0. -1.
      622    1    1    2    0    0  0.90852926489E-01  0.82845186697E-01  0.27955181812E+01  0.34985767793E+01  0.21000000000E+01 0. -1.
</event>
<event>
 5   0  0.7462600E-02  0.9118800E+02  0.7818608E-02  0.1180000E+00
       11   -1    0    0    0    0  0.00000000000E+00  0.00000000000E+00  0.39999999673E+01  0.40000000000E+01  0.51109989000E-03 0. -1.
     -623   -1    0    0    0    0  0.00000000000E+00  0.00000000000E+00  0.12525980253E-10  0.17130000000E+03  0.17130000000E+03 0. -1.
       11    1    1    2    0    0  0.64087020201E-01 -0.23391973005E-01 -0.12552566121E+00  0.14286806293E+00  0.51109989000E-03 0. -1.
     -623    1    1    2    0    0  0.49982273904E+00 -0.34403233651E+00  0.96558850970E+00  0.17130379605E+03  0.17130000000E+03 0. -1.
      622    1    1    2    0    0 -0.56390975925E+00  0.36742430951E+00  0.31599371189E+01  0.38533358840E+01  0.21000000000E+01 0. -1.
</event>
<event>
 5   0  0.7462600E-02  0.9118800E+02  0.7818608E-02  0.1180000E+00
       11   -1    0    0    0    0  0.00000000000E+00  0.00000000000E+00  0.39999999673E+01  0.40000000000E+01  0.51109989000E-03 0.  1.
     -623   -1    0    0    0    0  0.00000000000E+00  0.00000000000E+00  0.12525980253E-10  0.17130000000E+03  0.17130000000E+03 0.  1.
       11    1    1    2    0    0  0.27236709115E-02  0.29114354365E-01  0.99755594429E-01  0.10395433544E+00  0.51109989000E-03 0.  1.
     -623    1    1    2    0    0 -0.53332881929E-01 -0.53635492621E+00  0.66098866405E+00  0.17130212324E+03  0.17130000000E+03 0.  1.
      622    1    1    2    0    0  0.50609211018E-01  0.50724057184E+00  0.32392557089E+01  0.38939224231E+01  0.21000000000E+01 0.  1.
</event>
<event>
 5   0  0.7462600E-02  0.9118800E+02  0.7818608E-02  0.1180000E+00
       11   -1    0    0    0    0  0.00000000000E+00  0.00000000000E+00  0.39999999673E+01  0.40000000000E+01  0.51109989000E-03 0.  1.
     -623   -1    0    0    0    0  0.00000000000E+00  0.00000000000E+00  0.12525980253E-10  0.17130000000E+03  0.17130000000E+03 0. -1.
       11    1    1    2    0    0 -0.55085495035E-01  0.12022045036E+00  0.10704390410E+00  0.17013531989E+00  0.51109989000E-03 0.  1.
     -623    1    1    2    0    0 -0.43836166931E-02 -0.28113438257E+00  0.69673712205E+00  0.17130164768E+03  0.17130000000E+03 0. -1.
      622    1    1    2    0    0  0.59469111728E-01  0.16091393221E+00  0.31962189412E+01  0.38282169987E+01  0.21000000000E+01 0.  1.
</event>
<event>
 5   0  0.7462600E-02  0.9118800E+02  0.7818608E-02  0.1180000E+00
       11   -1    0    0    0    0  0.00000000000E+00  0.00000000000E+00  0.39999999673E+01  0.40000000000E+01  0.51109989000E-03 0.  1.
     -623   -1    0    0    0    0  0.00000000000E+00  0.00000000000E+00  0.12525980253E-10  0.17130000000E+03  0.17130000000E+03 0.  1.
       11    1    1    2    0    0  0.98429308967E-01 -0.52329781942E-01  0.71925449230E-01  0.13266599569E+00  0.51109989000E-03 0.  1.
     -623    1    1    2    0    0 -0.11089372151E+00  0.42399174275E+00  0.70434186758E+00  0.17130200864E+03  0.17130000000E+03 0.  1.
      622    1    1    2    0    0  0.12464412547E-01 -0.37166196081E+00  0.32237326505E+01  0.38653253649E+01  0.21000000000E+01 0.  1.
</event>
<event>
 5   0  0.7462600E-02  0.9118800E+02  0.7818608E-02  0.1180000E+00
       11   -1    0    0    0    0  0.00000000000E+00  0.00000000000E+00  0.39999999673E+01  0.40000000000E+01  0.51109989000E-03 0.  1.
     -623   -1    0    0    0    0  0.00000000000E+00  0.00000000000E+00  0.12525980253E-10  0.17130000000E+03  0.17130000000E+03 0. -1.
       11    1    1    2    0    0  0.14288701190E-01 -0.30825244955E+00  0.40262864242E+00  0.50728081430E+00  0.51109989000E-03 0.  1.
     -623    1    1    2    0    0  0.32863768195E-01  0.16486710812E+00  0.81308454434E+00  0.17130201215E+03  0.17130000000E+03 0. -1.
      622    1    1    2    0    0 -0.47152469386E-01  0.14338534143E+00  0.27842867806E+01  0.34907070327E+01  0.21000000000E+01 0.  1.
</event>
<event>
 5   0  0.7462600E-02  0.9118800E+02  0.7818608E-02  0.1180000E+00
       11   -1    0    0    0    0  0.00000000000E+00  0.00000000000E+00  0.39999999673E+01  0.40000000000E+01  0.51109989000E-03 0.  1.
     -623   -1    0    0    0    0  0.00000000000E+00  0.00000000000E+00  0.12525980253E-10  0.17130000000E+03  0.17130000000E+03 0.  1.
       11    1    1    2    0    0  0.54145080928E-01 -0.38163490601E-02 -0.47458520335E-01  0.72102889570E-01  0.51109989000E-03 0.  1.
     -623    1    1    2    0    0 -0.25863823501E+00 -0.31643727877E+00  0.75243364244E+00  0.17130214004E+03  0.17130000000E+03 0.  1.
      622    1    1    2    0    0  0.20449315408E+00  0.32025362783E+00  0.32950248453E+01  0.39257570693E+01  0.21000000000E+01 0.  1.
</event>
<event>
 5   0  0.7462600E-02  0.9118800E+02  0.7818608E-02  0.1180000E+00
       11   -1    0    0    0    0  0.00000000000E+00  0.00000000000E+00  0.39999999673E+01  0.40000000000E+01  0.51109989000E-03 0.  1.
     -623   -1    0    0    0    0  0.00000000000E+00  0.00000000000E+00  0.12525980253E-10  0.17130000000E+03  0.17130000000E+03 0. -1.
       11    1    1    2    0    0 -0.14187307287E+00  0.12018732728E+00  0.45019995950E-01  0.19131132664E+00  0.51109989000E-03 0.  1.
     -623    1    1    2    0    0 -0.92147760859E-01 -0.27599441724E+00  0.79250858200E+00  0.17130208036E+03  0.17130000000E+03 0. -1.
      622    1    1    2    0    0  0.23402083373E+00  0.15580708996E+00  0.31624713894E+01  0.38066083183E+01  0.21000000000E+01 0.  1.
</event>
<event>
 5   0  0.7462600E-02  0.9118800E+02  0.7818608E-02  0.1180000E+00
       11   -1    0    0    0    0  0.00000000000E+00  0.00000000000E+00  0.39999999673E+01  0.40000000000E+01  0.51109989000E-03 0.  1.
     -623   -1    0    0    0    0  0.00000000000E+00  0.00000000000E+00  0.12525980253E-10  0.17130000000E+03  0.17130000000E+03 0. -1.
       11    1    1    2    0    0 -0.11304270073E+00 -0.76765203912E-01  0.12449308697E+00  0.18485220758E+00  0.51109989000E-03 0.  1.
     -623    1    1    2    0    0  0.17379252918E+00 -0.34797759510E-01  0.69466247604E+00  0.17130150020E+03  0.17130000000E+03 0. -1.
      622    1    1    2    0    0 -0.60749828446E-01  0.11156296342E+00  0.31808444043E+01  0.38136475927E+01  0.21000000000E+01 0.  1.
</event>
<event>
 5   0  0.7462600E-02  0.9118800E+02  0.7818608E-02  0.1180000E+00
       11   -1    0    0    0    0  0.00000000000E+00  0.00000000000E+00  0.39999999673E+01  0.40000000000E+01  0.51109989000E-03 0. -1.
     -623   -1    0    0    0    0  0.00000000000E+00  0.00000000000E+00  0.12525980253E-10  0.17130000000E+03  0.17130000000E+03 0. -1.
       11    1    1    2    0    0 -0.11893751794E+00 -0.20217994387E+00  0.24219826515E+00  0.33716928054E+00  0.51109989000E-03 0. -1.
     -623    1    1    2    0    0  0.34824951914E+00  0.28526031555E+00  0.76951572799E+00  0.17130231991E+03  0.17130000000E+03 0. -1.
      622    1    1    2    0    0 -0.22931200120E+00 -0.83080371682E-01  0.29882859742E+01  0.36605108121E+01  0.21000000000E+01 0. -1.
</event>
<event>
 5   0  0.7462600E-02  0.9118800E+02  0.7818608E-02  0.1180000E+00
       11   -1    0    0    0    0  0.00000000000E+00  0.00000000000E+00  0.39999999673E+01  0.40000000000E+01  0.51109989000E-03 0. -1.
     -623   -1    0    0    0    0  0.00000000000E+00  0.00000000000E+00  0.12525980253E-10  0.17130000000E+03  0.17130000000E+03 0. -1.
       11    1    1    2    0    0 -0.30651005307E+00 -0.15252642472E+00  0.61261215565E+00  0.70178817127E+00  0.51109989000E-03 0. -1.
     -623    1    1    2    0    0  0.10888202711E+00  0.24113238107E+00  0.85641379198E+00  0.17130234512E+03  0.17130000000E+03 0. -1.
      622    1    1    2    0    0  0.19762802596E+00 -0.88605956352E-01  0.25309740197E+01  0.32958667055E+01  0.21000000000E+01 0. -1.
</event>
<event>
 5   0  0.7462600E-02  0.9118800E+02  0.7818608E-02  0.1180000E+00
       11   -1    0    0    0    0  0.00000000000E+00  0.00000000000E+00  0.39999999673E+01  0.40000000000E+01  0.51109989000E-03 0.  1.
     -623   -1    0    0    0    0  0.00000000000E+00  0.00000000000E+00  0.12525980253E-10  0.17130000000E+03  0.17130000000E+03 0.  1.
       11    1    1    2    0    0  0.92883285134E-01 -0.29706128013E+00  0.97804522598E-01  0.32624943627E+00  0.51109989000E-03 0.  1.
     -623    1    1    2    0    0 -0.38130631945E+00  0.81784486416E+00  0.95344882496E+00  0.17130503008E+03  0.17130000000E+03 0. -1.
      622    1    1    2    0    0  0.28842303432E+00 -0.52078358403E+00  0.29487466198E+01  0.36687204876E+01  0.21000000000E+01 0.  1.
</event>
<event>
 5   0  0.7462600E-02  0.9118800E+02  0.7818608E-02  0.1180000E+00
       11   -1    0    0    0    0  0.00000000000E+00  0.00000000000E+00  0.39999999673E+01  0.40000000000E+01  0.51109989000E-03 0.  1.
     -623   -1    0    0    0    0  0.00000000000E+00  0.00000000000E+00  0.12525980253E-10  0.17130000000E+03  0.17130000000E+03 0. -1.
       11    1    1    2    0    0  0.24995564475E+00 -0.26525913801E+00  0.79857936945E-01  0.37311899704E+00  0.51109989000E-03 0.  1.
     -623    1    1    2    0    0 -0.32660994031E+00  0.43667037086E+00  0.97350664002E+00  0.17130363414E+03  0.17130000000E+03 0. -1.
      622    1    1    2    0    0  0.76654295561E-01 -0.17141123285E+00  0.29466353904E+01  0.36232468610E+01  0.21000000000E+01 0.  1.
</event>
<event>
 5   0  0.7462600E-02  0.9118800E+02  0.7818608E-02  0.1180000E+00
       11   -1    0    0    0    0  0.00000000000E+00  0.00000000000E+00  0.39999999673E+01  0.40000000000E+01  0.51109989000E-03 0.  1.
     -623   -1    0    0    0    0  0.00000000000E+00  0.00000000000E+00  0.12525980253E-10  0.17130000000E+03  0.17130000000E+03 0. -1.
       11    1    1    2    0    0 -0.22019334400E+00  0.13034177655E+00  0.20968154999E+00  0.33081822967E+00  0.51109989000E-03 0.  1.
     -623    1    1    2    0    0 -0.49324984346E-01 -0.41429317179E+00  0.81007551624E+00  0.17130242349E+03  0.17130000000E+03 0. -1.
      622    1    1    2    0    0  0.26951832835E+00  0.28395139524E+00  0.29802429011E+01  0.36667582786E+01  0.21000000000E+01 0.  1.
</event>
<event>
 5   0  0.7462600E-02  0.9118800E+02  0.7818608E-02  0.1180000E+00
       11   -1    0    0    0    0  0.00000000000E+00  0.00000000000E+00  0.39999999673E+01  0.40000000000E+01  0.51109989000E-03 0.  1.
     -623   -1    0    0    0    0  0.00000000000E+00  0.00000000000E+00  0.12525980253E-10  0.17130000000E+03  0.17130000000E+03 0. -1.
       11    1    1    2    0    0 -0.64347381907E-01  0.75496891540E-01  0.14945198576E-01  0.10031942172E+00  0.51109989000E-03 0.  1.
     -623    1    1    2    0    0 -0.94770610491E-01 -0.10665837184E+00  0.70489525876E+00  0.17130150973E+03  0.17130000000E+03 0. -1.
      622    1    1    2    0    0  0.15911799240E+00  0.31161480300E-01  0.32801595100E+01  0.38981708511E+01  0.21000000000E+01 0.  1.
</event>
<event>
 5   0  0.7462600E-02  0.9118800E+02  0.7818608E-02  0.1180000E+00
       11   -1    0    0    0    0  0.00000000000E+00  0.00000000000E+00  0.39999999673E+01  0.40000000000E+01  0.51109989000E-03 0. -1.
     -623   -1    0    0    0    0  0.00000000000E+00  0.00000000000E+00  0.12525980253E-10  0.17130000000E+03  0.17130000000E+03 0.  1.
       11    1    1    2    0    0  0.49017156897E-01 -0.22516275252E+00  0.19374483874E+00  0.30106190485E+00  0.51109989000E-03 0. -1.
     -623    1    1    2    0    0 -0.33115979540E+00  0.32374089985E+00  0.77886410640E+00  0.17130239667E+03  0.17130000000E+03 0.  1.
      622    1    1    2    0    0  0.28214263850E+00 -0.98578147337E-01  0.30273910222E+01  0.36965414269E+01  0.21000000000E+01 0. -1.
</event>
<event>
 5   0  0.7462600E-02  0.9118800E+02  0.7818608E-02  0.1180000E+00
       11   -1    0    0    0    0  0.00000000000E+00  0.00000000000E+00  0.39999999673E+01  0.40000000000E+01  0.51109989000E-03 0.  1.
     -623   -1    0    0    0    0  0.00000000000E+00  0.00000000000E+00  0.12525980253E-10  0.17130000000E+03  0.17130000000E+03 0. -1.
       11    1    1    2    0    0 -0.77484317685E-01 -0.17059009171E+00 -0.34195465496E-01  0.19045836805E+00  0.51109989000E-03 0.  1.
     -623    1    1    2    0    0  0.11584942425E+01 -0.67325677170E+00  0.11791671657E+01  0.17130929869E+03  0.17130000000E+03 0. -1.
      622    1    1    2    0    0 -0.10810099248E+01  0.84384686340E+00  0.28550282671E+01  0.38002429386E+01  0.21000000000E+01 0.  1.
</event>
<event>
 5   0  0.7462600E-02  0.9118800E+02  0.7818608E-02  0.1180000E+00
       11   -1    0    0    0    0  0.00000000000E+00  0.00000000000E+00  0.39999999673E+01  0.40000000000E+01  0.51109989000E-03 0. -1.
     -623   -1    0    0    0    0  0.00000000000E+00  0.00000000000E+00  0.12525980253E-10  0.17130000000E+03  0.17130000000E+03 0.  1.
       11    1    1    2    0    0 -0.23473980261E-01  0.15226796091E-01  0.54752743941E-01  0.61489895583E-01  0.51109989000E-03 0. -1.
     -623    1    1    2    0    0  0.13066551659E-01 -0.26205898340E+00  0.62405885763E+00  0.17130133769E+03  0.17130000000E+03 0.  1.
      622    1    1    2    0    0  0.10407428601E-01  0.24683218731E+00  0.33211883658E+01  0.39371724123E+01  0.21000000000E+01 0. -1.
</event>
<event>
 5   0  0.7462600E-02  0.9118800E+02  0.7818608E-02  0.1180000E+00
       11   -1    0    0    0    0  0.00000000000E+00  0.00000000000E+00  0.39999999673E+01  0.40000000000E+01  0.51109989000E-03 0.  1.
     -623   -1    0    0    0    0  0.00000000000E+00  0.00000000000E+00  0.12525980253E-10  0.17130000000E+03  0.17130000000E+03 0.  1.
       11    1    1    2    0    0 -0.99909289011E-01  0.25807835497E+00 -0.64446930715E-01  0.28414779857E+00  0.51109989000E-03 0.  1.
     -623    1    1    2    0    0  0.22533849172E+00 -0.37139314486E+00  0.10078359308E+01  0.17130351556E+03  0.17130000000E+03 0.  1.
      622    1    1    2    0    0 -0.12542920270E+00  0.11331478990E+00  0.30566109673E+01  0.37123366404E+01  0.21000000000E+01 0.  1.
</event>
<event>
 5   0  0.7462600E-02  0.9118800E+02  0.7818608E-02  0.1180000E+00
       11   -1    0    0    0    0  0.00000000000E+00  0.00000000000E+00  0.39999999673E+01  0.40000000000E+01  0.51109989000E-03 0. -1.
     -623   -1    0    0    0    0  0.00000000000E+00  0.00000000000E+00  0.12525980253E-10  0.17130000000E+03  0.17130000000E+03 0.  1.
       11    1    1    2    0    0  0.72144102728E-01 -0.10008821857E+00  0.90944168741E-01  0.15327598019E+00  0.51109989000E-03 0. -1.
     -623    1    1    2    0    0 -0.19198233981E+00  0.49927815321E+00  0.71599458928E+00  0.17130233152E+03  0.17130000000E+03 0.  1.
      622    1    1    2    0    0  0.11983823708E+00 -0.39918993464E+00  0.31930612093E+01  0.38443924999E+01  0.21000000000E+01 0. -1.
</event>
<event>
 5   0  0.7462600E-02  0.9118800E+02  0.7818608E-02  0.1180000E+00
       11   -1    0    0    0    0  0.00000000000E+00  0.00000000000E+00  0.39999999673E+01  0.40000000000E+01  0.51109989000E-03 0.  1.
     -623   -1    0    0    0    0  0.00000000000E+00  0.00000000000E+00  0.12525980253E-10  0.17130000000E+03  0.17130000000E+03 0.  1.
       11    1    1    2    0    0  0.39354812566E-01  0.15878217262E-02  0.12952122035E-01  0.41464938662E-01  0.51109989000E-03 0.  1.
     -623    1    1    2    0    0 -0.59836188741E-01  0.39162326476E+00  0.65667602701E+00  0.17130171678E+03  0.17130000000E+03 0.  1.
      622    1    1    2    0    0  0.20481376175E-01 -0.39321108649E+00  0.33303718183E+01  0.39568182791E+01  0.21000000000E+01 0.  1.
</event>
<event>
 5   0  0.7462600E-02  0.9118800E+02  0.7818608E-02  0.1180000E+00
       11   -1    0    0    0    0  0.00000000000E+00  0.00000000000E+00  0.39999999673E+01  0.40000000000E+01  0.51109989000E-03 0. -1.
     -623   -1    0    0    0    0  0.00000000000E+00  0.00000000000E+00  0.12525980253E-10  0.17130000000E+03  0.17130000000E+03 0.  1.
       11    1    1    2    0    0  0.54452636395E-01  0.84742753348E-01  0.83243810051E-01  0.13067600005E+00  0.51109989000E-03 0. -1.
     -623    1    1    2    0    0 -0.22916675277E+00  0.32535805866E-01  0.67547944240E+00  0.17130148817E+03  0.17130000000E+03 0.  1.
      622    1    1    2    0    0  0.17471411637E+00 -0.11727855921E+00  0.32412767149E+01  0.38678358323E+01  0.21000000000E+01 0. -1.
</event>
<event>
 5   0  0.7462600E-02  0.9118800E+02  0.7818608E-02  0.1180000E+00
       11   -1    0    0    0    0  0.00000000000E+00  0.00000000000E+00  0.39999999673E+01  0.40000000000E+01  0.51109989000E-03 0. -1.
     -623   -1    0    0    0    0  0.00000000000E+00  0.00000000000E+00  0.12525980253E-10  0.17130000000E+03  0.17130000000E+03 0. -1.
       11    1    1    2    0    0 -0.20179648067E+00  0.33645868927E+00  0.35703917374E+00  0.53047478922E+00  0.51109989000E-03 0. -1.
     -623    1    1    2    0    0  0.32428622345E-01 -0.14051371962E-01  0.90832311710E+00  0.17130241183E+03  0.17130000000E+03 0. -1.
      622    1    1    2    0    0  0.16936785832E+00 -0.32240731731E+00  0.27346376765E+01  0.34671133774E+01  0.21000000000E+01 0. -1.
</event>
<event>
 5   0  0.7462600E-02  0.9118800E+02  0.7818608E-02  0.1180000E+00
       11   -1    0    0    0    0  0.00000000000E+00  0.00000000000E+00  0.39999999673E+01  0.40000000000E+01  0.51109989000E-03 0.  1.
     -623   -1    0    0    0    0  0.00000000000E+00  0.00000000000E+00  0.12525980253E-10  0.17130000000E+03  0.17130000000E+03 0. -1.
       11    1    1    2    0    0 -0.27962645565E+00 -0.11534980103E+00  0.16799406731E-01  0.30295051178E+00  0.51109989000E-03 0.  1.
     -623    1    1    2    0    0  0.32172101815E+00  0.16526097086E+00  0.94480757045E+00  0.17130298736E+03  0.17130000000E+03 0. -1.
      622    1    1    2    0    0 -0.42094562500E-01 -0.49911169823E-01  0.30383929902E+01  0.36940621326E+01  0.21000000000E+01 0.  1.
</event>
<event>
 5   0  0.7462600E-02  0.9118800E+02  0.7818608E-02  0.1180000E+00
       11   -1    0    0    0    0  0.00000000000E+00  0.00000000000E+00  0.39999999673E+01  0.40000000000E+01  0.51109989000E-03 0.  1.
     -623   -1    0    0    0    0  0.00000000000E+00  0.00000000000E+00  0.12525980253E-10  0.17130000000E+03  0.17130000000E+03 0.  1.
       11    1    1    2    0    0 -0.16027148551E+00 -0.18065618477E+00  0.17945373444E+00  0.30087789913E+00  0.51109989000E-03 0.  1.
     -623    1    1    2    0    0  0.91072306057E-01 -0.15438454863E+00  0.79696261475E+00  0.17130194768E+03  0.17130000000E+03 0.  1.
      622    1    1    2    0    0  0.69199179450E-01  0.33504073340E+00  0.30235836182E+01  0.36971744232E+01  0.21000000000E+01 0.  1.
</event>
<event>
 5   0  0.7462600E-02  0.9118800E+02  0.7818608E-02  0.1180000E+00
       11   -1    0    0    0    0  0.00000000000E+00  0.00000000000E+00  0.39999999673E+01  0.40000000000E+01  0.51109989000E-03 0.  1.
     -623   -1    0    0    0    0  0.00000000000E+00  0.00000000000E+00  0.12525980253E-10  0.17130000000E+03  0.17130000000E+03 0. -1.
       11    1    1    2    0    0  0.52270674056E-01 -0.26609977600E-01  0.92563543452E-01  0.10958368982E+00  0.51109989000E-03 0.  1.
     -623    1    1    2    0    0  0.28055164761E+00  0.14839101090E+00  0.65355384451E+00  0.17130154075E+03  0.17130000000E+03 0. -1.
      622    1    1    2    0    0 -0.33282232167E+00 -0.12178103330E+00  0.32538825794E+01  0.38888755648E+01  0.21000000000E+01 0.  1.
</event>
<event>
 5   0  0.7462600E-02  0.9118800E+02  0.7818608E-02  0.1180000E+00
       11   -1    0    0    0    0  0.00000000000E+00  0.00000000000E+00  0.39999999673E+01  0.40000000000E+01  0.51109989000E-03 0. -1.
     -623   -1    0    0    0    0  0.00000000000E+00  0.00000000000E+00  0.12525980253E-10  0.17130000000E+03  0.17130000000E+03 0.  1.
       11    1    1    2    0    0  0.47776981891E-02 -0.44289147696E-02 -0.60931579178E-02  0.89347346089E-02  0.51109989000E-03 0. -1.
     -623    1    1    2    0    0 -0.32795585749E+00  0.16037761812E+00  0.63305324066E+00  0.17130155876E+03  0.17130000000E+03 0.  1.
      622    1    1    2    0    0  0.32317815930E+00 -0.15594870335E+00  0.33730398846E+01  0.39895065088E+01  0.21000000000E+01 0. -1.
</event>
<event>
 5   0  0.7462600E-02  0.9118800E+02  0.7818608E-02  0.1180000E+00
       11   -1    0    0    0    0  0.00000000000E+00  0.00000000000E+00  0.39999999673E+01  0.40000000000E+01  0.51109989000E-03 0. -1.
     -623   -1    0    0    0    0  0.00000000000E+00  0.00000000000E+00  0.12525980253E-10  0.17130000000E+03  0.17130000000E+03 0.  1.
       11    1    1    2    0    0 -0.43316914941E+00 -0.37008304681E-01  0.40425905131E+00  0.59365879797E+00  0.51109989000E-03 0. -1.
     -623    1    1    2    0    0  0.59331763757E+00 -0.62832523265E+00  0.10092830275E+01  0.17130515308E+03  0.17130000000E+03 0. -1.
      622    1    1    2    0    0 -0.16014848815E+00  0.66533353733E+00  0.25864578886E+01  0.34011881253E+01  0.21000000000E+01 0. -1.
</event>
<event>
 5   0  0.7462600E-02  0.9118800E+02  0.7818608E-02  0.1180000E+00
       11   -1    0    0    0    0  0.00000000000E+00  0.00000000000E+00  0.39999999673E+01  0.40000000000E+01  0.51109989000E-03 0.  1.
     -623   -1    0    0    0    0  0.00000000000E+00  0.00000000000E+00  0.12525980253E-10  0.17130000000E+03  0.17130000000E+03 0. -1.
       11    1    1    2    0    0  0.24899146479E+00  0.18898463012E+00  0.20037057984E+00  0.37129579912E+00  0.51109989000E-03 0.  1.
     -623    1    1    2    0    0 -0.13962767954E+00 -0.11805580963E+00  0.84587878943E+00  0.17130218605E+03  0.17130000000E+03 0. -1.
      622    1    1    2    0    0 -0.10936378525E+00 -0.70928820490E-01  0.29537505981E+01  0.36265181553E+01  0.21000000000E+01 0.  1.
</event>
<event>
 5   0  0.7462600E-02  0.9118800E+02  0.7818608E-02  0.1180000E+00
       11   -1    0    0    0    0  0.00000000000E+00  0.00000000000E+00  0.39999999673E+01  0.40000000000E+01  0.51109989000E-03 0. -1.
     -623   -1    0    0    0    0  0.00000000000E+00  0.00000000000E+00  0.12525980253E-10  0.17130000000E+03  0.17130000000E+03 0.  1.
       11    1    1    2    0    0  0.15807417543E-01 -0.30261196317E+00  0.30407890005E+00  0.42928791432E+00  0.51109989000E-03 0. -1.
     -623    1    1    2    0    0  0.65646874405E+00  0.31492738670E+00  0.89230807165E+00  0.17130387136E+03  0.17130000000E+03 0.  1.
      622    1    1    2    0    0 -0.67227616160E+00 -0.12315423538E-01  0.28036129957E+01  0.35668407221E+01  0.21000000000E+01 0. -1.
</event>
<event>
 5   0  0.7462600E-02  0.9118800E+02  0.7818608E-02  0.1180000E+00
       11   -1    0    0    0    0  0.00000000000E+00  0.00000000000E+00  0.39999999673E+01  0.40000000000E+01  0.51109989000E-03 0. -1.
     -623   -1    0    0    0    0  0.00000000000E+00  0.00000000000E+00  0.12525980253E-10  0.17130000000E+03  0.17130000000E+03 0. -1.
       11    1    1    2    0    0  0.48531643144E-01  0.92152122419E-02 -0.88855790011E-01  0.10166539806E+00  0.51109989000E-03 0. -1.
     -623    1    1    2    0    0 -0.16470164688E+00  0.15740512911E+00  0.81326014954E+00  0.17130208199E+03  0.17130000000E+03 0. -1.
      622    1    1    2    0    0  0.11617000373E+00 -0.16662034136E+00  0.32755956078E+01  0.38962526091E+01  0.21000000000E+01 0. -1.
</event>
<event>
 5   0  0.7462600E-02  0.9118800E+02  0.7818608E-02  0.1180000E+00
       11   -1    0    0    0    0  0.00000000000E+00  0.00000000000E+00  0.39999999673E+01  0.40000000000E+01  0.51109989000E-03 0. -1.
     -623   -1    0    0    0    0  0.00000000000E+00  0.00000000000E+00  0.12525980253E-10  0.17130000000E+03  0.17130000000E+03 0. -1.
       11    1    1    2    0    0 -0.23144155050E+00  0.16954389708E+00  0.53376068825E-01  0.29182116147E+00  0.51109989000E-03 0. -1.
     -623    1    1    2    0    0  0.70603243494E-01 -0.24978465155E+00  0.89878137490E+00  0.17130255452E+03  0.17130000000E+03 0. -1.
      622    1    1    2    0    0  0.16083830700E+00  0.80240754473E-01  0.30478425236E+01  0.37056243183E+01  0.21000000000E+01 0. -1.
</event>
<event>
 5   0  0.7462600E-02  0.9118800E+02  0.7818608E-02  0.1180000E+00
       11   -1    0    0    0    0  0.00000000000E+00  0.00000000000E+00  0.39999999673E+01  0.40000000000E+01  0.51109989000E-03 0.  1.
     -623   -1    0    0    0    0  0.00000000000E+00  0.00000000000E+00  0.12525980253E-10  0.17130000000E+03  0.17130000000E+03 0.  1.
       11    1    1    2    0    0 -0.41405766623E+00 -0.46162999344E-01  0.34747718462E+00  0.54250845941E+00  0.51109989000E-03 0.  1.
     -623    1    1    2    0    0  0.10347845414E+01 -0.29138950708E+00  0.10065313744E+01  0.17130633028E+03  0.17130000000E+03 0.  1.
      622    1    1    2    0    0 -0.62072687515E+00  0.33755250642E+00  0.26459914083E+01  0.34511612656E+01  0.21000000000E+01 0.  1.
</event>
<event>
 5   0  0.7462600E-02  0.9118800E+02  0.7818608E-02  0.1180000E+00
       11   -1    0    0    0    0  0.00000000000E+00  0.00000000000E+00  0.39999999673E+01  0.40000000000E+01  0.51109989000E-03 0. -1.
     -623   -1    0    0    0    0  0.00000000000E+00  0.00000000000E+00  0.12525980253E-10  0.17130000000E+03  0.17130000000E+03 0. -1.
       11    1    1    2    0    0  0.58829855928E-01  0.13888300840E+00  0.49421364366E-01  0.15872042858E+00  0.51109989000E-03 0. -1.
     -623    1    1    2    0    0 -0.31371562051E-01  0.26443323425E+00  0.76194160929E+00  0.17130190152E+03  0.17130000000E+03 0. -1.
      622    1    1    2    0    0 -0.27458293876E-01 -0.40331624265E+00  0.31886369937E+01  0.38393780521E+01  0.21000000000E+01 0. -1.
</event>
<event>
 5   0  0.7462600E-02  0.9118800E+02  0.7818608E-02  0.1180000E+00
       11   -1    0    0    0    0  0.00000000000E+00  0.00000000000E+00  0.39999999673E+01  0.40000000000E+01  0.51109989000E-03 0. -1.
     -623   -1    0    0    0    0  0.00000000000E+00  0.00000000000E+00  0.12525980253E-10  0.17130000000E+03  0.17130000000E+03 0.  1.
       11    1    1    2    0    0  0.34167843739E+00 -0.75013537345E-01  0.30874196335E+00  0.46657587434E+00  0.51109989000E-03 0. -1.
     -623    1    1    2    0    0 -0.16886667506E+00 -0.32446871879E+00  0.88649898371E+00  0.17130268438E+03  0.17130000000E+03 0.  1.
      622    1    1    2    0    0 -0.17281176232E+00  0.39948225613E+00  0.28047590203E+01  0.35307397440E+01  0.21000000000E+01 0. -1.
</event>
<event>
 5   0  0.7462600E-02  0.9118800E+02  0.7818608E-02  0.1180000E+00
       11   -1    0    0    0    0  0.00000000000E+00  0.00000000000E+00  0.39999999673E+01  0.40000000000E+01  0.51109989000E-03 0.  1.
     -623   -1    0    0    0    0  0.00000000000E+00  0.00000000000E+00  0.12525980253E-10  0.17130000000E+03  0.17130000000E+03 0. -1.
       11    1    1    2    0    0 -0.68805175591E-01  0.42503573153E-01  0.50810102176E-01  0.95512478884E-01  0.51109989000E-03 0.  1.
     -623    1    1    2    0    0  0.32406149266E+00 -0.67666365704E-01  0.66947606099E+00  0.17130162811E+03  0.17130000000E+03 0. -1.
      622    1    1    2    0    0 -0.25525631707E+00  0.25162792551E-01  0.32797138042E+01  0.39028594121E+01  0.21000000000E+01 0.  1.
</event>
<event>
 5   0  0.7462600E-02  0.9118800E+02  0.7818608E-02  0.1180000E+00
       11   -1    0    0    0    0  0.00000000000E+00  0.00000000000E+00  0.39999999673E+01  0.40000000000E+01  0.51109989000E-03 0.  1.
     -623   -1    0    0    0    0  0.00000000000E+00  0.00000000000E+00  0.12525980253E-10  0.17130000000E+03  0.17130000000E+03 0.  1.
       11    1    1    2    0    0  0.13943439859E+00  0.95307695708E-01  0.64701682567E+00  0.66869764639E+00  0.51109989000E-03 0.  1.
     -623    1    1    2    0    0 -0.12980001386E+00 -0.24427498258E+00  0.77380444717E+00  0.17130197107E+03  0.17130000000E+03 0.  1.
      622    1    1    2    0    0 -0.96343847320E-02  0.14896728687E+00  0.25791786945E+01  0.33293312860E+01  0.21000000000E+01 0.  1.
</event>
<event>
 5   0  0.7462600E-02  0.9118800E+02  0.7818608E-02  0.1180000E+00
       11   -1    0    0    0    0  0.00000000000E+00  0.00000000000E+00  0.39999999673E+01  0.40000000000E+01  0.51109989000E-03 0. -1.
     -623   -1    0    0    0    0  0.00000000000E+00  0.00000000000E+00  0.12525980253E-10  0.17130000000E+03  0.17130000000E+03 0.  1.
       11    1    1    2    0    0 -0.27558466202E-01 -0.10163936397E+00 -0.91080596934E-01  0.13923349356E+00  0.51109989000E-03 0. -1.
     -623    1    1    2    0    0 -0.27819603049E-01  0.10918446580E+00  0.85446850130E+00  0.17130216815E+03  0.17130000000E+03 0.  1.
      622    1    1    2    0    0  0.55378069252E-01 -0.75451018301E-02  0.32366120630E+01  0.38585983602E+01  0.21000000000E+01 0. -1.
</event>
<event>
 5   0  0.7462600E-02  0.9118800E+02  0.7818608E-02  0.1180000E+00
       11   -1    0    0    0    0  0.00000000000E+00  0.00000000000E+00  0.39999999673E+01  0.40000000000E+01  0.51109989000E-03 0.  1.
     -623   -1    0    0    0    0  0.00000000000E+00  0.00000000000E+00  0.12525980253E-10  0.17130000000E+03  0.17130000000E+03 0.  1.
       11    1    1    2    0    0 -0.30076272706E+00  0.17762037394E+00  0.36155792412E+00  0.50272418775E+00  0.51109989000E-03 0.  1.
     -623    1    1    2    0    0  0.39675694515E+00 -0.53022294200E+00  0.87023099464E+00  0.17130349049E+03  0.17130000000E+03 0.  1.
      622    1    1    2    0    0 -0.95994218091E-01  0.35260256807E+00  0.27682110486E+01  0.34937853212E+01  0.21000000000E+01 0.  1.
</event>
<event>
 5   0  0.7462600E-02  0.9118800E+02  0.7818608E-02  0.1180000E+00
       11   -1    0    0    0    0  0.00000000000E+00  0.00000000000E+00  0.39999999673E+01  0.40000000000E+01  0.51109989000E-03 0.  1.
     -623   -1    0    0    0    0  0.00000000000E+00  0.00000000000E+00  0.12525980253E-10  0.17130000000E+03  0.17130000000E+03 0.  1.
       11    1    1    2    0    0 -0.34258643859E-01 -0.67392067142E+00  0.49440036519E+00  0.83652537819E+00  0.51109989000E-03 0.  1.
     -623    1    1    2    0    0  0.50506220501E+00  0.49088124896E+00  0.12019931739E+01  0.17130566494E+03  0.17130000000E+03 0.  1.
      622    1    1    2    0    0 -0.47080356115E+00  0.18303942246E+00  0.23036064283E+01  0.31578096839E+01  0.21000000000E+01 0.  1.
</event>
<event>
 5   0  0.7462600E-02  0.9118800E+02  0.7818608E-02  0.1180000E+00
       11   -1    0    0    0    0  0.00000000000E+00  0.00000000000E+00  0.39999999673E+01  0.40000000000E+01  0.51109989000E-03 0. -1.
     -623   -1    0    0    0    0  0.00000000000E+00  0.00000000000E+00  0.12525980253E-10  0.17130000000E+03  0.17130000000E+03 0.  1.
       11    1    1    2    0    0 -0.28783987084E+00  0.17387606326E+00  0.17039607832E+00  0.37698774695E+00  0.51109989000E-03 0. -1.
     -623    1    1    2    0    0  0.13191538684E+00 -0.24143001661E+00  0.88525804889E+00  0.17130250836E+03  0.17130000000E+03 0.  1.
      622    1    1    2    0    0  0.15592448401E+00  0.67553953343E-01  0.29443458401E+01  0.36205038886E+01  0.21000000000E+01 0. -1.
</event>
<event>
 5   0  0.7462600E-02  0.9118800E+02  0.7818608E-02  0.1180000E+00
       11   -1    0    0    0    0  0.00000000000E+00  0.00000000000E+00  0.39999999673E+01  0.40000000000E+01  0.51109989000E-03 0.  1.
     -623   -1    0    0    0    0  0.00000000000E+00  0.00000000000E+00  0.12525980253E-10  0.17130000000E+03  0.17130000000E+03 0.  1.
       11    1    1    2    0    0 -0.73807132582E-01 -0.17401451098E+00  0.15856313256E+00  0.24672063367E+00  0.51109989000E-03 0.  1.
     -623    1    1    2    0    0  0.20581580670E+00  0.68468527748E-02  0.74001622406E+00  0.17130172221E+03  0.17130000000E+03 0.  1.
      622    1    1    2    0    0 -0.13200867412E+00  0.16716765821E+00  0.31014206107E+01  0.37515571595E+01  0.21000000000E+01 0.  1.
</event>
<event>
 5   0  0.7462600E-02  0.9118800E+02  0.7818608E-02  0.1180000E+00
       11   -1    0    0    0    0  0.00000000000E+00  0.00000000000E+00  0.39999999673E+01  0.40000000000E+01  0.51109989000E-03 0.  1.
     -623   -1    0    0    0    0  0.00000000000E+00  0.00000000000E+00  0.12525980253E-10  0.17130000000E+03  0.17130000000E+03 0. -1.
       11    1    1    2    0    0 -0.18654590132E+00  0.15436209485E+00  0.23087930176E-01  0.24322899369E+00  0.51109989000E-03 0.  1.
     -623    1    1    2    0    0  0.77334123922E+00  0.32832633561E+00  0.96190578236E+00  0.17130476093E+03  0.17130000000E+03 0. -1.
      622    1    1    2    0    0 -0.58679533790E+00 -0.48268843046E+00  0.30150062548E+01  0.37520100754E+01  0.21000000000E+01 0.  1.
</event>
<event>
 5   0  0.7462600E-02  0.9118800E+02  0.7818608E-02  0.1180000E+00
       11   -1    0    0    0    0  0.00000000000E+00  0.00000000000E+00  0.39999999673E+01  0.40000000000E+01  0.51109989000E-03 0. -1.
     -623   -1    0    0    0    0  0.00000000000E+00  0.00000000000E+00  0.12525980253E-10  0.17130000000E+03  0.17130000000E+03 0. -1.
       11    1    1    2    0    0 -0.23249671247E-01  0.13611037405E-01 -0.13946643964E-01  0.30341022615E-01  0.51109989000E-03 0. -1.
     -623    1    1    2    0    0 -0.30954115503E-01  0.19449866162E-02  0.64715493012E+00  0.17130122525E+03  0.17130000000E+03 0. -1.
      622    1    1    2    0    0  0.54203786750E-01 -0.15556024021E-01  0.33667916812E+01  0.39684337295E+01  0.21000000000E+01 0. -1.
</event>
<event>
 5   0  0.7462600E-02  0.9118800E+02  0.7818608E-02  0.1180000E+00
       11   -1    0    0    0    0  0.00000000000E+00  0.00000000000E+00  0.39999999673E+01  0.40000000000E+01  0.51109989000E-03 0. -1.
     -623   -1    0    0    0    0  0.00000000000E+00  0.00000000000E+00  0.12525980253E-10  0.17130000000E+03  0.17130000000E+03 0. -1.
       11    1    1    2    0    0  0.12146551808E+00 -0.10444700997E+00  0.10908429290E+00  0.19381097532E+00  0.51109989000E-03 0. -1.
     -623    1    1    2    0    0 -0.19426565151E+00 -0.15629596728E+00  0.73013018194E+00  0.17130173746E+03  0.17130000000E+03 0. -1.
      622    1    1    2    0    0  0.72800133426E-01  0.26074297725E+00  0.31607854925E+01  0.38044515622E+01  0.21000000000E+01 0. -1.
</event>
<event>
 5   0  0.7462600E-02  0.9118800E+02  0.7818608E-02  0.1180000E+00
       11   -1    0    0    0    0  0.00000000000E+00  0.00000000000E+00  0.39999999673E+01  0.40000000000E+01  0.51109989000E-03 0.  1.
     -623   -1    0    0    0    0  0.00000000000E+00  0.00000000000E+00  0.12525980253E-10  0.17130000000E+03  0.17130000000E+03 0. -1.
       11    1    1    2    0    0  0.56234215759E-01  0.95708871073E-01  0.14792584653E+00  0.18494537658E+00  0.51109989000E-03 0.  1.
     -623    1    1    2    0    0 -0.46047979795E+00 -0.16305290553E+00  0.69603347805E+00  0.17130211058E+03  0.17130000000E+03 0. -1.
      622    1    1    2    0    0  0.40424558219E+00  0.67344034455E-01  0.31560406428E+01  0.38129440395E+01  0.21000000000E+01 0.  1.
</event>
<event>
 5   0  0.7462600E-02  0.9118800E+02  0.7818608E-02  0.1180000E+00
       11   -1    0    0    0    0  0.00000000000E+00  0.00000000000E+00  0.39999999673E+01  0.40000000000E+01  0.51109989000E-03 0.  1.
     -623   -1    0    0    0    0  0.00000000000E+00  0.00000000000E+00  0.12525980253E-10  0.17130000000E+03  0.17130000000E+03 0.  1.
       11    1    1    2    0    0  0.21902883308E+00 -0.71024921585E-01  0.16522069774E+00  0.28340132214E+00  0.51109989000E-03 0.  1.
     -623    1    1    2    0    0 -0.10623232716E+00 -0.24677519937E+00  0.78940515579E+00  0.17130202960E+03  0.17130000000E+03 0.  1.
      622    1    1    2    0    0 -0.11279650592E+00  0.31780012095E+00  0.30453741138E+01  0.37145690816E+01  0.21000000000E+01 0.  1.
</event>
<event>
 5   0  0.7462600E-02  0.9118800E+02  0.7818608E-02  0.1180000E+00
       11   -1    0    0    0    0  0.00000000000E+00  0.00000000000E+00  0.39999999673E+01  0.40000000000E+01  0.51109989000E-03 0.  1.
     -623   -1    0    0    0    0  0.00000000000E+00  0.00000000000E+00  0.12525980253E-10  0.17130000000E+03  0.17130000000E+03 0. -1.
       11    1    1    2    0    0 -0.28894428519E-01  0.14610937028E-01  0.16643287272E+00  0.16955391421E+00  0.51109989000E-03 0.  1.
     -623    1    1    2    0    0  0.20485504448E+00  0.30581308418E+00  0.65298189392E+00  0.17130164002E+03  0.17130000000E+03 0. -1.
      622    1    1    2    0    0 -0.17596061596E+00 -0.32042402121E+00  0.31805852007E+01  0.38288060686E+01  0.21000000000E+01 0.  1.
</event>
<event>
 5   0  0.7462600E-02  0.9118800E+02  0.7818608E-02  0.1180000E+00
       11   -1    0    0    0    0  0.00000000000E+00  0.00000000000E+00  0.39999999673E+01  0.40000000000E+01  0.51109989000E-03 0.  1.
     -623   -1    0    0    0    0  0.00000000000E+00  0.00000000000E+00  0.12525980253E-10  0.17130000000E+03  0.17130000000E+03 0. -1.
       11    1    1    2    0    0  0.24379363306E-01  0.70387592669E-01  0.54567261180E-01  0.92339665211E-01  0.51109989000E-03 0.  1.
     -623    1    1    2    0    0 -0.31896218761E+00  0.86079076810E-01  0.66887115974E+00  0.17130162444E+03  0.17130000000E+03 0. -1.
      622    1    1    2    0    0  0.29458282430E+00 -0.15646666948E+00  0.32765615464E+01  0.39060358967E+01  0.21000000000E+01 0.  1.
</event>
<event>
 5   0  0.7462600E-02  0.9118800E+02  0.7818608E-02  0.1180000E+00
       11   -1    0    0    0    0  0.00000000000E+00  0.00000000000E+00  0.39999999673E+01  0.40000000000E+01  0.51109989000E-03 0.  1.
     -623   -1    0    0    0    0  0.00000000000E+00  0.00000000000E+00  0.12525980253E-10  0.17130000000E+03  0.17130000000E+03 0. -1.
       11    1    1    2    0    0 -0.16019903041E+00  0.16346422302E+00  0.28582692444E+00  0.36617150833E+00  0.51109989000E-03 0.  1.
     -623    1    1    2    0    0  0.13801318223E+00 -0.21066902864E-01  0.75419610204E+00  0.17130171716E+03  0.17130000000E+03 0. -1.
      622    1    1    2    0    0  0.22185848183E-01 -0.14239732016E+00  0.29599769409E+01  0.36321113280E+01  0.21000000000E+01 0.  1.
</event>
<event>
 5   0  0.7462600E-02  0.9118800E+02  0.7818608E-02  0.1180000E+00
       11   -1    0    0    0    0  0.00000000000E+00  0.00000000000E+00  0.39999999673E+01  0.40000000000E+01  0.51109989000E-03 0.  1.
     -623   -1    0    0    0    0  0.00000000000E+00  0.00000000000E+00  0.12525980253E-10  0.17130000000E+03  0.17130000000E+03 0. -1.
       11    1    1    2    0    0 -0.32145345196E-01 -0.22256799286E+00  0.26517310870E+00  0.34768789663E+00  0.51109989000E-03 0.  1.
     -623    1    1    2    0    0 -0.49963908912E+00  0.28008731297E-01  0.80402145333E+00  0.17130261783E+03  0.17130000000E+03 0. -1.
      622    1    1    2    0    0  0.53178443432E+00  0.19455926156E+00  0.29308054053E+01  0.36496942769E+01  0.21000000000E+01 0.  1.
</event>
<event>
 5   0  0.7462600E-02  0.9118800E+02  0.7818608E-02  0.1180000E+00
       11   -1    0    0    0    0  0.00000000000E+00  0.00000000000E+00  0.39999999673E+01  0.40000000000E+01  0.51109989000E-03 0.  1.
     -623   -1    0    0    0    0  0.00000000000E+00  0.00000000000E+00  0.12525980253E-10  0.17130000000E+03  0.17130000000E+03 0.  1.
       11    1    1    2    0    0  0.52793556723E+00 -0.59998267201E-01  0.17316258743E+00  0.55883924175E+00  0.51109989000E-03 0.  1.
     -623    1    1    2    0    0  0.17343288315E+00 -0.25863400840E+00  0.12179259806E+01  0.17130461265E+03  0.17130000000E+03 0.  1.
      622    1    1    2    0    0 -0.70136845037E+00  0.31863227560E+00  0.26089113993E+01  0.34365481110E+01  0.21000000000E+01 0.  1.
</event>
<event>
 5   0  0.7462600E-02  0.9118800E+02  0.7818608E-02  0.1180000E+00
       11   -1    0    0    0    0  0.00000000000E+00  0.00000000000E+00  0.39999999673E+01  0.40000000000E+01  0.51109989000E-03 0.  1.
     -623   -1    0    0    0    0  0.00000000000E+00  0.00000000000E+00  0.12525980253E-10  0.17130000000E+03  0.17130000000E+03 0. -1.
       11    1    1    2    0    0 -0.10634803279E+00 -0.98459174962E-01  0.10657330728E+00  0.17989509237E+00  0.51109989000E-03 0.  1.
     -623    1    1    2    0    0  0.53608095715E-01 -0.59757255677E-01  0.70845362389E+00  0.17130148380E+03  0.17130000000E+03 0. -1.
      622    1    1    2    0    0  0.52739937074E-01  0.15821643064E+00  0.31849730362E+01  0.38186211099E+01  0.21000000000E+01 0.  1.
</event>
<event>
 5   0  0.7462600E-02  0.9118800E+02  0.7818608E-02  0.1180000E+00
       11   -1    0    0    0    0  0.00000000000E+00  0.00000000000E+00  0.39999999673E+01  0.40000000000E+01  0.51109989000E-03 0.  1.
     -623   -1    0    0    0    0  0.00000000000E+00  0.00000000000E+00  0.12525980253E-10  0.17130000000E+03  0.17130000000E+03 0. -1.
       11    1    1    2    0    0  0.64351671099E-01 -0.83229601002E-01 -0.43863583239E-01  0.11398499556E+00  0.51109989000E-03 0.  1.
     -623    1    1    2    0    0  0.25969904819E+00  0.22864590315E+00  0.79611528204E+00  0.17130219941E+03  0.17130000000E+03 0. -1.
      622    1    1    2    0    0 -0.32405071929E+00 -0.14541630215E+00  0.32477482686E+01  0.38838155962E+01  0.21000000000E+01 0.  1.
</event>
<event>
 5   0  0.7462600E-02  0.9118800E+02  0.7818608E-02  0.1180000E+00
       11   -1    0    0    0    0  0.00000000000E+00  0.00000000000E+00  0.39999999673E+01  0.40000000000E+01  0.51109989000E-03 0.  1.
     -623   -1    0    0    0    0  0.00000000000E+00  0.00000000000E+00  0.12525980253E-10  0.17130000000E+03  0.17130000000E+03 0.  1.
       11    1    1    2    0    0  0.19598994964E+00  0.21273944641E+00 -0.29855107875E+00  0.41569597095E+00  0.51109989000E-03 0.  1.
     -623    1    1    2    0    0  0.36601792405E+00  0.26177283409E+00  0.14976397013E+01  0.17130713768E+03  0.17130000000E+03 0.  1.
      622    1    1    2    0    0 -0.56200787369E+00 -0.47451228049E+00  0.28009113448E+01  0.35771663528E+01  0.21000000000E+01 0.  1.
</event>
<event>
 5   0  0.7462600E-02  0.9118800E+02  0.7818608E-02  0.1180000E+00
       11   -1    0    0    0    0  0.00000000000E+00  0.00000000000E+00  0.39999999673E+01  0.40000000000E+01  0.51109989000E-03 0. -1.
     -623   -1    0    0    0    0  0.00000000000E+00  0.00000000000E+00  0.12525980253E-10  0.17130000000E+03  0.17130000000E+03 0.  1.
       11    1    1    2    0    0 -0.59728748501E-01  0.12340787730E+00  0.20986633290E+00  0.25068140434E+00  0.51109989000E-03 0. -1.
     -623    1    1    2    0    0 -0.42778433556E+00 -0.59534809554E+00  0.76317259095E+00  0.17130326871E+03  0.17130000000E+03 0. -1.
      622    1    1    2    0    0  0.48751308406E+00  0.47194021825E+00  0.30269610435E+01  0.37460498843E+01  0.21000000000E+01 0.  0.
</event>
<event>
 5   0  0.7462600E-02  0.9118800E+02  0.7818608E-02  0.1180000E+00
       11   -1    0    0    0    0  0.00000000000E+00  0.00000000000E+00  0.39999999673E+01  0.40000000000E+01  0.51109989000E-03 0.  1.
     -623   -1    0    0    0    0  0.00000000000E+00  0.00000000000E+00  0.12525980253E-10  0.17130000000E+03  0.17130000000E+03 0. -1.
       11    1    1    2    0    0  0.18511363198E+00  0.21872568424E+00  0.20726791781E+00  0.35364987299E+00  0.51109989000E-03 0.  1.
     -623    1    1    2    0    0 -0.45703728030E+00  0.15004307046E+00  0.85068949298E+00  0.17130278768E+03  0.17130000000E+03 0. -1.
      622    1    1    2    0    0  0.27192364832E+00 -0.36876875471E+00  0.29420425566E+01  0.36435624421E+01  0.21000000000E+01 0.  1.
</event>
<event>
 5   0  0.7462600E-02  0.9118800E+02  0.7818608E-02  0.1180000E+00
       11   -1    0    0    0    0  0.00000000000E+00  0.00000000000E+00  0.39999999673E+01  0.40000000000E+01  0.51109989000E-03 0. -1.
     -623   -1    0    0    0    0  0.00000000000E+00  0.00000000000E+00  0.12525980253E-10  0.17130000000E+03  0.17130000000E+03 0.  1.
       11    1    1    2    0    0 -0.21338124605E+00  0.27206653437E-01  0.71696044169E+00  0.74853476494E+00  0.51109989000E-03 0. -1.
     -623    1    1    2    0    0  0.49338843430E+00 -0.20546381593E+00  0.82672937899E+00  0.17130282872E+03  0.17130000000E+03 0.  1.
      622    1    1    2    0    0 -0.28000718825E+00  0.17825716249E+00  0.24563101467E+01  0.32486365106E+01  0.21000000000E+01 0.  0.
</event>
<event>
 5   0  0.7462600E-02  0.9118800E+02  0.7818608E-02  0.1180000E+00
       11   -1    0    0    0    0  0.00000000000E+00  0.00000000000E+00  0.39999999673E+01  0.40000000000E+01  0.51109989000E-03 0.  1.
     -623   -1    0    0    0    0  0.00000000000E+00  0.00000000000E+00  0.12525980253E-10  0.17130000000E+03  0.17130000000E+03 0.  1.
       11    1    1    2    0    0 -0.11916886266E+00 -0.63549619590E-01  0.90478623238E-01  0.16256203266E+00  0.51109989000E-03 0.  1.
     -623    1    1    2    0    0  0.33293900300E+00  0.68862926507E+00  0.77055456793E+00  0.17130344075E+03  0.17130000000E+03 0.  1.
      622    1    1    2    0    0 -0.21377014034E+00 -0.62507964548E+00  0.31389667762E+01  0.38339972168E+01  0.21000000000E+01 0.  1.
</event>
<event>
 5   0  0.7462600E-02  0.9118800E+02  0.7818608E-02  0.1180000E+00
       11   -1    0    0    0    0  0.00000000000E+00  0.00000000000E+00  0.39999999673E+01  0.40000000000E+01  0.51109989000E-03 0.  1.
     -623   -1    0    0    0    0  0.00000000000E+00  0.00000000000E+00  0.12525980253E-10  0.17130000000E+03  0.17130000000E+03 0.  1.
       11    1    1    2    0    0  0.67673993168E-01 -0.15540927153E+00  0.11465262769E+00  0.20463943239E+00  0.51109989000E-03 0.  1.
     -623    1    1    2    0    0 -0.13689171453E+00  0.54960118921E+00  0.75246726077E+00  0.17130258903E+03  0.17130000000E+03 0.  1.
      622    1    1    2    0    0  0.69217721366E-01 -0.39419191768E+00  0.31328800789E+01  0.37927715393E+01  0.21000000000E+01 0.  1.
</event>
<event>
 5   0  0.7462600E-02  0.9118800E+02  0.7818608E-02  0.1180000E+00
       11   -1    0    0    0    0  0.00000000000E+00  0.00000000000E+00  0.39999999673E+01  0.40000000000E+01  0.51109989000E-03 0.  1.
     -623   -1    0    0    0    0  0.00000000000E+00  0.00000000000E+00  0.12525980253E-10  0.17130000000E+03  0.17130000000E+03 0. -1.
       11    1    1    2    0    0  0.12134712408E+00 -0.35682875709E-02 -0.18142889222E-02  0.12141420866E+00  0.51109989000E-03 0.  1.
     -623    1    1    2    0    0  0.51510325978E+00  0.18973282544E+00  0.81246625443E+00  0.17130280626E+03  0.17130000000E+03 0. -1.
      622    1    1    2    0    0 -0.63645038386E+00 -0.18616453787E+00  0.31893480019E+01  0.38757795349E+01  0.21000000000E+01 0.  1.
</event>
<event>
 5   0  0.7462600E-02  0.9118800E+02  0.7818608E-02  0.1180000E+00
       11   -1    0    0    0    0  0.00000000000E+00  0.00000000000E+00  0.39999999673E+01  0.40000000000E+01  0.51109989000E-03 0. -1.
     -623   -1    0    0    0    0  0.00000000000E+00  0.00000000000E+00  0.12525980253E-10  0.17130000000E+03  0.17130000000E+03 0.  1.
       11    1    1    2    0    0 -0.11572487949E+00 -0.28592224715E+00  0.41308101862E+00  0.51553852263E+00  0.51109989000E-03 0. -1.
     -623    1    1    2    0    0  0.54896013290E+00 -0.13025383282E+00  0.87610756190E+00  0.17130316952E+03  0.17130000000E+03 0.  1.
      622    1    1    2    0    0 -0.43323525340E+00  0.41617607997E+00  0.27108113868E+01  0.34812919569E+01  0.21000000000E+01 0. -1.
</event>
<event>
 5   0  0.7462600E-02  0.9118800E+02  0.7818608E-02  0.1180000E+00
       11   -1    0    0    0    0  0.00000000000E+00  0.00000000000E+00  0.39999999673E+01  0.40000000000E+01  0.51109989000E-03 0. -1.
     -623   -1    0    0    0    0  0.00000000000E+00  0.00000000000E+00  0.12525980253E-10  0.17130000000E+03  0.17130000000E+03 0. -1.
       11    1    1    2    0    0  0.55800861877E-01  0.12704399939E+00 -0.52072683404E-01  0.14820843278E+00  0.51109989000E-03 0. -1.
     -623    1    1    2    0    0 -0.21892608363E+00 -0.39103158074E+00  0.84121944275E+00  0.17130265171E+03  0.17130000000E+03 0. -1.
      622    1    1    2    0    0  0.16312522176E+00  0.26398758135E+00  0.32108532080E+01  0.38491398526E+01  0.21000000000E+01 0. -1.
</event>
<event>
 5   0  0.7462600E-02  0.9118800E+02  0.7818608E-02  0.1180000E+00
       11   -1    0    0    0    0  0.00000000000E+00  0.00000000000E+00  0.39999999673E+01  0.40000000000E+01  0.51109989000E-03 0. -1.
     -623   -1    0    0    0    0  0.00000000000E+00  0.00000000000E+00  0.12525980253E-10  0.17130000000E+03  0.17130000000E+03 0. -1.
       11    1    1    2    0    0  0.10456095847E+00  0.21495972380E+00  0.40252752212E+00  0.46815525649E+00  0.51109989000E-03 0. -1.
     -623    1    1    2    0    0 -0.59653781518E+00 -0.29303711331E+00  0.80582336616E+00  0.17130318467E+03  0.17130000000E+03 0. -1.
      622    1    1    2    0    0  0.49197685670E+00  0.78077389510E-01  0.27916490791E+01  0.35286600696E+01  0.21000000000E+01 0. -1.
</event>
<event>
 5   0  0.7462600E-02  0.9118800E+02  0.7818608E-02  0.1180000E+00
       11   -1    0    0    0    0  0.00000000000E+00  0.00000000000E+00  0.39999999673E+01  0.40000000000E+01  0.51109989000E-03 0.  1.
     -623   -1    0    0    0    0  0.00000000000E+00  0.00000000000E+00  0.12525980253E-10  0.17130000000E+03  0.17130000000E+03 0.  1.
       11    1    1    2    0    0 -0.14333481228E+00 -0.10855779640E+00  0.22287415713E-01  0.18118127302E+00  0.51109989000E-03 0.  1.
     -623    1    1    2    0    0  0.56520913808E-01  0.26761875834E+00  0.79576993696E+00  0.17130206672E+03  0.17130000000E+03 0.  1.
      622    1    1    2    0    0  0.86813898471E-01 -0.15906096193E+00  0.31819426147E+01  0.38167520021E+01  0.21000000000E+01 0.  1.
</event>
<event>
 5   0  0.7462600E-02  0.9118800E+02  0.7818608E-02  0.1180000E+00
       11   -1    0    0    0    0  0.00000000000E+00  0.00000000000E+00  0.39999999673E+01  0.40000000000E+01  0.51109989000E-03 0. -1.
     -623   -1    0    0    0    0  0.00000000000E+00  0.00000000000E+00  0.12525980253E-10  0.17130000000E+03  0.17130000000E+03 0.  1.
       11    1    1    2    0    0  0.80158382338E-01  0.56613500242E+00  0.63687568239E+00  0.85588848763E+00  0.51109989000E-03 0. -1.
     -623    1    1    2    0    0 -0.16750573138E+00 -0.54654966330E+00  0.10303236977E+01  0.17130405232E+03  0.17130000000E+03 0.  1.
      622    1    1    2    0    0  0.87347349040E-01 -0.19585339118E-01  0.23328005872E+01  0.31400591913E+01  0.21000000000E+01 0. -1.
</event>
<event>
 5   0  0.7462600E-02  0.9118800E+02  0.7818608E-02  0.1180000E+00
       11   -1    0    0    0    0  0.00000000000E+00  0.00000000000E+00  0.39999999673E+01  0.40000000000E+01  0.51109989000E-03 0.  1.
     -623   -1    0    0    0    0  0.00000000000E+00  0.00000000000E+00  0.12525980253E-10  0.17130000000E+03  0.17130000000E+03 0. -1.
       11    1    1    2    0    0 -0.18998874990E+00 -0.94775054295E-01  0.26983328492E+00  0.34334865499E+00  0.51109989000E-03 0.  1.
     -623    1    1    2    0    0  0.76449118829E-01  0.36952778903E-01  0.74135739907E+00  0.17130162527E+03  0.17130000000E+03 0. -1.
      622    1    1    2    0    0  0.11353963108E+00  0.57822275392E-01  0.29888092834E+01  0.36550260732E+01  0.21000000000E+01 0.  1.
</event>
<event>
 5   0  0.7462600E-02  0.9118800E+02  0.7818608E-02  0.1180000E+00
       11   -1    0    0    0    0  0.00000000000E+00  0.00000000000E+00  0.39999999673E+01  0.40000000000E+01  0.51109989000E-03 0.  1.
     -623   -1    0    0    0    0  0.00000000000E+00  0.00000000000E+00  0.12525980253E-10  0.17130000000E+03  0.17130000000E+03 0. -1.
       11    1    1    2    0    0 -0.25550199109E-01  0.11537282842E+00  0.30842212713E+00  0.33028498594E+00  0.51109989000E-03 0.  1.
     -623    1    1    2    0    0  0.65651196226E-01  0.53273137639E+00  0.75614827472E+00  0.17130250983E+03  0.17130000000E+03 0. -1.
      622    1    1    2    0    0 -0.40100997117E-01 -0.64810420481E+00  0.29354295655E+01  0.36672051871E+01  0.21000000000E+01 0.  0.
</event>
<event>
 5   0  0.7462600E-02  0.9118800E+02  0.7818608E-02  0.1180000E+00
       11   -1    0    0    0    0  0.00000000000E+00  0.00000000000E+00  0.39999999673E+01  0.40000000000E+01  0.51109989000E-03 0.  1.
     -623   -1    0    0    0    0  0.00000000000E+00  0.00000000000E+00  0.12525980253E-10  0.17130000000E+03  0.17130000000E+03 0. -1.
       11    1    1    2    0    0 -0.50432192609E-01  0.38307443283E+00  0.18426635317E+00  0.42806982757E+00  0.51109989000E-03 0.  1.
     -623    1    1    2    0    0  0.23697000460E+00  0.15880130304E+00  0.98761875138E+00  0.17130308451E+03  0.17130000000E+03 0. -1.
      622    1    1    2    0    0 -0.18653781199E+00 -0.54187573588E+00  0.28281148628E+01  0.35688456601E+01  0.21000000000E+01 0.  1.
</event>
<event>
 5   0  0.7462600E-02  0.9118800E+02  0.7818608E-02  0.1180000E+00
       11   -1    0    0    0    0  0.00000000000E+00  0.00000000000E+00  0.39999999673E+01  0.40000000000E+01  0.51109989000E-03 0.  1.
     -623   -1    0    0    0    0  0.00000000000E+00  0.00000000000E+00  0.12525980253E-10  0.17130000000E+03  0.17130000000E+03 0. -1.
       11    1    1    2    0    0  0.22917382094E-01  0.81083701746E-01 -0.12917077255E-01  0.85246027466E-01  0.51109989000E-03 0.  1.
     -623    1    1    2    0    0  0.21573647358E+00  0.93380909454E-01  0.72435286963E+00  0.17130169278E+03  0.17130000000E+03 0. -1.
      622    1    1    2    0    0 -0.23865385567E+00 -0.17446461120E+00  0.32885641750E+01  0.39130611925E+01  0.21000000000E+01 0.  1.
</event>
<event>
 5   0  0.7462600E-02  0.9118800E+02  0.7818608E-02  0.1180000E+00
       11   -1    0    0    0    0  0.00000000000E+00  0.00000000000E+00  0.39999999673E+01  0.40000000000E+01  0.51109989000E-03 0.  1.
     -623   -1    0    0    0    0  0.00000000000E+00  0.00000000000E+00  0.12525980253E-10  0.17130000000E+03  0.17130000000E+03 0. -1.
       11    1    1    2    0    0  0.26340578564E+00  0.79646474014E+00  0.17954618233E-01  0.83908361904E+00  0.51109989000E-03 0.  1.
     -623    1    1    2    0    0 -0.54418031384E+00 -0.51129771022E-01  0.17721417457E+01  0.17131003833E+03  0.17130000000E+03 0. -1.
      622    1    1    2    0    0  0.28077452819E+00 -0.74533496912E+00  0.22099036034E+01  0.31508780504E+01  0.21000000000E+01 0. -1.
</event>
<event>
 5   0  0.7462600E-02  0.9118800E+02  0.7818608E-02  0.1180000E+00
       11   -1    0    0    0    0  0.00000000000E+00  0.00000000000E+00  0.39999999673E+01  0.40000000000E+01  0.51109989000E-03 0. -1.
     -623   -1    0    0    0    0  0.00000000000E+00  0.00000000000E+00  0.12525980253E-10  0.17130000000E+03  0.17130000000E+03 0. -1.
       11    1    1    2    0    0  0.14809048179E-01  0.23619291432E-01  0.21064450625E-01  0.34944973014E-01  0.51109989000E-03 0. -1.
     -623    1    1    2    0    0 -0.13288312545E+00  0.12450354723E+00  0.62244246175E+00  0.17130122765E+03  0.17130000000E+03 0. -1.
      622    1    1    2    0    0  0.11807407727E+00 -0.14812283866E+00  0.33564930550E+01  0.39638273791E+01  0.21000000000E+01 0. -1.
</event>
<event>
 5   0  0.7462600E-02  0.9118800E+02  0.7818608E-02  0.1180000E+00
       11   -1    0    0    0    0  0.00000000000E+00  0.00000000000E+00  0.39999999673E+01  0.40000000000E+01  0.51109989000E-03 0.  1.
     -623   -1    0    0    0    0  0.00000000000E+00  0.00000000000E+00  0.12525980253E-10  0.17130000000E+03  0.17130000000E+03 0. -1.
       11    1    1    2    0    0  0.21216991003E+00 -0.12417922631E+00  0.12846796360E+00  0.27738210083E+00  0.51109989000E-03 0.  1.
     -623    1    1    2    0    0 -0.59672254989E-02 -0.51860877807E+00  0.87659412078E+00  0.17130302802E+03  0.17130000000E+03 0. -1.
      622    1    1    2    0    0 -0.20620268453E+00  0.64278800438E+00  0.29949378830E+01  0.37195898818E+01  0.21000000000E+01 0.  1.
</event>
<event>
 5   0  0.7462600E-02  0.9118800E+02  0.7818608E-02  0.1180000E+00
       11   -1    0    0    0    0  0.00000000000E+00  0.00000000000E+00  0.39999999673E+01  0.40000000000E+01  0.51109989000E-03 0. -1.
     -623   -1    0    0    0    0  0.00000000000E+00  0.00000000000E+00  0.12525980253E-10  0.17130000000E+03  0.17130000000E+03 0. -1.
       11    1    1    2    0    0  0.48329271228E-02  0.12699974852E+00  0.13806319804E+00  0.18765393997E+00  0.51109989000E-03 0. -1.
     -623    1    1    2    0    0 -0.33996004808E+00  0.56380805965E-01  0.70530354622E+00  0.17130179860E+03  0.17130000000E+03 0. -1.
      622    1    1    2    0    0  0.33512712095E+00 -0.18338055448E+00  0.31566332231E+01  0.38105474567E+01  0.21000000000E+01 0. -1.
</event>
<event>
 5   0  0.7462600E-02  0.9118800E+02  0.7818608E-02  0.1180000E+00
       11   -1    0    0    0    0  0.00000000000E+00  0.00000000000E+00  0.39999999673E+01  0.40000000000E+01  0.51109989000E-03 0.  1.
     -623   -1    0    0    0    0  0.00000000000E+00  0.00000000000E+00  0.12525980253E-10  0.17130000000E+03  0.17130000000E+03 0.  1.
       11    1    1    2    0    0  0.35496041913E+00 -0.22000023321E+00  0.10442295219E+00  0.43046650965E+00  0.51109989000E-03 0.  1.
     -623    1    1    2    0    0 -0.32961987001E+00  0.31813321563E+00  0.10153941924E+01  0.17130362192E+03  0.17130000000E+03 0.  1.
      622    1    1    2    0    0 -0.25340549121E-01 -0.98132982417E-01  0.28801828227E+01  0.35659115690E+01  0.21000000000E+01 0.  1.
</event>
<event>
 5   0  0.7462600E-02  0.9118800E+02  0.7818608E-02  0.1180000E+00
       11   -1    0    0    0    0  0.00000000000E+00  0.00000000000E+00  0.39999999673E+01  0.40000000000E+01  0.51109989000E-03 0.  1.
     -623   -1    0    0    0    0  0.00000000000E+00  0.00000000000E+00  0.12525980253E-10  0.17130000000E+03  0.17130000000E+03 0. -1.
       11    1    1    2    0    0  0.15712441136E+00  0.11093719197E+00  0.42529356234E+00  0.46676548351E+00  0.51109989000E-03 0.  1.
     -623    1    1    2    0    0  0.19118692862E+00 -0.34618587194E+00  0.76726630435E+00  0.17130217481E+03  0.17130000000E+03 0. -1.
      622    1    1    2    0    0 -0.34831133998E+00  0.23524867996E+00  0.28074401007E+01  0.35310597064E+01  0.21000000000E+01 0.  1.
</event>
<event>
 5   0  0.7462600E-02  0.9118800E+02  0.7818608E-02  0.1180000E+00
       11   -1    0    0    0    0  0.00000000000E+00  0.00000000000E+00  0.39999999673E+01  0.40000000000E+01  0.51109989000E-03 0.  1.
     -623   -1    0    0    0    0  0.00000000000E+00  0.00000000000E+00  0.12525980253E-10  0.17130000000E+03  0.17130000000E+03 0.  1.
       11    1    1    2    0    0  0.14112209490E+00  0.47554842863E-01  0.41651926618E-01  0.15463522549E+00  0.51109989000E-03 0.  1.
     -623    1    1    2    0    0 -0.21820502513E+00 -0.38539531262E+00  0.75843527274E+00  0.17130225149E+03  0.17130000000E+03 0.  1.
      622    1    1    2    0    0  0.77082930230E-01  0.33784046975E+00  0.31999127680E+01  0.38431132801E+01  0.21000000000E+01 0.  1.
</event>
<event>
 5   0  0.7462600E-02  0.9118800E+02  0.7818608E-02  0.1180000E+00
       11   -1    0    0    0    0  0.00000000000E+00  0.00000000000E+00  0.39999999673E+01  0.40000000000E+01  0.51109989000E-03 0.  1.
     -623   -1    0    0    0    0  0.00000000000E+00  0.00000000000E+00  0.12525980253E-10  0.17130000000E+03  0.17130000000E+03 0. -1.
       11    1    1    2    0    0 -0.73864723973E-01 -0.87827513530E-01  0.33824388687E+00  0.35718182738E+00  0.51109989000E-03 0.  1.
     -623    1    1    2    0    0  0.27027801499E-01  0.38563788192E+00  0.70277618756E+00  0.17130187781E+03  0.17130000000E+03 0. -1.
      622    1    1    2    0    0  0.46836922474E-01 -0.29781036839E+00  0.29589798929E+01  0.36409403620E+01  0.21000000000E+01 0.  1.
</event>
<event>
 5   0  0.7462600E-02  0.9118800E+02  0.7818608E-02  0.1180000E+00
       11   -1    0    0    0    0  0.00000000000E+00  0.00000000000E+00  0.39999999673E+01  0.40000000000E+01  0.51109989000E-03 0. -1.
     -623   -1    0    0    0    0  0.00000000000E+00  0.00000000000E+00  0.12525980253E-10  0.17130000000E+03  0.17130000000E+03 0.  1.
       11    1    1    2    0    0 -0.27273661657E-01  0.10947851878E+00 -0.21968137874E-01  0.11494459099E+00  0.51109989000E-03 0. -1.
     -623    1    1    2    0    0 -0.39863158805E+00  0.21570077825E+00  0.80058183642E+00  0.17130247040E+03  0.17130000000E+03 0.  1.
      622    1    1    2    0    0  0.42590524971E+00 -0.32517929702E+00  0.32213862688E+01  0.38825850087E+01  0.21000000000E+01 0. -1.
</event>
<event>
 5   0  0.7462600E-02  0.9118800E+02  0.7818608E-02  0.1180000E+00
       11   -1    0    0    0    0  0.00000000000E+00  0.00000000000E+00  0.39999999673E+01  0.40000000000E+01  0.51109989000E-03 0. -1.
     -623   -1    0    0    0    0  0.00000000000E+00  0.00000000000E+00  0.12525980253E-10  0.17130000000E+03  0.17130000000E+03 0.  1.
       11    1    1    2    0    0  0.21712258544E+00 -0.11625973154E+00  0.11011552515E+00  0.26978553035E+00  0.51109989000E-03 0. -1.
     -623    1    1    2    0    0  0.69852992493E+00  0.25688751212E+00  0.95485352905E+00  0.17130427806E+03  0.17130000000E+03 0.  1.
      622    1    1    2    0    0 -0.91565251037E+00 -0.14062778059E+00  0.29350309132E+01  0.37259364130E+01  0.21000000000E+01 0. -1.
</event>
<event>
 5   0  0.7462600E-02  0.9118800E+02  0.7818608E-02  0.1180000E+00
       11   -1    0    0    0    0  0.00000000000E+00  0.00000000000E+00  0.39999999673E+01  0.40000000000E+01  0.51109989000E-03 0.  1.
     -623   -1    0    0    0    0  0.00000000000E+00  0.00000000000E+00  0.12525980253E-10  0.17130000000E+03  0.17130000000E+03 0.  1.
       11    1    1    2    0    0  0.30335228697E+00 -0.23289856861E+00  0.43578974010E+00  0.57980799587E+00  0.51109989000E-03 0.  1.
     -623    1    1    2    0    0  0.25491507791E+00  0.28477130902E+00  0.92730224677E+00  0.17130293624E+03  0.17130000000E+03 0.  1.
      622    1    1    2    0    0 -0.55826736488E+00 -0.51872740405E-01  0.26369079805E+01  0.34172557600E+01  0.21000000000E+01 0.  1.
</event>
<event>
 5   0  0.7462600E-02  0.9118800E+02  0.7818608E-02  0.1180000E+00
       11   -1    0    0    0    0  0.00000000000E+00  0.00000000000E+00  0.39999999673E+01  0.40000000000E+01  0.51109989000E-03 0.  1.
     -623   -1    0    0    0    0  0.00000000000E+00  0.00000000000E+00  0.12525980253E-10  0.17130000000E+03  0.17130000000E+03 0. -1.
       11    1    1    2    0    0 -0.34836949760E+00  0.38529288498E+00  0.70949457391E-01  0.52425757105E+00  0.51109989000E-03 0.  1.
     -623    1    1    2    0    0  0.50829800628E+00 -0.22324760111E+00  0.11750159002E+01  0.17130492949E+03  0.17130000000E+03 0. -1.
      622    1    1    2    0    0 -0.15992850868E+00 -0.16204528387E+00  0.27540346098E+01  0.34708129356E+01  0.21000000000E+01 0.  1.
</event>
<event>
 5   0  0.7462600E-02  0.9118800E+02  0.7818608E-02  0.1180000E+00
       11   -1    0    0    0    0  0.00000000000E+00  0.00000000000E+00  0.39999999673E+01  0.40000000000E+01  0.51109989000E-03 0. -1.
     -623   -1    0    0    0    0  0.00000000000E+00  0.00000000000E+00  0.12525980253E-10  0.17130000000E+03  0.17130000000E+03 0.  1.
       11    1    1    2    0    0 -0.11495963998E+00 -0.96434807600E-01  0.52674309249E-01  0.15902903829E+00  0.51109989000E-03 0. -1.
     -623    1    1    2    0    0 -0.22030216433E+00  0.37025195838E+00  0.76323031518E+00  0.17130224208E+03  0.17130000000E+03 0.  1.
      622    1    1    2    0    0  0.33526180432E+00 -0.27381715078E+00  0.31840953429E+01  0.38387288863E+01  0.21000000000E+01 0. -1.
</event>
<event>
 5   0  0.7462600E-02  0.9118800E+02  0.7818608E-02  0.1180000E+00
       11   -1    0    0    0    0  0.00000000000E+00  0.00000000000E+00  0.39999999673E+01  0.40000000000E+01  0.51109989000E-03 0. -1.
     -623   -1    0    0    0    0  0.00000000000E+00  0.00000000000E+00  0.12525980253E-10  0.17130000000E+03  0.17130000000E+03 0. -1.
       11    1    1    2    0    0 -0.98027376855E-01  0.34871481543E-01 -0.11084432666E-01  0.10463514088E+00  0.51109989000E-03 0. -1.
     -623    1    1    2    0    0 -0.17609037409E-01 -0.26574450704E+00  0.74259180274E+00  0.17130181661E+03  0.17130000000E+03 0. -1.
      622    1    1    2    0    0  0.11563641426E+00  0.23087302550E+00  0.32684925973E+01  0.38935482523E+01  0.21000000000E+01 0. -1.
</event>
<event>
 5   0  0.7462600E-02  0.9118800E+02  0.7818608E-02  0.1180000E+00
       11   -1    0    0    0    0  0.00000000000E+00  0.00000000000E+00  0.39999999673E+01  0.40000000000E+01  0.51109989000E-03 0.  1.
     -623   -1    0    0    0    0  0.00000000000E+00  0.00000000000E+00  0.12525980253E-10  0.17130000000E+03  0.17130000000E+03 0.  1.
       11    1    1    2    0    0  0.10531416906E+00  0.53099971880E-01  0.46391358437E+00  0.47867186695E+00  0.51109989000E-03 0.  1.
     -623    1    1    2    0    0 -0.15655524570E+00  0.44310191114E+00  0.75676942471E+00  0.17130231624E+03  0.17130000000E+03 0.  1.
      622    1    1    2    0    0  0.51241076643E-01 -0.49620188302E+00  0.27793169583E+01  0.35190118942E+01  0.21000000000E+01 0.  1.
</event>
<event>
 5   0  0.7462600E-02  0.9118800E+02  0.7818608E-02  0.1180000E+00
       11   -1    0    0    0    0  0.00000000000E+00  0.00000000000E+00  0.39999999673E+01  0.40000000000E+01  0.51109989000E-03 0. -1.
     -623   -1    0    0    0    0  0.00000000000E+00  0.00000000000E+00  0.12525980253E-10  0.17130000000E+03  0.17130000000E+03 0. -1.
       11    1    1    2    0    0  0.37244967147E-01  0.85679742008E-01 -0.53763032760E-03  0.93427811907E-01  0.51109989000E-03 0. -1.
     -623    1    1    2    0    0  0.10844960387E+00 -0.11817142538E+00  0.71163348840E+00  0.17130155326E+03  0.17130000000E+03 0. -1.
      622    1    1    2    0    0 -0.14569457101E+00  0.32491683377E-01  0.32889041093E+01  0.39050189318E+01  0.21000000000E+01 0. -1.
</event>
<event>
 5   0  0.7462600E-02  0.9118800E+02  0.7818608E-02  0.1180000E+00
       11   -1    0    0    0    0  0.00000000000E+00  0.00000000000E+00  0.39999999673E+01  0.40000000000E+01  0.51109989000E-03 0. -1.
     -623   -1    0    0    0    0  0.00000000000E+00  0.00000000000E+00  0.12525980253E-10  0.17130000000E+03  0.17130000000E+03 0. -1.
       11    1    1    2    0    0 -0.55988007888E-01  0.44631832424E+00  0.61075515755E+00  0.75852279285E+00  0.51109989000E-03 0. -1.
     -623    1    1    2    0    0  0.33901695738E+00 -0.46358652054E-01  0.97326235026E+00  0.17130310657E+03  0.17130000000E+03 0. -1.
      622    1    1    2    0    0 -0.28302894949E+00 -0.39995967218E+00  0.24159824596E+01  0.32383706351E+01  0.21000000000E+01 0. -1.
</event>
<event>
 5   0  0.7462600E-02  0.9118800E+02  0.7818608E-02  0.1180000E+00
       11   -1    0    0    0    0  0.00000000000E+00  0.00000000000E+00  0.39999999673E+01  0.40000000000E+01  0.51109989000E-03 0.  1.
     -623   -1    0    0    0    0  0.00000000000E+00  0.00000000000E+00  0.12525980253E-10  0.17130000000E+03  0.17130000000E+03 0.  1.
       11    1    1    2    0    0  0.64274866832E-01 -0.45680162622E+00 -0.49211387555E-02  0.46132793439E+00  0.51109989000E-03 0.  1.
     -623    1    1    2    0    0 -0.41955557466E-01  0.96005251806E-01  0.11849364528E+01  0.17130413028E+03  0.17130000000E+03 0.  1.
      622    1    1    2    0    0 -0.22319309366E-01  0.36079637441E+00  0.28199846533E+01  0.35345417836E+01  0.21000000000E+01 0.  1.
</event>
<event>
 5   0  0.7462600E-02  0.9118800E+02  0.7818608E-02  0.1180000E+00
       11   -1    0    0    0    0  0.00000000000E+00  0.00000000000E+00  0.39999999673E+01  0.40000000000E+01  0.51109989000E-03 0. -1.
     -623   -1    0    0    0    0  0.00000000000E+00  0.00000000000E+00  0.12525980253E-10  0.17130000000E+03  0.17130000000E+03 0.  1.
       11    1    1    2    0    0 -0.70184114236E-01 -0.22292406192E+00  0.21572188644E+00  0.31805210389E+00  0.51109989000E-03 0. -1.
     -623    1    1    2    0    0  0.33848740728E+00 -0.52305827560E-01  0.78708443559E+00  0.17130215063E+03  0.17130000000E+03 0.  1.
      622    1    1    2    0    0 -0.26830329305E+00  0.27522988948E+00  0.29971936453E+01  0.36797972630E+01  0.21000000000E+01 0. -1.
</event>
<event>
 5   0  0.7462600E-02  0.9118800E+02  0.7818608E-02  0.1180000E+00
       11   -1    0    0    0    0  0.00000000000E+00  0.00000000000E+00  0.39999999673E+01  0.40000000000E+01  0.51109989000E-03 0. -1.
     -623   -1    0    0    0    0  0.00000000000E+00  0.00000000000E+00  0.12525980253E-10  0.17130000000E+03  0.17130000000E+03 0.  1.
       11    1    1    2    0    0  0.22859339465E+00 -0.80118603876E-01 -0.54575880021E-01  0.24829965498E+00  0.51109989000E-03 0. -1.
     -623    1    1    2    0    0 -0.42923645581E+00  0.63272750212E+00  0.10075102571E+01  0.17130466913E+03  0.17130000000E+03 0.  1.
      622    1    1    2    0    0  0.20064306117E+00 -0.55260889824E+00  0.30470655902E+01  0.37470312173E+01  0.21000000000E+01 0. -1.
</event>
<event>
 5   0  0.7462600E-02  0.9118800E+02  0.7818608E-02  0.1180000E+00
       11   -1    0    0    0    0  0.00000000000E+00  0.00000000000E+00  0.39999999673E+01  0.40000000000E+01  0.51109989000E-03 0.  1.
     -623   -1    0    0    0    0  0.00000000000E+00  0.00000000000E+00  0.12525980253E-10  0.17130000000E+03  0.17130000000E+03 0. -1.
       11    1    1    2    0    0  0.10280145021E+00 -0.21489869132E+00  0.10652732847E+00  0.26095577906E+00  0.51109989000E-03 0.  1.
     -623    1    1    2    0    0 -0.77879634247E-01  0.30632705261E+00  0.80394386494E+00  0.17130217812E+03  0.17130000000E+03 0. -1.
      622    1    1    2    0    0 -0.24921815961E-01 -0.91428361293E-01  0.30895287740E+01  0.37368661051E+01  0.21000000000E+01 0.  1.
</event>
<event>
 5   0  0.7462600E-02  0.9118800E+02  0.7818608E-02  0.1180000E+00
       11   -1    0    0    0    0  0.00000000000E+00  0.00000000000E+00  0.39999999673E+01  0.40000000000E+01  0.51109989000E-03 0. -1.
     -623   -1    0    0    0    0  0.00000000000E+00  0.00000000000E+00  0.12525980253E-10  0.17130000000E+03  0.17130000000E+03 0.  1.
       11    1    1    2    0    0  0.48885983906E-01 -0.20097551933E+00  0.88300418006E-01  0.22489602894E+00  0.51109989000E-03 0. -1.
     -623    1    1    2    0    0 -0.95286088694E-01  0.18437132157E+00  0.77725830120E+00  0.17130188908E+03  0.17130000000E+03 0.  1.
      622    1    1    2    0    0  0.46400104788E-01  0.16604197759E-01  0.31344412482E+01  0.37732148901E+01  0.21000000000E+01 0. -1.
</event>
<event>
 5   0  0.7462600E-02  0.9118800E+02  0.7818608E-02  0.1180000E+00
       11   -1    0    0    0    0  0.00000000000E+00  0.00000000000E+00  0.39999999673E+01  0.40000000000E+01  0.51109989000E-03 0. -1.
     -623   -1    0    0    0    0  0.00000000000E+00  0.00000000000E+00  0.12525980253E-10  0.17130000000E+03  0.17130000000E+03 0.  1.
       11    1    1    2    0    0 -0.40962107041E-01  0.75627398962E-01 -0.42522231226E-01  0.95946855387E-01  0.51109989000E-03 0. -1.
     -623    1    1    2    0    0 -0.31991999275E-01 -0.76089092531E+00  0.82882302763E+00  0.17130369793E+03  0.17130000000E+03 0.  1.
      622    1    1    2    0    0  0.72954106316E-01  0.68526352635E+00  0.32136991710E+01  0.39003552099E+01  0.21000000000E+01 0. -1.
</event>
<event>
 5   0  0.7462600E-02  0.9118800E+02  0.7818608E-02  0.1180000E+00
       11   -1    0    0    0    0  0.00000000000E+00  0.00000000000E+00  0.39999999673E+01  0.40000000000E+01  0.51109989000E-03 0. -1.
     -623   -1    0    0    0    0  0.00000000000E+00  0.00000000000E+00  0.12525980253E-10  0.17130000000E+03  0.17130000000E+03 0. -1.
       11    1    1    2    0    0  0.21609991217E-01  0.79156721746E-01  0.31465410765E-01  0.87881235857E-01  0.51109989000E-03 0. -1.
     -623    1    1    2    0    0 -0.21596048752E+00 -0.25552786470E-01  0.67573609517E+00  0.17130147084E+03  0.17130000000E+03 0. -1.
      622    1    1    2    0    0  0.19435049631E+00 -0.53603935277E-01  0.32927984614E+01  0.39106479265E+01  0.21000000000E+01 0. -1.
</event>
<event>
 5   0  0.7462600E-02  0.9118800E+02  0.7818608E-02  0.1180000E+00
       11   -1    0    0    0    0  0.00000000000E+00  0.00000000000E+00  0.39999999673E+01  0.40000000000E+01  0.51109989000E-03 0.  1.
     -623   -1    0    0    0    0  0.00000000000E+00  0.00000000000E+00  0.12525980253E-10  0.17130000000E+03  0.17130000000E+03 0. -1.
       11    1    1    2    0    0 -0.13053502337E+00  0.24037995283E-01 -0.78004486831E-01  0.15395511921E+00  0.51109989000E-03 0.  1.
     -623    1    1    2    0    0 -0.38621323324E+00 -0.15997704238E+00  0.90400229238E+00  0.17130289540E+03  0.17130000000E+03 0. -1.
      622    1    1    2    0    0  0.51674825661E+00  0.13593904710E+00  0.31740021618E+01  0.38431494778E+01  0.21000000000E+01 0.  1.
</event>
<event>
 5   0  0.7462600E-02  0.9118800E+02  0.7818608E-02  0.1180000E+00
       11   -1    0    0    0    0  0.00000000000E+00  0.00000000000E+00  0.39999999673E+01  0.40000000000E+01  0.51109989000E-03 0. -1.
     -623   -1    0    0    0    0  0.00000000000E+00  0.00000000000E+00  0.12525980253E-10  0.17130000000E+03  0.17130000000E+03 0. -1.
       11    1    1    2    0    0  0.11093176124E+00  0.82371313185E-01  0.17237194685E+00  0.22091454948E+00  0.51109989000E-03 0. -1.
     -623    1    1    2    0    0 -0.62565637632E-01 -0.11655723556E+00  0.68801788161E+00  0.17130143277E+03  0.17130000000E+03 0. -1.
      622    1    1    2    0    0 -0.48366123606E-01  0.34185922374E-01  0.31396101389E+01  0.37776526817E+01  0.21000000000E+01 0. -1.
</event>
<event>
 5   0  0.7462600E-02  0.9118800E+02  0.7818608E-02  0.1180000E+00
       11   -1    0    0    0    0  0.00000000000E+00  0.00000000000E+00  0.39999999673E+01  0.40000000000E+01  0.51109989000E-03 0. -1.
     -623   -1    0    0    0    0  0.00000000000E+00  0.00000000000E+00  0.12525980253E-10  0.17130000000E+03  0.17130000000E+03 0.  1.
       11    1    1    2    0    0  0.22860276619E+00  0.17064790582E+00  0.23683885755E+00  0.37077329750E+00  0.51109989000E-03 0. -1.
     -623    1    1    2    0    0 -0.42288712559E+00  0.86131352248E-01  0.82389528758E+00  0.17130252495E+03  0.17130000000E+03 0.  1.
      622    1    1    2    0    0  0.19428435940E+00 -0.25677925807E+00  0.29392658222E+01  0.36267017486E+01  0.21000000000E+01 0. -1.
</event>
<event>
 5   0  0.7462600E-02  0.9118800E+02  0.7818608E-02  0.1180000E+00
       11   -1    0    0    0    0  0.00000000000E+00  0.00000000000E+00  0.39999999673E+01  0.40000000000E+01  0.51109989000E-03 0.  1.
     -623   -1    0    0    0    0  0.00000000000E+00  0.00000000000E+00  0.12525980253E-10  0.17130000000E+03  0.17130000000E+03 0.  1.
       11    1    1    2    0    0 -0.54330704161E-01 -0.23343765705E-01 -0.22907277949E-01  0.63417358965E-01  0.51109989000E-03 0.  1.
     -623    1    1    2    0    0  0.10529293257E+00  0.23275090253E-01  0.69533912577E+00  0.17130144519E+03  0.17130000000E+03 0.  1.
      622    1    1    2    0    0 -0.50962228404E-01  0.68675451826E-04  0.33275681195E+01  0.39351374491E+01  0.21000000000E+01 0.  1.
</event>
<event>
 5   0  0.7462600E-02  0.9118800E+02  0.7818608E-02  0.1180000E+00
       11   -1    0    0    0    0  0.00000000000E+00  0.00000000000E+00  0.39999999673E+01  0.40000000000E+01  0.51109989000E-03 0.  1.
     -623   -1    0    0    0    0  0.00000000000E+00  0.00000000000E+00  0.12525980253E-10  0.17130000000E+03  0.17130000000E+03 0. -1.
       11    1    1    2    0    0 -0.15225930015E+00 -0.38475377831E-01  0.24744425239E+00  0.29307365703E+00  0.51109989000E-03 0.  1.
     -623    1    1    2    0    0 -0.55834653729E-01 -0.28805740724E+00  0.72465999594E+00  0.17130178407E+03  0.17130000000E+03 0. -1.
      622    1    1    2    0    0  0.20809395387E+00  0.32653278507E+00  0.30278957190E+01  0.37051422697E+01  0.21000000000E+01 0.  1.
</event>
<event>
 5   0  0.7462600E-02  0.9118800E+02  0.7818608E-02  0.1180000E+00
       11   -1    0    0    0    0  0.00000000000E+00  0.00000000000E+00  0.39999999673E+01  0.40000000000E+01  0.51109989000E-03 0.  1.
     -623   -1    0    0    0    0  0.00000000000E+00  0.00000000000E+00  0.12525980253E-10  0.17130000000E+03  0.17130000000E+03 0. -1.
       11    1    1    2    0    0  0.27709042567E+00 -0.14769273520E+00  0.90466118459E+00  0.95760345037E+00  0.51109989000E-03 0.  1.
     -623    1    1    2    0    0  0.18306470819E+00  0.27175642166E+00  0.95032026653E+00  0.17130294940E+03  0.17130000000E+03 0. -1.
      622    1    1    2    0    0 -0.46015513386E+00 -0.12406368645E+00  0.21450185162E+01  0.30394471505E+01  0.21000000000E+01 0.  1.
</event>
<event>
 5   0  0.7462600E-02  0.9118800E+02  0.7818608E-02  0.1180000E+00
       11   -1    0    0    0    0  0.00000000000E+00  0.00000000000E+00  0.39999999673E+01  0.40000000000E+01  0.51109989000E-03 0. -1.
     -623   -1    0    0    0    0  0.00000000000E+00  0.00000000000E+00  0.12525980253E-10  0.17130000000E+03  0.17130000000E+03 0.  1.
       11    1    1    2    0    0 -0.95074214102E-01 -0.20374003869E+00  0.11274780638E+00  0.25151826697E+00  0.51109989000E-03 0. -1.
     -623    1    1    2    0    0 -0.61321804139E-01  0.37590057090E+00  0.79370046327E+00  0.17130226216E+03  0.17130000000E+03 0.  1.
      622    1    1    2    0    0  0.15639601824E+00 -0.17216053221E+00  0.30935516977E+01  0.37462195704E+01  0.21000000000E+01 0. -1.
</event>
<event>
 5   0  0.7462600E-02  0.9118800E+02  0.7818608E-02  0.1180000E+00
       11   -1    0    0    0    0  0.00000000000E+00  0.00000000000E+00  0.39999999673E+01  0.40000000000E+01  0.51109989000E-03 0. -1.
     -623   -1    0    0    0    0  0.00000000000E+00  0.00000000000E+00  0.12525980253E-10  0.17130000000E+03  0.17130000000E+03 0.  1.
       11    1    1    2    0    0  0.31614305372E+00  0.45603059664E-01  0.16708484866E+00  0.36047701361E+00  0.51109989000E-03 0. -1.
     -623    1    1    2    0    0 -0.21700650521E+00  0.15379560669E+00  0.87168245597E+00  0.17130242431E+03  0.17130000000E+03 0.  1.
      622    1    1    2    0    0 -0.99136548510E-01 -0.19939866635E+00  0.29612326627E+01  0.36370986742E+01  0.21000000000E+01 0. -1.
</event>
<event>
 5   0  0.7462600E-02  0.9118800E+02  0.7818608E-02  0.1180000E+00
       11   -1    0    0    0    0  0.00000000000E+00  0.00000000000E+00  0.39999999673E+01  0.40000000000E+01  0.51109989000E-03 0. -1.
     -623   -1    0    0    0    0  0.00000000000E+00  0.00000000000E+00  0.12525980253E-10  0.17130000000E+03  0.17130000000E+03 0.  1.
       11    1    1    2    0    0  0.30882295624E-01 -0.40161988737E+00  0.20098561956E+00  0.45016411519E+00  0.51109989000E-03 0. -1.
     -623    1    1    2    0    0  0.97815020242E-01  0.89091843312E-01  0.96041820321E+00  0.17130274343E+03  0.17130000000E+03 0.  1.
      622    1    1    2    0    0 -0.12869731587E+00  0.31252804405E+00  0.28385961446E+01  0.35470924501E+01  0.21000000000E+01 0. -1.
</event>
<event>
 5   0  0.7462600E-02  0.9118800E+02  0.7818608E-02  0.1180000E+00
       11   -1    0    0    0    0  0.00000000000E+00  0.00000000000E+00  0.39999999673E+01  0.40000000000E+01  0.51109989000E-03 0.  1.
     -623   -1    0    0    0    0  0.00000000000E+00  0.00000000000E+00  0.12525980253E-10  0.17130000000E+03  0.17130000000E+03 0. -1.
       11    1    1    2    0    0  0.26714779996E+00 -0.26249811398E-01  0.44121919046E+00  0.51646068086E+00  0.51109989000E-03 0.  1.
     -623    1    1    2    0    0 -0.66382625346E+00  0.45045652098E+00  0.84582654743E+00  0.17130396668E+03  0.17130000000E+03 0. -1.
      622    1    1    2    0    0  0.39667845350E+00 -0.42420670958E+00  0.27129542295E+01  0.34795726432E+01  0.21000000000E+01 0.  1.
</event>
<event>
 5   0  0.7462600E-02  0.9118800E+02  0.7818608E-02  0.1180000E+00
       11   -1    0    0    0    0  0.00000000000E+00  0.00000000000E+00  0.39999999673E+01  0.40000000000E+01  0.51109989000E-03 0. -1.
     -623   -1    0    0    0    0  0.00000000000E+00  0.00000000000E+00  0.12525980253E-10  0.17130000000E+03  0.17130000000E+03 0.  1.
       11    1    1    2    0    0  0.12882073442E+00 -0.11429908977E+00  0.13208477032E+00  0.21703850191E+00  0.51109989000E-03 0. -1.
     -623    1    1    2    0    0 -0.24433625092E+00  0.50341968010E+00  0.75075569362E+00  0.17130255913E+03  0.17130000000E+03 0.  1.
      622    1    1    2    0    0  0.11551551650E+00 -0.38912059033E+00  0.31171595034E+01  0.37804023646E+01  0.21000000000E+01 0. -1.
</event>
<event>
 5   0  0.7462600E-02  0.9118800E+02  0.7818608E-02  0.1180000E+00
       11   -1    0    0    0    0  0.00000000000E+00  0.00000000000E+00  0.39999999673E+01  0.40000000000E+01  0.51109989000E-03 0. -1.
     -623   -1    0    0    0    0  0.00000000000E+00  0.00000000000E+00  0.12525980253E-10  0.17130000000E+03  0.17130000000E+03 0. -1.
       11    1    1    2    0    0  0.12823732247E+00 -0.15497045363E+00  0.20648829189E+00  0.28826780653E+00  0.51109989000E-03 0. -1.
     -623    1    1    2    0    0  0.36522968066E-01  0.58795125805E+00  0.77160408700E+00  0.17130275069E+03  0.17130000000E+03 0. -1.
      622    1    1    2    0    0 -0.16476029053E+00 -0.43298080442E+00  0.30219075885E+01  0.37089815049E+01  0.21000000000E+01 0. -1.
</event>
<event>
 5   0  0.7462600E-02  0.9118800E+02  0.7818608E-02  0.1180000E+00
       11   -1    0    0    0    0  0.00000000000E+00  0.00000000000E+00  0.39999999673E+01  0.40000000000E+01  0.51109989000E-03 0.  1.
     -623   -1    0    0    0    0  0.00000000000E+00  0.00000000000E+00  0.12525980253E-10  0.17130000000E+03  0.17130000000E+03 0. -1.
       11    1    1    2    0    0 -0.40120402147E-01  0.24910895044E+00  0.55838686394E-02  0.25238137148E+00  0.51109989000E-03 0.  1.
     -623    1    1    2    0    0 -0.26698959983E+00 -0.28005305545E+00  0.90928793066E+00  0.17130285029E+03  0.17130000000E+03 0. -1.
      622    1    1    2    0    0  0.30711000198E+00  0.30944105007E-01  0.30851281681E+01  0.37447683379E+01  0.21000000000E+01 0.  1.
</event>
<event>
 5   0  0.7462600E-02  0.9118800E+02  0.7818608E-02  0.1180000E+00
       11   -1    0    0    0    0  0.00000000000E+00  0.00000000000E+00  0.39999999673E+01  0.40000000000E+01  0.51109989000E-03 0.  1.
     -623   -1    0    0    0    0  0.00000000000E+00  0.00000000000E+00  0.12525980253E-10  0.17130000000E+03  0.17130000000E+03 0. -1.
       11    1    1    2    0    0  0.14006723811E+00  0.93829165069E-01  0.64197287269E+00  0.66374104431E+00  0.51109989000E-03 0.  1.
     -623    1    1    2    0    0 -0.57997872423E+00  0.29596755178E+00  0.83746078931E+00  0.17130328459E+03  0.17130000000E+03 0. -1.
      622    1    1    2    0    0  0.43991148611E+00 -0.38979671685E+00  0.25205663054E+01  0.33329743617E+01  0.21000000000E+01 0.  1.
</event>
<event>
 5   0  0.7462600E-02  0.9118800E+02  0.7818608E-02  0.1180000E+00
       11   -1    0    0    0    0  0.00000000000E+00  0.00000000000E+00  0.39999999673E+01  0.40000000000E+01  0.51109989000E-03 0. -1.
     -623   -1    0    0    0    0  0.00000000000E+00  0.00000000000E+00  0.12525980253E-10  0.17130000000E+03  0.17130000000E+03 0. -1.
       11    1    1    2    0    0  0.27491106037E+00 -0.94000304538E-01  0.28059856536E+00  0.40391578884E+00  0.51109989000E-03 0. -1.
     -623    1    1    2    0    0 -0.31829150236E+00  0.34682816331E+00  0.81467425402E+00  0.17130258402E+03  0.17130000000E+03 0. -1.
      622    1    1    2    0    0  0.43380441988E-01 -0.25282785877E+00  0.29047271480E+01  0.35935001869E+01  0.21000000000E+01 0. -1.
</event>
<event>
 5   0  0.7462600E-02  0.9118800E+02  0.7818608E-02  0.1180000E+00
       11   -1    0    0    0    0  0.00000000000E+00  0.00000000000E+00  0.39999999673E+01  0.40000000000E+01  0.51109989000E-03 0. -1.
     -623   -1    0    0    0    0  0.00000000000E+00  0.00000000000E+00  0.12525980253E-10  0.17130000000E+03  0.17130000000E+03 0. -1.
       11    1    1    2    0    0 -0.96438585778E-01  0.10136952764E+00 -0.42852471242E-01  0.14633105437E+00  0.51109989000E-03 0. -1.
     -623    1    1    2    0    0 -0.53711623013E-01 -0.48842787359E+00  0.84175242199E+00  0.17130277287E+03  0.17130000000E+03 0. -1.
      622    1    1    2    0    0  0.15015020879E+00  0.38705834595E+00  0.32011000166E+01  0.38508960730E+01  0.21000000000E+01 0. -1.
</event>
<event>
 5   0  0.7462600E-02  0.9118800E+02  0.7818608E-02  0.1180000E+00
       11   -1    0    0    0    0  0.00000000000E+00  0.00000000000E+00  0.39999999673E+01  0.40000000000E+01  0.51109989000E-03 0.  1.
     -623   -1    0    0    0    0  0.00000000000E+00  0.00000000000E+00  0.12525980253E-10  0.17130000000E+03  0.17130000000E+03 0. -1.
       11    1    1    2    0    0 -0.10500797894E+00  0.24767160948E+00  0.92984521493E+00  0.96797742057E+00  0.51109989000E-03 0.  1.
     -623    1    1    2    0    0 -0.44593616547E+00 -0.34907069589E+00  0.96128766932E+00  0.17130363330E+03  0.17130000000E+03 0. -1.
      622    1    1    2    0    0  0.55094414441E+00  0.10139908641E+00  0.21088670831E+01  0.30283892747E+01  0.21000000000E+01 0.  1.
</event>
<event>
 5   0  0.7462600E-02  0.9118800E+02  0.7818608E-02  0.1180000E+00
       11   -1    0    0    0    0  0.00000000000E+00  0.00000000000E+00  0.39999999673E+01  0.40000000000E+01  0.51109989000E-03 0. -1.
     -623   -1    0    0    0    0  0.00000000000E+00  0.00000000000E+00  0.12525980253E-10  0.17130000000E+03  0.17130000000E+03 0. -1.
       11    1    1    2    0    0 -0.38461181396E+00 -0.85351002360E-01  0.30475011893E+00  0.49808025181E+00  0.51109989000E-03 0. -1.
     -623    1    1    2    0    0  0.72768866375E+00  0.72210327043E+00  0.99551323668E+00  0.17130596023E+03  0.17130000000E+03 0. -1.
      622    1    1    2    0    0 -0.34307684980E+00 -0.63675226807E+00  0.26997366117E+01  0.34959595176E+01  0.21000000000E+01 0. -1.
</event>
<event>
 5   0  0.7462600E-02  0.9118800E+02  0.7818608E-02  0.1180000E+00
       11   -1    0    0    0    0  0.00000000000E+00  0.00000000000E+00  0.39999999673E+01  0.40000000000E+01  0.51109989000E-03 0. -1.
     -623   -1    0    0    0    0  0.00000000000E+00  0.00000000000E+00  0.12525980253E-10  0.17130000000E+03  0.17130000000E+03 0.  1.
       11    1    1    2    0    0  0.42617033628E-01  0.37892807780E-02 -0.14630243162E-01  0.45220298987E-01  0.51109989000E-03 0. -1.
     -623    1    1    2    0    0 -0.35307570040E+00 -0.40632922264E+00  0.70499267823E+00  0.17130229648E+03  0.17130000000E+03 0.  1.
      622    1    1    2    0    0  0.31045866677E+00  0.40253994187E+00  0.33096375323E+01  0.39524832174E+01  0.21000000000E+01 0. -1.
</event>
<event>
 5   0  0.7462600E-02  0.9118800E+02  0.7818608E-02  0.1180000E+00
       11   -1    0    0    0    0  0.00000000000E+00  0.00000000000E+00  0.39999999673E+01  0.40000000000E+01  0.51109989000E-03 0. -1.
     -623   -1    0    0    0    0  0.00000000000E+00  0.00000000000E+00  0.12525980253E-10  0.17130000000E+03  0.17130000000E+03 0.  1.
       11    1    1    2    0    0 -0.18031119016E+00 -0.95034581568E-01  0.26558433213E-02  0.20384065276E+00  0.51109989000E-03 0. -1.
     -623    1    1    2    0    0  0.56017794787E+00  0.12439437247E+00  0.86175471926E+00  0.17130312868E+03  0.17130000000E+03 0.  1.
      622    1    1    2    0    0 -0.37986675772E+00 -0.29359790903E-01  0.31355894048E+01  0.37930306704E+01  0.21000000000E+01 0. -1.
</event>
<event>
 5   0  0.7462600E-02  0.9118800E+02  0.7818608E-02  0.1180000E+00
       11   -1    0    0    0    0  0.00000000000E+00  0.00000000000E+00  0.39999999673E+01  0.40000000000E+01  0.51109989000E-03 0.  1.
     -623   -1    0    0    0    0  0.00000000000E+00  0.00000000000E+00  0.12525980253E-10  0.17130000000E+03  0.17130000000E+03 0. -1.
       11    1    1    2    0    0  0.77092616181E-01  0.15401995833E+00  0.11265648338E+00  0.20580856033E+00  0.51109989000E-03 0.  1.
     -623    1    1    2    0    0 -0.32133544795E-01 -0.79839701349E-01  0.73038493559E+00  0.17130157871E+03  0.17130000000E+03 0. -1.
      622    1    1    2    0    0 -0.44959071387E-01 -0.74180256984E-01  0.31569585484E+01  0.37926127280E+01  0.21000000000E+01 0.  1.
</event>
<event>
 5   0  0.7462600E-02  0.9118800E+02  0.7818608E-02  0.1180000E+00
       11   -1    0    0    0    0  0.00000000000E+00  0.00000000000E+00  0.39999999673E+01  0.40000000000E+01  0.51109989000E-03 0.  1.
     -623   -1    0    0    0    0  0.00000000000E+00  0.00000000000E+00  0.12525980253E-10  0.17130000000E+03  0.17130000000E+03 0. -1.
       11    1    1    2    0    0 -0.25629328348E+00  0.13727482381E+00  0.35851068191E-01  0.29294399588E+00  0.51109989000E-03 0.  1.
     -623    1    1    2    0    0  0.44555866216E-01 -0.23677476737E+00  0.92146800765E+00  0.17130264782E+03  0.17130000000E+03 0. -1.
      622    1    1    2    0    0  0.21173741727E+00  0.99499943562E-01  0.30426808915E+01  0.37044081822E+01  0.21000000000E+01 0.  1.
</event>
<event>
 5   0  0.7462600E-02  0.9118800E+02  0.7818608E-02  0.1180000E+00
       11   -1    0    0    0    0  0.00000000000E+00  0.00000000000E+00  0.39999999673E+01  0.40000000000E+01  0.51109989000E-03 0. -1.
     -623   -1    0    0    0    0  0.00000000000E+00  0.00000000000E+00  0.12525980253E-10  0.17130000000E+03  0.17130000000E+03 0. -1.
       11    1    1    2    0    0  0.13273284933E+00  0.25255099230E+00  0.79150889834E-02  0.28541710331E+00  0.51109989000E-03 0. -1.
     -623    1    1    2    0    0  0.60699772332E-01 -0.41173499998E-01  0.94469792169E+00  0.17130262063E+03  0.17130000000E+03 0. -1.
      622    1    1    2    0    0 -0.19343262166E+00 -0.21137749230E+00  0.30473869567E+01  0.37119622691E+01  0.21000000000E+01 0. -1.
</event>
<event>
 5   0  0.7462600E-02  0.9118800E+02  0.7818608E-02  0.1180000E+00
       11   -1    0    0    0    0  0.00000000000E+00  0.00000000000E+00  0.39999999673E+01  0.40000000000E+01  0.51109989000E-03 0.  1.
     -623   -1    0    0    0    0  0.00000000000E+00  0.00000000000E+00  0.12525980253E-10  0.17130000000E+03  0.17130000000E+03 0.  1.
       11    1    1    2    0    0 -0.67509288780E-01  0.69614420751E-01  0.87406344492E+00  0.87942642592E+00  0.51109989000E-03 0.  1.
     -623    1    1    2    0    0  0.44127550994E+00  0.13998107180E+00  0.86166486222E+00  0.17130279270E+03  0.17130000000E+03 0.  1.
      622    1    1    2    0    0 -0.37376622116E+00 -0.20959549256E+00  0.22642716602E+01  0.31177808791E+01  0.21000000000E+01 0.  1.
</event>
<event>
 5   0  0.7462600E-02  0.9118800E+02  0.7818608E-02  0.1180000E+00
       11   -1    0    0    0    0  0.00000000000E+00  0.00000000000E+00  0.39999999673E+01  0.40000000000E+01  0.51109989000E-03 0. -1.
     -623   -1    0    0    0    0  0.00000000000E+00  0.00000000000E+00  0.12525980253E-10  0.17130000000E+03  0.17130000000E+03 0. -1.
       11    1    1    2    0    0 -0.24667270547E+00  0.43047077491E-01  0.29772359093E+00  0.38902451378E+00  0.51109989000E-03 0. -1.
     -623    1    1    2    0    0 -0.89015160553E-01 -0.12060850844E+00  0.78733133835E+00  0.17130187495E+03  0.17130000000E+03 0. -1.
      622    1    1    2    0    0  0.33568786602E+00  0.77561430949E-01  0.29149450381E+01  0.36091005381E+01  0.21000000000E+01 0. -1.
</event>
<event>
 5   0  0.7462600E-02  0.9118800E+02  0.7818608E-02  0.1180000E+00
       11   -1    0    0    0    0  0.00000000000E+00  0.00000000000E+00  0.39999999673E+01  0.40000000000E+01  0.51109989000E-03 0.  1.
     -623   -1    0    0    0    0  0.00000000000E+00  0.00000000000E+00  0.12525980253E-10  0.17130000000E+03  0.17130000000E+03 0. -1.
       11    1    1    2    0    0  0.18398856281E+00 -0.21637697160E+00  0.54390899375E+00  0.61360250960E+00  0.51109989000E-03 0.  1.
     -623    1    1    2    0    0 -0.10070022913E+01  0.60960884826E+00  0.97018037084E+00  0.17130679183E+03  0.17130000000E+03 0. -1.
      622    1    1    2    0    0  0.82301372852E+00 -0.39323187666E+00  0.24859106028E+01  0.33796056621E+01  0.21000000000E+01 0.  0.
</event>
<event>
 5   0  0.7462600E-02  0.9118800E+02  0.7818608E-02  0.1180000E+00
       11   -1    0    0    0    0  0.00000000000E+00  0.00000000000E+00  0.39999999673E+01  0.40000000000E+01  0.51109989000E-03 0.  1.
     -623   -1    0    0    0    0  0.00000000000E+00  0.00000000000E+00  0.12525980253E-10  0.17130000000E+03  0.17130000000E+03 0. -1.
       11    1    1    2    0    0  0.39203867942E-01 -0.63429117264E-01  0.24074629685E-01  0.78358440491E-01  0.51109989000E-03 0.  1.
     -623    1    1    2    0    0 -0.53332713108E+00  0.35435339488E+00  0.71719503530E+00  0.17130269809E+03  0.17130000000E+03 0. -1.
      622    1    1    2    0    0  0.49412326314E+00 -0.29092427762E+00  0.32587303024E+01  0.39189434696E+01  0.21000000000E+01 0.  1.
</event>
</LesHouchesEvents>
