<LesHouchesEvents version="1.0">
<header>
<!--
#*********************************************************************
#                                                                    *
#                       MadGraph/MadEvent                            *
#                                                                    *
#                      The new web generation                        *
#                                                                    *
#                   http://madgraph.hep.uiuc.edu                     *
#                   http://madgraph.phys.ucl.ac.be                   *
#                   http://madgraph.roma2.infn.it                    *
#                                                                    *
#            CP3 team                      Tim Stelzer               *
#      Universite de Louvain          University of Illinois         *
#                                                                    *
#....................................................................*
#                                                                    *
# This file contains all the information necessary to reproduce      *
# the events generated:                                              *
#                                                                    *
# 1. software version                                                *
# 2. proc_card.dat      : code generation info including model       *
# 3. param_card.dat     : model primary parameters in the LH format  *
# 4. run_card.dat       : running parameters (collider and cuts)     *
# 5. pythia_card.dat    : present only in the pythia event file      *
# 6. pgs_card.dat       : present only in the pgs event file         *
#                                                                    *
#                                                                    *
#*********************************************************************
-->
<MGVersion>
# MG/ME version    : 4.4.17
# madgraph version : 4.4.2
# template version : 2.4.8
# helas version    : 3.5
# model version    : usrmod_1.0.4
</MGVersion>
<MGProcCard>
#*********************************************************************
#                        MadGraph/MadEvent                           *
#                   http://madgraph.hep.uiuc.edu                     *
#                                                                    *
#                          proc_card.dat                             *
#                                                                    *
# This file is used to generate the code for a specific process.     *
# Some notation/conventions:                                         *
#                                                                    *
# 0. Do not modify the TAGS and their order.                         *
# 1. hash/pound is a comment.                                        *
# 2. The number after the @ is used as an identifier for the class   *
#    of processes. It can be any positive integer.                   *
# 3. The number of lines for the max couplings depends on how many   *
#    different classes of couplings are present in the model         *
#    In the SM these are just two: QED (which include EW) and QCD    *
# 4. Write "end_coup" after  the couplings list,                     *
#    to tell MG that the couplings input is over.                    *
# 5. Write "done" after the proc list to                             *
#    to tell MG that the proc input is over.                         *
# 6. Some model names available at present are:                      *
#    sm     =  Standard Model                                        *
#    smckm =  Standard Model with Cabibbo matrix                     *
#    mssm   =  Minimal Supersymmetric Standard Model                 *
#    2hdm   =  Generic Two Higgs Doublet model                       *
#    heft   =  Higgs EFT (+Standard Model)                           *
#    usrmod =  User Model                                            *
# 7. Don't leave spaces between the particles name in the            *
#    definition of the multiparticles.                               *
#*********************************************************************
#*********************************************************************
# Process(es) requested : mg2 input                                  *
#*********************************************************************
# Begin PROCESS # This is TAG. Do not modify this line
e- N+ > e- N+ x      # Radiative
QCD=0             # Max QCD couplings
QED=1             # Max QED couplings
QFD=0 
QND=1
QWD=9
QDS=2
end_coup           # End the couplings input
done               # this tells MG there are no more procs
# End PROCESS  # This is TAG. Do not modify this line
#*********************************************************************
# Model information                                                  *
#*********************************************************************
# Begin MODEL  # This is TAG. Do not modify this line
fixedAP2     
# End   MODEL  # This is TAG. Do not modify this line
#*********************************************************************
# Start multiparticle definitions                                    *
#*********************************************************************
# Begin MULTIPARTICLES # This is TAG. Do not modify this line
P uu~cc~dd~ss~gf+f-
J uu~cc~dd~ss~gf+f-
L+ e+mu+
L- e-mu-
vl vevm
vl~ ve~vm~
# End  MULTIPARTICLES # This is TAG. Do not modify this line
</MGProcCard>
<slha>
#*********************************************************************
#                        MadGraph/MadEvent                           *
#                   http://madgraph.hep.uiuc.edu                     *
#                                                                    *
#                         param_card.dat                             *
#                                                                    *
#   Les Houches friendly file for the SM parameters of MadGraph      *
#        Spectrum and decay widths produced by SMCalc                *
#                                                                    *
#  Please note the following IMPORTANT issues:                       *
#                                                                    *
# 0. REFRAIN from editing this file by hand! Some of the parame-     *
#    ters are not independent                                        *
#    (such as G_Fermi, alpha_em, sin(theta_W),MZ,MW) and serious     *
#    problems might be encountered (such as violation of unitarity   *
#    or gauge invariance).  Always use a calculator.                 *
#                                                                    *
# 1. alpha_S(MZ) has been used in the calculation of the parameters  *
#    but, for consistency, it will be reset by madgraph to the       *
#    value expected IF the pdfs for collisions with hadrons are      *
#    used. This value is KEPT by madgraph when no pdf are used       *
#    lpp(i)=0 .                                                      *
#                                                                    *
#  2. Values of the charm and bottom kinematic (pole) masses are     *
#     those used in the matrix elements and phase space UNLESS they  *
#     are set to ZERO from the start in the model (particles.dat)    *
#     This happens, for example,  when using 5-flavor QCD where      *
#     charm and bottom are treated as partons in the initial state   *
#     and a zero mass might be hardwired in the model definition.    *
#                                                                    *
##********************************************************************
Block MODSEL # Select Model
     0   1   #  0 1 = SM
Block SMINPUTS      # Standard Model inputs
     1         1.27900000E+02   # alpha_em(MZ)(-1) SM MSbar
     2         1.16600000E-05   # G_Fermi
     3         1.18000000E-01   # alpha_s(MZ) SM MSbar
     4         9.15445065E+01   # Z mass (as input parameter)
Block MGYUKAWA     # Yukawa masses m/v=y/sqrt(2)
#    PDG          YMASS
     5         4.20000000E+00   # mbottom for the Yukawa  y_b
     4         1.25000000E+00   # mcharm  for the Yukawa  y_c
     6         1.74300000E+02   # mtop    for the Yukawa  y_t
    15         1.77700000E+00   # mtau    for the Yukawa  y_ta
Block MGCKM     # CKM elements for MadGraph
     1   1     9.75000000E-01   # Vud for Cabibbo matrix
#===========================================================
# QUANTUM NUMBERS OF NEW STATE(S) (NON SM PDG CODE) IF ANY
# (see below for masses and decay tables)
# These blocks are automatically created by the MadGraph
# qnumbers.pl script from the particles.dat model file
#===========================================================
BLOCK QNUMBERS 611 # f-
         1  -3 # 3 times electric charge
         2  2 # number of spin states (2S+1)
         3  1 # colour rep (1: singlet, 3: triplet, 8: octet)
         4  1 # Particle/Antiparticle distinction (0=own anti)
BLOCK QNUMBERS 622 # x
         1  0 # 3 times electric charge
         2  3 # number of spin states (2S+1)
         3  1 # colour rep (1: singlet, 3: triplet, 8: octet)
         4  0 # Particle/Antiparticle distinction (0=own anti)
BLOCK QNUMBERS 623 # N-
         1  0 # 3 times electric charge
         2  2 # number of spin states (2S+1)
         3  1 # colour rep (1: singlet, 3: triplet, 8: octet)
         4  1 # Particle/Antiparticle distinction (0=own anti)
# END of QNUMBERS blocks
#===========================================================
Block MASS      #  Mass spectrum (kinematic masses)
#       PDG       Mass
         4     1.40000000E+00   # charm    pole mass
         5     4.20000000E+00   # bottom   pole mass
         6     1.74300000E+02   # top      pole mass
        11     0.51109989E-03   # electron mass
        13     0.10565837E+00   # muon     mass
        15     1.77700000E+00   # tau      mass
        23     9.15445065E+01   # Z        mass
        24     8.02673592E+01   # W        mass
        25     1.20000000E+02   # H        mass
       611 0.05 # FMASS
       622 0.15 # APMASS
       623     1.71300000e+02   # HPMASS (tungsten)
#            PDG       Width
DECAY       611     0.00000000e+00   # ELWIDTH
DECAY 622 0.0045549532875 # APWIDTH
DECAY       623     0.00000000e+00   # HPWIDTH
DECAY         6     1.51013490E+00   # top width
DECAY        23     2.44639985E+00   # Z   width
DECAY        24     2.03535570E+00   # W   width
DECAY        25     6.79485838E-03   # H   width
#        BR           NDA        ID1       ID2
     7.00588389E-02    2           4        -4   # BR( H -> c  cbar  )
     7.61074375E-01    2           5        -5   # BR( H -> b  bbar  )
     0.00000000E+00    2           6        -6   # BR( H -> t  tbar  )
     3.65529942E-02    2          15       -15   # BR( H -> tau- tau+)
     5.84716539E-03    2          23        23   # BR( H -> Z   Z^(*))
     6.31545979E-02    2          24       -24   # BR( H -> W   W^(*))
     2.55499652E-02    2          21        21   # BR( H -> g   g    )
     1.20906932E-03    2          22        22   # BR( H -> A   A    )
BLOCK MGUSER
         1     1.00000000e-00   # epsilon ,mixing coefficient
         2     74.0000000e+00   # Znuc    ,nuclear charge
</slha>
<MGRunCard>
#*********************************************************************
#                       MadGraph/MadEvent                            *
#                  http://madgraph.hep.uiuc.edu                      *
#                                                                    *
#                        run_card.dat                                *
#                                                                    *
#  This file is used to set the parameters of the run.               *
#                                                                    *
#  Some notation/conventions:                                        *
#                                                                    *
#   Lines starting with a '# ' are info or comments                  *
#                                                                    *
#   mind the format:   value    = variable     ! comment             *
#*********************************************************************
#
#*******************                                                 
# Running parameters
#*******************                                                 
#                                                                    
#*********************************************************************
# Tag name for the run (one word)                                    *
#*********************************************************************
  'HPS'     = run_tag ! name of the run 
#*********************************************************************
# Run to generate the grid pack                                      *
#*********************************************************************
  .false.     = gridpack  !True = setting up the grid pack
#*********************************************************************
# Number of events and rnd seed                                      *
#*********************************************************************
   1000      = nevents ! Number of unweighted events requested 
188712 = iseed ! rnd seed (0=assigned automatically=default))
#*********************************************************************
# Collider type and energy                                           *
#*********************************************************************
        0     = lpp1  ! beam 1 type (0=NO PDF)
        0     = lpp2  ! beam 2 type (0=NO PDF)
4 = ebeam1  ! beam 1 energy in GeV
    171.3    = ebeam2  ! beam 2 energy in GeV
    0.000511  = mbeam1  ! beam 1 energy in GeV
    171.3    = mbeam2  ! beam 2 energy in GeV
#*********************************************************************
# Beam polarization from -100 (left-handed) to 100 (right-handed)    *
#*********************************************************************
        0     = polbeam1 ! beam polarization for beam 1
        0     = polbeam2 ! beam polarization for beam 2
#*********************************************************************
# PDF CHOICE: this automatically fixes also alpha_s and its evol.    *
#*********************************************************************
 'cteq6l1'    = pdlabel     ! PDF set                                     
#*********************************************************************
# Renormalization and factorization scales                           *
#*********************************************************************
 F        = fixed_ren_scale  ! if .true. use fixed ren scale
 F        = fixed_fac_scale  ! if .true. use fixed fac scale
 91.1880  = scale            ! fixed ren scale
 91.1880  = dsqrt_q2fact1    ! fixed fact scale for pdf1
 91.1880  = dsqrt_q2fact2    ! fixed fact scale for pdf2
 1        = scalefact        ! scale factor for event-by-event scales
 F        = fixed_couplings  ! if .false. calc. coupl. for every event
#*********************************************************************
# Matching - Warning! ickkw > 0 is still beta
#*********************************************************************
 0        = ickkw            ! 0 no matching, 1 MLM, 2 CKKW matching
#*********************************************************************
#                                                                    
#**********************************
32.9311829414 = bwcutoff*Gamma)
#**********************************
32.9311829414 = bwcutoff
#*******************                                                 
# Fixed-Target Cuts
#*******************                                                 
#
 0.0 = ef        ! minimum E for all f's
 100.0 = efmax     ! maximum E for all f's
 0.0 = thetafmin ! min angle for both f's
 100.0 = thetafmax ! max angle for both f's
 0.0 = thetaxfmin ! min angle (x direction) for both f's
 100.0 = thetaxfmax ! max angle (x direction) for both f's 
 0.0 = thetayfmin ! min angle (y direction) for both f's
 100.0 = thetayfmax ! max angle (y direction) for both f's 
 0.0 = xthetaxfmin ! min angle (x direction) for >=1 f's
 100.0 = xthetaxfmax ! max angle (x direction) for >=1 f's 
 0.0 = xthetayfmin ! min angle (y direction) for >=1 f's
 100.0 = xthetayfmax ! max angle (y direction) for >=1 f's 
 0.0 = mmff      ! min invariant mass of f+f- lepton pair
 100.0 = mmffmax  ! max invariant mass of f+f- lepton pair
 0.0 = xef       ! min. energy for at least one f
 0.0 = xthetaf   ! minimum angle for at least one f
 0.0 = eftot     ! minimum energy for the two f's
 0d0 = efrat     ! min. ratio Emin/Emax for the two f's
 0.0  = el     !!! 0.2 = el  !!! was 0.05 with normal cuts! minimum E for the charged leptons 
 0.0  = drll  !!! was 0.1  ! min distance between leptons 
 0.0  = mmll    ! min invariant mass of l+l- (same flavour) lepton pair
#
#*******************                                                 
# Standard Cuts
#*******************                                                 
#                                                                    
#*********************************************************************
# Minimum and maximum pt's                                           *
#*********************************************************************
  0  = ptj       ! minimum pt for the jets 
  0  = ptb       ! minimum pt for the b 
  0  = pta       ! minimum pt for the photons 
  0  = ptl       ! minimum pt for the charged leptons 
  0  = misset    ! minimum missing Et (sum of neutrino's momenta)
  0  = ptheavy   ! minimum pt for one heavy final state
 1.0 = ptonium   ! minimum pt for the quarkonium states
 1d5 = ptjmax    ! maximum pt for the jets
 1d5 = ptbmax    ! maximum pt for the b
 1d5 = ptamax    ! maximum pt for the photons
 1d9 = ptlmax    ! maximum pt for the charged leptons
 1d9 = missetmax ! maximum missing Et (sum of neutrino's momenta)
#*********************************************************************
# Minimum and maximum E's (in the lab frame)                         *
#*********************************************************************
  0  = ej     ! minimum E for the jets 
  0  = eb     ! minimum E for the b 
  0  = ea     ! minimum E for the photons 
 1d5  = ejmax ! maximum E for the jets
 1d5  = ebmax ! maximum E for the b
 1d5  = eamax ! maximum E for the photons
 1.2  = elmax ! maximum E for the charged leptons
#*********************************************************************
# Maximum and minimum rapidity                                       *
#*********************************************************************
 1d5  = etaj    ! max rap for the jets 
 1d5  = etab    ! max rap for the b 
 1d5  = etaa    ! max rap for the photons 
 1d5  = etal     !!! 1(2) wth cuts ! max rap for the charged leptons 
 1d5  = etafl     !!! 0(1) wth cuts ! max rap for the charged leptons 
 0.0  = etaonium ! max rap for the quarkonium states
 0d0  = etajmin ! min rap for the jets
 0d0  = etabmin ! min rap for the b
 0d0  = etaamin ! min rap for the photons
 0d0  = etalmin ! main rap for the charged lepton
#*********************************************************************
# Minimum and maximum DeltaR distance                                *
#*********************************************************************
 0   = drjj    ! min distance between jets 
 0   = drbb    ! min distance between b's 
 0   = draa    ! min distance between gammas 
 0   = drbj    ! min distance between b and jet 
 0   = draj    ! min distance between gamma and jet 
 0   = drjl    ! min distance between jet and lepton 
 0   = drab    ! min distance between gamma and b 
 0   = drbl    ! min distance between b and lepton 
 0   = dral    ! min distance between gamma and lepton 
 1d2 = drjjmax ! max distance between jets
 1d2 = drbbmax ! max distance between b's
 1d9 = drllmax ! max distance between leptons
 1d2 = draamax ! max distance between gammas
 1d2 = drbjmax ! max distance between b and jet
 1d2 = drajmax ! max distance between gamma and jet
 1d2 = drjlmax ! max distance between jet and lepton
 1d2 = drabmax ! max distance between gamma and b
 1d2 = drblmax ! max distance between b and lepton
 1d2 = dralmax ! maxdistance between gamma and lepton
#*********************************************************************
# Minimum and maximum invariant mass for pairs                       *
#*********************************************************************
 0   = mmjj    ! min invariant mass of a jet pair 
 0   = mmbb    ! min invariant mass of a b pair 
 0   = mmaa    ! min invariant mass of gamma gamma pair
 1d5 = mmjjmax ! max invariant mass of a jet pair
 1d5 = mmbbmax ! max invariant mass of a b pair
 1d5 = mmaamax ! max invariant mass of gamma gamma pair
 1d5 = mmllmax ! max invariant mass of l+l- (same flavour) lepton pair
#*********************************************************************
# Minimum and maximum invariant mass for all letpons                 *
#*********************************************************************
 0   = mmnl    ! min invariant mass for all letpons (l+- and vl) 
 1d9 = mmnlmax ! max invariant mass for all letpons (l+- and vl) 
#*********************************************************************
# Inclusive cuts                                                     *
#*********************************************************************
 0  = xptj ! minimum pt for at least one jet  
 0  = xptb ! minimum pt for at least one b 
 0  = xpta ! minimum pt for at least one photon 
 0  = xptl ! minimum pt for at least one charged lepton 
#*********************************************************************
# Control the pt's of the jets sorted by pt                          *
#*********************************************************************
 0   = ptj1min ! minimum pt for the leading jet in pt
 0   = ptj2min ! minimum pt for the second jet in pt
 0   = ptj3min ! minimum pt for the third jet in pt
 0   = ptj4min ! minimum pt for the fourth jet in pt
 1d5 = ptj1max ! maximum pt for the leading jet in pt 
 1d5 = ptj2max ! maximum pt for the second jet in pt
 1d5 = ptj3max ! maximum pt for the third jet in pt
 1d5 = ptj4max ! maximum pt for the fourth jet in pt
 0   = cutuse  ! reject event if fails any (0) / all (1) jet pt cuts
#*********************************************************************
# Control the Ht(k)=Sum of k leading jets                            *
#*********************************************************************
 0   = htjmin ! minimum jet HT=Sum(jet pt)
 1d5 = htjmax ! maximum jet HT=Sum(jet pt)
 0   = ht2min ! minimum Ht for the two leading jets
 0   = ht3min ! minimum Ht for the three leading jets
 0   = ht4min ! minimum Ht for the four leading jets
 1d5 = ht2max ! maximum Ht for the two leading jets
 1d5 = ht3max ! maximum Ht for the three leading jets
 1d5 = ht4max ! maximum Ht for the four leading jets
#*********************************************************************
# WBF cuts                                                           *
#*********************************************************************
 0   = xetamin ! minimum rapidity for two jets in the WBF case  
 0   = deltaeta ! minimum rapidity for two jets in the WBF case 
#*********************************************************************
# maximal pdg code for quark to be considered as a jet               *
# otherwise b cuts are applied                                       *
#*********************************************************************
 4 = maxjetflavor
#*********************************************************************
# Jet measure cuts                                                   *
#*********************************************************************
 0   = xqcut   ! minimum kt jet measure between partons
#*********************************************************************
</MGRunCard>
<MGGenerationInfo>
#  Number of Events        :        1000
#  Integrated weight (pb)  :  .67805E+09
#  Truncated wgt (pb)      :  .14759E+07
#  Unit wgt                :  .67805E+06
</MGGenerationInfo>
</header>
<init>
       11     -623  0.40000000000E+01  0.17130000000E+03 0 0     0     0 3  1
  0.67805484610E+09  0.14121100924E+08  0.67805000000E+06   0
</init>
<event>
 5   0  0.6780500E+06  0.9118800E+02  0.7818608E-02  0.1180000E+00
       11   -1    0    0    0    0  0.00000000000E+00  0.00000000000E+00  0.39999999673E+01  0.40000000000E+01  0.51109989000E-03 0. -1.
     -623   -1    0    0    0    0  0.00000000000E+00  0.00000000000E+00  0.12525980253E-10  0.17130000000E+03  0.17130000000E+03 0. -1.
       11    1    1    2    0    0  0.24527114165E-01  0.44636450957E-01  0.55972899174E+00  0.56204163325E+00  0.51109989000E-03 0. -1.
     -623    1    1    2    0    0  0.36215129170E-02 -0.57769061879E-02  0.59218836828E-02  0.17130000024E+03  0.17130000000E+03 0. -1.
      622    1    1    2    0    0 -0.28148627082E-01 -0.38859544769E-01  0.34343490920E+01  0.34379581288E+01  0.15000000000E+00 0.  0.
</event>
<event>
 5   0  0.6780500E+06  0.9118800E+02  0.7818608E-02  0.1180000E+00
       11   -1    0    0    0    0  0.00000000000E+00  0.00000000000E+00  0.39999999673E+01  0.40000000000E+01  0.51109989000E-03 0.  1.
     -623   -1    0    0    0    0  0.00000000000E+00  0.00000000000E+00  0.12525980253E-10  0.17130000000E+03  0.17130000000E+03 0. -1.
       11    1    1    2    0    0  0.61114099573E-02 -0.14273699689E-02  0.53400784468E-01  0.53770732946E-01  0.51109989000E-03 0.  1.
     -623    1    1    2    0    0 -0.86927626495E-02  0.76899727777E-03  0.32229216615E-02  0.17130000025E+03  0.17130000000E+03 0. -1.
      622    1    1    2    0    0  0.25813526924E-02  0.65837269110E-03  0.39433762613E+01  0.39462290145E+01  0.15000000000E+00 0.  1.
</event>
<event>
 5   0  0.6780500E+06  0.9118800E+02  0.7818608E-02  0.1180000E+00
       11   -1    0    0    0    0  0.00000000000E+00  0.00000000000E+00  0.39999999673E+01  0.40000000000E+01  0.51109989000E-03 0. -1.
     -623   -1    0    0    0    0  0.00000000000E+00  0.00000000000E+00  0.12525980253E-10  0.17130000000E+03  0.17130000000E+03 0. -1.
       11    1    1    2    0    0  0.45732341872E-02 -0.80090939477E-02  0.65515826113E-01  0.66163772196E-01  0.51109989000E-03 0. -1.
     -623    1    1    2    0    0 -0.14686407459E-03  0.86359640983E-02  0.35115535661E-02  0.17130000025E+03  0.17130000000E+03 0. -1.
      622    1    1    2    0    0 -0.44263701126E-02 -0.62687015044E-03  0.39309725876E+01  0.39338359740E+01  0.15000000000E+00 0. -1.
</event>
<event>
 5   0  0.6780500E+06  0.9118800E+02  0.7818608E-02  0.1180000E+00
       11   -1    0    0    0    0  0.00000000000E+00  0.00000000000E+00  0.39999999673E+01  0.40000000000E+01  0.51109989000E-03 0.  1.
     -623   -1    0    0    0    0  0.00000000000E+00  0.00000000000E+00  0.12525980253E-10  0.17130000000E+03  0.17130000000E+03 0.  1.
       11    1    1    2    0    0  0.57666324785E-01  0.72481312813E-02  0.41265309267E+00  0.41672626091E+00  0.51109989000E-03 0.  1.
     -623    1    1    2    0    0  0.12500728142E-01 -0.14859570674E-01  0.79111449945E-02  0.17130000128E+03  0.17130000000E+03 0.  1.
      622    1    1    2    0    0 -0.70167052926E-01  0.76114393931E-02  0.35794357297E+01  0.35832724558E+01  0.15000000000E+00 0.  1.
</event>
<event>
 5   0  0.6780500E+06  0.9118800E+02  0.7818608E-02  0.1180000E+00
       11   -1    0    0    0    0  0.00000000000E+00  0.00000000000E+00  0.39999999673E+01  0.40000000000E+01  0.51109989000E-03 0.  1.
     -623   -1    0    0    0    0  0.00000000000E+00  0.00000000000E+00  0.12525980253E-10  0.17130000000E+03  0.17130000000E+03 0. -1.
       11    1    1    2    0    0  0.16666496937E-01  0.17431526086E-02 -0.65885500651E-02  0.18013353831E-01  0.51109989000E-03 0.  1.
     -623    1    1    2    0    0  0.68390185730E-03  0.11227183761E-01  0.27489639913E-01  0.17130000258E+03  0.17130000000E+03 0. -1.
      622    1    1    2    0    0 -0.17350398795E-01 -0.12970336370E-01  0.39790988775E+01  0.39819840712E+01  0.15000000000E+00 0.  1.
</event>
<event>
 5   0  0.6780500E+06  0.9118800E+02  0.7818608E-02  0.1180000E+00
       11   -1    0    0    0    0  0.00000000000E+00  0.00000000000E+00  0.39999999673E+01  0.40000000000E+01  0.51109989000E-03 0.  1.
     -623   -1    0    0    0    0  0.00000000000E+00  0.00000000000E+00  0.12525980253E-10  0.17130000000E+03  0.17130000000E+03 0. -1.
       11    1    1    2    0    0 -0.31724581109E-02  0.64572385886E-02  0.84715689447E-02  0.11126056024E-01  0.51109989000E-03 0.  1.
     -623    1    1    2    0    0 -0.25317301101E-02 -0.10596550768E-01  0.54824622283E-02  0.17130000043E+03  0.17130000000E+03 0. -1.
      622    1    1    2    0    0  0.57041882210E-02  0.41393121794E-02  0.39860459362E+01  0.39888735098E+01  0.15000000000E+00 0.  1.
</event>
<event>
 5   0  0.6780500E+06  0.9118800E+02  0.7818608E-02  0.1180000E+00
       11   -1    0    0    0    0  0.00000000000E+00  0.00000000000E+00  0.39999999673E+01  0.40000000000E+01  0.51109989000E-03 0. -1.
     -623   -1    0    0    0    0  0.00000000000E+00  0.00000000000E+00  0.12525980253E-10  0.17130000000E+03  0.17130000000E+03 0.  1.
       11    1    1    2    0    0 -0.55502120849E-03 -0.76633209765E-02  0.11573205961E-01  0.13900894080E-01  0.51109989000E-03 0. -1.
     -623    1    1    2    0    0 -0.75990287941E-02  0.62355693104E-02  0.51599253510E-02  0.17130000036E+03  0.17130000000E+03 0.  1.
      622    1    1    2    0    0  0.81540500027E-02  0.14277516660E-02  0.39832668361E+01  0.39860987462E+01  0.15000000000E+00 0. -1.
</event>
<event>
 5   0  0.6780500E+06  0.9118800E+02  0.7818608E-02  0.1180000E+00
       11   -1    0    0    0    0  0.00000000000E+00  0.00000000000E+00  0.39999999673E+01  0.40000000000E+01  0.51109989000E-03 0. -1.
     -623   -1    0    0    0    0  0.00000000000E+00  0.00000000000E+00  0.12525980253E-10  0.17130000000E+03  0.17130000000E+03 0.  1.
       11    1    1    2    0    0 -0.59973237519E-02 -0.49960692425E-02  0.14961883177E+00  0.14982317793E+00  0.51109989000E-03 0. -1.
     -623    1    1    2    0    0 -0.23787473354E-02  0.71060144272E-03  0.31389184342E-02  0.17130000005E+03  0.17130000000E+03 0.  1.
      622    1    1    2    0    0  0.83760710874E-02  0.42854677998E-02  0.38472422173E+01  0.38501767755E+01  0.15000000000E+00 0. -1.
</event>
<event>
 5   0  0.6780500E+06  0.9118800E+02  0.7818608E-02  0.1180000E+00
       11   -1    0    0    0    0  0.00000000000E+00  0.00000000000E+00  0.39999999673E+01  0.40000000000E+01  0.51109989000E-03 0.  1.
     -623   -1    0    0    0    0  0.00000000000E+00  0.00000000000E+00  0.12525980253E-10  0.17130000000E+03  0.17130000000E+03 0. -1.
       11    1    1    2    0    0  0.31997299395E-02  0.11380444815E-01  0.12684785028E+00  0.12739855235E+00  0.51109989000E-03 0.  1.
     -623    1    1    2    0    0 -0.25296089727E-01 -0.12358229400E-01  0.35223456543E-02  0.17130000235E+03  0.17130000000E+03 0. -1.
      622    1    1    2    0    0  0.22096359788E-01  0.97778458503E-03  0.38696297715E+01  0.38725990979E+01  0.15000000000E+00 0.  1.
</event>
<event>
 5   0  0.6780500E+06  0.9118800E+02  0.7818608E-02  0.1180000E+00
       11   -1    0    0    0    0  0.00000000000E+00  0.00000000000E+00  0.39999999673E+01  0.40000000000E+01  0.51109989000E-03 0. -1.
     -623   -1    0    0    0    0  0.00000000000E+00  0.00000000000E+00  0.12525980253E-10  0.17130000000E+03  0.17130000000E+03 0.  1.
       11    1    1    2    0    0  0.95105186904E-02  0.68654473289E-01  0.53515861062E+00  0.53962847072E+00  0.51109989000E-03 0. -1.
     -623    1    1    2    0    0  0.26212608700E-01 -0.67400878017E-01  0.79227157256E-02  0.17130001545E+03  0.17130000000E+03 0.  1.
      622    1    1    2    0    0 -0.35723127391E-01 -0.12535952715E-02  0.34569186411E+01  0.34603560805E+01  0.15000000000E+00 0. -1.
</event>
<event>
 5   0  0.6780500E+06  0.9118800E+02  0.7818608E-02  0.1180000E+00
       11   -1    0    0    0    0  0.00000000000E+00  0.00000000000E+00  0.39999999673E+01  0.40000000000E+01  0.51109989000E-03 0.  1.
     -623   -1    0    0    0    0  0.00000000000E+00  0.00000000000E+00  0.12525980253E-10  0.17130000000E+03  0.17130000000E+03 0.  1.
       11    1    1    2    0    0 -0.28860564988E-01  0.16392521360E-01  0.42177578637E+00  0.42308004226E+00  0.51109989000E-03 0.  1.
     -623    1    1    2    0    0  0.36766605264E-02  0.43693024064E-02  0.45999731327E-02  0.17130000016E+03  0.17130000000E+03 0.  1.
      622    1    1    2    0    0  0.25183904461E-01 -0.20761823767E-01  0.35736242079E+01  0.35769198008E+01  0.15000000000E+00 0.  1.
</event>
<event>
 5   0  0.6780500E+06  0.9118800E+02  0.7818608E-02  0.1180000E+00
       11   -1    0    0    0    0  0.00000000000E+00  0.00000000000E+00  0.39999999673E+01  0.40000000000E+01  0.51109989000E-03 0. -1.
     -623   -1    0    0    0    0  0.00000000000E+00  0.00000000000E+00  0.12525980253E-10  0.17130000000E+03  0.17130000000E+03 0.  1.
       11    1    1    2    0    0  0.19048092677E-04 -0.50660913246E-02  0.30806770468E-02  0.59512551872E-02  0.51109989000E-03 0. -1.
     -623    1    1    2    0    0  0.86719909713E-02 -0.13489708600E-01  0.57416747367E-02  0.17130000085E+03  0.17130000000E+03 0.  1.
      622    1    1    2    0    0 -0.86910390640E-02  0.18555799925E-01  0.39911776156E+01  0.39940478979E+01  0.15000000000E+00 0. -1.
</event>
<event>
 5   0  0.6780500E+06  0.9118800E+02  0.7818608E-02  0.1180000E+00
       11   -1    0    0    0    0  0.00000000000E+00  0.00000000000E+00  0.39999999673E+01  0.40000000000E+01  0.51109989000E-03 0. -1.
     -623   -1    0    0    0    0  0.00000000000E+00  0.00000000000E+00  0.12525980253E-10  0.17130000000E+03  0.17130000000E+03 0.  1.
       11    1    1    2    0    0  0.16024270333E-01 -0.11919622957E-01  0.57036081344E+00  0.57071058636E+00  0.51109989000E-03 0. -1.
     -623    1    1    2    0    0  0.14272760710E-01 -0.58681884436E-02  0.38127561506E-02  0.17130000074E+03  0.17130000000E+03 0.  1.
      622    1    1    2    0    0 -0.30297031043E-01  0.17787811400E-01  0.34258263978E+01  0.34292886761E+01  0.15000000000E+00 0. -1.
</event>
<event>
 5   0  0.6780500E+06  0.9118800E+02  0.7818608E-02  0.1180000E+00
       11   -1    0    0    0    0  0.00000000000E+00  0.00000000000E+00  0.39999999673E+01  0.40000000000E+01  0.51109989000E-03 0.  1.
     -623   -1    0    0    0    0  0.00000000000E+00  0.00000000000E+00  0.12525980253E-10  0.17130000000E+03  0.17130000000E+03 0. -1.
       11    1    1    2    0    0 -0.27107626314E-01 -0.43946025709E-03  0.10164716658E+01  0.10168332829E+01  0.51109989000E-03 0.  1.
     -623    1    1    2    0    0 -0.22571176012E-01  0.35802300396E-02  0.45525785762E-02  0.17130000158E+03  0.17130000000E+03 0. -1.
      622    1    1    2    0    0  0.49678802327E-01 -0.31407697826E-02  0.29789757230E+01  0.29831651322E+01  0.15000000000E+00 0.  0.
</event>
<event>
 5   0  0.6780500E+06  0.9118800E+02  0.7818608E-02  0.1180000E+00
       11   -1    0    0    0    0  0.00000000000E+00  0.00000000000E+00  0.39999999673E+01  0.40000000000E+01  0.51109989000E-03 0. -1.
     -623   -1    0    0    0    0  0.00000000000E+00  0.00000000000E+00  0.12525980253E-10  0.17130000000E+03  0.17130000000E+03 0. -1.
       11    1    1    2    0    0  0.15808752526E-01  0.86865797140E-02  0.78734632939E+00  0.78755309469E+00  0.51109989000E-03 0. -1.
     -623    1    1    2    0    0 -0.76402432910E-02 -0.23559708839E-03  0.37323832763E-02  0.17130000021E+03  0.17130000000E+03 0. -1.
      622    1    1    2    0    0 -0.81685092346E-02 -0.84509826256E-02  0.32089212547E+01  0.32124466941E+01  0.15000000000E+00 0. -1.
</event>
<event>
 5   0  0.6780500E+06  0.9118800E+02  0.7818608E-02  0.1180000E+00
       11   -1    0    0    0    0  0.00000000000E+00  0.00000000000E+00  0.39999999673E+01  0.40000000000E+01  0.51109989000E-03 0. -1.
     -623   -1    0    0    0    0  0.00000000000E+00  0.00000000000E+00  0.12525980253E-10  0.17130000000E+03  0.17130000000E+03 0.  1.
       11    1    1    2    0    0  0.33393861968E-02 -0.37017330421E-01  0.81050904258E+00  0.81136095763E+00  0.51109989000E-03 0. -1.
     -623    1    1    2    0    0  0.16352177517E-01  0.15818004667E-01  0.45149815279E-02  0.17130000157E+03  0.17130000000E+03 0.  1.
      622    1    1    2    0    0 -0.19691563714E-01  0.21199325754E-01  0.31849759433E+01  0.31886374721E+01  0.15000000000E+00 0. -1.
</event>
<event>
 5   0  0.6780500E+06  0.9118800E+02  0.7818608E-02  0.1180000E+00
       11   -1    0    0    0    0  0.00000000000E+00  0.00000000000E+00  0.39999999673E+01  0.40000000000E+01  0.51109989000E-03 0. -1.
     -623   -1    0    0    0    0  0.00000000000E+00  0.00000000000E+00  0.12525980253E-10  0.17130000000E+03  0.17130000000E+03 0. -1.
       11    1    1    2    0    0  0.59837695549E-03  0.15544238834E-02  0.11698373505E-01  0.11827402688E-01  0.51109989000E-03 0. -1.
     -623    1    1    2    0    0 -0.11611781852E-02 -0.23280641568E-02  0.29509956816E-02  0.17130000005E+03  0.17130000000E+03 0. -1.
      622    1    1    2    0    0  0.56280122969E-03  0.77364027331E-03  0.39853505981E+01  0.39881725521E+01  0.15000000000E+00 0. -1.
</event>
<event>
 5   0  0.6780500E+06  0.9118800E+02  0.7818608E-02  0.1180000E+00
       11   -1    0    0    0    0  0.00000000000E+00  0.00000000000E+00  0.39999999673E+01  0.40000000000E+01  0.51109989000E-03 0.  1.
     -623   -1    0    0    0    0  0.00000000000E+00  0.00000000000E+00  0.12525980253E-10  0.17130000000E+03  0.17130000000E+03 0.  1.
       11    1    1    2    0    0 -0.40178771448E-02  0.43684390594E-03  0.56109845231E-02  0.69338688892E-02  0.51109989000E-03 0.  1.
     -623    1    1    2    0    0 -0.22830464166E-03  0.35221718097E-02  0.41455400676E-02  0.17130000009E+03  0.17130000000E+03 0.  1.
      622    1    1    2    0    0  0.42461817865E-02 -0.39590157157E-02  0.39902434428E+01  0.39930660446E+01  0.15000000000E+00 0.  1.
</event>
<event>
 5   0  0.6780500E+06  0.9118800E+02  0.7818608E-02  0.1180000E+00
       11   -1    0    0    0    0  0.00000000000E+00  0.00000000000E+00  0.39999999673E+01  0.40000000000E+01  0.51109989000E-03 0. -1.
     -623   -1    0    0    0    0  0.00000000000E+00  0.00000000000E+00  0.12525980253E-10  0.17130000000E+03  0.17130000000E+03 0. -1.
       11    1    1    2    0    0  0.12055385983E-01  0.36980267255E-02  0.91077463768E-01  0.91947666432E-01  0.51109989000E-03 0. -1.
     -623    1    1    2    0    0 -0.40242983287E-02 -0.95034457526E-02  0.37628285360E-02  0.17130000035E+03  0.17130000000E+03 0. -1.
      622    1    1    2    0    0 -0.80310876542E-02  0.58054190269E-02  0.39051596749E+01  0.39080519812E+01  0.15000000000E+00 0. -1.
</event>
<event>
 5   0  0.6780500E+06  0.9118800E+02  0.7818608E-02  0.1180000E+00
       11   -1    0    0    0    0  0.00000000000E+00  0.00000000000E+00  0.39999999673E+01  0.40000000000E+01  0.51109989000E-03 0.  1.
     -623   -1    0    0    0    0  0.00000000000E+00  0.00000000000E+00  0.12525980253E-10  0.17130000000E+03  0.17130000000E+03 0.  1.
       11    1    1    2    0    0 -0.49487983270E-01  0.11830618161E-01  0.28996782778E+00  0.29439875405E+00  0.51109989000E-03 0.  1.
     -623    1    1    2    0    0 -0.95561974265E-02 -0.36136983263E-02  0.79485051524E-02  0.17130000049E+03  0.17130000000E+03 0.  1.
      622    1    1    2    0    0  0.59044180696E-01 -0.82169198346E-02  0.37020836344E+01  0.37056007568E+01  0.15000000000E+00 0.  1.
</event>
<event>
 5   0  0.6780500E+06  0.9118800E+02  0.7818608E-02  0.1180000E+00
       11   -1    0    0    0    0  0.00000000000E+00  0.00000000000E+00  0.39999999673E+01  0.40000000000E+01  0.51109989000E-03 0.  1.
     -623   -1    0    0    0    0  0.00000000000E+00  0.00000000000E+00  0.12525980253E-10  0.17130000000E+03  0.17130000000E+03 0. -1.
       11    1    1    2    0    0  0.83000576935E-02 -0.21297012823E-01  0.69229747349E+00  0.69267489252E+00  0.51109989000E-03 0.  1.
     -623    1    1    2    0    0  0.30462046850E-01  0.40837937308E-02  0.40557186475E-02  0.17130000281E+03  0.17130000000E+03 0. -1.
      622    1    1    2    0    0 -0.38762104544E-01  0.17213219092E-01  0.33036467753E+01  0.33073223024E+01  0.15000000000E+00 0.  1.
</event>
<event>
 5   0  0.6780500E+06  0.9118800E+02  0.7818608E-02  0.1180000E+00
       11   -1    0    0    0    0  0.00000000000E+00  0.00000000000E+00  0.39999999673E+01  0.40000000000E+01  0.51109989000E-03 0. -1.
     -623   -1    0    0    0    0  0.00000000000E+00  0.00000000000E+00  0.12525980253E-10  0.17130000000E+03  0.17130000000E+03 0. -1.
       11    1    1    2    0    0 -0.39161825372E-02  0.28828765530E-02  0.17997177519E-01  0.18649586715E-01  0.51109989000E-03 0. -1.
     -623    1    1    2    0    0  0.13864888919E-02 -0.19238002847E-03  0.34808094937E-02  0.17130000004E+03  0.17130000000E+03 0. -1.
      622    1    1    2    0    0  0.25296936453E-02 -0.26904965245E-02  0.39785219804E+01  0.39813503723E+01  0.15000000000E+00 0. -1.
</event>
<event>
 5   0  0.6780500E+06  0.9118800E+02  0.7818608E-02  0.1180000E+00
       11   -1    0    0    0    0  0.00000000000E+00  0.00000000000E+00  0.39999999673E+01  0.40000000000E+01  0.51109989000E-03 0. -1.
     -623   -1    0    0    0    0  0.00000000000E+00  0.00000000000E+00  0.12525980253E-10  0.17130000000E+03  0.17130000000E+03 0. -1.
       11    1    1    2    0    0 -0.31433859915E-01  0.98537645217E-02  0.42877466400E+00  0.43003855401E+00  0.51109989000E-03 0. -1.
     -623    1    1    2    0    0  0.49821968532E-01  0.13887935941E-01  0.45508364085E-02  0.17130000787E+03  0.17130000000E+03 0. -1.
      622    1    1    2    0    0 -0.18388108617E-01 -0.23741700462E-01  0.35666744669E+01  0.35699535773E+01  0.15000000000E+00 0. -1.
</event>
<event>
 5   0  0.6780500E+06  0.9118800E+02  0.7818608E-02  0.1180000E+00
       11   -1    0    0    0    0  0.00000000000E+00  0.00000000000E+00  0.39999999673E+01  0.40000000000E+01  0.51109989000E-03 0. -1.
     -623   -1    0    0    0    0  0.00000000000E+00  0.00000000000E+00  0.12525980253E-10  0.17130000000E+03  0.17130000000E+03 0. -1.
       11    1    1    2    0    0  0.33740762417E-02  0.57933939750E-01  0.69493343034E+00  0.69735246439E+00  0.51109989000E-03 0. -1.
     -623    1    1    2    0    0  0.15314138623E-01 -0.23827509087E-02  0.63485811465E-02  0.17130000082E+03  0.17130000000E+03 0. -1.
      622    1    1    2    0    0 -0.18688214865E-01 -0.55551188842E-01  0.32987179560E+01  0.33026467169E+01  0.15000000000E+00 0. -1.
</event>
<event>
 5   0  0.6780500E+06  0.9118800E+02  0.7818608E-02  0.1180000E+00
       11   -1    0    0    0    0  0.00000000000E+00  0.00000000000E+00  0.39999999673E+01  0.40000000000E+01  0.51109989000E-03 0.  1.
     -623   -1    0    0    0    0  0.00000000000E+00  0.00000000000E+00  0.12525980253E-10  0.17130000000E+03  0.17130000000E+03 0.  1.
       11    1    1    2    0    0 -0.56295677778E-02  0.79068188302E-02  0.77565375091E-02  0.12435228772E-01  0.51109989000E-03 0.  1.
     -623    1    1    2    0    0  0.48373941240E-02 -0.45271656736E-02  0.75027327694E-02  0.17130000029E+03  0.17130000000E+03 0.  1.
      622    1    1    2    0    0  0.79217365385E-03 -0.33796531566E-02  0.39847406971E+01  0.39875644788E+01  0.15000000000E+00 0.  1.
</event>
<event>
 5   0  0.6780500E+06  0.9118800E+02  0.7818608E-02  0.1180000E+00
       11   -1    0    0    0    0  0.00000000000E+00  0.00000000000E+00  0.39999999673E+01  0.40000000000E+01  0.51109989000E-03 0.  1.
     -623   -1    0    0    0    0  0.00000000000E+00  0.00000000000E+00  0.12525980253E-10  0.17130000000E+03  0.17130000000E+03 0.  1.
       11    1    1    2    0    0  0.75759308698E-02 -0.88177485066E-02  0.30319104934E+00  0.30341427297E+00  0.51109989000E-03 0.  1.
     -623    1    1    2    0    0 -0.96773902568E-02  0.28533233092E-02  0.32735359103E-02  0.17130000033E+03  0.17130000000E+03 0.  1.
      622    1    1    2    0    0  0.21014593871E-02  0.59644251974E-02  0.36935353821E+01  0.36965853987E+01  0.15000000000E+00 0.  1.
</event>
<event>
 5   0  0.6780500E+06  0.9118800E+02  0.7818608E-02  0.1180000E+00
       11   -1    0    0    0    0  0.00000000000E+00  0.00000000000E+00  0.39999999673E+01  0.40000000000E+01  0.51109989000E-03 0. -1.
     -623   -1    0    0    0    0  0.00000000000E+00  0.00000000000E+00  0.12525980253E-10  0.17130000000E+03  0.17130000000E+03 0. -1.
       11    1    1    2    0    0  0.66982797267E-02  0.15112421854E-03  0.10506105660E-01  0.12471137412E-01  0.51109989000E-03 0. -1.
     -623    1    1    2    0    0 -0.30533976920E-01 -0.81754401745E-02  0.48696523995E-02  0.17130000299E+03  0.17130000000E+03 0. -1.
      622    1    1    2    0    0  0.23835697194E-01  0.80243159560E-02  0.39846242093E+01  0.39875258770E+01  0.15000000000E+00 0. -1.
</event>
<event>
 5   0  0.6780500E+06  0.9118800E+02  0.7818608E-02  0.1180000E+00
       11   -1    0    0    0    0  0.00000000000E+00  0.00000000000E+00  0.39999999673E+01  0.40000000000E+01  0.51109989000E-03 0.  1.
     -623   -1    0    0    0    0  0.00000000000E+00  0.00000000000E+00  0.12525980253E-10  0.17130000000E+03  0.17130000000E+03 0. -1.
       11    1    1    2    0    0 -0.28097615070E-02 -0.12340415319E-02  0.16215424819E-01  0.16511173289E-01  0.51109989000E-03 0.  1.
     -623    1    1    2    0    0  0.26605667521E-02 -0.73752964543E-02  0.31303962784E-02  0.17130000021E+03  0.17130000000E+03 0. -1.
      622    1    1    2    0    0  0.14919475478E-03  0.86093379865E-02  0.39806541464E+01  0.39834886188E+01  0.15000000000E+00 0.  1.
</event>
<event>
 5   0  0.6780500E+06  0.9118800E+02  0.7818608E-02  0.1180000E+00
       11   -1    0    0    0    0  0.00000000000E+00  0.00000000000E+00  0.39999999673E+01  0.40000000000E+01  0.51109989000E-03 0. -1.
     -623   -1    0    0    0    0  0.00000000000E+00  0.00000000000E+00  0.12525980253E-10  0.17130000000E+03  0.17130000000E+03 0.  1.
       11    1    1    2    0    0 -0.17184660762E-02  0.58583925674E-02  0.49297966079E-02  0.78637145689E-02  0.51109989000E-03 0. -1.
     -623    1    1    2    0    0  0.63849269552E-02 -0.25743408424E-02  0.57572369729E-02  0.17130000024E+03  0.17130000000E+03 0.  1.
      622    1    1    2    0    0 -0.46664608791E-02 -0.32840517249E-02  0.39893129338E+01  0.39921360504E+01  0.15000000000E+00 0. -1.
</event>
<event>
 5   0  0.6780500E+06  0.9118800E+02  0.7818608E-02  0.1180000E+00
       11   -1    0    0    0    0  0.00000000000E+00  0.00000000000E+00  0.39999999673E+01  0.40000000000E+01  0.51109989000E-03 0. -1.
     -623   -1    0    0    0    0  0.00000000000E+00  0.00000000000E+00  0.12525980253E-10  0.17130000000E+03  0.17130000000E+03 0. -1.
       11    1    1    2    0    0  0.18636966012E-01  0.42379905211E-01  0.16322007027E+00  0.16965979319E+00  0.51109989000E-03 0. -1.
     -623    1    1    2    0    0 -0.67186964384E-02  0.86068123499E-03  0.96411222326E-02  0.17130000041E+03  0.17130000000E+03 0. -1.
      622    1    1    2    0    0 -0.11918269573E-01 -0.43240586446E-01  0.38271387749E+01  0.38303398016E+01  0.15000000000E+00 0. -1.
</event>
<event>
 5   0  0.6780500E+06  0.9118800E+02  0.7818608E-02  0.1180000E+00
       11   -1    0    0    0    0  0.00000000000E+00  0.00000000000E+00  0.39999999673E+01  0.40000000000E+01  0.51109989000E-03 0.  1.
     -623   -1    0    0    0    0  0.00000000000E+00  0.00000000000E+00  0.12525980253E-10  0.17130000000E+03  0.17130000000E+03 0. -1.
       11    1    1    2    0    0  0.32542001513E-03 -0.51246778889E-02  0.15814855590E-01  0.16635477119E-01  0.51109989000E-03 0.  1.
     -623    1    1    2    0    0 -0.55552614040E-02  0.14519781811E-02  0.36511016724E-02  0.17130000014E+03  0.17130000000E+03 0. -1.
      622    1    1    2    0    0  0.52298413889E-02  0.36726997078E-02  0.39805340101E+01  0.39833643877E+01  0.15000000000E+00 0.  1.
</event>
<event>
 5   0  0.6780500E+06  0.9118800E+02  0.7818608E-02  0.1180000E+00
       11   -1    0    0    0    0  0.00000000000E+00  0.00000000000E+00  0.39999999673E+01  0.40000000000E+01  0.51109989000E-03 0.  1.
     -623   -1    0    0    0    0  0.00000000000E+00  0.00000000000E+00  0.12525980253E-10  0.17130000000E+03  0.17130000000E+03 0.  1.
       11    1    1    2    0    0  0.40320200739E-02 -0.33256800472E-03  0.12638604382E-02  0.42692331344E-02  0.51109989000E-03 0.  1.
     -623    1    1    2    0    0 -0.94409732454E-02  0.47768244155E-02  0.58284008307E-02  0.17130000043E+03  0.17130000000E+03 0.  1.
      622    1    1    2    0    0  0.54089531715E-02 -0.44442564108E-02  0.39929077061E+01  0.39957303409E+01  0.15000000000E+00 0.  1.
</event>
<event>
 5   0  0.6780500E+06  0.9118800E+02  0.7818608E-02  0.1180000E+00
       11   -1    0    0    0    0  0.00000000000E+00  0.00000000000E+00  0.39999999673E+01  0.40000000000E+01  0.51109989000E-03 0.  1.
     -623   -1    0    0    0    0  0.00000000000E+00  0.00000000000E+00  0.12525980253E-10  0.17130000000E+03  0.17130000000E+03 0. -1.
       11    1    1    2    0    0  0.22987759426E-01 -0.14584824128E-01  0.41901094840E-01  0.49971163186E-01  0.51109989000E-03 0.  1.
     -623    1    1    2    0    0 -0.16969802298E-01 -0.23324480091E-01  0.11108569810E-01  0.17130000279E+03  0.17130000000E+03 0. -1.
      622    1    1    2    0    0 -0.60179571282E-02  0.37909304220E-01  0.39469903027E+01  0.39500260482E+01  0.15000000000E+00 0.  1.
</event>
<event>
 5   0  0.6780500E+06  0.9118800E+02  0.7818608E-02  0.1180000E+00
       11   -1    0    0    0    0  0.00000000000E+00  0.00000000000E+00  0.39999999673E+01  0.40000000000E+01  0.51109989000E-03 0.  1.
     -623   -1    0    0    0    0  0.00000000000E+00  0.00000000000E+00  0.12525980253E-10  0.17130000000E+03  0.17130000000E+03 0. -1.
       11    1    1    2    0    0 -0.11452347916E-01 -0.12301281247E-01  0.14209938656E+00  0.14309079172E+00  0.51109989000E-03 0.  1.
     -623    1    1    2    0    0 -0.11223376451E-01  0.11145594638E-01  0.39769791207E-02  0.17130000078E+03  0.17130000000E+03 0. -1.
      622    1    1    2    0    0  0.22675724367E-01  0.11556866085E-02  0.38539236017E+01  0.38569084318E+01  0.15000000000E+00 0.  1.
</event>
<event>
 5   0  0.6780500E+06  0.9118800E+02  0.7818608E-02  0.1180000E+00
       11   -1    0    0    0    0  0.00000000000E+00  0.00000000000E+00  0.39999999673E+01  0.40000000000E+01  0.51109989000E-03 0. -1.
     -623   -1    0    0    0    0  0.00000000000E+00  0.00000000000E+00  0.12525980253E-10  0.17130000000E+03  0.17130000000E+03 0. -1.
       11    1    1    2    0    0  0.83109575589E-02 -0.21824249929E-02  0.56938916929E-01  0.57585905207E-01  0.51109989000E-03 0. -1.
     -623    1    1    2    0    0 -0.50329909015E-02 -0.75939846232E-02  0.35153435056E-02  0.17130000028E+03  0.17130000000E+03 0. -1.
      622    1    1    2    0    0 -0.32779666575E-02  0.97764096161E-02  0.39395457069E+01  0.39424138164E+01  0.15000000000E+00 0. -1.
</event>
<event>
 5   0  0.6780500E+06  0.9118800E+02  0.7818608E-02  0.1180000E+00
       11   -1    0    0    0    0  0.00000000000E+00  0.00000000000E+00  0.39999999673E+01  0.40000000000E+01  0.51109989000E-03 0. -1.
     -623   -1    0    0    0    0  0.00000000000E+00  0.00000000000E+00  0.12525980253E-10  0.17130000000E+03  0.17130000000E+03 0.  1.
       11    1    1    2    0    0  0.13002200040E-01  0.96158581167E-02  0.53598819615E-01  0.55987647013E-01  0.51109989000E-03 0. -1.
     -623    1    1    2    0    0 -0.20829169715E-01 -0.80017715116E-02  0.52518895368E-02  0.17130000153E+03  0.17130000000E+03 0.  1.
      622    1    1    2    0    0  0.78269696743E-02 -0.16140866051E-02  0.39411492582E+01  0.39440108192E+01  0.15000000000E+00 0. -1.
</event>
<event>
 5   0  0.6780500E+06  0.9118800E+02  0.7818608E-02  0.1180000E+00
       11   -1    0    0    0    0  0.00000000000E+00  0.00000000000E+00  0.39999999673E+01  0.40000000000E+01  0.51109989000E-03 0. -1.
     -623   -1    0    0    0    0  0.00000000000E+00  0.00000000000E+00  0.12525980253E-10  0.17130000000E+03  0.17130000000E+03 0.  1.
       11    1    1    2    0    0 -0.62568428031E-01  0.66322323844E-01  0.57588969920E+00  0.58306317470E+00  0.51109989000E-03 0. -1.
     -623    1    1    2    0    0  0.91002073704E-01 -0.80625491575E-02  0.11107829257E-01  0.17130002472E+03  0.17130000000E+03 0.  1.
      622    1    1    2    0    0 -0.28433645673E-01 -0.58259774687E-01  0.34130024389E+01  0.34169121033E+01  0.15000000000E+00 0. -1.
</event>
<event>
 5   0  0.6780500E+06  0.9118800E+02  0.7818608E-02  0.1180000E+00
       11   -1    0    0    0    0  0.00000000000E+00  0.00000000000E+00  0.39999999673E+01  0.40000000000E+01  0.51109989000E-03 0.  1.
     -623   -1    0    0    0    0  0.00000000000E+00  0.00000000000E+00  0.12525980253E-10  0.17130000000E+03  0.17130000000E+03 0. -1.
       11    1    1    2    0    0 -0.70094381787E-02 -0.57177124565E-02  0.78663386799E+00  0.78668604154E+00  0.51109989000E-03 0.  1.
     -623    1    1    2    0    0 -0.21764432415E-03 -0.84231140344E-02  0.35946390007E-02  0.17130000024E+03  0.17130000000E+03 0. -1.
      622    1    1    2    0    0  0.72270825028E-02  0.14140826491E-01  0.32097714604E+01  0.32133137135E+01  0.15000000000E+00 0.  1.
</event>
<event>
 5   0  0.6780500E+06  0.9118800E+02  0.7818608E-02  0.1180000E+00
       11   -1    0    0    0    0  0.00000000000E+00  0.00000000000E+00  0.39999999673E+01  0.40000000000E+01  0.51109989000E-03 0.  1.
     -623   -1    0    0    0    0  0.00000000000E+00  0.00000000000E+00  0.12525980253E-10  0.17130000000E+03  0.17130000000E+03 0. -1.
       11    1    1    2    0    0 -0.14744899453E-01 -0.13349114849E-01  0.11024110325E+00  0.11202219868E+00  0.51109989000E-03 0.  1.
     -623    1    1    2    0    0  0.24170071174E-01  0.27700295701E-01  0.47176270835E-02  0.17130000401E+03  0.17130000000E+03 0. -1.
      622    1    1    2    0    0 -0.94251717211E-02 -0.14351180853E-01  0.38850412371E+01  0.38879737917E+01  0.15000000000E+00 0.  1.
</event>
<event>
 5   0  0.6780500E+06  0.9118800E+02  0.7818608E-02  0.1180000E+00
       11   -1    0    0    0    0  0.00000000000E+00  0.00000000000E+00  0.39999999673E+01  0.40000000000E+01  0.51109989000E-03 0.  1.
     -623   -1    0    0    0    0  0.00000000000E+00  0.00000000000E+00  0.12525980253E-10  0.17130000000E+03  0.17130000000E+03 0.  1.
       11    1    1    2    0    0 -0.75781858776E-02 -0.10003619820E-01  0.15881434187E+00  0.15931025615E+00  0.51109989000E-03 0.  1.
     -623    1    1    2    0    0  0.28897737835E-02  0.92147759429E-03  0.34398326542E-02  0.17130000006E+03  0.17130000000E+03 0.  1.
      622    1    1    2    0    0  0.46884120941E-02  0.90821422255E-02  0.38377457928E+01  0.38406896825E+01  0.15000000000E+00 0.  1.
</event>
<event>
 5   0  0.6780500E+06  0.9118800E+02  0.7818608E-02  0.1180000E+00
       11   -1    0    0    0    0  0.00000000000E+00  0.00000000000E+00  0.39999999673E+01  0.40000000000E+01  0.51109989000E-03 0. -1.
     -623   -1    0    0    0    0  0.00000000000E+00  0.00000000000E+00  0.12525980253E-10  0.17130000000E+03  0.17130000000E+03 0.  1.
       11    1    1    2    0    0  0.26984713298E-01 -0.25743715139E-01  0.97099634830E+00  0.97171244885E+00  0.51109989000E-03 0. -1.
     -623    1    1    2    0    0 -0.46071333083E-02 -0.40215005636E-03  0.46292419128E-02  0.17130000012E+03  0.17130000000E+03 0.  1.
      622    1    1    2    0    0 -0.22377579989E-01  0.26145865196E-01  0.30243743772E+01  0.30282874262E+01  0.15000000000E+00 0. -1.
</event>
<event>
 5   0  0.6780500E+06  0.9118800E+02  0.7818608E-02  0.1180000E+00
       11   -1    0    0    0    0  0.00000000000E+00  0.00000000000E+00  0.39999999673E+01  0.40000000000E+01  0.51109989000E-03 0.  1.
     -623   -1    0    0    0    0  0.00000000000E+00  0.00000000000E+00  0.12525980253E-10  0.17130000000E+03  0.17130000000E+03 0. -1.
       11    1    1    2    0    0  0.13306722147E-02  0.12246334052E-01  0.47071954097E-01  0.48659772625E-01  0.51109989000E-03 0.  1.
     -623    1    1    2    0    0  0.25631594293E-02 -0.70380754362E-02  0.44415240615E-02  0.17130000022E+03  0.17130000000E+03 0. -1.
      622    1    1    2    0    0 -0.38938316441E-02 -0.52082586162E-02  0.39484864892E+01  0.39513400061E+01  0.15000000000E+00 0.  1.
</event>
<event>
 5   0  0.6780500E+06  0.9118800E+02  0.7818608E-02  0.1180000E+00
       11   -1    0    0    0    0  0.00000000000E+00  0.00000000000E+00  0.39999999673E+01  0.40000000000E+01  0.51109989000E-03 0.  1.
     -623   -1    0    0    0    0  0.00000000000E+00  0.00000000000E+00  0.12525980253E-10  0.17130000000E+03  0.17130000000E+03 0.  1.
       11    1    1    2    0    0 -0.15558351116E-01 -0.35218692098E-01  0.34278949523E+00  0.34494538382E+00  0.51109989000E-03 0.  1.
     -623    1    1    2    0    0  0.19501061861E-02  0.10084630801E-01  0.53473201773E-02  0.17130000039E+03  0.17130000000E+03 0.  1.
      622    1    1    2    0    0  0.13608244930E-01  0.25134061297E-01  0.36518631520E+01  0.36550542248E+01  0.15000000000E+00 0.  0.
</event>
<event>
 5   0  0.6780500E+06  0.9118800E+02  0.7818608E-02  0.1180000E+00
       11   -1    0    0    0    0  0.00000000000E+00  0.00000000000E+00  0.39999999673E+01  0.40000000000E+01  0.51109989000E-03 0.  1.
     -623   -1    0    0    0    0  0.00000000000E+00  0.00000000000E+00  0.12525980253E-10  0.17130000000E+03  0.17130000000E+03 0. -1.
       11    1    1    2    0    0  0.11446908961E-01  0.47816117153E-02  0.11164080480E-01  0.16697109074E-01  0.51109989000E-03 0.  1.
     -623    1    1    2    0    0 -0.16094993043E-01  0.21291481521E-01  0.84486839790E-02  0.17130000229E+03  0.17130000000E+03 0. -1.
      622    1    1    2    0    0  0.46480840829E-02 -0.26073093236E-01  0.39803872029E+01  0.39833006033E+01  0.15000000000E+00 0.  1.
</event>
<event>
 5   0  0.6780500E+06  0.9118800E+02  0.7818608E-02  0.1180000E+00
       11   -1    0    0    0    0  0.00000000000E+00  0.00000000000E+00  0.39999999673E+01  0.40000000000E+01  0.51109989000E-03 0.  1.
     -623   -1    0    0    0    0  0.00000000000E+00  0.00000000000E+00  0.12525980253E-10  0.17130000000E+03  0.17130000000E+03 0.  1.
       11    1    1    2    0    0 -0.12610042251E-01 -0.33865694243E-01  0.60097747985E+00  0.60206319512E+00  0.51109989000E-03 0.  1.
     -623    1    1    2    0    0  0.49940335796E-01 -0.54172157798E-02  0.48381505039E-02  0.17130000743E+03  0.17130000000E+03 0.  1.
      622    1    1    2    0    0 -0.37330293545E-01  0.39282910022E-01  0.33941843370E+01  0.33979293712E+01  0.15000000000E+00 0.  1.
</event>
<event>
 5   0  0.6780500E+06  0.9118800E+02  0.7818608E-02  0.1180000E+00
       11   -1    0    0    0    0  0.00000000000E+00  0.00000000000E+00  0.39999999673E+01  0.40000000000E+01  0.51109989000E-03 0. -1.
     -623   -1    0    0    0    0  0.00000000000E+00  0.00000000000E+00  0.12525980253E-10  0.17130000000E+03  0.17130000000E+03 0. -1.
       11    1    1    2    0    0  0.35044788832E-02 -0.12631846495E-02 -0.56138748786E-03  0.38017610013E-02  0.51109989000E-03 0. -1.
     -623    1    1    2    0    0  0.76231921108E-03  0.29699142516E-02  0.71821061154E-02  0.17130000018E+03  0.17130000000E+03 0. -1.
      622    1    1    2    0    0 -0.42667980943E-02 -0.17067296021E-02  0.39933792487E+01  0.39961980610E+01  0.15000000000E+00 0. -1.
</event>
<event>
 5   0  0.6780500E+06  0.9118800E+02  0.7818608E-02  0.1180000E+00
       11   -1    0    0    0    0  0.00000000000E+00  0.00000000000E+00  0.39999999673E+01  0.40000000000E+01  0.51109989000E-03 0. -1.
     -623   -1    0    0    0    0  0.00000000000E+00  0.00000000000E+00  0.12525980253E-10  0.17130000000E+03  0.17130000000E+03 0.  1.
       11    1    1    2    0    0  0.21537339168E-02 -0.23152264359E-01  0.63688040327E+00  0.63730493110E+00  0.51109989000E-03 0. -1.
     -623    1    1    2    0    0 -0.18259865691E-01 -0.16186881136E-01  0.40424376960E-02  0.17130000179E+03  0.17130000000E+03 0.  1.
      622    1    1    2    0    0  0.16106131774E-01  0.39339145495E-01  0.33590771264E+01  0.33626932832E+01  0.15000000000E+00 0. -1.
</event>
<event>
 5   0  0.6780500E+06  0.9118800E+02  0.7818608E-02  0.1180000E+00
       11   -1    0    0    0    0  0.00000000000E+00  0.00000000000E+00  0.39999999673E+01  0.40000000000E+01  0.51109989000E-03 0. -1.
     -623   -1    0    0    0    0  0.00000000000E+00  0.00000000000E+00  0.12525980253E-10  0.17130000000E+03  0.17130000000E+03 0.  1.
       11    1    1    2    0    0 -0.57138391902E-02 -0.12140223486E-01  0.89173932838E-01  0.90179179995E-01  0.51109989000E-03 0. -1.
     -623    1    1    2    0    0 -0.80952472019E-02  0.34701070212E-02  0.39179396457E-02  0.17130000027E+03  0.17130000000E+03 0.  1.
      622    1    1    2    0    0  0.13809086392E-01  0.86701164653E-02  0.39069080949E+01  0.39098205488E+01  0.15000000000E+00 0. -1.
</event>
<event>
 5   0  0.6780500E+06  0.9118800E+02  0.7818608E-02  0.1180000E+00
       11   -1    0    0    0    0  0.00000000000E+00  0.00000000000E+00  0.39999999673E+01  0.40000000000E+01  0.51109989000E-03 0. -1.
     -623   -1    0    0    0    0  0.00000000000E+00  0.00000000000E+00  0.12525980253E-10  0.17130000000E+03  0.17130000000E+03 0. -1.
       11    1    1    2    0    0  0.32552904179E-01  0.53330232385E-01  0.35353681649E+00  0.35901580340E+00  0.51109989000E-03 0. -1.
     -623    1    1    2    0    0 -0.28574152122E-01 -0.16338411278E-02  0.89422283420E-02  0.17130000262E+03  0.17130000000E+03 0. -1.
      622    1    1    2    0    0 -0.39787520578E-02 -0.51696391257E-01  0.36375209225E+01  0.36409815722E+01  0.15000000000E+00 0. -1.
</event>
<event>
 5   0  0.6780500E+06  0.9118800E+02  0.7818608E-02  0.1180000E+00
       11   -1    0    0    0    0  0.00000000000E+00  0.00000000000E+00  0.39999999673E+01  0.40000000000E+01  0.51109989000E-03 0. -1.
     -623   -1    0    0    0    0  0.00000000000E+00  0.00000000000E+00  0.12525980253E-10  0.17130000000E+03  0.17130000000E+03 0.  1.
       11    1    1    2    0    0 -0.10701823905E-01  0.21418692955E-01  0.29267981216E+00  0.29365800366E+00  0.51109989000E-03 0. -1.
     -623    1    1    2    0    0 -0.43002600691E-02 -0.15839838635E-01  0.40501644908E-02  0.17130000083E+03  0.17130000000E+03 0.  1.
      622    1    1    2    0    0  0.15002083974E-01 -0.55788543200E-02  0.37032699907E+01  0.37063411621E+01  0.15000000000E+00 0. -1.
</event>
<event>
 5   0  0.6780500E+06  0.9118800E+02  0.7818608E-02  0.1180000E+00
       11   -1    0    0    0    0  0.00000000000E+00  0.00000000000E+00  0.39999999673E+01  0.40000000000E+01  0.51109989000E-03 0.  1.
     -623   -1    0    0    0    0  0.00000000000E+00  0.00000000000E+00  0.12525980253E-10  0.17130000000E+03  0.17130000000E+03 0.  1.
       11    1    1    2    0    0  0.37467468450E-02 -0.64264218313E-01  0.20076480073E-01  0.67433331082E-01  0.51109989000E-03 0.  1.
     -623    1    1    2    0    0 -0.41190201274E-03  0.29779942618E-01  0.50381314964E-01  0.17130001000E+03  0.17130000000E+03 0.  1.
      622    1    1    2    0    0 -0.33348448322E-02  0.34484275695E-01  0.39295421723E+01  0.39325566710E+01  0.15000000000E+00 0.  1.
</event>
<event>
 5   0  0.6780500E+06  0.9118800E+02  0.7818608E-02  0.1180000E+00
       11   -1    0    0    0    0  0.00000000000E+00  0.00000000000E+00  0.39999999673E+01  0.40000000000E+01  0.51109989000E-03 0.  1.
     -623   -1    0    0    0    0  0.00000000000E+00  0.00000000000E+00  0.12525980253E-10  0.17130000000E+03  0.17130000000E+03 0.  1.
       11    1    1    2    0    0  0.14141081012E-01  0.11920660734E-01  0.24261400008E+00  0.24331848796E+00  0.51109989000E-03 0.  1.
     -623    1    1    2    0    0 -0.41274397908E-02  0.28528586196E-02  0.37428577506E-02  0.17130000011E+03  0.17130000000E+03 0.  1.
      622    1    1    2    0    0 -0.10013641221E-01 -0.14773519354E-01  0.37536431095E+01  0.37566813976E+01  0.15000000000E+00 0.  1.
</event>
<event>
 5   0  0.6780500E+06  0.9118800E+02  0.7818608E-02  0.1180000E+00
       11   -1    0    0    0    0  0.00000000000E+00  0.00000000000E+00  0.39999999673E+01  0.40000000000E+01  0.51109989000E-03 0.  1.
     -623   -1    0    0    0    0  0.00000000000E+00  0.00000000000E+00  0.12525980253E-10  0.17130000000E+03  0.17130000000E+03 0. -1.
       11    1    1    2    0    0 -0.16908015185E-03  0.25128528651E-01  0.39268532373E+00  0.39348887689E+00  0.51109989000E-03 0.  1.
     -623    1    1    2    0    0  0.11151949025E-01  0.43844439181E-02  0.40622972569E-02  0.17130000047E+03  0.17130000000E+03 0. -1.
      622    1    1    2    0    0 -0.10982868873E-01 -0.29512972569E-01  0.36032523464E+01  0.36065106558E+01  0.15000000000E+00 0.  1.
</event>
<event>
 5   0  0.6780500E+06  0.9118800E+02  0.7818608E-02  0.1180000E+00
       11   -1    0    0    0    0  0.00000000000E+00  0.00000000000E+00  0.39999999673E+01  0.40000000000E+01  0.51109989000E-03 0.  1.
     -623   -1    0    0    0    0  0.00000000000E+00  0.00000000000E+00  0.12525980253E-10  0.17130000000E+03  0.17130000000E+03 0.  1.
       11    1    1    2    0    0 -0.78116350970E-02 -0.23872969449E-01  0.48325948003E-01  0.54466492321E-01  0.51109989000E-03 0.  1.
     -623    1    1    2    0    0  0.21641627635E-01  0.10491899373E-01  0.90417600239E-02  0.17130000193E+03  0.17130000000E+03 0.  1.
      622    1    1    2    0    0 -0.13829992538E-01  0.13381070076E-01  0.39426322593E+01  0.39455315807E+01  0.15000000000E+00 0.  1.
</event>
<event>
 5   0  0.6780500E+06  0.9118800E+02  0.7818608E-02  0.1180000E+00
       11   -1    0    0    0    0  0.00000000000E+00  0.00000000000E+00  0.39999999673E+01  0.40000000000E+01  0.51109989000E-03 0. -1.
     -623   -1    0    0    0    0  0.00000000000E+00  0.00000000000E+00  0.12525980253E-10  0.17130000000E+03  0.17130000000E+03 0.  1.
       11    1    1    2    0    0 -0.30985053454E-02 -0.19221599506E-01  0.19651766719E-01  0.27668100401E-01  0.51109989000E-03 0. -1.
     -623    1    1    2    0    0  0.17422678048E-01  0.79653793399E-02  0.10892624072E-01  0.17130000142E+03  0.17130000000E+03 0.  1.
      622    1    1    2    0    0 -0.14324172703E-01  0.11256220166E-01  0.39694555766E+01  0.39723304821E+01  0.15000000000E+00 0. -1.
</event>
<event>
 5   0  0.6780500E+06  0.9118800E+02  0.7818608E-02  0.1180000E+00
       11   -1    0    0    0    0  0.00000000000E+00  0.00000000000E+00  0.39999999673E+01  0.40000000000E+01  0.51109989000E-03 0.  1.
     -623   -1    0    0    0    0  0.00000000000E+00  0.00000000000E+00  0.12525980253E-10  0.17130000000E+03  0.17130000000E+03 0.  1.
       11    1    1    2    0    0 -0.11582216996E-01  0.95428551367E-02  0.13422632701E+00  0.13506362176E+00  0.51109989000E-03 0.  1.
     -623    1    1    2    0    0 -0.46860499075E-02 -0.84284490141E-02  0.37838826975E-02  0.17130000031E+03  0.17130000000E+03 0.  1.
      622    1    1    2    0    0  0.16268266903E-01 -0.11144061226E-02  0.38619897577E+01  0.38649360650E+01  0.15000000000E+00 0.  1.
</event>
<event>
 5   0  0.6780500E+06  0.9118800E+02  0.7818608E-02  0.1180000E+00
       11   -1    0    0    0    0  0.00000000000E+00  0.00000000000E+00  0.39999999673E+01  0.40000000000E+01  0.51109989000E-03 0.  1.
     -623   -1    0    0    0    0  0.00000000000E+00  0.00000000000E+00  0.12525980253E-10  0.17130000000E+03  0.17130000000E+03 0.  1.
       11    1    1    2    0    0  0.31681726879E-01 -0.53921780388E-01  0.13792230637E+00  0.15144013350E+00  0.51109989000E-03 0.  1.
     -623    1    1    2    0    0  0.13048839857E-01 -0.93536554494E-03  0.17094890515E-01  0.17130000135E+03  0.17130000000E+03 0.  1.
      622    1    1    2    0    0 -0.44730566736E-01  0.54857145933E-01  0.38449827705E+01  0.38485585140E+01  0.15000000000E+00 0.  1.
</event>
<event>
 5   0  0.6780500E+06  0.9118800E+02  0.7818608E-02  0.1180000E+00
       11   -1    0    0    0    0  0.00000000000E+00  0.00000000000E+00  0.39999999673E+01  0.40000000000E+01  0.51109989000E-03 0. -1.
     -623   -1    0    0    0    0  0.00000000000E+00  0.00000000000E+00  0.12525980253E-10  0.17130000000E+03  0.17130000000E+03 0.  1.
       11    1    1    2    0    0  0.32444155642E-02 -0.35726830259E-01  0.36116251884E+00  0.36294015880E+00  0.51109989000E-03 0. -1.
     -623    1    1    2    0    0 -0.89193209131E-02  0.22624684382E-01  0.49019303543E-02  0.17130000180E+03  0.17130000000E+03 0.  1.
      622    1    1    2    0    0  0.56749053491E-02  0.13102145877E-01  0.36339355182E+01  0.36370580448E+01  0.15000000000E+00 0. -1.
</event>
<event>
 5   0  0.6780500E+06  0.9118800E+02  0.7818608E-02  0.1180000E+00
       11   -1    0    0    0    0  0.00000000000E+00  0.00000000000E+00  0.39999999673E+01  0.40000000000E+01  0.51109989000E-03 0.  1.
     -623   -1    0    0    0    0  0.00000000000E+00  0.00000000000E+00  0.12525980253E-10  0.17130000000E+03  0.17130000000E+03 0. -1.
       11    1    1    2    0    0 -0.10057946807E-01  0.43072770498E-01  0.83065809187E+00  0.83183505135E+00  0.51109989000E-03 0.  1.
     -623    1    1    2    0    0  0.34851696964E-01 -0.14317310708E-01  0.49618691972E-02  0.17130000422E+03  0.17130000000E+03 0. -1.
      622    1    1    2    0    0 -0.24793750156E-01 -0.28755459790E-01  0.31643800063E+01  0.31681607331E+01  0.15000000000E+00 0. -1.
</event>
<event>
 5   0  0.6780500E+06  0.9118800E+02  0.7818608E-02  0.1180000E+00
       11   -1    0    0    0    0  0.00000000000E+00  0.00000000000E+00  0.39999999673E+01  0.40000000000E+01  0.51109989000E-03 0. -1.
     -623   -1    0    0    0    0  0.00000000000E+00  0.00000000000E+00  0.12525980253E-10  0.17130000000E+03  0.17130000000E+03 0. -1.
       11    1    1    2    0    0 -0.65813163789E-02 -0.85206653708E-03 -0.34836203288E-02  0.75124281265E-02  0.51109989000E-03 0. -1.
     -623    1    1    2    0    0  0.10676976210E-01  0.98002040513E-02  0.13828111856E-01  0.17130000117E+03  0.17130000000E+03 0. -1.
      622    1    1    2    0    0 -0.40956598309E-02 -0.89481375143E-02  0.39896554759E+01  0.39924864007E+01  0.15000000000E+00 0. -1.
</event>
<event>
 5   0  0.6780500E+06  0.9118800E+02  0.7818608E-02  0.1180000E+00
       11   -1    0    0    0    0  0.00000000000E+00  0.00000000000E+00  0.39999999673E+01  0.40000000000E+01  0.51109989000E-03 0.  1.
     -623   -1    0    0    0    0  0.00000000000E+00  0.00000000000E+00  0.12525980253E-10  0.17130000000E+03  0.17130000000E+03 0.  1.
       11    1    1    2    0    0 -0.88763702457E-02  0.23915688969E-02  0.40622433533E-02  0.10063428516E-01  0.51109989000E-03 0.  1.
     -623    1    1    2    0    0  0.37763796221E-02 -0.82903253465E-02  0.88298385566E-02  0.17130000047E+03  0.17130000000E+03 0.  1.
      622    1    1    2    0    0  0.50999906235E-02  0.58987564496E-02  0.39871078855E+01  0.39899361017E+01  0.15000000000E+00 0.  1.
</event>
<event>
 5   0  0.6780500E+06  0.9118800E+02  0.7818608E-02  0.1180000E+00
       11   -1    0    0    0    0  0.00000000000E+00  0.00000000000E+00  0.39999999673E+01  0.40000000000E+01  0.51109989000E-03 0.  1.
     -623   -1    0    0    0    0  0.00000000000E+00  0.00000000000E+00  0.12525980253E-10  0.17130000000E+03  0.17130000000E+03 0.  1.
       11    1    1    2    0    0 -0.21540480408E-02  0.42958018348E-02  0.25198518891E-01  0.25657755377E-01  0.51109989000E-03 0.  1.
     -623    1    1    2    0    0 -0.56544088531E-02 -0.42885305728E-02  0.32987247655E-02  0.17130000018E+03  0.17130000000E+03 0.  1.
      622    1    1    2    0    0  0.78084568939E-02 -0.72712620071E-05  0.39715027237E+01  0.39743420659E+01  0.15000000000E+00 0.  1.
</event>
<event>
 5   0  0.6780500E+06  0.9118800E+02  0.7818608E-02  0.1180000E+00
       11   -1    0    0    0    0  0.00000000000E+00  0.00000000000E+00  0.39999999673E+01  0.40000000000E+01  0.51109989000E-03 0.  1.
     -623   -1    0    0    0    0  0.00000000000E+00  0.00000000000E+00  0.12525980253E-10  0.17130000000E+03  0.17130000000E+03 0.  1.
       11    1    1    2    0    0 -0.24678276636E-01  0.13619508182E-01  0.67754574589E+00  0.67813199846E+00  0.51109989000E-03 0.  1.
     -623    1    1    2    0    0  0.21486019724E-01  0.13415587517E-02  0.40112588221E-02  0.17130000140E+03  0.17130000000E+03 0.  1.
      622    1    1    2    0    0  0.31922569119E-02 -0.14961066934E-01  0.33184429627E+01  0.33218666019E+01  0.15000000000E+00 0.  1.
</event>
<event>
 5   0  0.6780500E+06  0.9118800E+02  0.7818608E-02  0.1180000E+00
       11   -1    0    0    0    0  0.00000000000E+00  0.00000000000E+00  0.39999999673E+01  0.40000000000E+01  0.51109989000E-03 0.  1.
     -623   -1    0    0    0    0  0.00000000000E+00  0.00000000000E+00  0.12525980253E-10  0.17130000000E+03  0.17130000000E+03 0. -1.
       11    1    1    2    0    0  0.16001012728E-03  0.10816641294E-02 -0.30142582242E-02  0.32469332311E-02  0.51109989000E-03 0.  1.
     -623    1    1    2    0    0  0.66431371604E-02 -0.17889689924E-01  0.91194038600E-02  0.17130000131E+03  0.17130000000E+03 0. -1.
      622    1    1    2    0    0 -0.68031472877E-02  0.16808025794E-01  0.39938948217E+01  0.39967517611E+01  0.15000000000E+00 0.  1.
</event>
<event>
 5   0  0.6780500E+06  0.9118800E+02  0.7818608E-02  0.1180000E+00
       11   -1    0    0    0    0  0.00000000000E+00  0.00000000000E+00  0.39999999673E+01  0.40000000000E+01  0.51109989000E-03 0. -1.
     -623   -1    0    0    0    0  0.00000000000E+00  0.00000000000E+00  0.12525980253E-10  0.17130000000E+03  0.17130000000E+03 0.  1.
       11    1    1    2    0    0  0.20407381672E-01  0.40366777616E-01  0.10471422152E+00  0.11406694250E+00  0.51109989000E-03 0. -1.
     -623    1    1    2    0    0  0.18781982940E-01 -0.15724959237E-01  0.12526993331E-01  0.17130000221E+03  0.17130000000E+03 0.  1.
      622    1    1    2    0    0 -0.39189364613E-01 -0.24641818379E-01  0.38827587525E+01  0.38859308480E+01  0.15000000000E+00 0. -1.
</event>
<event>
 5   0  0.6780500E+06  0.9118800E+02  0.7818608E-02  0.1180000E+00
       11   -1    0    0    0    0  0.00000000000E+00  0.00000000000E+00  0.39999999673E+01  0.40000000000E+01  0.51109989000E-03 0. -1.
     -623   -1    0    0    0    0  0.00000000000E+00  0.00000000000E+00  0.12525980253E-10  0.17130000000E+03  0.17130000000E+03 0.  1.
       11    1    1    2    0    0 -0.17609880498E-01 -0.18314095755E-01  0.85117818095E-01  0.88830277338E-01  0.51109989000E-03 0. -1.
     -623    1    1    2    0    0 -0.17558921035E-01  0.13009440143E-01  0.67532273390E-02  0.17130000153E+03  0.17130000000E+03 0.  1.
      622    1    1    2    0    0  0.35168801534E-01  0.53046556121E-02  0.39081289219E+01  0.39111681956E+01  0.15000000000E+00 0. -1.
</event>
<event>
 5   0  0.6780500E+06  0.9118800E+02  0.7818608E-02  0.1180000E+00
       11   -1    0    0    0    0  0.00000000000E+00  0.00000000000E+00  0.39999999673E+01  0.40000000000E+01  0.51109989000E-03 0. -1.
     -623   -1    0    0    0    0  0.00000000000E+00  0.00000000000E+00  0.12525980253E-10  0.17130000000E+03  0.17130000000E+03 0. -1.
       11    1    1    2    0    0 -0.25798393351E-01  0.36141691221E-01  0.44632828099E+00  0.44853202180E+00  0.51109989000E-03 0. -1.
     -623    1    1    2    0    0  0.18632898681E-01 -0.30747204803E-01  0.53880230646E-02  0.17130000386E+03  0.17130000000E+03 0. -1.
      622    1    1    2    0    0  0.71654946706E-02 -0.53944864176E-02  0.35482836633E+01  0.35514641206E+01  0.15000000000E+00 0. -1.
</event>
<event>
 5   0  0.6780500E+06  0.9118800E+02  0.7818608E-02  0.1180000E+00
       11   -1    0    0    0    0  0.00000000000E+00  0.00000000000E+00  0.39999999673E+01  0.40000000000E+01  0.51109989000E-03 0.  1.
     -623   -1    0    0    0    0  0.00000000000E+00  0.00000000000E+00  0.12525980253E-10  0.17130000000E+03  0.17130000000E+03 0.  1.
       11    1    1    2    0    0  0.39829110988E-01  0.33955503448E-01  0.10260487347E+01  0.10273828894E+01  0.51109989000E-03 0.  1.
     -623    1    1    2    0    0 -0.72732454172E-02 -0.17781204331E-01  0.53448098794E-02  0.17130000116E+03  0.17130000000E+03 0.  1.
      622    1    1    2    0    0 -0.32555865570E-01 -0.16174299118E-01  0.29686064227E+01  0.29726159499E+01  0.15000000000E+00 0.  1.
</event>
<event>
 5   0  0.6780500E+06  0.9118800E+02  0.7818608E-02  0.1180000E+00
       11   -1    0    0    0    0  0.00000000000E+00  0.00000000000E+00  0.39999999673E+01  0.40000000000E+01  0.51109989000E-03 0.  1.
     -623   -1    0    0    0    0  0.00000000000E+00  0.00000000000E+00  0.12525980253E-10  0.17130000000E+03  0.17130000000E+03 0.  1.
       11    1    1    2    0    0 -0.77382754952E-02  0.23261066167E-01  0.37825336863E+00  0.37904726646E+00  0.51109989000E-03 0.  1.
     -623    1    1    2    0    0 -0.62298487464E-02 -0.50593492460E-02  0.39751034484E-02  0.17130000023E+03  0.17130000000E+03 0.  1.
      622    1    1    2    0    0  0.13968124242E-01 -0.18201716921E-01  0.36177714952E+01  0.36209524994E+01  0.15000000000E+00 0.  1.
</event>
<event>
 5   0  0.6780500E+06  0.9118800E+02  0.7818608E-02  0.1180000E+00
       11   -1    0    0    0    0  0.00000000000E+00  0.00000000000E+00  0.39999999673E+01  0.40000000000E+01  0.51109989000E-03 0. -1.
     -623   -1    0    0    0    0  0.00000000000E+00  0.00000000000E+00  0.12525980253E-10  0.17130000000E+03  0.17130000000E+03 0.  1.
       11    1    1    2    0    0  0.69042054245E-02 -0.32739387490E-01  0.30895464943E+00  0.31076160021E+00  0.51109989000E-03 0. -1.
     -623    1    1    2    0    0  0.26111798315E-01  0.37904675007E-01  0.50153309967E-02  0.17130000626E+03  0.17130000000E+03 0.  1.
      622    1    1    2    0    0 -0.33016003739E-01 -0.51652875170E-02  0.36860299869E+01  0.36892321425E+01  0.15000000000E+00 0. -1.
</event>
<event>
 5   0  0.6780500E+06  0.9118800E+02  0.7818608E-02  0.1180000E+00
       11   -1    0    0    0    0  0.00000000000E+00  0.00000000000E+00  0.39999999673E+01  0.40000000000E+01  0.51109989000E-03 0.  1.
     -623   -1    0    0    0    0  0.00000000000E+00  0.00000000000E+00  0.12525980253E-10  0.17130000000E+03  0.17130000000E+03 0.  1.
       11    1    1    2    0    0 -0.49857845846E-01  0.56346273509E-01  0.63453979974E+00  0.63898491845E+00  0.51109989000E-03 0.  1.
     -623    1    1    2    0    0  0.12423706084E+00  0.35321547279E-01  0.99187995143E-02  0.17130004898E+03  0.17130000000E+03 0.  1.
      622    1    1    2    0    0 -0.74379214995E-01 -0.91667820788E-01  0.33555413681E+01  0.33609661007E+01  0.15000000000E+00 0.  1.
</event>
<event>
 5   0  0.6780500E+06  0.9118800E+02  0.7818608E-02  0.1180000E+00
       11   -1    0    0    0    0  0.00000000000E+00  0.00000000000E+00  0.39999999673E+01  0.40000000000E+01  0.51109989000E-03 0.  1.
     -623   -1    0    0    0    0  0.00000000000E+00  0.00000000000E+00  0.12525980253E-10  0.17130000000E+03  0.17130000000E+03 0.  1.
       11    1    1    2    0    0  0.12546818631E-01 -0.24868287018E-01  0.41851169103E+00  0.41943789899E+00  0.51109989000E-03 0.  1.
     -623    1    1    2    0    0 -0.24005721298E-01 -0.63808623909E-02  0.42262124638E-02  0.17130000185E+03  0.17130000000E+03 0.  1.
      622    1    1    2    0    0  0.11458902667E-01  0.31249149409E-01  0.35772620639E+01  0.35805602480E+01  0.15000000000E+00 0.  1.
</event>
<event>
 5   0  0.6780500E+06  0.9118800E+02  0.7818608E-02  0.1180000E+00
       11   -1    0    0    0    0  0.00000000000E+00  0.00000000000E+00  0.39999999673E+01  0.40000000000E+01  0.51109989000E-03 0. -1.
     -623   -1    0    0    0    0  0.00000000000E+00  0.00000000000E+00  0.12525980253E-10  0.17130000000E+03  0.17130000000E+03 0. -1.
       11    1    1    2    0    0 -0.57574531119E-02 -0.32282822797E-02  0.88203706951E-02  0.11028609798E-01  0.51109989000E-03 0. -1.
     -623    1    1    2    0    0  0.95278641256E-02  0.92877762098E-02  0.50364601227E-02  0.17130000059E+03  0.17130000000E+03 0. -1.
      622    1    1    2    0    0 -0.37704110137E-02 -0.60594939301E-02  0.39861431365E+01  0.39889707994E+01  0.15000000000E+00 0. -1.
</event>
<event>
 5   0  0.6780500E+06  0.9118800E+02  0.7818608E-02  0.1180000E+00
       11   -1    0    0    0    0  0.00000000000E+00  0.00000000000E+00  0.39999999673E+01  0.40000000000E+01  0.51109989000E-03 0.  1.
     -623   -1    0    0    0    0  0.00000000000E+00  0.00000000000E+00  0.12525980253E-10  0.17130000000E+03  0.17130000000E+03 0. -1.
       11    1    1    2    0    0 -0.29089953104E-02 -0.11119841642E-01  0.21475639820E+00  0.21506437390E+00  0.51109989000E-03 0.  1.
     -623    1    1    2    0    0 -0.55209673784E-02 -0.26037670199E-01  0.34754603770E-02  0.17130000210E+03  0.17130000000E+03 0. -1.
      622    1    1    2    0    0  0.84299626888E-02  0.37157511841E-01  0.37817681088E+01  0.37849335230E+01  0.15000000000E+00 0.  1.
</event>
<event>
 5   0  0.6780500E+06  0.9118800E+02  0.7818608E-02  0.1180000E+00
       11   -1    0    0    0    0  0.00000000000E+00  0.00000000000E+00  0.39999999673E+01  0.40000000000E+01  0.51109989000E-03 0. -1.
     -623   -1    0    0    0    0  0.00000000000E+00  0.00000000000E+00  0.12525980253E-10  0.17130000000E+03  0.17130000000E+03 0. -1.
       11    1    1    2    0    0  0.23854903715E-01  0.59643112225E-01  0.80853384461E+00  0.81108174456E+00  0.51109989000E-03 0. -1.
     -623    1    1    2    0    0 -0.58002652434E-02 -0.49283472435E-02  0.65990807504E-02  0.17130000030E+03  0.17130000000E+03 0. -1.
      622    1    1    2    0    0 -0.18054638472E-01 -0.54714764981E-01  0.31848670421E+01  0.31889179593E+01  0.15000000000E+00 0.  1.
</event>
<event>
 5   0  0.6780500E+06  0.9118800E+02  0.7818608E-02  0.1180000E+00
       11   -1    0    0    0    0  0.00000000000E+00  0.00000000000E+00  0.39999999673E+01  0.40000000000E+01  0.51109989000E-03 0. -1.
     -623   -1    0    0    0    0  0.00000000000E+00  0.00000000000E+00  0.12525980253E-10  0.17130000000E+03  0.17130000000E+03 0. -1.
       11    1    1    2    0    0  0.57639179497E-02 -0.21429583416E-01  0.20146822366E+00  0.20268733597E+00  0.51109989000E-03 0. -1.
     -623    1    1    2    0    0 -0.14413356488E-02  0.10014982793E-01  0.42028399831E-02  0.17130000035E+03  0.17130000000E+03 0. -1.
      622    1    1    2    0    0 -0.43225823009E-02  0.11414600623E-01  0.37943289037E+01  0.37973123137E+01  0.15000000000E+00 0. -1.
</event>
<event>
 5   0  0.6780500E+06  0.9118800E+02  0.7818608E-02  0.1180000E+00
       11   -1    0    0    0    0  0.00000000000E+00  0.00000000000E+00  0.39999999673E+01  0.40000000000E+01  0.51109989000E-03 0. -1.
     -623   -1    0    0    0    0  0.00000000000E+00  0.00000000000E+00  0.12525980253E-10  0.17130000000E+03  0.17130000000E+03 0.  1.
       11    1    1    2    0    0  0.20054596551E-02 -0.11806219335E-01  0.13828571349E+00  0.13880420909E+00  0.51109989000E-03 0. -1.
     -623    1    1    2    0    0 -0.10771562788E-01  0.15960884009E-01  0.34464813208E-02  0.17130000112E+03  0.17130000000E+03 0.  1.
      622    1    1    2    0    0  0.87661031331E-02 -0.41546646737E-02  0.38582677726E+01  0.38611946740E+01  0.15000000000E+00 0. -1.
</event>
<event>
 5   0  0.6780500E+06  0.9118800E+02  0.7818608E-02  0.1180000E+00
       11   -1    0    0    0    0  0.00000000000E+00  0.00000000000E+00  0.39999999673E+01  0.40000000000E+01  0.51109989000E-03 0.  1.
     -623   -1    0    0    0    0  0.00000000000E+00  0.00000000000E+00  0.12525980253E-10  0.17130000000E+03  0.17130000000E+03 0. -1.
       11    1    1    2    0    0 -0.92748933576E-02 -0.29197509433E-01  0.35164735576E+00  0.35297966264E+00  0.51109989000E-03 0.  1.
     -623    1    1    2    0    0 -0.15312008760E-01 -0.54377441636E-04  0.46194014957E-02  0.17130000075E+03  0.17130000000E+03 0. -1.
      622    1    1    2    0    0  0.24586902118E-01  0.29251886875E-01  0.36437332101E+01  0.36470195907E+01  0.15000000000E+00 0.  1.
</event>
<event>
 5   0  0.6780500E+06  0.9118800E+02  0.7818608E-02  0.1180000E+00
       11   -1    0    0    0    0  0.00000000000E+00  0.00000000000E+00  0.39999999673E+01  0.40000000000E+01  0.51109989000E-03 0.  1.
     -623   -1    0    0    0    0  0.00000000000E+00  0.00000000000E+00  0.12525980253E-10  0.17130000000E+03  0.17130000000E+03 0. -1.
       11    1    1    2    0    0 -0.33899623638E-02  0.14672503580E-01  0.13463850014E+00  0.13547900630E+00  0.51109989000E-03 0.  1.
     -623    1    1    2    0    0 -0.66259470202E-02 -0.19699341756E-02  0.37867320148E-02  0.17130000018E+03  0.17130000000E+03 0. -1.
      622    1    1    2    0    0  0.10015909384E-01 -0.12702569405E-01  0.38615747352E+01  0.38645208124E+01  0.15000000000E+00 0.  1.
</event>
<event>
 5   0  0.6780500E+06  0.9118800E+02  0.7818608E-02  0.1180000E+00
       11   -1    0    0    0    0  0.00000000000E+00  0.00000000000E+00  0.39999999673E+01  0.40000000000E+01  0.51109989000E-03 0.  1.
     -623   -1    0    0    0    0  0.00000000000E+00  0.00000000000E+00  0.12525980253E-10  0.17130000000E+03  0.17130000000E+03 0. -1.
       11    1    1    2    0    0  0.11996641060E-02 -0.13418262229E-03  0.15747840227E-02  0.20489916444E-02  0.51109989000E-03 0.  1.
     -623    1    1    2    0    0 -0.58398471256E-03 -0.43366718000E-03  0.32892283483E-02  0.17130000003E+03  0.17130000000E+03 0. -1.
      622    1    1    2    0    0 -0.61567939340E-03  0.56784980230E-03  0.39951359551E+01  0.39979509753E+01  0.15000000000E+00 0.  1.
</event>
<event>
 5   0  0.6780500E+06  0.9118800E+02  0.7818608E-02  0.1180000E+00
       11   -1    0    0    0    0  0.00000000000E+00  0.00000000000E+00  0.39999999673E+01  0.40000000000E+01  0.51109989000E-03 0. -1.
     -623   -1    0    0    0    0  0.00000000000E+00  0.00000000000E+00  0.12525980253E-10  0.17130000000E+03  0.17130000000E+03 0. -1.
       11    1    1    2    0    0  0.21962702392E-01  0.30523413789E-01  0.31575351321E+00  0.31798519055E+00  0.51109989000E-03 0. -1.
     -623    1    1    2    0    0  0.88922055665E-03 -0.36776828390E-02  0.54573591588E-02  0.17130000013E+03  0.17130000000E+03 0. -1.
      622    1    1    2    0    0 -0.22851922948E-01 -0.26845730950E-01  0.36787890951E+01  0.36820146808E+01  0.15000000000E+00 0. -1.
</event>
<event>
 5   0  0.6780500E+06  0.9118800E+02  0.7818608E-02  0.1180000E+00
       11   -1    0    0    0    0  0.00000000000E+00  0.00000000000E+00  0.39999999673E+01  0.40000000000E+01  0.51109989000E-03 0. -1.
     -623   -1    0    0    0    0  0.00000000000E+00  0.00000000000E+00  0.12525980253E-10  0.17130000000E+03  0.17130000000E+03 0.  1.
       11    1    1    2    0    0 -0.11936425141E-01  0.68803566963E-02  0.65860161677E+00  0.65874590579E+00  0.51109989000E-03 0. -1.
     -623    1    1    2    0    0  0.51970430143E-02  0.48237457811E-02  0.35404609171E-02  0.17130000018E+03  0.17130000000E+03 0.  1.
      622    1    1    2    0    0  0.67393821265E-02 -0.11704102477E-01  0.33378578897E+01  0.33412539109E+01  0.15000000000E+00 0. -1.
</event>
<event>
 5   0  0.6780500E+06  0.9118800E+02  0.7818608E-02  0.1180000E+00
       11   -1    0    0    0    0  0.00000000000E+00  0.00000000000E+00  0.39999999673E+01  0.40000000000E+01  0.51109989000E-03 0. -1.
     -623   -1    0    0    0    0  0.00000000000E+00  0.00000000000E+00  0.12525980253E-10  0.17130000000E+03  0.17130000000E+03 0.  1.
       11    1    1    2    0    0 -0.45274683097E-02  0.34208572647E-01  0.51707872962E+00  0.51822909824E+00  0.51109989000E-03 0. -1.
     -623    1    1    2    0    0 -0.36505153387E-01  0.82165705224E-02  0.48878711156E-02  0.17130000416E+03  0.17130000000E+03 0.  1.
      622    1    1    2    0    0  0.41032621697E-01 -0.42425143169E-01  0.34780333666E+01  0.34817667452E+01  0.15000000000E+00 0. -1.
</event>
<event>
 5   0  0.6780500E+06  0.9118800E+02  0.7818608E-02  0.1180000E+00
       11   -1    0    0    0    0  0.00000000000E+00  0.00000000000E+00  0.39999999673E+01  0.40000000000E+01  0.51109989000E-03 0.  1.
     -623   -1    0    0    0    0  0.00000000000E+00  0.00000000000E+00  0.12525980253E-10  0.17130000000E+03  0.17130000000E+03 0. -1.
       11    1    1    2    0    0 -0.23634521943E-01 -0.39295512456E-02  0.27391600138E+00  0.27496230475E+00  0.51109989000E-03 0.  1.
     -623    1    1    2    0    0 -0.29056763091E-02 -0.54731502158E-02  0.41742647348E-02  0.17130000016E+03  0.17130000000E+03 0. -1.
      622    1    1    2    0    0  0.26540198252E-01  0.94027014614E-02  0.37219097012E+01  0.37250375323E+01  0.15000000000E+00 0.  1.
</event>
<event>
 5   0  0.6780500E+06  0.9118800E+02  0.7818608E-02  0.1180000E+00
       11   -1    0    0    0    0  0.00000000000E+00  0.00000000000E+00  0.39999999673E+01  0.40000000000E+01  0.51109989000E-03 0.  1.
     -623   -1    0    0    0    0  0.00000000000E+00  0.00000000000E+00  0.12525980253E-10  0.17130000000E+03  0.17130000000E+03 0. -1.
       11    1    1    2    0    0 -0.50227354980E-02 -0.13064656464E-01  0.25533889419E+00  0.25572275071E+00  0.51109989000E-03 0.  1.
     -623    1    1    2    0    0 -0.28189006584E-02  0.14573149271E-01  0.33988149961E-02  0.17130000068E+03  0.17130000000E+03 0. -1.
      622    1    1    2    0    0  0.78416361564E-02 -0.15084928069E-02  0.37412622582E+01  0.37442765725E+01  0.15000000000E+00 0.  1.
</event>
<event>
 5   0  0.6780500E+06  0.9118800E+02  0.7818608E-02  0.1180000E+00
       11   -1    0    0    0    0  0.00000000000E+00  0.00000000000E+00  0.39999999673E+01  0.40000000000E+01  0.51109989000E-03 0. -1.
     -623   -1    0    0    0    0  0.00000000000E+00  0.00000000000E+00  0.12525980253E-10  0.17130000000E+03  0.17130000000E+03 0.  1.
       11    1    1    2    0    0  0.33048308666E-01  0.23819031300E-01  0.64818712310E+00  0.64946619984E+00  0.51109989000E-03 0. -1.
     -623    1    1    2    0    0  0.25282488221E-01 -0.55190501914E-01  0.53045947062E-02  0.17130001084E+03  0.17130000000E+03 0.  1.
      622    1    1    2    0    0 -0.58330796887E-01  0.31371470614E-01  0.33465082496E+01  0.33505229615E+01  0.15000000000E+00 0. -1.
</event>
<event>
 5   0  0.6780500E+06  0.9118800E+02  0.7818608E-02  0.1180000E+00
       11   -1    0    0    0    0  0.00000000000E+00  0.00000000000E+00  0.39999999673E+01  0.40000000000E+01  0.51109989000E-03 0. -1.
     -623   -1    0    0    0    0  0.00000000000E+00  0.00000000000E+00  0.12525980253E-10  0.17130000000E+03  0.17130000000E+03 0.  1.
       11    1    1    2    0    0  0.60792958950E-03  0.64304387621E-02  0.26971564460E-02  0.70182616457E-02  0.51109989000E-03 0. -1.
     -623    1    1    2    0    0 -0.31302868478E-02 -0.71683564485E-02  0.71407037725E-02  0.17130000033E+03  0.17130000000E+03 0.  1.
      622    1    1    2    0    0  0.25223572583E-02  0.73791768641E-03  0.39901621071E+01  0.39929814109E+01  0.15000000000E+00 0. -1.
</event>
<event>
 5   0  0.6780500E+06  0.9118800E+02  0.7818608E-02  0.1180000E+00
       11   -1    0    0    0    0  0.00000000000E+00  0.00000000000E+00  0.39999999673E+01  0.40000000000E+01  0.51109989000E-03 0.  1.
     -623   -1    0    0    0    0  0.00000000000E+00  0.00000000000E+00  0.12525980253E-10  0.17130000000E+03  0.17130000000E+03 0. -1.
       11    1    1    2    0    0  0.75953776856E-02 -0.12604788776E-01  0.55869654916E-02  0.15749471971E-01  0.51109989000E-03 0.  1.
     -623    1    1    2    0    0 -0.12230794507E-01  0.11600590593E-01  0.12991240770E-01  0.17130000132E+03  0.17130000000E+03 0. -1.
      622    1    1    2    0    0  0.46354168213E-02  0.10041981828E-02  0.39814217611E+01  0.39842492060E+01  0.15000000000E+00 0.  1.
</event>
<event>
 5   0  0.6780500E+06  0.9118800E+02  0.7818608E-02  0.1180000E+00
       11   -1    0    0    0    0  0.00000000000E+00  0.00000000000E+00  0.39999999673E+01  0.40000000000E+01  0.51109989000E-03 0. -1.
     -623   -1    0    0    0    0  0.00000000000E+00  0.00000000000E+00  0.12525980253E-10  0.17130000000E+03  0.17130000000E+03 0.  1.
       11    1    1    2    0    0  0.97136851716E-03  0.31168192471E-02 -0.83395888826E-03  0.34080536292E-02  0.51109989000E-03 0. -1.
     -623    1    1    2    0    0  0.19506025353E-02  0.45163874438E-02  0.70664502497E-02  0.17130000022E+03  0.17130000000E+03 0.  1.
      622    1    1    2    0    0 -0.29219710525E-02 -0.76332066909E-02  0.39937674760E+01  0.39965917300E+01  0.15000000000E+00 0. -1.
</event>
<event>
 5   0  0.6780500E+06  0.9118800E+02  0.7818608E-02  0.1180000E+00
       11   -1    0    0    0    0  0.00000000000E+00  0.00000000000E+00  0.39999999673E+01  0.40000000000E+01  0.51109989000E-03 0. -1.
     -623   -1    0    0    0    0  0.00000000000E+00  0.00000000000E+00  0.12525980253E-10  0.17130000000E+03  0.17130000000E+03 0. -1.
       11    1    1    2    0    0  0.32412737429E-02  0.19849575762E-02  0.29787831574E+00  0.29790300120E+00  0.51109989000E-03 0. -1.
     -623    1    1    2    0    0 -0.36152289911E-02 -0.14972861489E-02  0.30648425200E-02  0.17130000007E+03  0.17130000000E+03 0. -1.
      622    1    1    2    0    0  0.37395524826E-03 -0.48767142729E-03  0.36990568091E+01  0.37020969267E+01  0.15000000000E+00 0. -1.
</event>
<event>
 5   0  0.6780500E+06  0.9118800E+02  0.7818608E-02  0.1180000E+00
       11   -1    0    0    0    0  0.00000000000E+00  0.00000000000E+00  0.39999999673E+01  0.40000000000E+01  0.51109989000E-03 0.  1.
     -623   -1    0    0    0    0  0.00000000000E+00  0.00000000000E+00  0.12525980253E-10  0.17130000000E+03  0.17130000000E+03 0. -1.
       11    1    1    2    0    0  0.23493822485E-01  0.81597422645E-02  0.30015518743E+00  0.30118422742E+00  0.51109989000E-03 0.  1.
     -623    1    1    2    0    0 -0.14272749214E-02 -0.94225201725E-02  0.41381815274E-02  0.17130000032E+03  0.17130000000E+03 0. -1.
      622    1    1    2    0    0 -0.22066547564E-01  0.12627779080E-02  0.36957065984E+01  0.36988154575E+01  0.15000000000E+00 0.  1.
</event>
<event>
 5   0  0.6780500E+06  0.9118800E+02  0.7818608E-02  0.1180000E+00
       11   -1    0    0    0    0  0.00000000000E+00  0.00000000000E+00  0.39999999673E+01  0.40000000000E+01  0.51109989000E-03 0. -1.
     -623   -1    0    0    0    0  0.00000000000E+00  0.00000000000E+00  0.12525980253E-10  0.17130000000E+03  0.17130000000E+03 0.  1.
       11    1    1    2    0    0 -0.29321931060E-02  0.34496416663E-02  0.58849454750E-02  0.74425526789E-02  0.51109989000E-03 0. -1.
     -623    1    1    2    0    0  0.66718603550E-03 -0.10786249934E-02  0.43777205054E-02  0.17130000006E+03  0.17130000000E+03 0.  1.
      622    1    1    2    0    0  0.22650070705E-02 -0.23710166728E-02  0.39897373015E+01  0.39925573868E+01  0.15000000000E+00 0. -1.
</event>
<event>
 5   0  0.6780500E+06  0.9118800E+02  0.7818608E-02  0.1180000E+00
       11   -1    0    0    0    0  0.00000000000E+00  0.00000000000E+00  0.39999999673E+01  0.40000000000E+01  0.51109989000E-03 0.  1.
     -623   -1    0    0    0    0  0.00000000000E+00  0.00000000000E+00  0.12525980253E-10  0.17130000000E+03  0.17130000000E+03 0.  1.
       11    1    1    2    0    0  0.37406138093E-01  0.20149856904E-01  0.29556862447E+00  0.29860728205E+00  0.51109989000E-03 0.  1.
     -623    1    1    2    0    0 -0.21225210349E-01 -0.25288095503E-01  0.61215307490E-02  0.17130000329E+03  0.17130000000E+03 0.  1.
      622    1    1    2    0    0 -0.16180927744E-01  0.51382385992E-02  0.36983098121E+01  0.37013894270E+01  0.15000000000E+00 0.  1.
</event>
<event>
 5   0  0.6780500E+06  0.9118800E+02  0.7818608E-02  0.1180000E+00
       11   -1    0    0    0    0  0.00000000000E+00  0.00000000000E+00  0.39999999673E+01  0.40000000000E+01  0.51109989000E-03 0. -1.
     -623   -1    0    0    0    0  0.00000000000E+00  0.00000000000E+00  0.12525980253E-10  0.17130000000E+03  0.17130000000E+03 0. -1.
       11    1    1    2    0    0 -0.59547659288E-01 -0.88019620408E-02  0.78309666177E+00  0.78540692711E+00  0.51109989000E-03 0. -1.
     -623    1    1    2    0    0  0.92773200024E-02 -0.11238414919E-01  0.62686054420E-02  0.17130000073E+03  0.17130000000E+03 0. -1.
      622    1    1    2    0    0  0.50270339286E-01  0.20040376959E-01  0.32106347001E+01  0.32145923383E+01  0.15000000000E+00 0. -1.
</event>
<event>
 5   0  0.6780500E+06  0.9118800E+02  0.7818608E-02  0.1180000E+00
       11   -1    0    0    0    0  0.00000000000E+00  0.00000000000E+00  0.39999999673E+01  0.40000000000E+01  0.51109989000E-03 0. -1.
     -623   -1    0    0    0    0  0.00000000000E+00  0.00000000000E+00  0.12525980253E-10  0.17130000000E+03  0.17130000000E+03 0.  1.
       11    1    1    2    0    0  0.16761749087E-02  0.14824706272E-01  0.18333529795E-01  0.23642356401E-01  0.51109989000E-03 0. -1.
     -623    1    1    2    0    0  0.76199821557E-02 -0.32187255664E-01  0.81912232352E-02  0.17130000339E+03  0.17130000000E+03 0.  1.
      622    1    1    2    0    0 -0.92961570645E-02  0.17362549392E-01  0.39734752144E+01  0.39763542543E+01  0.15000000000E+00 0. -1.
</event>
<event>
 5   0  0.6780500E+06  0.9118800E+02  0.7818608E-02  0.1180000E+00
       11   -1    0    0    0    0  0.00000000000E+00  0.00000000000E+00  0.39999999673E+01  0.40000000000E+01  0.51109989000E-03 0.  1.
     -623   -1    0    0    0    0  0.00000000000E+00  0.00000000000E+00  0.12525980253E-10  0.17130000000E+03  0.17130000000E+03 0. -1.
       11    1    1    2    0    0  0.58736109682E-02  0.15228655325E-01  0.59800481749E-01  0.61990080572E-01  0.51109989000E-03 0.  1.
     -623    1    1    2    0    0  0.97951391898E-02 -0.10150477281E-02  0.51045997455E-02  0.17130000036E+03  0.17130000000E+03 0. -1.
      622    1    1    2    0    0 -0.15668750158E-01 -0.14213607597E-01  0.39350948860E+01  0.39380095604E+01  0.15000000000E+00 0.  1.
</event>
<event>
 5   0  0.6780500E+06  0.9118800E+02  0.7818608E-02  0.1180000E+00
       11   -1    0    0    0    0  0.00000000000E+00  0.00000000000E+00  0.39999999673E+01  0.40000000000E+01  0.51109989000E-03 0. -1.
     -623   -1    0    0    0    0  0.00000000000E+00  0.00000000000E+00  0.12525980253E-10  0.17130000000E+03  0.17130000000E+03 0.  1.
       11    1    1    2    0    0 -0.60157216460E-02  0.12629104456E-01  0.13595422795E+00  0.13667295455E+00  0.51109989000E-03 0. -1.
     -623    1    1    2    0    0 -0.49630216527E-02 -0.38236758633E-02  0.36575976863E-02  0.17130000015E+03  0.17130000000E+03 0.  1.
      622    1    1    2    0    0  0.10978743299E-01 -0.88054285925E-02  0.38603881417E+01  0.38633268918E+01  0.15000000000E+00 0. -1.
</event>
<event>
 5   0  0.6780500E+06  0.9118800E+02  0.7818608E-02  0.1180000E+00
       11   -1    0    0    0    0  0.00000000000E+00  0.00000000000E+00  0.39999999673E+01  0.40000000000E+01  0.51109989000E-03 0. -1.
     -623   -1    0    0    0    0  0.00000000000E+00  0.00000000000E+00  0.12525980253E-10  0.17130000000E+03  0.17130000000E+03 0.  1.
       11    1    1    2    0    0  0.12331322185E-01  0.10657591628E-01  0.11960240310E+00  0.12070891358E+00  0.51109989000E-03 0. -1.
     -623    1    1    2    0    0 -0.76701108056E-02 -0.14367879505E-01  0.40129770293E-02  0.17130000082E+03  0.17130000000E+03 0.  1.
      622    1    1    2    0    0 -0.46612113797E-02  0.37102878766E-02  0.38763845873E+01  0.38792902652E+01  0.15000000000E+00 0. -1.
</event>
<event>
 5   0  0.6780500E+06  0.9118800E+02  0.7818608E-02  0.1180000E+00
       11   -1    0    0    0    0  0.00000000000E+00  0.00000000000E+00  0.39999999673E+01  0.40000000000E+01  0.51109989000E-03 0.  1.
     -623   -1    0    0    0    0  0.00000000000E+00  0.00000000000E+00  0.12525980253E-10  0.17130000000E+03  0.17130000000E+03 0.  1.
       11    1    1    2    0    0 -0.26285172404E-02 -0.38598317523E-01  0.84054794421E+00  0.84143796382E+00  0.51109989000E-03 0.  1.
     -623    1    1    2    0    0 -0.20030391534E-02 -0.56963068336E-02  0.47682704049E-02  0.17130000017E+03  0.17130000000E+03 0.  1.
      622    1    1    2    0    0  0.46315563938E-02  0.44294624356E-01  0.31546837527E+01  0.31585618634E+01  0.15000000000E+00 0.  0.
</event>
<event>
 5   0  0.6780500E+06  0.9118800E+02  0.7818608E-02  0.1180000E+00
       11   -1    0    0    0    0  0.00000000000E+00  0.00000000000E+00  0.39999999673E+01  0.40000000000E+01  0.51109989000E-03 0.  1.
     -623   -1    0    0    0    0  0.00000000000E+00  0.00000000000E+00  0.12525980253E-10  0.17130000000E+03  0.17130000000E+03 0. -1.
       11    1    1    2    0    0  0.32789418483E-01  0.93645968575E-02  0.16209479059E+00  0.16564366574E+00  0.51109989000E-03 0.  1.
     -623    1    1    2    0    0 -0.37593768840E-02  0.19901705507E-01  0.67070548573E-02  0.17130000133E+03  0.17130000000E+03 0. -1.
      622    1    1    2    0    0 -0.29030041599E-01 -0.29266302365E-01  0.38311981219E+01  0.38343550056E+01  0.15000000000E+00 0.  1.
</event>
<event>
 5   0  0.6780500E+06  0.9118800E+02  0.7818608E-02  0.1180000E+00
       11   -1    0    0    0    0  0.00000000000E+00  0.00000000000E+00  0.39999999673E+01  0.40000000000E+01  0.51109989000E-03 0.  1.
     -623   -1    0    0    0    0  0.00000000000E+00  0.00000000000E+00  0.12525980253E-10  0.17130000000E+03  0.17130000000E+03 0. -1.
       11    1    1    2    0    0  0.86390606385E-03 -0.85304536594E-02  0.55246995310E-01  0.55910702796E-01  0.51109989000E-03 0.  1.
     -623    1    1    2    0    0  0.15006124006E-01  0.12169532354E-02  0.35565129641E-02  0.17130000070E+03  0.17130000000E+03 0. -1.
      622    1    1    2    0    0 -0.15870030071E-01  0.73135004240E-02  0.39411964592E+01  0.39440885988E+01  0.15000000000E+00 0.  1.
</event>
<event>
 5   0  0.6780500E+06  0.9118800E+02  0.7818608E-02  0.1180000E+00
       11   -1    0    0    0    0  0.00000000000E+00  0.00000000000E+00  0.39999999673E+01  0.40000000000E+01  0.51109989000E-03 0. -1.
     -623   -1    0    0    0    0  0.00000000000E+00  0.00000000000E+00  0.12525980253E-10  0.17130000000E+03  0.17130000000E+03 0. -1.
       11    1    1    2    0    0 -0.25928909146E-02 -0.48007790301E-03  0.94039984020E-02  0.97800800015E-02  0.51109989000E-03 0. -1.
     -623    1    1    2    0    0  0.87984278711E-03  0.21597247586E-02  0.31972066804E-02  0.17130000005E+03  0.17130000000E+03 0. -1.
      622    1    1    2    0    0  0.17130481275E-02 -0.16796468556E-02  0.39873987623E+01  0.39902198743E+01  0.15000000000E+00 0. -1.
</event>
<event>
 5   0  0.6780500E+06  0.9118800E+02  0.7818608E-02  0.1180000E+00
       11   -1    0    0    0    0  0.00000000000E+00  0.00000000000E+00  0.39999999673E+01  0.40000000000E+01  0.51109989000E-03 0. -1.
     -623   -1    0    0    0    0  0.00000000000E+00  0.00000000000E+00  0.12525980253E-10  0.17130000000E+03  0.17130000000E+03 0. -1.
       11    1    1    2    0    0  0.27837549847E-02  0.31540814074E-01  0.21737908005E+00  0.21967361679E+00  0.51109989000E-03 0. -1.
     -623    1    1    2    0    0 -0.20043434466E-01 -0.30883952461E-02  0.54194891104E-02  0.17130000129E+03  0.17130000000E+03 0. -1.
      622    1    1    2    0    0  0.17259679481E-01 -0.28452418828E-01  0.37772013982E+01  0.37803250970E+01  0.15000000000E+00 0. -1.
</event>
<event>
 5   0  0.6780500E+06  0.9118800E+02  0.7818608E-02  0.1180000E+00
       11   -1    0    0    0    0  0.00000000000E+00  0.00000000000E+00  0.39999999673E+01  0.40000000000E+01  0.51109989000E-03 0.  1.
     -623   -1    0    0    0    0  0.00000000000E+00  0.00000000000E+00  0.12525980253E-10  0.17130000000E+03  0.17130000000E+03 0.  1.
       11    1    1    2    0    0  0.18914114174E-02 -0.68629749653E-01  0.44587601334E+00  0.45113113445E+00  0.51109989000E-03 0.  1.
     -623    1    1    2    0    0 -0.24328412072E-01  0.27774578805E-02  0.91110993213E-02  0.17130000199E+03  0.17130000000E+03 0.  1.
      622    1    1    2    0    0  0.22437000654E-01  0.65852291773E-01  0.35450128547E+01  0.35488668732E+01  0.15000000000E+00 0.  1.
</event>
<event>
 5   0  0.6780500E+06  0.9118800E+02  0.7818608E-02  0.1180000E+00
       11   -1    0    0    0    0  0.00000000000E+00  0.00000000000E+00  0.39999999673E+01  0.40000000000E+01  0.51109989000E-03 0. -1.
     -623   -1    0    0    0    0  0.00000000000E+00  0.00000000000E+00  0.12525980253E-10  0.17130000000E+03  0.17130000000E+03 0.  1.
       11    1    1    2    0    0  0.88110334722E-02 -0.11049943411E-01  0.16857755679E+00  0.16916970602E+00  0.51109989000E-03 0. -1.
     -623    1    1    2    0    0 -0.12505459163E-02  0.51689841856E-02  0.35420465139E-02  0.17130000012E+03  0.17130000000E+03 0.  1.
      622    1    1    2    0    0 -0.75604875559E-02  0.58809592255E-02  0.38278803640E+01  0.38308301747E+01  0.15000000000E+00 0. -1.
</event>
<event>
 5   0  0.6780500E+06  0.9118800E+02  0.7818608E-02  0.1180000E+00
       11   -1    0    0    0    0  0.00000000000E+00  0.00000000000E+00  0.39999999673E+01  0.40000000000E+01  0.51109989000E-03 0. -1.
     -623   -1    0    0    0    0  0.00000000000E+00  0.00000000000E+00  0.12525980253E-10  0.17130000000E+03  0.17130000000E+03 0.  1.
       11    1    1    2    0    0  0.22957051824E-02 -0.29315662329E-02  0.51867493800E-02  0.64053050454E-02  0.51109989000E-03 0. -1.
     -623    1    1    2    0    0 -0.91685232865E-03 -0.21668136138E-02  0.40400869598E-02  0.17130000006E+03  0.17130000000E+03 0.  1.
      622    1    1    2    0    0 -0.13788528538E-02  0.50983798467E-02  0.39907731310E+01  0.39935946312E+01  0.15000000000E+00 0. -1.
</event>
<event>
 5   0  0.6780500E+06  0.9118800E+02  0.7818608E-02  0.1180000E+00
       11   -1    0    0    0    0  0.00000000000E+00  0.00000000000E+00  0.39999999673E+01  0.40000000000E+01  0.51109989000E-03 0.  1.
     -623   -1    0    0    0    0  0.00000000000E+00  0.00000000000E+00  0.12525980253E-10  0.17130000000E+03  0.17130000000E+03 0.  1.
       11    1    1    2    0    0 -0.21418618476E-01 -0.89928367117E-01  0.76970415224E+00  0.77523584259E+00  0.51109989000E-03 0.  1.
     -623    1    1    2    0    0 -0.31275432155E-01  0.84239508736E-01  0.94820748617E-02  0.17130002383E+03  0.17130000000E+03 0.  1.
      622    1    1    2    0    0  0.52694050630E-01  0.56888583809E-02  0.32208137403E+01  0.32247403268E+01  0.15000000000E+00 0.  1.
</event>
<event>
 5   0  0.6780500E+06  0.9118800E+02  0.7818608E-02  0.1180000E+00
       11   -1    0    0    0    0  0.00000000000E+00  0.00000000000E+00  0.39999999673E+01  0.40000000000E+01  0.51109989000E-03 0. -1.
     -623   -1    0    0    0    0  0.00000000000E+00  0.00000000000E+00  0.12525980253E-10  0.17130000000E+03  0.17130000000E+03 0. -1.
       11    1    1    2    0    0  0.67402343727E-02  0.32644344678E-02  0.28742694158E-01  0.29706749762E-01  0.51109989000E-03 0. -1.
     -623    1    1    2    0    0  0.19393944722E-01 -0.13396103337E-01  0.38992584104E-02  0.17130000167E+03  0.17130000000E+03 0. -1.
      622    1    1    2    0    0 -0.26134179094E-01  0.10131668869E-01  0.39673580148E+01  0.39702915842E+01  0.15000000000E+00 0. -1.
</event>
<event>
 5   0  0.6780500E+06  0.9118800E+02  0.7818608E-02  0.1180000E+00
       11   -1    0    0    0    0  0.00000000000E+00  0.00000000000E+00  0.39999999673E+01  0.40000000000E+01  0.51109989000E-03 0. -1.
     -623   -1    0    0    0    0  0.00000000000E+00  0.00000000000E+00  0.12525980253E-10  0.17130000000E+03  0.17130000000E+03 0.  1.
       11    1    1    2    0    0 -0.40397275225E-01  0.49201402699E-01  0.10229284663E+01  0.10249076184E+01  0.51109989000E-03 0. -1.
     -623    1    1    2    0    0  0.50204342208E-02  0.85838900725E-02  0.65359334041E-02  0.17130000041E+03  0.17130000000E+03 0.  1.
      622    1    1    2    0    0  0.35376841004E-01 -0.57785292771E-01  0.29705355677E+01  0.29750919683E+01  0.15000000000E+00 0. -1.
</event>
<event>
 5   0  0.6780500E+06  0.9118800E+02  0.7818608E-02  0.1180000E+00
       11   -1    0    0    0    0  0.00000000000E+00  0.00000000000E+00  0.39999999673E+01  0.40000000000E+01  0.51109989000E-03 0.  1.
     -623   -1    0    0    0    0  0.00000000000E+00  0.00000000000E+00  0.12525980253E-10  0.17130000000E+03  0.17130000000E+03 0.  1.
       11    1    1    2    0    0 -0.29992983088E-01  0.42354468209E-01  0.72563918519E+00  0.72749293351E+00  0.51109989000E-03 0.  1.
     -623    1    1    2    0    0  0.27366094657E-02  0.14047327603E-02  0.56999063415E-02  0.17130000012E+03  0.17130000000E+03 0.  1.
      622    1    1    2    0    0  0.27256373622E-01 -0.43759200969E-01  0.32686608759E+01  0.32725069441E+01  0.15000000000E+00 0.  1.
</event>
<event>
 5   0  0.6780500E+06  0.9118800E+02  0.7818608E-02  0.1180000E+00
       11   -1    0    0    0    0  0.00000000000E+00  0.00000000000E+00  0.39999999673E+01  0.40000000000E+01  0.51109989000E-03 0. -1.
     -623   -1    0    0    0    0  0.00000000000E+00  0.00000000000E+00  0.12525980253E-10  0.17130000000E+03  0.17130000000E+03 0. -1.
       11    1    1    2    0    0 -0.52971671095E-03  0.32134737494E-02  0.40222264836E-02  0.52006290307E-02  0.51109989000E-03 0. -1.
     -623    1    1    2    0    0 -0.32637878468E-03 -0.85177011898E-02  0.39993993596E-02  0.17130000026E+03  0.17130000000E+03 0. -1.
      622    1    1    2    0    0  0.85609549563E-03  0.53042274404E-02  0.39919783415E+01  0.39947991122E+01  0.15000000000E+00 0. -1.
</event>
<event>
 5   0  0.6780500E+06  0.9118800E+02  0.7818608E-02  0.1180000E+00
       11   -1    0    0    0    0  0.00000000000E+00  0.00000000000E+00  0.39999999673E+01  0.40000000000E+01  0.51109989000E-03 0.  1.
     -623   -1    0    0    0    0  0.00000000000E+00  0.00000000000E+00  0.12525980253E-10  0.17130000000E+03  0.17130000000E+03 0. -1.
       11    1    1    2    0    0  0.58278774081E-01 -0.76603868409E-01  0.67221140477E+00  0.67906774485E+00  0.51109989000E-03 0.  1.
     -623    1    1    2    0    0 -0.55013089571E-01 -0.28493464375E-02  0.11208049454E-01  0.17130000922E+03  0.17130000000E+03 0. -1.
      622    1    1    2    0    0 -0.32656845097E-02  0.79453214847E-01  0.33165805131E+01  0.33209230310E+01  0.15000000000E+00 0.  0.
</event>
<event>
 5   0  0.6780500E+06  0.9118800E+02  0.7818608E-02  0.1180000E+00
       11   -1    0    0    0    0  0.00000000000E+00  0.00000000000E+00  0.39999999673E+01  0.40000000000E+01  0.51109989000E-03 0.  1.
     -623   -1    0    0    0    0  0.00000000000E+00  0.00000000000E+00  0.12525980253E-10  0.17130000000E+03  0.17130000000E+03 0.  1.
       11    1    1    2    0    0 -0.14137268628E-01 -0.17732102494E-02  0.56431777065E-01  0.58204925262E-01  0.51109989000E-03 0.  1.
     -623    1    1    2    0    0  0.25887968616E-02  0.11919588729E-01  0.46586746963E-02  0.17130000050E+03  0.17130000000E+03 0.  1.
      622    1    1    2    0    0  0.11548471767E-01 -0.10146378479E-01  0.39389095156E+01  0.39417945772E+01  0.15000000000E+00 0.  1.
</event>
<event>
 5   0  0.6780500E+06  0.9118800E+02  0.7818608E-02  0.1180000E+00
       11   -1    0    0    0    0  0.00000000000E+00  0.00000000000E+00  0.39999999673E+01  0.40000000000E+01  0.51109989000E-03 0. -1.
     -623   -1    0    0    0    0  0.00000000000E+00  0.00000000000E+00  0.12525980253E-10  0.17130000000E+03  0.17130000000E+03 0.  1.
       11    1    1    2    0    0  0.16935830178E-01 -0.55929894966E-02  0.46571789982E-01  0.49872805413E-01  0.51109989000E-03 0. -1.
     -623    1    1    2    0    0 -0.87733227598E-02 -0.80646639281E-02  0.61826137941E-02  0.17130000053E+03  0.17130000000E+03 0.  1.
      622    1    1    2    0    0 -0.81625074184E-02  0.13657653425E-01  0.39472455636E+01  0.39501266685E+01  0.15000000000E+00 0. -1.
</event>
<event>
 5   0  0.6780500E+06  0.9118800E+02  0.7818608E-02  0.1180000E+00
       11   -1    0    0    0    0  0.00000000000E+00  0.00000000000E+00  0.39999999673E+01  0.40000000000E+01  0.51109989000E-03 0. -1.
     -623   -1    0    0    0    0  0.00000000000E+00  0.00000000000E+00  0.12525980253E-10  0.17130000000E+03  0.17130000000E+03 0. -1.
       11    1    1    2    0    0 -0.16702621161E-02  0.89006851327E-02  0.78011175823E-01  0.78536722282E-01  0.51109989000E-03 0. -1.
     -623    1    1    2    0    0  0.71921731878E-02 -0.67911588012E-02  0.34001690516E-02  0.17130000032E+03  0.17130000000E+03 0. -1.
      622    1    1    2    0    0 -0.55219110717E-02 -0.21095263315E-02  0.39185886225E+01  0.39214629584E+01  0.15000000000E+00 0. -1.
</event>
<event>
 5   0  0.6780500E+06  0.9118800E+02  0.7818608E-02  0.1180000E+00
       11   -1    0    0    0    0  0.00000000000E+00  0.00000000000E+00  0.39999999673E+01  0.40000000000E+01  0.51109989000E-03 0. -1.
     -623   -1    0    0    0    0  0.00000000000E+00  0.00000000000E+00  0.12525980253E-10  0.17130000000E+03  0.17130000000E+03 0.  1.
       11    1    1    2    0    0  0.10583239403E-01 -0.10269471704E-01  0.13609503179E+00  0.13689260720E+00  0.51109989000E-03 0. -1.
     -623    1    1    2    0    0 -0.13884628107E-01  0.25062707312E-01  0.37430011209E-02  0.17130000244E+03  0.17130000000E+03 0.  1.
      622    1    1    2    0    0  0.33013887043E-02 -0.14793235609E-01  0.38601619346E+01  0.38631049559E+01  0.15000000000E+00 0. -1.
</event>
<event>
 5   0  0.6780500E+06  0.9118800E+02  0.7818608E-02  0.1180000E+00
       11   -1    0    0    0    0  0.00000000000E+00  0.00000000000E+00  0.39999999673E+01  0.40000000000E+01  0.51109989000E-03 0. -1.
     -623   -1    0    0    0    0  0.00000000000E+00  0.00000000000E+00  0.12525980253E-10  0.17130000000E+03  0.17130000000E+03 0.  1.
       11    1    1    2    0    0 -0.68261271862E-02  0.11528333716E-01  0.62739686846E-01  0.64156278089E-01  0.51109989000E-03 0. -1.
     -623    1    1    2    0    0 -0.14408374739E-02  0.41803617497E-02  0.43161135766E-02  0.17130000011E+03  0.17130000000E+03 0.  1.
      622    1    1    2    0    0  0.82669646600E-02 -0.15708695466E-01  0.39329441669E+01  0.39358436105E+01  0.15000000000E+00 0. -1.
</event>
<event>
 5   0  0.6780500E+06  0.9118800E+02  0.7818608E-02  0.1180000E+00
       11   -1    0    0    0    0  0.00000000000E+00  0.00000000000E+00  0.39999999673E+01  0.40000000000E+01  0.51109989000E-03 0.  1.
     -623   -1    0    0    0    0  0.00000000000E+00  0.00000000000E+00  0.12525980253E-10  0.17130000000E+03  0.17130000000E+03 0. -1.
       11    1    1    2    0    0 -0.26510202029E-01 -0.14482557701E-01  0.68647074728E+00  0.68713527299E+00  0.51109989000E-03 0.  1.
     -623    1    1    2    0    0  0.36277683296E-02 -0.39905146957E-02  0.41928913239E-02  0.17130000014E+03  0.17130000000E+03 0. -1.
      622    1    1    2    0    0  0.22882433699E-01  0.18473072397E-01  0.33093363288E+01  0.33128645908E+01  0.15000000000E+00 0.  1.
</event>
<event>
 5   0  0.6780500E+06  0.9118800E+02  0.7818608E-02  0.1180000E+00
       11   -1    0    0    0    0  0.00000000000E+00  0.00000000000E+00  0.39999999673E+01  0.40000000000E+01  0.51109989000E-03 0. -1.
     -623   -1    0    0    0    0  0.00000000000E+00  0.00000000000E+00  0.12525980253E-10  0.17130000000E+03  0.17130000000E+03 0.  1.
       11    1    1    2    0    0  0.25696493587E-03 -0.53473854049E-02  0.68130510992E-01  0.68342434203E-01  0.51109989000E-03 0. -1.
     -623    1    1    2    0    0  0.28838245851E-02  0.38503221485E-02  0.30759570051E-02  0.17130000010E+03  0.17130000000E+03 0.  1.
      622    1    1    2    0    0 -0.31407895211E-02  0.14970632564E-02  0.39287934995E+01  0.39316574707E+01  0.15000000000E+00 0. -1.
</event>
<event>
 5   0  0.6780500E+06  0.9118800E+02  0.7818608E-02  0.1180000E+00
       11   -1    0    0    0    0  0.00000000000E+00  0.00000000000E+00  0.39999999673E+01  0.40000000000E+01  0.51109989000E-03 0. -1.
     -623   -1    0    0    0    0  0.00000000000E+00  0.00000000000E+00  0.12525980253E-10  0.17130000000E+03  0.17130000000E+03 0. -1.
       11    1    1    2    0    0 -0.12825895362E-02  0.15912388226E-02  0.11253377304E-01  0.11448877690E-01  0.51109989000E-03 0. -1.
     -623    1    1    2    0    0 -0.13264195135E-02 -0.22127086325E-02  0.30179872672E-02  0.17130000005E+03  0.17130000000E+03 0. -1.
      622    1    1    2    0    0  0.26090090497E-02  0.62146980985E-03  0.39857286028E+01  0.39885510763E+01  0.15000000000E+00 0. -1.
</event>
<event>
 5   0  0.6780500E+06  0.9118800E+02  0.7818608E-02  0.1180000E+00
       11   -1    0    0    0    0  0.00000000000E+00  0.00000000000E+00  0.39999999673E+01  0.40000000000E+01  0.51109989000E-03 0.  1.
     -623   -1    0    0    0    0  0.00000000000E+00  0.00000000000E+00  0.12525980253E-10  0.17130000000E+03  0.17130000000E+03 0. -1.
       11    1    1    2    0    0  0.38311568715E-02  0.10354029269E-01  0.52357897201E-01  0.53511627779E-01  0.51109989000E-03 0.  1.
     -623    1    1    2    0    0 -0.51745119195E-02 -0.39628118941E-02  0.40109425656E-02  0.17130000017E+03  0.17130000000E+03 0. -1.
      622    1    1    2    0    0  0.13433550481E-02 -0.63912173751E-02  0.39436311276E+01  0.39464882013E+01  0.15000000000E+00 0.  1.
</event>
<event>
 5   0  0.6780500E+06  0.9118800E+02  0.7818608E-02  0.1180000E+00
       11   -1    0    0    0    0  0.00000000000E+00  0.00000000000E+00  0.39999999673E+01  0.40000000000E+01  0.51109989000E-03 0.  1.
     -623   -1    0    0    0    0  0.00000000000E+00  0.00000000000E+00  0.12525980253E-10  0.17130000000E+03  0.17130000000E+03 0. -1.
       11    1    1    2    0    0  0.16890113014E-01  0.73020088496E-02  0.54979488578E-01  0.57979312139E-01  0.51109989000E-03 0.  1.
     -623    1    1    2    0    0  0.12104875087E-02 -0.37407299132E-02  0.58980342749E-02  0.17130000015E+03  0.17130000000E+03 0. -1.
      622    1    1    2    0    0 -0.18100600523E-01 -0.35612789364E-02  0.39391224445E+01  0.39420205412E+01  0.15000000000E+00 0.  1.
</event>
<event>
 5   0  0.6780500E+06  0.9118800E+02  0.7818608E-02  0.1180000E+00
       11   -1    0    0    0    0  0.00000000000E+00  0.00000000000E+00  0.39999999673E+01  0.40000000000E+01  0.51109989000E-03 0.  1.
     -623   -1    0    0    0    0  0.00000000000E+00  0.00000000000E+00  0.12525980253E-10  0.17130000000E+03  0.17130000000E+03 0. -1.
       11    1    1    2    0    0  0.16558607354E-02 -0.25739606475E-02  0.44589837221E-03  0.31348359839E-02  0.51109989000E-03 0.  1.
     -623    1    1    2    0    0  0.16550685903E-01 -0.27747559034E-02  0.55505934825E-02  0.17130000091E+03  0.17130000000E+03 0. -1.
      622    1    1    2    0    0 -0.18206546639E-01  0.53487165510E-02  0.39940034755E+01  0.39968642521E+01  0.15000000000E+00 0.  1.
</event>
<event>
 5   0  0.6780500E+06  0.9118800E+02  0.7818608E-02  0.1180000E+00
       11   -1    0    0    0    0  0.00000000000E+00  0.00000000000E+00  0.39999999673E+01  0.40000000000E+01  0.51109989000E-03 0. -1.
     -623   -1    0    0    0    0  0.00000000000E+00  0.00000000000E+00  0.12525980253E-10  0.17130000000E+03  0.17130000000E+03 0. -1.
       11    1    1    2    0    0 -0.83010805719E-03 -0.20963696682E-01  0.68420599250E-01  0.71566788954E-01  0.51109989000E-03 0. -1.
     -623    1    1    2    0    0  0.35032862552E-02 -0.25944861188E-02  0.60827020232E-02  0.17130000016E+03  0.17130000000E+03 0. -1.
      622    1    1    2    0    0 -0.26731781980E-02  0.23558182801E-01  0.39254966661E+01  0.39284330476E+01  0.15000000000E+00 0. -1.
</event>
<event>
 5   0  0.6780500E+06  0.9118800E+02  0.7818608E-02  0.1180000E+00
       11   -1    0    0    0    0  0.00000000000E+00  0.00000000000E+00  0.39999999673E+01  0.40000000000E+01  0.51109989000E-03 0. -1.
     -623   -1    0    0    0    0  0.00000000000E+00  0.00000000000E+00  0.12525980253E-10  0.17130000000E+03  0.17130000000E+03 0. -1.
       11    1    1    2    0    0 -0.30466427088E-01  0.19219861164E-02  0.53202594281E+00  0.53290126877E+00  0.51109989000E-03 0. -1.
     -623    1    1    2    0    0  0.17052210139E-01  0.87981173837E-02  0.41652903542E-02  0.17130000113E+03  0.17130000000E+03 0. -1.
      622    1    1    2    0    0  0.13414216949E-01 -0.10720103500E-01  0.34638087342E+01  0.34670976059E+01  0.15000000000E+00 0. -1.
</event>
<event>
 5   0  0.6780500E+06  0.9118800E+02  0.7818608E-02  0.1180000E+00
       11   -1    0    0    0    0  0.00000000000E+00  0.00000000000E+00  0.39999999673E+01  0.40000000000E+01  0.51109989000E-03 0.  1.
     -623   -1    0    0    0    0  0.00000000000E+00  0.00000000000E+00  0.12525980253E-10  0.17130000000E+03  0.17130000000E+03 0. -1.
       11    1    1    2    0    0  0.35088544255E-03  0.10562088708E-01  0.80563569248E-01  0.81255342910E-01  0.51109989000E-03 0.  1.
     -623    1    1    2    0    0 -0.12324437998E-02 -0.28705290552E-02  0.35713295471E-02  0.17130000007E+03  0.17130000000E+03 0. -1.
      622    1    1    2    0    0  0.88155835730E-03 -0.76915596532E-02  0.39158650686E+01  0.39187445914E+01  0.15000000000E+00 0.  1.
</event>
<event>
 5   0  0.6780500E+06  0.9118800E+02  0.7818608E-02  0.1180000E+00
       11   -1    0    0    0    0  0.00000000000E+00  0.00000000000E+00  0.39999999673E+01  0.40000000000E+01  0.51109989000E-03 0.  1.
     -623   -1    0    0    0    0  0.00000000000E+00  0.00000000000E+00  0.12525980253E-10  0.17130000000E+03  0.17130000000E+03 0.  1.
       11    1    1    2    0    0 -0.31878586633E-01  0.30563710947E-02  0.59975771849E+00  0.60061232738E+00  0.51109989000E-03 0.  1.
     -623    1    1    2    0    0 -0.97734444688E-02 -0.34294522378E-01  0.45685033998E-02  0.17130000377E+03  0.17130000000E+03 0.  1.
      622    1    1    2    0    0  0.41652031101E-01  0.31238151283E-01  0.33956737455E+01  0.33993839000E+01  0.15000000000E+00 0.  1.
</event>
<event>
 5   0  0.6780500E+06  0.9118800E+02  0.7818608E-02  0.1180000E+00
       11   -1    0    0    0    0  0.00000000000E+00  0.00000000000E+00  0.39999999673E+01  0.40000000000E+01  0.51109989000E-03 0. -1.
     -623   -1    0    0    0    0  0.00000000000E+00  0.00000000000E+00  0.12525980253E-10  0.17130000000E+03  0.17130000000E+03 0. -1.
       11    1    1    2    0    0  0.88739746087E-03  0.36832074166E-02  0.45195768389E-02  0.59195682328E-02  0.51109989000E-03 0. -1.
     -623    1    1    2    0    0 -0.18283604044E-03 -0.31228412794E-02  0.42178030615E-02  0.17130000008E+03  0.17130000000E+03 0. -1.
      622    1    1    2    0    0 -0.70456142043E-03 -0.56036613716E-03  0.39912625875E+01  0.39940803513E+01  0.15000000000E+00 0. -1.
</event>
<event>
 5   0  0.6780500E+06  0.9118800E+02  0.7818608E-02  0.1180000E+00
       11   -1    0    0    0    0  0.00000000000E+00  0.00000000000E+00  0.39999999673E+01  0.40000000000E+01  0.51109989000E-03 0. -1.
     -623   -1    0    0    0    0  0.00000000000E+00  0.00000000000E+00  0.12525980253E-10  0.17130000000E+03  0.17130000000E+03 0.  1.
       11    1    1    2    0    0  0.45635953618E-02  0.62875782233E-02  0.10546373035E-01  0.13109052210E-01  0.51109989000E-03 0. -1.
     -623    1    1    2    0    0 -0.39916462323E-02 -0.65236634433E-02  0.53856970276E-02  0.17130000026E+03  0.17130000000E+03 0.  1.
      622    1    1    2    0    0 -0.57194912951E-03  0.23608522002E-03  0.39840678973E+01  0.39868906924E+01  0.15000000000E+00 0. -1.
</event>
<event>
 5   0  0.6780500E+06  0.9118800E+02  0.7818608E-02  0.1180000E+00
       11   -1    0    0    0    0  0.00000000000E+00  0.00000000000E+00  0.39999999673E+01  0.40000000000E+01  0.51109989000E-03 0.  1.
     -623   -1    0    0    0    0  0.00000000000E+00  0.00000000000E+00  0.12525980253E-10  0.17130000000E+03  0.17130000000E+03 0.  1.
       11    1    1    2    0    0 -0.12310059402E-01  0.13136765847E-01  0.31286596054E+00  0.31338392215E+00  0.51109989000E-03 0.  1.
     -623    1    1    2    0    0  0.98074328167E-02  0.10583343491E-01  0.36486421715E-02  0.17130000065E+03  0.17130000000E+03 0.  1.
      622    1    1    2    0    0  0.25026265848E-02 -0.23720109338E-01  0.36834853647E+01  0.36866154313E+01  0.15000000000E+00 0.  1.
</event>
<event>
 5   0  0.6780500E+06  0.9118800E+02  0.7818608E-02  0.1180000E+00
       11   -1    0    0    0    0  0.00000000000E+00  0.00000000000E+00  0.39999999673E+01  0.40000000000E+01  0.51109989000E-03 0. -1.
     -623   -1    0    0    0    0  0.00000000000E+00  0.00000000000E+00  0.12525980253E-10  0.17130000000E+03  0.17130000000E+03 0. -1.
       11    1    1    2    0    0  0.29306113964E-02 -0.14157284149E-01  0.22344356601E-01  0.26618577584E-01  0.51109989000E-03 0. -1.
     -623    1    1    2    0    0 -0.51662522876E-02 -0.52937483702E-02  0.71551220781E-02  0.17130000031E+03  0.17130000000E+03 0. -1.
      622    1    1    2    0    0  0.22356408912E-02  0.19451032519E-01  0.39705004887E+01  0.39733811133E+01  0.15000000000E+00 0. -1.
</event>
<event>
 5   0  0.6780500E+06  0.9118800E+02  0.7818608E-02  0.1180000E+00
       11   -1    0    0    0    0  0.00000000000E+00  0.00000000000E+00  0.39999999673E+01  0.40000000000E+01  0.51109989000E-03 0. -1.
     -623   -1    0    0    0    0  0.00000000000E+00  0.00000000000E+00  0.12525980253E-10  0.17130000000E+03  0.17130000000E+03 0.  1.
       11    1    1    2    0    0  0.35692488236E-01  0.18412916079E-01  0.17412199816E+00  0.17869448973E+00  0.51109989000E-03 0. -1.
     -623    1    1    2    0    0  0.10743577880E-01 -0.54408016020E-02  0.78226240663E-02  0.17130000060E+03  0.17130000000E+03 0.  1.
      622    1    1    2    0    0 -0.46436066116E-01 -0.12972114477E-01  0.38180553451E+01  0.38213049084E+01  0.15000000000E+00 0. -1.
</event>
<event>
 5   0  0.6780500E+06  0.9118800E+02  0.7818608E-02  0.1180000E+00
       11   -1    0    0    0    0  0.00000000000E+00  0.00000000000E+00  0.39999999673E+01  0.40000000000E+01  0.51109989000E-03 0.  1.
     -623   -1    0    0    0    0  0.00000000000E+00  0.00000000000E+00  0.12525980253E-10  0.17130000000E+03  0.17130000000E+03 0.  1.
       11    1    1    2    0    0  0.11809680039E-01  0.82917868078E-02  0.64906169781E+00  0.64922228171E+00  0.51109989000E-03 0.  1.
     -623    1    1    2    0    0 -0.14915479732E-01 -0.65188874164E-02  0.35223852311E-02  0.17130000081E+03  0.17130000000E+03 0.  1.
      622    1    1    2    0    0  0.31057996927E-02 -0.17728993914E-02  0.33474158843E+01  0.33507769087E+01  0.15000000000E+00 0.  1.
</event>
<event>
 5   0  0.6780500E+06  0.9118800E+02  0.7818608E-02  0.1180000E+00
       11   -1    0    0    0    0  0.00000000000E+00  0.00000000000E+00  0.39999999673E+01  0.40000000000E+01  0.51109989000E-03 0.  1.
     -623   -1    0    0    0    0  0.00000000000E+00  0.00000000000E+00  0.12525980253E-10  0.17130000000E+03  0.17130000000E+03 0.  1.
       11    1    1    2    0    0  0.41661221060E-02 -0.72410432960E-02  0.90197639259E-01  0.90585123673E-01  0.51109989000E-03 0.  1.
     -623    1    1    2    0    0 -0.15567445595E-01  0.34286879799E-03  0.32896480004E-02  0.17130000074E+03  0.17130000000E+03 0.  1.
      622    1    1    2    0    0  0.11401323489E-01  0.68981744980E-02  0.39065126801E+01  0.39094141370E+01  0.15000000000E+00 0.  1.
</event>
<event>
 5   0  0.6780500E+06  0.9118800E+02  0.7818608E-02  0.1180000E+00
       11   -1    0    0    0    0  0.00000000000E+00  0.00000000000E+00  0.39999999673E+01  0.40000000000E+01  0.51109989000E-03 0.  1.
     -623   -1    0    0    0    0  0.00000000000E+00  0.00000000000E+00  0.12525980253E-10  0.17130000000E+03  0.17130000000E+03 0. -1.
       11    1    1    2    0    0 -0.36139015129E-01  0.39666744572E-02  0.22424300071E+00  0.22717162567E+00  0.51109989000E-03 0.  1.
     -623    1    1    2    0    0  0.61947763834E-01 -0.30961870243E-01  0.61107426892E-02  0.17130001411E+03  0.17130000000E+03 0. -1.
      622    1    1    2    0    0 -0.25808748706E-01  0.26995195786E-01  0.37696462240E+01  0.37728142661E+01  0.15000000000E+00 0.  1.
</event>
<event>
 5   0  0.6780500E+06  0.9118800E+02  0.7818608E-02  0.1180000E+00
       11   -1    0    0    0    0  0.00000000000E+00  0.00000000000E+00  0.39999999673E+01  0.40000000000E+01  0.51109989000E-03 0.  1.
     -623   -1    0    0    0    0  0.00000000000E+00  0.00000000000E+00  0.12525980253E-10  0.17130000000E+03  0.17130000000E+03 0. -1.
       11    1    1    2    0    0  0.30718389825E-01 -0.16314594691E-01  0.18791622813E+00  0.19110875304E+00  0.51109989000E-03 0.  1.
     -623    1    1    2    0    0 -0.38329879409E-01  0.59764913080E-02  0.61734130538E-02  0.17130000450E+03  0.17130000000E+03 0. -1.
      622    1    1    2    0    0  0.76114895843E-02  0.10338103383E-01  0.38059103262E+01  0.38088867431E+01  0.15000000000E+00 0.  0.
</event>
<event>
 5   0  0.6780500E+06  0.9118800E+02  0.7818608E-02  0.1180000E+00
       11   -1    0    0    0    0  0.00000000000E+00  0.00000000000E+00  0.39999999673E+01  0.40000000000E+01  0.51109989000E-03 0.  1.
     -623   -1    0    0    0    0  0.00000000000E+00  0.00000000000E+00  0.12525980253E-10  0.17130000000E+03  0.17130000000E+03 0.  1.
       11    1    1    2    0    0  0.21175498897E-02  0.72114451484E-02 -0.25565982908E-03  0.75376086201E-02  0.51109989000E-03 0.  1.
     -623    1    1    2    0    0 -0.20236852565E-01 -0.66260658023E-02  0.10654885172E-01  0.17130000165E+03  0.17130000000E+03 0.  1.
      622    1    1    2    0    0  0.18119302676E-01 -0.58537934610E-03  0.39896007420E+01  0.39924607365E+01  0.15000000000E+00 0.  1.
</event>
<event>
 5   0  0.6780500E+06  0.9118800E+02  0.7818608E-02  0.1180000E+00
       11   -1    0    0    0    0  0.00000000000E+00  0.00000000000E+00  0.39999999673E+01  0.40000000000E+01  0.51109989000E-03 0. -1.
     -623   -1    0    0    0    0  0.00000000000E+00  0.00000000000E+00  0.12525980253E-10  0.17130000000E+03  0.17130000000E+03 0.  1.
       11    1    1    2    0    0  0.12596323872E-03 -0.63586669383E-02  0.33367042018E-01  0.33971594424E-01  0.51109989000E-03 0. -1.
     -623    1    1    2    0    0 -0.15020635955E-02  0.17933966168E-01  0.34602497324E-02  0.17130000098E+03  0.17130000000E+03 0.  1.
      622    1    1    2    0    0  0.13761003568E-02 -0.11575299230E-01  0.39631726756E+01  0.39660274253E+01  0.15000000000E+00 0. -1.
</event>
<event>
 5   0  0.6780500E+06  0.9118800E+02  0.7818608E-02  0.1180000E+00
       11   -1    0    0    0    0  0.00000000000E+00  0.00000000000E+00  0.39999999673E+01  0.40000000000E+01  0.51109989000E-03 0. -1.
     -623   -1    0    0    0    0  0.00000000000E+00  0.00000000000E+00  0.12525980253E-10  0.17130000000E+03  0.17130000000E+03 0.  1.
       11    1    1    2    0    0  0.14117813305E-01  0.40470686867E-02  0.73253507509E-01  0.74712977469E-01  0.51109989000E-03 0. -1.
     -623    1    1    2    0    0 -0.15854269148E-02 -0.13165468668E-01  0.43577056875E-02  0.17130000057E+03  0.17130000000E+03 0.  1.
      622    1    1    2    0    0 -0.12532386390E-01  0.91183999808E-02  0.39223887542E+01  0.39252864538E+01  0.15000000000E+00 0. -1.
</event>
<event>
 5   0  0.6780500E+06  0.9118800E+02  0.7818608E-02  0.1180000E+00
       11   -1    0    0    0    0  0.00000000000E+00  0.00000000000E+00  0.39999999673E+01  0.40000000000E+01  0.51109989000E-03 0.  1.
     -623   -1    0    0    0    0  0.00000000000E+00  0.00000000000E+00  0.12525980253E-10  0.17130000000E+03  0.17130000000E+03 0.  1.
       11    1    1    2    0    0 -0.19107700286E-01  0.22956160291E-01  0.38733195301E+00  0.38848216504E+00  0.51109989000E-03 0.  1.
     -623    1    1    2    0    0  0.10173868327E-01  0.56499484238E-02  0.43914607015E-02  0.17130000045E+03  0.17130000000E+03 0.  1.
      622    1    1    2    0    0  0.89338319595E-02 -0.28606108714E-01  0.36082765536E+01  0.36115173834E+01  0.15000000000E+00 0.  1.
</event>
<event>
 5   0  0.6780500E+06  0.9118800E+02  0.7818608E-02  0.1180000E+00
       11   -1    0    0    0    0  0.00000000000E+00  0.00000000000E+00  0.39999999673E+01  0.40000000000E+01  0.51109989000E-03 0. -1.
     -623   -1    0    0    0    0  0.00000000000E+00  0.00000000000E+00  0.12525980253E-10  0.17130000000E+03  0.17130000000E+03 0. -1.
       11    1    1    2    0    0  0.38147720638E-03 -0.12337866974E-01  0.11363019935E+00  0.11429983339E+00  0.51109989000E-03 0. -1.
     -623    1    1    2    0    0 -0.62479111673E-02  0.20529772045E-01  0.35803678935E-02  0.17130000138E+03  0.17130000000E+03 0. -1.
      622    1    1    2    0    0  0.58664339611E-02 -0.81919050724E-02  0.38827894003E+01  0.38856987852E+01  0.15000000000E+00 0. -1.
</event>
<event>
 5   0  0.6780500E+06  0.9118800E+02  0.7818608E-02  0.1180000E+00
       11   -1    0    0    0    0  0.00000000000E+00  0.00000000000E+00  0.39999999673E+01  0.40000000000E+01  0.51109989000E-03 0.  1.
     -623   -1    0    0    0    0  0.00000000000E+00  0.00000000000E+00  0.12525980253E-10  0.17130000000E+03  0.17130000000E+03 0.  1.
       11    1    1    2    0    0 -0.95935824182E-02  0.32700806012E-01  0.13066584366E+00  0.13503778530E+00  0.51109989000E-03 0.  1.
     -623    1    1    2    0    0 -0.50705221958E-02 -0.28831267039E-02  0.74269809926E-02  0.17130000026E+03  0.17130000000E+03 0.  1.
      622    1    1    2    0    0  0.14664104614E-01 -0.29817679309E-01  0.38619071427E+01  0.38649619544E+01  0.15000000000E+00 0.  1.
</event>
<event>
 5   0  0.6780500E+06  0.9118800E+02  0.7818608E-02  0.1180000E+00
       11   -1    0    0    0    0  0.00000000000E+00  0.00000000000E+00  0.39999999673E+01  0.40000000000E+01  0.51109989000E-03 0.  1.
     -623   -1    0    0    0    0  0.00000000000E+00  0.00000000000E+00  0.12525980253E-10  0.17130000000E+03  0.17130000000E+03 0. -1.
       11    1    1    2    0    0  0.62151621191E-02 -0.31312794008E-01  0.17495746201E+00  0.17784682748E+00  0.51109989000E-03 0.  1.
     -623    1    1    2    0    0 -0.24244402157E-01  0.63392833338E-02  0.59599793871E-02  0.17130000194E+03  0.17130000000E+03 0. -1.
      622    1    1    2    0    0  0.18029240038E-01  0.24973510674E-01  0.38190825260E+01  0.38221512359E+01  0.15000000000E+00 0.  1.
</event>
<event>
 5   0  0.6780500E+06  0.9118800E+02  0.7818608E-02  0.1180000E+00
       11   -1    0    0    0    0  0.00000000000E+00  0.00000000000E+00  0.39999999673E+01  0.40000000000E+01  0.51109989000E-03 0. -1.
     -623   -1    0    0    0    0  0.00000000000E+00  0.00000000000E+00  0.12525980253E-10  0.17130000000E+03  0.17130000000E+03 0.  1.
       11    1    1    2    0    0 -0.71909065535E-02  0.28544065076E-01  0.26658798683E-01  0.39716817063E-01  0.51109989000E-03 0. -1.
     -623    1    1    2    0    0  0.11912051216E-01 -0.93492872128E-02  0.15950490827E-01  0.17130000141E+03  0.17130000000E+03 0.  1.
      622    1    1    2    0    0 -0.47211446622E-02 -0.19194777864E-01  0.39573906779E+01  0.39602817710E+01  0.15000000000E+00 0. -1.
</event>
<event>
 5   0  0.6780500E+06  0.9118800E+02  0.7818608E-02  0.1180000E+00
       11   -1    0    0    0    0  0.00000000000E+00  0.00000000000E+00  0.39999999673E+01  0.40000000000E+01  0.51109989000E-03 0. -1.
     -623   -1    0    0    0    0  0.00000000000E+00  0.00000000000E+00  0.12525980253E-10  0.17130000000E+03  0.17130000000E+03 0.  1.
       11    1    1    2    0    0 -0.83775003346E-02  0.68635317987E-01  0.49951378871E+00  0.50427698314E+00  0.51109989000E-03 0. -1.
     -623    1    1    2    0    0 -0.28061351009E-01 -0.12775290449E-01  0.86227275830E-02  0.17130000299E+03  0.17130000000E+03 0.  1.
      622    1    1    2    0    0  0.36438851344E-01 -0.55860027538E-01  0.34918634511E+01  0.34957200250E+01  0.15000000000E+00 0. -1.
</event>
<event>
 5   0  0.6780500E+06  0.9118800E+02  0.7818608E-02  0.1180000E+00
       11   -1    0    0    0    0  0.00000000000E+00  0.00000000000E+00  0.39999999673E+01  0.40000000000E+01  0.51109989000E-03 0. -1.
     -623   -1    0    0    0    0  0.00000000000E+00  0.00000000000E+00  0.12525980253E-10  0.17130000000E+03  0.17130000000E+03 0. -1.
       11    1    1    2    0    0  0.15154999548E-01  0.14916188932E-01  0.10755484079E+00  0.10963791180E+00  0.51109989000E-03 0. -1.
     -623    1    1    2    0    0 -0.24131067998E-02 -0.11320131906E-02  0.50212901452E-02  0.17130000009E+03  0.17130000000E+03 0. -1.
      622    1    1    2    0    0 -0.12741892748E-01 -0.13784175741E-01  0.38874238365E+01  0.38903619939E+01  0.15000000000E+00 0. -1.
</event>
<event>
 5   0  0.6780500E+06  0.9118800E+02  0.7818608E-02  0.1180000E+00
       11   -1    0    0    0    0  0.00000000000E+00  0.00000000000E+00  0.39999999673E+01  0.40000000000E+01  0.51109989000E-03 0. -1.
     -623   -1    0    0    0    0  0.00000000000E+00  0.00000000000E+00  0.12525980253E-10  0.17130000000E+03  0.17130000000E+03 0. -1.
       11    1    1    2    0    0 -0.15264632330E-02 -0.78866899147E-02  0.28005816251E-01  0.29139611095E-01  0.51109989000E-03 0. -1.
     -623    1    1    2    0    0  0.57189838716E-03  0.43206737873E-02  0.39697314659E-02  0.17130000010E+03  0.17130000000E+03 0. -1.
      622    1    1    2    0    0  0.95456484580E-03  0.35660161273E-02  0.39680244198E+01  0.39708602876E+01  0.15000000000E+00 0. -1.
</event>
<event>
 5   0  0.6780500E+06  0.9118800E+02  0.7818608E-02  0.1180000E+00
       11   -1    0    0    0    0  0.00000000000E+00  0.00000000000E+00  0.39999999673E+01  0.40000000000E+01  0.51109989000E-03 0. -1.
     -623   -1    0    0    0    0  0.00000000000E+00  0.00000000000E+00  0.12525980253E-10  0.17130000000E+03  0.17130000000E+03 0.  1.
       11    1    1    2    0    0  0.60528829552E-02  0.15718671734E-02  0.51015259151E-01  0.51399669715E-01  0.51109989000E-03 0. -1.
     -623    1    1    2    0    0 -0.18946969317E-01 -0.35713767101E-02  0.32572088347E-02  0.17130000112E+03  0.17130000000E+03 0.  1.
      622    1    1    2    0    0  0.12894086362E-01  0.19995095368E-02  0.39457274994E+01  0.39485992143E+01  0.15000000000E+00 0. -1.
</event>
<event>
 5   0  0.6780500E+06  0.9118800E+02  0.7818608E-02  0.1180000E+00
       11   -1    0    0    0    0  0.00000000000E+00  0.00000000000E+00  0.39999999673E+01  0.40000000000E+01  0.51109989000E-03 0. -1.
     -623   -1    0    0    0    0  0.00000000000E+00  0.00000000000E+00  0.12525980253E-10  0.17130000000E+03  0.17130000000E+03 0. -1.
       11    1    1    2    0    0  0.58332161100E-01 -0.78403949492E-02  0.30512642621E+00  0.31075152455E+00  0.51109989000E-03 0. -1.
     -623    1    1    2    0    0 -0.10500991507E-01  0.14184680151E-01  0.89926704363E-02  0.17130000115E+03  0.17130000000E+03 0. -1.
      622    1    1    2    0    0 -0.47831169593E-01 -0.63442852020E-02  0.36858808707E+01  0.36892473302E+01  0.15000000000E+00 0.  0.
</event>
<event>
 5   0  0.6780500E+06  0.9118800E+02  0.7818608E-02  0.1180000E+00
       11   -1    0    0    0    0  0.00000000000E+00  0.00000000000E+00  0.39999999673E+01  0.40000000000E+01  0.51109989000E-03 0. -1.
     -623   -1    0    0    0    0  0.00000000000E+00  0.00000000000E+00  0.12525980253E-10  0.17130000000E+03  0.17130000000E+03 0.  1.
       11    1    1    2    0    0 -0.12772242620E-01 -0.14933284341E-01  0.16981829781E-01  0.25976468747E-01  0.51109989000E-03 0. -1.
     -623    1    1    2    0    0  0.25738440729E-01  0.22277158352E-01  0.11858253095E-01  0.17130000379E+03  0.17130000000E+03 0.  1.
      622    1    1    2    0    0 -0.12966198110E-01 -0.73438740105E-02  0.39711598845E+01  0.39740197386E+01  0.15000000000E+00 0. -1.
</event>
<event>
 5   0  0.6780500E+06  0.9118800E+02  0.7818608E-02  0.1180000E+00
       11   -1    0    0    0    0  0.00000000000E+00  0.00000000000E+00  0.39999999673E+01  0.40000000000E+01  0.51109989000E-03 0. -1.
     -623   -1    0    0    0    0  0.00000000000E+00  0.00000000000E+00  0.12525980253E-10  0.17130000000E+03  0.17130000000E+03 0.  1.
       11    1    1    2    0    0 -0.15064164094E-01  0.35329193191E-02  0.94761235966E-01  0.96017517270E-01  0.51109989000E-03 0. -1.
     -623    1    1    2    0    0  0.12085332723E-01  0.14664462872E-01  0.41836716969E-02  0.17130000111E+03  0.17130000000E+03 0.  1.
      622    1    1    2    0    0  0.29788313700E-02 -0.18197382191E-01  0.39010550597E+01  0.39039813776E+01  0.15000000000E+00 0. -1.
</event>
<event>
 5   0  0.6780500E+06  0.9118800E+02  0.7818608E-02  0.1180000E+00
       11   -1    0    0    0    0  0.00000000000E+00  0.00000000000E+00  0.39999999673E+01  0.40000000000E+01  0.51109989000E-03 0. -1.
     -623   -1    0    0    0    0  0.00000000000E+00  0.00000000000E+00  0.12525980253E-10  0.17130000000E+03  0.17130000000E+03 0.  1.
       11    1    1    2    0    0  0.37568511299E-02  0.31343149220E-02  0.29214107690E-02  0.57213393904E-02  0.51109989000E-03 0. -1.
     -623    1    1    2    0    0 -0.79167711286E-02 -0.37021897189E-02  0.56199417845E-02  0.17130000032E+03  0.17130000000E+03 0.  1.
      622    1    1    2    0    0  0.41599199988E-02  0.56787479694E-03  0.39914586148E+01  0.39942783455E+01  0.15000000000E+00 0. -1.
</event>
<event>
 5   0  0.6780500E+06  0.9118800E+02  0.7818608E-02  0.1180000E+00
       11   -1    0    0    0    0  0.00000000000E+00  0.00000000000E+00  0.39999999673E+01  0.40000000000E+01  0.51109989000E-03 0.  1.
     -623   -1    0    0    0    0  0.00000000000E+00  0.00000000000E+00  0.12525980253E-10  0.17130000000E+03  0.17130000000E+03 0. -1.
       11    1    1    2    0    0 -0.45801792169E-02  0.58587117225E-02  0.77516763832E-01  0.77874337511E-01  0.51109989000E-03 0.  1.
     -623    1    1    2    0    0  0.85604685941E-02 -0.64893962882E-02  0.32293726282E-02  0.17130000037E+03  0.17130000000E+03 0. -1.
      622    1    1    2    0    0 -0.39802893775E-02  0.63068456597E-03  0.39192538310E+01  0.39221252954E+01  0.15000000000E+00 0.  1.
</event>
<event>
 5   0  0.6780500E+06  0.9118800E+02  0.7818608E-02  0.1180000E+00
       11   -1    0    0    0    0  0.00000000000E+00  0.00000000000E+00  0.39999999673E+01  0.40000000000E+01  0.51109989000E-03 0.  1.
     -623   -1    0    0    0    0  0.00000000000E+00  0.00000000000E+00  0.12525980253E-10  0.17130000000E+03  0.17130000000E+03 0. -1.
       11    1    1    2    0    0  0.15125400060E-01  0.89976886442E-01  0.11270573497E+01  0.11307445107E+01  0.51109989000E-03 0.  1.
     -623    1    1    2    0    0  0.17485825168E-02 -0.23591747224E-01  0.84313538891E-02  0.17130000184E+03  0.17130000000E+03 0. -1.
      622    1    1    2    0    0 -0.16873982577E-01 -0.66385139217E-01  0.28645112638E+01  0.28692536484E+01  0.15000000000E+00 0.  1.
</event>
<event>
 5   0  0.6780500E+06  0.9118800E+02  0.7818608E-02  0.1180000E+00
       11   -1    0    0    0    0  0.00000000000E+00  0.00000000000E+00  0.39999999673E+01  0.40000000000E+01  0.51109989000E-03 0.  1.
     -623   -1    0    0    0    0  0.00000000000E+00  0.00000000000E+00  0.12525980253E-10  0.17130000000E+03  0.17130000000E+03 0. -1.
       11    1    1    2    0    0 -0.24633592296E-01  0.19010314050E-01  0.51681426561E+00  0.51775037640E+00  0.51109989000E-03 0.  1.
     -623    1    1    2    0    0  0.32671843014E-02  0.30132743316E-02  0.43036828977E-02  0.17130000011E+03  0.17130000000E+03 0. -1.
      622    1    1    2    0    0  0.21366407995E-01 -0.22023588381E-01  0.34788820189E+01  0.34822495119E+01  0.15000000000E+00 0.  1.
</event>
<event>
 5   0  0.6780500E+06  0.9118800E+02  0.7818608E-02  0.1180000E+00
       11   -1    0    0    0    0  0.00000000000E+00  0.00000000000E+00  0.39999999673E+01  0.40000000000E+01  0.51109989000E-03 0. -1.
     -623   -1    0    0    0    0  0.00000000000E+00  0.00000000000E+00  0.12525980253E-10  0.17130000000E+03  0.17130000000E+03 0.  1.
       11    1    1    2    0    0  0.91603117963E-03 -0.12540898079E-01  0.25746337762E+00  0.25777076109E+00  0.51109989000E-03 0. -1.
     -623    1    1    2    0    0 -0.75873089886E-02 -0.79061892650E-02  0.33770297719E-02  0.17130000038E+03  0.17130000000E+03 0.  1.
      622    1    1    2    0    0  0.66712778090E-02  0.20447087344E-01  0.37391595600E+01  0.37422288551E+01  0.15000000000E+00 0. -1.
</event>
<event>
 5   0  0.6780500E+06  0.9118800E+02  0.7818608E-02  0.1180000E+00
       11   -1    0    0    0    0  0.00000000000E+00  0.00000000000E+00  0.39999999673E+01  0.40000000000E+01  0.51109989000E-03 0. -1.
     -623   -1    0    0    0    0  0.00000000000E+00  0.00000000000E+00  0.12525980253E-10  0.17130000000E+03  0.17130000000E+03 0.  1.
       11    1    1    2    0    0 -0.45775729838E-02  0.63397132723E-02  0.20468873505E+00  0.20483868194E+00  0.51109989000E-03 0. -1.
     -623    1    1    2    0    0 -0.59185274445E-03  0.25092828493E-02  0.31292696086E-02  0.17130000005E+03  0.17130000000E+03 0.  1.
      622    1    1    2    0    0  0.51694257283E-02 -0.88489961216E-02  0.37921819627E+01  0.37951612701E+01  0.15000000000E+00 0. -1.
</event>
<event>
 5   0  0.6780500E+06  0.9118800E+02  0.7818608E-02  0.1180000E+00
       11   -1    0    0    0    0  0.00000000000E+00  0.00000000000E+00  0.39999999673E+01  0.40000000000E+01  0.51109989000E-03 0.  1.
     -623   -1    0    0    0    0  0.00000000000E+00  0.00000000000E+00  0.12525980253E-10  0.17130000000E+03  0.17130000000E+03 0.  1.
       11    1    1    2    0    0  0.24179209964E-01 -0.54452739680E-02  0.22952756847E+00  0.23086240732E+00  0.51109989000E-03 0.  1.
     -623    1    1    2    0    0 -0.13974565246E-01  0.12633594614E-01  0.43425336186E-02  0.17130000109E+03  0.17130000000E+03 0.  1.
      622    1    1    2    0    0 -0.10204644718E-01 -0.71883206457E-02  0.37661298653E+01  0.37691365017E+01  0.15000000000E+00 0.  1.
</event>
<event>
 5   0  0.6780500E+06  0.9118800E+02  0.7818608E-02  0.1180000E+00
       11   -1    0    0    0    0  0.00000000000E+00  0.00000000000E+00  0.39999999673E+01  0.40000000000E+01  0.51109989000E-03 0.  1.
     -623   -1    0    0    0    0  0.00000000000E+00  0.00000000000E+00  0.12525980253E-10  0.17130000000E+03  0.17130000000E+03 0.  1.
       11    1    1    2    0    0 -0.33098519934E-01  0.28775453501E-01  0.85225363218E+00  0.85338154042E+00  0.51109989000E-03 0.  1.
     -623    1    1    2    0    0 -0.41883658897E-02 -0.17189289133E-02  0.50429576521E-02  0.17130000013E+03  0.17130000000E+03 0.  1.
      622    1    1    2    0    0  0.37286885824E-01 -0.27056524588E-01  0.31427033775E+01  0.31466183255E+01  0.15000000000E+00 0.  1.
</event>
<event>
 5   0  0.6780500E+06  0.9118800E+02  0.7818608E-02  0.1180000E+00
       11   -1    0    0    0    0  0.00000000000E+00  0.00000000000E+00  0.39999999673E+01  0.40000000000E+01  0.51109989000E-03 0.  1.
     -623   -1    0    0    0    0  0.00000000000E+00  0.00000000000E+00  0.12525980253E-10  0.17130000000E+03  0.17130000000E+03 0. -1.
       11    1    1    2    0    0 -0.26842665250E-01  0.70776182661E-01  0.21751524473E+00  0.23031052868E+00  0.51109989000E-03 0.  1.
     -623    1    1    2    0    0  0.20627458957E-01 -0.40997875242E-01  0.15910495212E-01  0.17130000689E+03  0.17130000000E+03 0. -1.
      622    1    1    2    0    0  0.62152062937E-02 -0.29778307420E-01  0.37665742274E+01  0.37696825844E+01  0.15000000000E+00 0.  0.
</event>
<event>
 5   0  0.6780500E+06  0.9118800E+02  0.7818608E-02  0.1180000E+00
       11   -1    0    0    0    0  0.00000000000E+00  0.00000000000E+00  0.39999999673E+01  0.40000000000E+01  0.51109989000E-03 0.  1.
     -623   -1    0    0    0    0  0.00000000000E+00  0.00000000000E+00  0.12525980253E-10  0.17130000000E+03  0.17130000000E+03 0. -1.
       11    1    1    2    0    0 -0.12490996322E-01 -0.33969965344E-01  0.56307874022E+00  0.56424100563E+00  0.51109989000E-03 0.  1.
     -623    1    1    2    0    0  0.28675351732E-03  0.16986692737E-01  0.45027945255E-02  0.17130000090E+03  0.17130000000E+03 0. -1.
      622    1    1    2    0    0  0.12204242805E-01  0.16983272607E-01  0.34324184326E+01  0.34357580927E+01  0.15000000000E+00 0.  1.
</event>
<event>
 5   0  0.6780500E+06  0.9118800E+02  0.7818608E-02  0.1180000E+00
       11   -1    0    0    0    0  0.00000000000E+00  0.00000000000E+00  0.39999999673E+01  0.40000000000E+01  0.51109989000E-03 0.  1.
     -623   -1    0    0    0    0  0.00000000000E+00  0.00000000000E+00  0.12525980253E-10  0.17130000000E+03  0.17130000000E+03 0. -1.
       11    1    1    2    0    0 -0.35280167973E-03  0.53470846167E-02  0.20379876751E+00  0.20386984731E+00  0.51109989000E-03 0.  1.
     -623    1    1    2    0    0  0.18743022223E-02 -0.13799787546E-01  0.30460660089E-02  0.17130000059E+03  0.17130000000E+03 0. -1.
      622    1    1    2    0    0 -0.15215005425E-02  0.84527029296E-02  0.37931551338E+01  0.37961295595E+01  0.15000000000E+00 0.  1.
</event>
<event>
 5   0  0.6780500E+06  0.9118800E+02  0.7818608E-02  0.1180000E+00
       11   -1    0    0    0    0  0.00000000000E+00  0.00000000000E+00  0.39999999673E+01  0.40000000000E+01  0.51109989000E-03 0.  1.
     -623   -1    0    0    0    0  0.00000000000E+00  0.00000000000E+00  0.12525980253E-10  0.17130000000E+03  0.17130000000E+03 0. -1.
       11    1    1    2    0    0 -0.15089030579E-01 -0.19493116789E-01  0.34608116936E+00  0.34695835118E+00  0.51109989000E-03 0.  1.
     -623    1    1    2    0    0 -0.47544563663E-02  0.12380951018E-01  0.40195054717E-02  0.17130000056E+03  0.17130000000E+03 0. -1.
      622    1    1    2    0    0  0.19843486946E-01  0.71121657708E-02  0.36498992925E+01  0.36530410883E+01  0.15000000000E+00 0.  1.
</event>
<event>
 5   0  0.6780500E+06  0.9118800E+02  0.7818608E-02  0.1180000E+00
       11   -1    0    0    0    0  0.00000000000E+00  0.00000000000E+00  0.39999999673E+01  0.40000000000E+01  0.51109989000E-03 0. -1.
     -623   -1    0    0    0    0  0.00000000000E+00  0.00000000000E+00  0.12525980253E-10  0.17130000000E+03  0.17130000000E+03 0. -1.
       11    1    1    2    0    0 -0.38628597647E-01 -0.37924479639E-01  0.48421550152E+00  0.48723233457E+00  0.51109989000E-03 0. -1.
     -623    1    1    2    0    0 -0.13845628773E-01  0.12717794565E-01  0.67048742486E-02  0.17130000116E+03  0.17130000000E+03 0. -1.
      622    1    1    2    0    0  0.52474226420E-01  0.25206685074E-01  0.35090795916E+01  0.35127665025E+01  0.15000000000E+00 0. -1.
</event>
<event>
 5   0  0.6780500E+06  0.9118800E+02  0.7818608E-02  0.1180000E+00
       11   -1    0    0    0    0  0.00000000000E+00  0.00000000000E+00  0.39999999673E+01  0.40000000000E+01  0.51109989000E-03 0. -1.
     -623   -1    0    0    0    0  0.00000000000E+00  0.00000000000E+00  0.12525980253E-10  0.17130000000E+03  0.17130000000E+03 0.  1.
       11    1    1    2    0    0  0.67817431802E-02 -0.20506219899E-02  0.16215096247E-01  0.17702758493E-01  0.51109989000E-03 0. -1.
     -623    1    1    2    0    0 -0.51188882197E-02 -0.20374535498E-02  0.43162252376E-02  0.17130000014E+03  0.17130000000E+03 0.  1.
      622    1    1    2    0    0 -0.16628549605E-02  0.40880755396E-02  0.39794686459E+01  0.39822970985E+01  0.15000000000E+00 0. -1.
</event>
<event>
 5   0  0.6780500E+06  0.9118800E+02  0.7818608E-02  0.1180000E+00
       11   -1    0    0    0    0  0.00000000000E+00  0.00000000000E+00  0.39999999673E+01  0.40000000000E+01  0.51109989000E-03 0. -1.
     -623   -1    0    0    0    0  0.00000000000E+00  0.00000000000E+00  0.12525980253E-10  0.17130000000E+03  0.17130000000E+03 0.  1.
       11    1    1    2    0    0  0.16170463772E-01  0.30350674008E-01  0.10637808660E+00  0.11179984724E+00  0.51109989000E-03 0. -1.
     -623    1    1    2    0    0 -0.15279172796E-01  0.34266055317E-02  0.84640284523E-02  0.17130000092E+03  0.17130000000E+03 0.  1.
      622    1    1    2    0    0 -0.89129097576E-03 -0.33777279540E-01  0.38851578523E+01  0.38881992280E+01  0.15000000000E+00 0. -1.
</event>
<event>
 5   0  0.6780500E+06  0.9118800E+02  0.7818608E-02  0.1180000E+00
       11   -1    0    0    0    0  0.00000000000E+00  0.00000000000E+00  0.39999999673E+01  0.40000000000E+01  0.51109989000E-03 0. -1.
     -623   -1    0    0    0    0  0.00000000000E+00  0.00000000000E+00  0.12525980253E-10  0.17130000000E+03  0.17130000000E+03 0.  1.
       11    1    1    2    0    0  0.27865599677E-01  0.11183576875E-01  0.37166263366E+00  0.37287389090E+00  0.51109989000E-03 0. -1.
     -623    1    1    2    0    0 -0.41892238849E-01 -0.17429616892E-01  0.43527782300E-02  0.17130000606E+03  0.17130000000E+03 0.  1.
      622    1    1    2    0    0  0.14026639172E-01  0.62460400174E-02  0.36239845555E+01  0.36271200446E+01  0.15000000000E+00 0. -1.
</event>
<event>
 5   0  0.6780500E+06  0.9118800E+02  0.7818608E-02  0.1180000E+00
       11   -1    0    0    0    0  0.00000000000E+00  0.00000000000E+00  0.39999999673E+01  0.40000000000E+01  0.51109989000E-03 0.  1.
     -623   -1    0    0    0    0  0.00000000000E+00  0.00000000000E+00  0.12525980253E-10  0.17130000000E+03  0.17130000000E+03 0. -1.
       11    1    1    2    0    0 -0.53902486245E-01  0.97583624378E-01  0.54104380284E+00  0.55240990178E+00  0.51109989000E-03 0.  1.
     -623    1    1    2    0    0 -0.78829739748E-01 -0.26657024529E-01  0.17941312217E-01  0.17130002115E+03  0.17130000000E+03 0. -1.
      622    1    1    2    0    0  0.13273222599E+00 -0.70926599849E-01  0.34410148523E+01  0.34475689464E+01  0.15000000000E+00 0.  1.
</event>
<event>
 5   0  0.6780500E+06  0.9118800E+02  0.7818608E-02  0.1180000E+00
       11   -1    0    0    0    0  0.00000000000E+00  0.00000000000E+00  0.39999999673E+01  0.40000000000E+01  0.51109989000E-03 0.  1.
     -623   -1    0    0    0    0  0.00000000000E+00  0.00000000000E+00  0.12525980253E-10  0.17130000000E+03  0.17130000000E+03 0.  1.
       11    1    1    2    0    0 -0.38994059670E-02 -0.27212155033E-01  0.55737563945E+00  0.55805337686E+00  0.51109989000E-03 0.  1.
     -623    1    1    2    0    0 -0.33616427967E-02  0.26220773172E-02  0.40434479422E-02  0.17130000010E+03  0.17130000000E+03 0.  1.
      622    1    1    2    0    0  0.72610487637E-02  0.24590077716E-01  0.34385808801E+01  0.34419465225E+01  0.15000000000E+00 0.  1.
</event>
<event>
 5   0  0.6780500E+06  0.9118800E+02  0.7818608E-02  0.1180000E+00
       11   -1    0    0    0    0  0.00000000000E+00  0.00000000000E+00  0.39999999673E+01  0.40000000000E+01  0.51109989000E-03 0.  1.
     -623   -1    0    0    0    0  0.00000000000E+00  0.00000000000E+00  0.12525980253E-10  0.17130000000E+03  0.17130000000E+03 0. -1.
       11    1    1    2    0    0  0.24686504151E+00 -0.31584771223E-01  0.88389008655E+00  0.91826025331E+00  0.51109989000E-03 0.  1.
     -623    1    1    2    0    0 -0.11188183548E+00  0.65836541123E-01  0.41228994239E-01  0.17130005415E+03  0.17130000000E+03 0. -1.
      622    1    1    2    0    0 -0.13498320602E+00 -0.34251769900E-01  0.30748808866E+01  0.30816855966E+01  0.15000000000E+00 0.  1.
</event>
<event>
 5   0  0.6780500E+06  0.9118800E+02  0.7818608E-02  0.1180000E+00
       11   -1    0    0    0    0  0.00000000000E+00  0.00000000000E+00  0.39999999673E+01  0.40000000000E+01  0.51109989000E-03 0.  1.
     -623   -1    0    0    0    0  0.00000000000E+00  0.00000000000E+00  0.12525980253E-10  0.17130000000E+03  0.17130000000E+03 0.  1.
       11    1    1    2    0    0 -0.13714695670E-01 -0.32701147405E-02  0.32921928577E-01  0.35817609209E-01  0.51109989000E-03 0.  1.
     -623    1    1    2    0    0  0.28075385550E-02 -0.65610413215E-02  0.57620373981E-02  0.17130000025E+03  0.17130000000E+03 0.  1.
      622    1    1    2    0    0  0.10907157115E-01  0.98311560620E-02  0.39613160014E+01  0.39641821452E+01  0.15000000000E+00 0.  1.
</event>
<event>
 5   0  0.6780500E+06  0.9118800E+02  0.7818608E-02  0.1180000E+00
       11   -1    0    0    0    0  0.00000000000E+00  0.00000000000E+00  0.39999999673E+01  0.40000000000E+01  0.51109989000E-03 0.  1.
     -623   -1    0    0    0    0  0.00000000000E+00  0.00000000000E+00  0.12525980253E-10  0.17130000000E+03  0.17130000000E+03 0.  1.
       11    1    1    2    0    0  0.33569210509E-01 -0.63857885313E-01  0.37803213981E+00  0.38485488351E+00  0.51109989000E-03 0.  1.
     -623    1    1    2    0    0  0.10086601810E-01  0.51437296156E-01  0.10229476074E-01  0.17130000833E+03  0.17130000000E+03 0.  1.
      622    1    1    2    0    0 -0.43655812319E-01  0.12420589157E-01  0.36117383515E+01  0.36151367914E+01  0.15000000000E+00 0.  1.
</event>
<event>
 5   0  0.6780500E+06  0.9118800E+02  0.7818608E-02  0.1180000E+00
       11   -1    0    0    0    0  0.00000000000E+00  0.00000000000E+00  0.39999999673E+01  0.40000000000E+01  0.51109989000E-03 0.  1.
     -623   -1    0    0    0    0  0.00000000000E+00  0.00000000000E+00  0.12525980253E-10  0.17130000000E+03  0.17130000000E+03 0.  1.
       11    1    1    2    0    0 -0.21042000879E-01 -0.15375196888E-01  0.84767430530E+00  0.84807496813E+00  0.51109989000E-03 0.  1.
     -623    1    1    2    0    0 -0.19125040221E-01 -0.50068199310E-02  0.42953162931E-02  0.17130000119E+03  0.17130000000E+03 0.  1.
      622    1    1    2    0    0  0.40167041100E-01  0.20382016819E-01  0.31480303457E+01  0.31519238372E+01  0.15000000000E+00 0.  0.
</event>
<event>
 5   0  0.6780500E+06  0.9118800E+02  0.7818608E-02  0.1180000E+00
       11   -1    0    0    0    0  0.00000000000E+00  0.00000000000E+00  0.39999999673E+01  0.40000000000E+01  0.51109989000E-03 0. -1.
     -623   -1    0    0    0    0  0.00000000000E+00  0.00000000000E+00  0.12525980253E-10  0.17130000000E+03  0.17130000000E+03 0. -1.
       11    1    1    2    0    0  0.54512692145E-01 -0.48339020865E-02  0.61950780478E-01  0.82662933869E-01  0.51109989000E-03 0. -1.
     -623    1    1    2    0    0 -0.28743684050E-01 -0.37989222070E-01  0.23912391235E-01  0.17130000829E+03  0.17130000000E+03 0. -1.
      622    1    1    2    0    0 -0.25769008095E-01  0.42823124156E-01  0.39141367956E+01  0.39173287731E+01  0.15000000000E+00 0. -1.
</event>
<event>
 5   0  0.6780500E+06  0.9118800E+02  0.7818608E-02  0.1180000E+00
       11   -1    0    0    0    0  0.00000000000E+00  0.00000000000E+00  0.39999999673E+01  0.40000000000E+01  0.51109989000E-03 0.  1.
     -623   -1    0    0    0    0  0.00000000000E+00  0.00000000000E+00  0.12525980253E-10  0.17130000000E+03  0.17130000000E+03 0. -1.
       11    1    1    2    0    0  0.26517869469E-01 -0.23149484997E-01  0.62542744044E-01  0.71770133847E-01  0.51109989000E-03 0.  1.
     -623    1    1    2    0    0  0.14664003217E-01  0.31339985632E-01  0.12320803441E-01  0.17130000394E+03  0.17130000000E+03 0. -1.
      622    1    1    2    0    0 -0.41181872687E-01 -0.81905006355E-02  0.39251364199E+01  0.39282259285E+01  0.15000000000E+00 0.  1.
</event>
<event>
 5   0  0.6780500E+06  0.9118800E+02  0.7818608E-02  0.1180000E+00
       11   -1    0    0    0    0  0.00000000000E+00  0.00000000000E+00  0.39999999673E+01  0.40000000000E+01  0.51109989000E-03 0. -1.
     -623   -1    0    0    0    0  0.00000000000E+00  0.00000000000E+00  0.12525980253E-10  0.17130000000E+03  0.17130000000E+03 0.  1.
       11    1    1    2    0    0  0.65802353975E-01 -0.32757990023E-01  0.29228814007E+00  0.30138953821E+00  0.51109989000E-03 0. -1.
     -623    1    1    2    0    0 -0.13396967101E-01 -0.14545948658E-01  0.12820304058E-01  0.17130000162E+03  0.17130000000E+03 0.  1.
      622    1    1    2    0    0 -0.52405386875E-01  0.47303938681E-01  0.36948915232E+01  0.36986088406E+01  0.15000000000E+00 0. -1.
</event>
<event>
 5   0  0.6780500E+06  0.9118800E+02  0.7818608E-02  0.1180000E+00
       11   -1    0    0    0    0  0.00000000000E+00  0.00000000000E+00  0.39999999673E+01  0.40000000000E+01  0.51109989000E-03 0. -1.
     -623   -1    0    0    0    0  0.00000000000E+00  0.00000000000E+00  0.12525980253E-10  0.17130000000E+03  0.17130000000E+03 0.  1.
       11    1    1    2    0    0  0.31536961603E-02 -0.20336730779E-01  0.23801324602E+00  0.23890185206E+00  0.51109989000E-03 0. -1.
     -623    1    1    2    0    0  0.84136465015E-02  0.11643055080E-01  0.39094165543E-02  0.17130000065E+03  0.17130000000E+03 0.  1.
      622    1    1    2    0    0 -0.11567342662E-01  0.86936756998E-02  0.37580773048E+01  0.37610975010E+01  0.15000000000E+00 0. -1.
</event>
<event>
 5   0  0.6780500E+06  0.9118800E+02  0.7818608E-02  0.1180000E+00
       11   -1    0    0    0    0  0.00000000000E+00  0.00000000000E+00  0.39999999673E+01  0.40000000000E+01  0.51109989000E-03 0.  1.
     -623   -1    0    0    0    0  0.00000000000E+00  0.00000000000E+00  0.12525980253E-10  0.17130000000E+03  0.17130000000E+03 0. -1.
       11    1    1    2    0    0  0.13727771007E-02  0.10813414987E-01  0.12324516111E-01  0.16461147596E-01  0.51109989000E-03 0.  1.
     -623    1    1    2    0    0  0.15310720061E-01 -0.86342787200E-02  0.69983258135E-02  0.17130000104E+03  0.17130000000E+03 0. -1.
      622    1    1    2    0    0 -0.16683497162E-01 -0.21791362671E-02  0.39806771254E+01  0.39835378076E+01  0.15000000000E+00 0.  1.
</event>
<event>
 5   0  0.6780500E+06  0.9118800E+02  0.7818608E-02  0.1180000E+00
       11   -1    0    0    0    0  0.00000000000E+00  0.00000000000E+00  0.39999999673E+01  0.40000000000E+01  0.51109989000E-03 0.  1.
     -623   -1    0    0    0    0  0.00000000000E+00  0.00000000000E+00  0.12525980253E-10  0.17130000000E+03  0.17130000000E+03 0.  1.
       11    1    1    2    0    0  0.14790367292E-01  0.24982453913E-01  0.10981947778E+01  0.10985785858E+01  0.51109989000E-03 0.  1.
     -623    1    1    2    0    0  0.40876208512E-01 -0.81639356751E-01  0.53770838445E-02  0.17130002442E+03  0.17130000000E+03 0.  1.
      622    1    1    2    0    0 -0.55666575804E-01  0.56656902839E-01  0.28964281057E+01  0.29013969986E+01  0.15000000000E+00 0. -1.
</event>
<event>
 5   0  0.6780500E+06  0.9118800E+02  0.7818608E-02  0.1180000E+00
       11   -1    0    0    0    0  0.00000000000E+00  0.00000000000E+00  0.39999999673E+01  0.40000000000E+01  0.51109989000E-03 0. -1.
     -623   -1    0    0    0    0  0.00000000000E+00  0.00000000000E+00  0.12525980253E-10  0.17130000000E+03  0.17130000000E+03 0.  1.
       11    1    1    2    0    0  0.27801908602E-02 -0.14356061224E-01  0.61447527578E-01  0.63165543009E-01  0.51109989000E-03 0. -1.
     -623    1    1    2    0    0 -0.37454717938E-02  0.17684032071E-01  0.45791883223E-02  0.17130000101E+03  0.17130000000E+03 0.  1.
      622    1    1    2    0    0  0.96528093363E-03 -0.33279708467E-02  0.39339732514E+01  0.39368334420E+01  0.15000000000E+00 0. -1.
</event>
<event>
 5   0  0.6780500E+06  0.9118800E+02  0.7818608E-02  0.1180000E+00
       11   -1    0    0    0    0  0.00000000000E+00  0.00000000000E+00  0.39999999673E+01  0.40000000000E+01  0.51109989000E-03 0.  1.
     -623   -1    0    0    0    0  0.00000000000E+00  0.00000000000E+00  0.12525980253E-10  0.17130000000E+03  0.17130000000E+03 0.  1.
       11    1    1    2    0    0 -0.17399256497E-02  0.90276495492E-02  0.49617299496E-01  0.50464476896E-01  0.51109989000E-03 0.  1.
     -623    1    1    2    0    0  0.37082045815E-02  0.16504957175E-02  0.37116334514E-02  0.17130000009E+03  0.17130000000E+03 0.  1.
      622    1    1    2    0    0 -0.19682789318E-02 -0.10678145267E-01  0.39466710344E+01  0.39495354348E+01  0.15000000000E+00 0.  1.
</event>
<event>
 5   0  0.6780500E+06  0.9118800E+02  0.7818608E-02  0.1180000E+00
       11   -1    0    0    0    0  0.00000000000E+00  0.00000000000E+00  0.39999999673E+01  0.40000000000E+01  0.51109989000E-03 0.  1.
     -623   -1    0    0    0    0  0.00000000000E+00  0.00000000000E+00  0.12525980253E-10  0.17130000000E+03  0.17130000000E+03 0.  1.
       11    1    1    2    0    0  0.26698138249E-02 -0.10306082381E-01  0.41692448846E+00  0.41706070726E+00  0.51109989000E-03 0.  1.
     -623    1    1    2    0    0  0.97569182311E-02  0.18271909346E-01  0.33091605397E-02  0.17130000128E+03  0.17130000000E+03 0.  1.
      622    1    1    2    0    0 -0.12426732056E-01 -0.79658269651E-02  0.35797663184E+01  0.35829380084E+01  0.15000000000E+00 0.  1.
</event>
<event>
 5   0  0.6780500E+06  0.9118800E+02  0.7818608E-02  0.1180000E+00
       11   -1    0    0    0    0  0.00000000000E+00  0.00000000000E+00  0.39999999673E+01  0.40000000000E+01  0.51109989000E-03 0. -1.
     -623   -1    0    0    0    0  0.00000000000E+00  0.00000000000E+00  0.12525980253E-10  0.17130000000E+03  0.17130000000E+03 0. -1.
       11    1    1    2    0    0 -0.16288062305E-01  0.29194999081E-01  0.18457549138E+00  0.18757937569E+00  0.51109989000E-03 0. -1.
     -623    1    1    2    0    0 -0.24917038038E-02 -0.73919788860E-02  0.60648457474E-02  0.17130000028E+03  0.17130000000E+03 0. -1.
      622    1    1    2    0    0  0.18779766109E-01 -0.21803020195E-01  0.38093596302E+01  0.38124203393E+01  0.15000000000E+00 0. -1.
</event>
<event>
 5   0  0.6780500E+06  0.9118800E+02  0.7818608E-02  0.1180000E+00
       11   -1    0    0    0    0  0.00000000000E+00  0.00000000000E+00  0.39999999673E+01  0.40000000000E+01  0.51109989000E-03 0. -1.
     -623   -1    0    0    0    0  0.00000000000E+00  0.00000000000E+00  0.12525980253E-10  0.17130000000E+03  0.17130000000E+03 0. -1.
       11    1    1    2    0    0 -0.16224928428E-02  0.13918046804E-02  0.11054464060E-02  0.24602516431E-02  0.51109989000E-03 0. -1.
     -623    1    1    2    0    0  0.55817183630E-03  0.12620076022E-02  0.41710744870E-02  0.17130000006E+03  0.17130000000E+03 0. -1.
      622    1    1    2    0    0  0.10643210065E-02 -0.26538122826E-02  0.39947234465E+01  0.39975396920E+01  0.15000000000E+00 0. -1.
</event>
<event>
 5   0  0.6780500E+06  0.9118800E+02  0.7818608E-02  0.1180000E+00
       11   -1    0    0    0    0  0.00000000000E+00  0.00000000000E+00  0.39999999673E+01  0.40000000000E+01  0.51109989000E-03 0.  1.
     -623   -1    0    0    0    0  0.00000000000E+00  0.00000000000E+00  0.12525980253E-10  0.17130000000E+03  0.17130000000E+03 0.  1.
       11    1    1    2    0    0 -0.93676703269E-03 -0.46216787575E-03 -0.10592659698E-02  0.15730222857E-02  0.51109989000E-03 0.  1.
     -623    1    1    2    0    0  0.84982031985E-03  0.15232836098E-03  0.54469545137E-02  0.17130000009E+03  0.17130000000E+03 0.  1.
      622    1    1    2    0    0  0.86946712822E-04  0.30983951477E-03  0.39956122789E+01  0.39984268890E+01  0.15000000000E+00 0.  1.
</event>
<event>
 5   0  0.6780500E+06  0.9118800E+02  0.7818608E-02  0.1180000E+00
       11   -1    0    0    0    0  0.00000000000E+00  0.00000000000E+00  0.39999999673E+01  0.40000000000E+01  0.51109989000E-03 0.  1.
     -623   -1    0    0    0    0  0.00000000000E+00  0.00000000000E+00  0.12525980253E-10  0.17130000000E+03  0.17130000000E+03 0. -1.
       11    1    1    2    0    0  0.57543252177E-01 -0.35403060256E-02  0.44231174473E+00  0.44605347256E+00  0.51109989000E-03 0.  1.
     -623    1    1    2    0    0 -0.36625402944E-01  0.25298331729E-01  0.70428145013E-02  0.17130000593E+03  0.17130000000E+03 0. -1.
      622    1    1    2    0    0 -0.20917849234E-01 -0.21758025703E-01  0.35506454081E+01  0.35539405992E+01  0.15000000000E+00 0.  1.
</event>
<event>
 5   0  0.6780500E+06  0.9118800E+02  0.7818608E-02  0.1180000E+00
       11   -1    0    0    0    0  0.00000000000E+00  0.00000000000E+00  0.39999999673E+01  0.40000000000E+01  0.51109989000E-03 0.  1.
     -623   -1    0    0    0    0  0.00000000000E+00  0.00000000000E+00  0.12525980253E-10  0.17130000000E+03  0.17130000000E+03 0. -1.
       11    1    1    2    0    0 -0.50594799725E-02  0.79504921428E-02  0.10583334389E+00  0.10625331320E+00  0.51109989000E-03 0.  1.
     -623    1    1    2    0    0 -0.38542121124E-01 -0.36087675420E-01  0.36644982296E-02  0.17130000818E+03  0.17130000000E+03 0. -1.
      622    1    1    2    0    0  0.43601601097E-01  0.28137183278E-01  0.38905021253E+01  0.38937385104E+01  0.15000000000E+00 0.  1.
</event>
<event>
 5   0  0.6780500E+06  0.9118800E+02  0.7818608E-02  0.1180000E+00
       11   -1    0    0    0    0  0.00000000000E+00  0.00000000000E+00  0.39999999673E+01  0.40000000000E+01  0.51109989000E-03 0.  1.
     -623   -1    0    0    0    0  0.00000000000E+00  0.00000000000E+00  0.12525980253E-10  0.17130000000E+03  0.17130000000E+03 0. -1.
       11    1    1    2    0    0  0.23908539453E-02  0.24015828682E-01  0.91591222657E-01  0.94719002849E-01  0.51109989000E-03 0.  1.
     -623    1    1    2    0    0 -0.19678732372E-01 -0.72646801799E-02  0.60851652077E-02  0.17130000139E+03  0.17130000000E+03 0. -1.
      622    1    1    2    0    0  0.17287878426E-01 -0.16751148502E-01  0.39023235795E+01  0.39052796047E+01  0.15000000000E+00 0.  1.
</event>
<event>
 5   0  0.6780500E+06  0.9118800E+02  0.7818608E-02  0.1180000E+00
       11   -1    0    0    0    0  0.00000000000E+00  0.00000000000E+00  0.39999999673E+01  0.40000000000E+01  0.51109989000E-03 0. -1.
     -623   -1    0    0    0    0  0.00000000000E+00  0.00000000000E+00  0.12525980253E-10  0.17130000000E+03  0.17130000000E+03 0. -1.
       11    1    1    2    0    0 -0.10410707586E-02  0.31184120502E-02  0.63809873525E-01  0.63896553150E-01  0.51109989000E-03 0. -1.
     -623    1    1    2    0    0 -0.48720410235E-02 -0.18476111534E-02  0.29505968583E-02  0.17130000010E+03  0.17130000000E+03 0. -1.
      622    1    1    2    0    0  0.59131117821E-02 -0.12708008967E-02  0.39332394969E+01  0.39361033421E+01  0.15000000000E+00 0. -1.
</event>
<event>
 5   0  0.6780500E+06  0.9118800E+02  0.7818608E-02  0.1180000E+00
       11   -1    0    0    0    0  0.00000000000E+00  0.00000000000E+00  0.39999999673E+01  0.40000000000E+01  0.51109989000E-03 0.  1.
     -623   -1    0    0    0    0  0.00000000000E+00  0.00000000000E+00  0.12525980253E-10  0.17130000000E+03  0.17130000000E+03 0. -1.
       11    1    1    2    0    0  0.10593756916E-01 -0.13014416911E-01  0.57361239068E-02  0.17741676122E-01  0.51109989000E-03 0.  1.
     -623    1    1    2    0    0 -0.25120280850E-01  0.15093795546E-01  0.14861763520E-01  0.17130000315E+03  0.17130000000E+03 0. -1.
      622    1    1    2    0    0  0.14526523934E-01 -0.20793786353E-02  0.39794020799E+01  0.39822551723E+01  0.15000000000E+00 0.  1.
</event>
<event>
 5   0  0.6780500E+06  0.9118800E+02  0.7818608E-02  0.1180000E+00
       11   -1    0    0    0    0  0.00000000000E+00  0.00000000000E+00  0.39999999673E+01  0.40000000000E+01  0.51109989000E-03 0.  1.
     -623   -1    0    0    0    0  0.00000000000E+00  0.00000000000E+00  0.12525980253E-10  0.17130000000E+03  0.17130000000E+03 0. -1.
       11    1    1    2    0    0  0.69715334813E-02 -0.14529370129E-01  0.10398754195E+00  0.10523010491E+00  0.51109989000E-03 0.  1.
     -623    1    1    2    0    0  0.34005997354E-02  0.66952995196E-02  0.41540123347E-02  0.17130000021E+03  0.17130000000E+03 0. -1.
      622    1    1    2    0    0 -0.10372133217E-01  0.78340706097E-02  0.38918584131E+01  0.38947696801E+01  0.15000000000E+00 0.  1.
</event>
<event>
 5   0  0.6780500E+06  0.9118800E+02  0.7818608E-02  0.1180000E+00
       11   -1    0    0    0    0  0.00000000000E+00  0.00000000000E+00  0.39999999673E+01  0.40000000000E+01  0.51109989000E-03 0. -1.
     -623   -1    0    0    0    0  0.00000000000E+00  0.00000000000E+00  0.12525980253E-10  0.17130000000E+03  0.17130000000E+03 0.  1.
       11    1    1    2    0    0 -0.40426753287E-01  0.14331695719E-01  0.19448243078E+00  0.19915671464E+00  0.51109989000E-03 0. -1.
     -623    1    1    2    0    0 -0.92266210699E-02 -0.19144555516E-01  0.79644256967E-02  0.17130000150E+03  0.17130000000E+03 0.  1.
      622    1    1    2    0    0  0.49653374357E-01  0.48128597966E-02  0.37975531109E+01  0.38008417819E+01  0.15000000000E+00 0.  0.
</event>
<event>
 5   0  0.6780500E+06  0.9118800E+02  0.7818608E-02  0.1180000E+00
       11   -1    0    0    0    0  0.00000000000E+00  0.00000000000E+00  0.39999999673E+01  0.40000000000E+01  0.51109989000E-03 0.  1.
     -623   -1    0    0    0    0  0.00000000000E+00  0.00000000000E+00  0.12525980253E-10  0.17130000000E+03  0.17130000000E+03 0. -1.
       11    1    1    2    0    0  0.24088202689E-01  0.29438212325E-01  0.47930150905E+00  0.48080874332E+00  0.51109989000E-03 0.  1.
     -623    1    1    2    0    0  0.47020797942E-02 -0.28003574334E-01  0.48260033947E-02  0.17130000242E+03  0.17130000000E+03 0. -1.
      622    1    1    2    0    0 -0.28790282483E-01 -0.14346379913E-02  0.35158724549E+01  0.35191888352E+01  0.15000000000E+00 0.  1.
</event>
<event>
 5   0  0.6780500E+06  0.9118800E+02  0.7818608E-02  0.1180000E+00
       11   -1    0    0    0    0  0.00000000000E+00  0.00000000000E+00  0.39999999673E+01  0.40000000000E+01  0.51109989000E-03 0. -1.
     -623   -1    0    0    0    0  0.00000000000E+00  0.00000000000E+00  0.12525980253E-10  0.17130000000E+03  0.17130000000E+03 0.  1.
       11    1    1    2    0    0 -0.56497353693E-02 -0.30223925317E-03  0.74277265879E-01  0.74494189760E-01  0.51109989000E-03 0. -1.
     -623    1    1    2    0    0  0.38112136725E-02  0.58294621982E-03  0.30843229624E-02  0.17130000007E+03  0.17130000000E+03 0.  1.
      622    1    1    2    0    0  0.18385216968E-02 -0.28070696665E-03  0.39226383785E+01  0.39255057391E+01  0.15000000000E+00 0. -1.
</event>
<event>
 5   0  0.6780500E+06  0.9118800E+02  0.7818608E-02  0.1180000E+00
       11   -1    0    0    0    0  0.00000000000E+00  0.00000000000E+00  0.39999999673E+01  0.40000000000E+01  0.51109989000E-03 0.  1.
     -623   -1    0    0    0    0  0.00000000000E+00  0.00000000000E+00  0.12525980253E-10  0.17130000000E+03  0.17130000000E+03 0.  1.
       11    1    1    2    0    0  0.33918966065E-02 -0.43491120103E-02  0.14802741792E-01  0.15805129722E-01  0.51109989000E-03 0.  1.
     -623    1    1    2    0    0 -0.14459251357E-01  0.83963240251E-03  0.38445987948E-02  0.17130000066E+03  0.17130000000E+03 0.  1.
      622    1    1    2    0    0  0.11067354751E-01  0.35094796078E-02  0.39813526269E+01  0.39841942149E+01  0.15000000000E+00 0.  1.
</event>
<event>
 5   0  0.6780500E+06  0.9118800E+02  0.7818608E-02  0.1180000E+00
       11   -1    0    0    0    0  0.00000000000E+00  0.00000000000E+00  0.39999999673E+01  0.40000000000E+01  0.51109989000E-03 0. -1.
     -623   -1    0    0    0    0  0.00000000000E+00  0.00000000000E+00  0.12525980253E-10  0.17130000000E+03  0.17130000000E+03 0. -1.
       11    1    1    2    0    0  0.52357018687E-01 -0.19950699166E-01  0.51832197131E+00  0.52134174489E+00  0.51109989000E-03 0. -1.
     -623    1    1    2    0    0 -0.14643740635E-01  0.94765542120E-02  0.64766743234E-02  0.17130000101E+03  0.17130000000E+03 0. -1.
      622    1    1    2    0    0 -0.37713278051E-01  0.10474144954E-01  0.34752013217E+01  0.34786572446E+01  0.15000000000E+00 0.  0.
</event>
<event>
 5   0  0.6780500E+06  0.9118800E+02  0.7818608E-02  0.1180000E+00
       11   -1    0    0    0    0  0.00000000000E+00  0.00000000000E+00  0.39999999673E+01  0.40000000000E+01  0.51109989000E-03 0.  1.
     -623   -1    0    0    0    0  0.00000000000E+00  0.00000000000E+00  0.12525980253E-10  0.17130000000E+03  0.17130000000E+03 0.  1.
       11    1    1    2    0    0  0.97951996387E-02  0.68776832818E-02  0.86002801572E-01  0.86833124800E-01  0.51109989000E-03 0.  1.
     -623    1    1    2    0    0  0.46613506456E-02 -0.11362131821E-01  0.37360329841E-02  0.17130000048E+03  0.17130000000E+03 0.  1.
      622    1    1    2    0    0 -0.14456550284E-01  0.44844485388E-02  0.39102611328E+01  0.39131663942E+01  0.15000000000E+00 0.  1.
</event>
<event>
 5   0  0.6780500E+06  0.9118800E+02  0.7818608E-02  0.1180000E+00
       11   -1    0    0    0    0  0.00000000000E+00  0.00000000000E+00  0.39999999673E+01  0.40000000000E+01  0.51109989000E-03 0.  1.
     -623   -1    0    0    0    0  0.00000000000E+00  0.00000000000E+00  0.12525980253E-10  0.17130000000E+03  0.17130000000E+03 0. -1.
       11    1    1    2    0    0 -0.22344081573E-02 -0.60816963903E-02 -0.75662859541E-03  0.65431888805E-02  0.51109989000E-03 0.  1.
     -623    1    1    2    0    0 -0.47508726738E-02 -0.14593123947E-01  0.10178548373E-01  0.17130000099E+03  0.17130000000E+03 0. -1.
      622    1    1    2    0    0  0.69852808311E-02  0.20674820337E-01  0.39905780476E+01  0.39934558213E+01  0.15000000000E+00 0.  1.
</event>
<event>
 5   0  0.6780500E+06  0.9118800E+02  0.7818608E-02  0.1180000E+00
       11   -1    0    0    0    0  0.00000000000E+00  0.00000000000E+00  0.39999999673E+01  0.40000000000E+01  0.51109989000E-03 0. -1.
     -623   -1    0    0    0    0  0.00000000000E+00  0.00000000000E+00  0.12525980253E-10  0.17130000000E+03  0.17130000000E+03 0. -1.
       11    1    1    2    0    0  0.32765844306E-02 -0.87559492633E-03  0.12019272233E-01  0.12499071931E-01  0.51109989000E-03 0. -1.
     -623    1    1    2    0    0  0.10488894243E-02 -0.72705161197E-02  0.33129460006E-02  0.17130000019E+03  0.17130000000E+03 0. -1.
      622    1    1    2    0    0 -0.43254738549E-02  0.81461110460E-02  0.39846677491E+01  0.39875007385E+01  0.15000000000E+00 0. -1.
</event>
<event>
 5   0  0.6780500E+06  0.9118800E+02  0.7818608E-02  0.1180000E+00
       11   -1    0    0    0    0  0.00000000000E+00  0.00000000000E+00  0.39999999673E+01  0.40000000000E+01  0.51109989000E-03 0. -1.
     -623   -1    0    0    0    0  0.00000000000E+00  0.00000000000E+00  0.12525980253E-10  0.17130000000E+03  0.17130000000E+03 0.  1.
       11    1    1    2    0    0  0.15788874060E-01 -0.34981412563E-01  0.37529845884E+00  0.37725612281E+00  0.51109989000E-03 0. -1.
     -623    1    1    2    0    0 -0.24178257004E-01  0.90305434645E-02  0.51691191905E-02  0.17130000202E+03  0.17130000000E+03 0.  1.
      622    1    1    2    0    0  0.83893829440E-02  0.25950869098E-01  0.36195323893E+01  0.36227418548E+01  0.15000000000E+00 0. -1.
</event>
<event>
 5   0  0.6780500E+06  0.9118800E+02  0.7818608E-02  0.1180000E+00
       11   -1    0    0    0    0  0.00000000000E+00  0.00000000000E+00  0.39999999673E+01  0.40000000000E+01  0.51109989000E-03 0.  1.
     -623   -1    0    0    0    0  0.00000000000E+00  0.00000000000E+00  0.12525980253E-10  0.17130000000E+03  0.17130000000E+03 0.  1.
       11    1    1    2    0    0 -0.41917208139E-02 -0.16221741107E-01  0.19046897830E-01  0.25372444606E-01  0.51109989000E-03 0.  1.
     -623    1    1    2    0    0 -0.48171871552E-02  0.47365452675E-02  0.91841792443E-02  0.17130000038E+03  0.17130000000E+03 0.  1.
      622    1    1    2    0    0  0.90089079691E-02  0.11485195839E-01  0.39717688903E+01  0.39746271760E+01  0.15000000000E+00 0.  1.
</event>
<event>
 5   0  0.6780500E+06  0.9118800E+02  0.7818608E-02  0.1180000E+00
       11   -1    0    0    0    0  0.00000000000E+00  0.00000000000E+00  0.39999999673E+01  0.40000000000E+01  0.51109989000E-03 0. -1.
     -623   -1    0    0    0    0  0.00000000000E+00  0.00000000000E+00  0.12525980253E-10  0.17130000000E+03  0.17130000000E+03 0.  1.
       11    1    1    2    0    0  0.16572503472E-01  0.42601878991E-02  0.11265376520E+00  0.11394704520E+00  0.51109989000E-03 0. -1.
     -623    1    1    2    0    0 -0.13142797306E-01  0.62034592093E-02  0.42055758165E-02  0.17130000067E+03  0.17130000000E+03 0.  1.
      622    1    1    2    0    0 -0.34297061664E-02 -0.10463647108E-01  0.38831406263E+01  0.38860522867E+01  0.15000000000E+00 0. -1.
</event>
<event>
 5   0  0.6780500E+06  0.9118800E+02  0.7818608E-02  0.1180000E+00
       11   -1    0    0    0    0  0.00000000000E+00  0.00000000000E+00  0.39999999673E+01  0.40000000000E+01  0.51109989000E-03 0. -1.
     -623   -1    0    0    0    0  0.00000000000E+00  0.00000000000E+00  0.12525980253E-10  0.17130000000E+03  0.17130000000E+03 0. -1.
       11    1    1    2    0    0 -0.18052736085E-01 -0.13203633530E-01  0.67775565682E-01  0.71372443879E-01  0.51109989000E-03 0. -1.
     -623    1    1    2    0    0  0.54348205564E-01 -0.17492107897E-01  0.67589415275E-02  0.17130000965E+03  0.17130000000E+03 0. -1.
      622    1    1    2    0    0 -0.36295469479E-01  0.30695741428E-01  0.39254654602E+01  0.39286179082E+01  0.15000000000E+00 0. -1.
</event>
<event>
 5   0  0.6780500E+06  0.9118800E+02  0.7818608E-02  0.1180000E+00
       11   -1    0    0    0    0  0.00000000000E+00  0.00000000000E+00  0.39999999673E+01  0.40000000000E+01  0.51109989000E-03 0. -1.
     -623   -1    0    0    0    0  0.00000000000E+00  0.00000000000E+00  0.12525980253E-10  0.17130000000E+03  0.17130000000E+03 0.  1.
       11    1    1    2    0    0 -0.13082522136E-01 -0.67643876295E-02  0.57567913870E-01  0.59424197562E-01  0.51109989000E-03 0. -1.
     -623    1    1    2    0    0  0.62768479595E-02 -0.12203377308E-03  0.47242818710E-02  0.17130000018E+03  0.17130000000E+03 0.  1.
      622    1    1    2    0    0  0.68056741763E-02  0.68864214026E-02  0.39377077716E+01  0.39405756223E+01  0.15000000000E+00 0. -1.
</event>
<event>
 5   0  0.6780500E+06  0.9118800E+02  0.7818608E-02  0.1180000E+00
       11   -1    0    0    0    0  0.00000000000E+00  0.00000000000E+00  0.39999999673E+01  0.40000000000E+01  0.51109989000E-03 0.  1.
     -623   -1    0    0    0    0  0.00000000000E+00  0.00000000000E+00  0.12525980253E-10  0.17130000000E+03  0.17130000000E+03 0.  1.
       11    1    1    2    0    0  0.17763939093E-01 -0.21752583427E-01  0.35604245937E+00  0.35714874565E+00  0.51109989000E-03 0.  1.
     -623    1    1    2    0    0  0.11145577316E-01 -0.16465644149E-05  0.43760477491E-02  0.17130000042E+03  0.17130000000E+03 0.  1.
      622    1    1    2    0    0 -0.28909516409E-01  0.21754229992E-01  0.36395814603E+01  0.36428508359E+01  0.15000000000E+00 0.  1.
</event>
<event>
 5   0  0.6780500E+06  0.9118800E+02  0.7818608E-02  0.1180000E+00
       11   -1    0    0    0    0  0.00000000000E+00  0.00000000000E+00  0.39999999673E+01  0.40000000000E+01  0.51109989000E-03 0.  1.
     -623   -1    0    0    0    0  0.00000000000E+00  0.00000000000E+00  0.12525980253E-10  0.17130000000E+03  0.17130000000E+03 0.  1.
       11    1    1    2    0    0  0.85246283800E-01 -0.37781489289E-01  0.40520465093E+00  0.41579494969E+00  0.51109989000E-03 0.  1.
     -623    1    1    2    0    0 -0.17890466207E-02 -0.34212590055E-01  0.15431120876E-01  0.17130000412E+03  0.17130000000E+03 0.  1.
      622    1    1    2    0    0 -0.83457237180E-01  0.71994079344E-01  0.35793641956E+01  0.35842009294E+01  0.15000000000E+00 0.  1.
</event>
<event>
 5   0  0.6780500E+06  0.9118800E+02  0.7818608E-02  0.1180000E+00
       11   -1    0    0    0    0  0.00000000000E+00  0.00000000000E+00  0.39999999673E+01  0.40000000000E+01  0.51109989000E-03 0.  1.
     -623   -1    0    0    0    0  0.00000000000E+00  0.00000000000E+00  0.12525980253E-10  0.17130000000E+03  0.17130000000E+03 0. -1.
       11    1    1    2    0    0 -0.17548522827E-01 -0.18293444412E-01  0.41295661475E-01  0.48458163821E-01  0.51109989000E-03 0.  1.
     -623    1    1    2    0    0  0.14163161185E-02  0.22911372806E-01  0.10047974248E-01  0.17130000183E+03  0.17130000000E+03 0. -1.
      622    1    1    2    0    0  0.16132206708E-01 -0.46179283935E-02  0.39486563316E+01  0.39515400034E+01  0.15000000000E+00 0.  1.
</event>
<event>
 5   0  0.6780500E+06  0.9118800E+02  0.7818608E-02  0.1180000E+00
       11   -1    0    0    0    0  0.00000000000E+00  0.00000000000E+00  0.39999999673E+01  0.40000000000E+01  0.51109989000E-03 0.  1.
     -623   -1    0    0    0    0  0.00000000000E+00  0.00000000000E+00  0.12525980253E-10  0.17130000000E+03  0.17130000000E+03 0.  1.
       11    1    1    2    0    0 -0.47079085350E-02 -0.32507145512E-01  0.28770334149E+00  0.28957270735E+00  0.51109989000E-03 0.  1.
     -623    1    1    2    0    0  0.19815821186E-01  0.88615839029E-02  0.50102082215E-02  0.17130000145E+03  0.17130000000E+03 0.  1.
      622    1    1    2    0    0 -0.15107912651E-01  0.23645561609E-01  0.37072864177E+01  0.37104258441E+01  0.15000000000E+00 0.  1.
</event>
<event>
 5   0  0.6780500E+06  0.9118800E+02  0.7818608E-02  0.1180000E+00
       11   -1    0    0    0    0  0.00000000000E+00  0.00000000000E+00  0.39999999673E+01  0.40000000000E+01  0.51109989000E-03 0. -1.
     -623   -1    0    0    0    0  0.00000000000E+00  0.00000000000E+00  0.12525980253E-10  0.17130000000E+03  0.17130000000E+03 0.  1.
       11    1    1    2    0    0 -0.23846329629E-01 -0.55496364145E-02  0.10652016636E+01  0.10654831258E+01  0.51109989000E-03 0. -1.
     -623    1    1    2    0    0  0.73959860507E-02 -0.14494402116E-01  0.42331594684E-02  0.17130000083E+03  0.17130000000E+03 0.  1.
      622    1    1    2    0    0  0.16450343579E-01  0.20044038530E-01  0.29305651442E+01  0.29345160490E+01  0.15000000000E+00 0. -1.
</event>
<event>
 5   0  0.6780500E+06  0.9118800E+02  0.7818608E-02  0.1180000E+00
       11   -1    0    0    0    0  0.00000000000E+00  0.00000000000E+00  0.39999999673E+01  0.40000000000E+01  0.51109989000E-03 0. -1.
     -623   -1    0    0    0    0  0.00000000000E+00  0.00000000000E+00  0.12525980253E-10  0.17130000000E+03  0.17130000000E+03 0.  1.
       11    1    1    2    0    0 -0.42403630592E-01  0.55262043852E-01  0.25210052966E+00  0.26154712703E+00  0.51109989000E-03 0. -1.
     -623    1    1    2    0    0 -0.81862644993E-02 -0.36126302383E-01  0.12853143647E-01  0.17130000449E+03  0.17130000000E+03 0.  1.
      622    1    1    2    0    0  0.50589895092E-01 -0.19135741469E-01  0.37350462941E+01  0.37384483858E+01  0.15000000000E+00 0. -1.
</event>
<event>
 5   0  0.6780500E+06  0.9118800E+02  0.7818608E-02  0.1180000E+00
       11   -1    0    0    0    0  0.00000000000E+00  0.00000000000E+00  0.39999999673E+01  0.40000000000E+01  0.51109989000E-03 0.  1.
     -623   -1    0    0    0    0  0.00000000000E+00  0.00000000000E+00  0.12525980253E-10  0.17130000000E+03  0.17130000000E+03 0.  1.
       11    1    1    2    0    0 -0.52589044533E-01 -0.58569061262E-01  0.86463118214E+00  0.86820693668E+00  0.51109989000E-03 0.  1.
     -623    1    1    2    0    0  0.38196714819E-01 -0.20597195014E-01  0.82106994376E-02  0.17130000569E+03  0.17130000000E+03 0.  1.
      622    1    1    2    0    0  0.14392329713E-01  0.79166256277E-01  0.31271580858E+01  0.31317873697E+01  0.15000000000E+00 0.  1.
</event>
<event>
 5   0  0.6780500E+06  0.9118800E+02  0.7818608E-02  0.1180000E+00
       11   -1    0    0    0    0  0.00000000000E+00  0.00000000000E+00  0.39999999673E+01  0.40000000000E+01  0.51109989000E-03 0. -1.
     -623   -1    0    0    0    0  0.00000000000E+00  0.00000000000E+00  0.12525980253E-10  0.17130000000E+03  0.17130000000E+03 0.  1.
       11    1    1    2    0    0  0.19918967211E-03  0.50259482103E-02  0.26693654001E+00  0.26698441424E+00  0.51109989000E-03 0. -1.
     -623    1    1    2    0    0 -0.38918733977E-02  0.43576754313E-02  0.30764669071E-02  0.17130000013E+03  0.17130000000E+03 0.  1.
      622    1    1    2    0    0  0.36926837256E-02 -0.93836236416E-02  0.37299869604E+01  0.37330154585E+01  0.15000000000E+00 0. -1.
</event>
<event>
 5   0  0.6780500E+06  0.9118800E+02  0.7818608E-02  0.1180000E+00
       11   -1    0    0    0    0  0.00000000000E+00  0.00000000000E+00  0.39999999673E+01  0.40000000000E+01  0.51109989000E-03 0.  1.
     -623   -1    0    0    0    0  0.00000000000E+00  0.00000000000E+00  0.12525980253E-10  0.17130000000E+03  0.17130000000E+03 0. -1.
       11    1    1    2    0    0 -0.10495128658E-01 -0.31636103224E-01  0.15832720164E+00  0.16179850047E+00  0.51109989000E-03 0.  1.
     -623    1    1    2    0    0  0.86177967800E-02 -0.19507121948E-01  0.67463795824E-02  0.17130000146E+03  0.17130000000E+03 0. -1.
      622    1    1    2    0    0  0.18773318782E-02  0.51143225171E-01  0.38349263861E+01  0.38382000392E+01  0.15000000000E+00 0.  1.
</event>
<event>
 5   0  0.6780500E+06  0.9118800E+02  0.7818608E-02  0.1180000E+00
       11   -1    0    0    0    0  0.00000000000E+00  0.00000000000E+00  0.39999999673E+01  0.40000000000E+01  0.51109989000E-03 0. -1.
     -623   -1    0    0    0    0  0.00000000000E+00  0.00000000000E+00  0.12525980253E-10  0.17130000000E+03  0.17130000000E+03 0. -1.
       11    1    1    2    0    0  0.17165312478E-01 -0.32820187752E-01  0.55473699749E+00  0.55597231071E+00  0.51109989000E-03 0. -1.
     -623    1    1    2    0    0 -0.90415596177E-02 -0.21382202897E-02  0.46908574174E-02  0.17130000032E+03  0.17130000000E+03 0. -1.
      622    1    1    2    0    0 -0.81237528608E-02  0.34958408042E-01  0.34405721125E+01  0.34440273731E+01  0.15000000000E+00 0. -1.
</event>
<event>
 5   0  0.6780500E+06  0.9118800E+02  0.7818608E-02  0.1180000E+00
       11   -1    0    0    0    0  0.00000000000E+00  0.00000000000E+00  0.39999999673E+01  0.40000000000E+01  0.51109989000E-03 0.  1.
     -623   -1    0    0    0    0  0.00000000000E+00  0.00000000000E+00  0.12525980253E-10  0.17130000000E+03  0.17130000000E+03 0. -1.
       11    1    1    2    0    0  0.11261360680E-01  0.10543311152E-01  0.23439339822E-01  0.28064987558E-01  0.51109989000E-03 0.  1.
     -623    1    1    2    0    0 -0.26348455814E-03  0.56426570218E-02  0.75074964416E-02  0.17130000026E+03  0.17130000000E+03 0. -1.
      622    1    1    2    0    0 -0.10997876122E-01 -0.16185968174E-01  0.39690531311E+01  0.39719347548E+01  0.15000000000E+00 0.  1.
</event>
<event>
 5   0  0.6780500E+06  0.9118800E+02  0.7818608E-02  0.1180000E+00
       11   -1    0    0    0    0  0.00000000000E+00  0.00000000000E+00  0.39999999673E+01  0.40000000000E+01  0.51109989000E-03 0. -1.
     -623   -1    0    0    0    0  0.00000000000E+00  0.00000000000E+00  0.12525980253E-10  0.17130000000E+03  0.17130000000E+03 0.  1.
       11    1    1    2    0    0 -0.57809175774E-01  0.32606023245E-01  0.94036518924E+00  0.94270462177E+00  0.51109989000E-03 0. -1.
     -623    1    1    2    0    0  0.85493819863E-03  0.10076476773E-01  0.68513292403E-02  0.17130000044E+03  0.17130000000E+03 0.  1.
      622    1    1    2    0    0  0.56954237575E-01 -0.42682500019E-01  0.30527834490E+01  0.30572949428E+01  0.15000000000E+00 0. -1.
</event>
<event>
 5   0  0.6780500E+06  0.9118800E+02  0.7818608E-02  0.1180000E+00
       11   -1    0    0    0    0  0.00000000000E+00  0.00000000000E+00  0.39999999673E+01  0.40000000000E+01  0.51109989000E-03 0.  1.
     -623   -1    0    0    0    0  0.00000000000E+00  0.00000000000E+00  0.12525980253E-10  0.17130000000E+03  0.17130000000E+03 0.  1.
       11    1    1    2    0    0 -0.20297677133E-01  0.49629641480E-02  0.50861624540E-01  0.54989024214E-01  0.51109989000E-03 0.  1.
     -623    1    1    2    0    0  0.19288313160E-02  0.61935713780E-02  0.70389521246E-02  0.17130000027E+03  0.17130000000E+03 0.  1.
      622    1    1    2    0    0  0.18368845817E-01 -0.11156535526E-01  0.39420993908E+01  0.39450107084E+01  0.15000000000E+00 0.  1.
</event>
<event>
 5   0  0.6780500E+06  0.9118800E+02  0.7818608E-02  0.1180000E+00
       11   -1    0    0    0    0  0.00000000000E+00  0.00000000000E+00  0.39999999673E+01  0.40000000000E+01  0.51109989000E-03 0.  1.
     -623   -1    0    0    0    0  0.00000000000E+00  0.00000000000E+00  0.12525980253E-10  0.17130000000E+03  0.17130000000E+03 0. -1.
       11    1    1    2    0    0  0.27404623666E-01  0.66809741450E-02  0.18643489077E+00  0.18855736138E+00  0.51109989000E-03 0.  1.
     -623    1    1    2    0    0 -0.70062484634E-02  0.26600577641E-01  0.52775643154E-02  0.17130000229E+03  0.17130000000E+03 0. -1.
      622    1    1    2    0    0 -0.20398375203E-01 -0.33281551786E-01  0.38082875122E+01  0.38114403486E+01  0.15000000000E+00 0.  1.
</event>
<event>
 5   0  0.6780500E+06  0.9118800E+02  0.7818608E-02  0.1180000E+00
       11   -1    0    0    0    0  0.00000000000E+00  0.00000000000E+00  0.39999999673E+01  0.40000000000E+01  0.51109989000E-03 0. -1.
     -623   -1    0    0    0    0  0.00000000000E+00  0.00000000000E+00  0.12525980253E-10  0.17130000000E+03  0.17130000000E+03 0.  1.
       11    1    1    2    0    0  0.94616882594E-02 -0.28528143818E-01  0.68831132115E+00  0.68896742635E+00  0.51109989000E-03 0. -1.
     -623    1    1    2    0    0  0.52157832333E-03 -0.39241139896E-02  0.42299177666E-02  0.17130000010E+03  0.17130000000E+03 0.  1.
      622    1    1    2    0    0 -0.99832665827E-02  0.32452257807E-01  0.33074587284E+01  0.33110324757E+01  0.15000000000E+00 0.  0.
</event>
<event>
 5   0  0.6780500E+06  0.9118800E+02  0.7818608E-02  0.1180000E+00
       11   -1    0    0    0    0  0.00000000000E+00  0.00000000000E+00  0.39999999673E+01  0.40000000000E+01  0.51109989000E-03 0.  1.
     -623   -1    0    0    0    0  0.00000000000E+00  0.00000000000E+00  0.12525980253E-10  0.17130000000E+03  0.17130000000E+03 0. -1.
       11    1    1    2    0    0 -0.16777536853E-02 -0.11382915345E-01  0.32485447814E+00  0.32505857750E+00  0.51109989000E-03 0.  1.
     -623    1    1    2    0    0  0.64496698368E-02  0.37652689011E-02  0.32778129568E-02  0.17130000019E+03  0.17130000000E+03 0. -1.
      622    1    1    2    0    0 -0.47719161516E-02  0.76176464433E-02  0.36718676763E+01  0.36749412284E+01  0.15000000000E+00 0.  1.
</event>
<event>
 5   0  0.6780500E+06  0.9118800E+02  0.7818608E-02  0.1180000E+00
       11   -1    0    0    0    0  0.00000000000E+00  0.00000000000E+00  0.39999999673E+01  0.40000000000E+01  0.51109989000E-03 0. -1.
     -623   -1    0    0    0    0  0.00000000000E+00  0.00000000000E+00  0.12525980253E-10  0.17130000000E+03  0.17130000000E+03 0.  1.
       11    1    1    2    0    0  0.11611749303E-02  0.15123389458E-02  0.41131198773E-03  0.20164069417E-02  0.51109989000E-03 0. -1.
     -623    1    1    2    0    0 -0.41814958654E-02 -0.82791232899E-02  0.44271525811E-02  0.17130000031E+03  0.17130000000E+03 0.  1.
      622    1    1    2    0    0  0.30203209351E-02  0.67667843441E-02  0.39951615028E+01  0.39979832847E+01  0.15000000000E+00 0. -1.
</event>
<event>
 5   0  0.6780500E+06  0.9118800E+02  0.7818608E-02  0.1180000E+00
       11   -1    0    0    0    0  0.00000000000E+00  0.00000000000E+00  0.39999999673E+01  0.40000000000E+01  0.51109989000E-03 0.  1.
     -623   -1    0    0    0    0  0.00000000000E+00  0.00000000000E+00  0.12525980253E-10  0.17130000000E+03  0.17130000000E+03 0. -1.
       11    1    1    2    0    0 -0.86852143634E-02  0.23484892650E-02  0.75376941853E+00  0.75382328558E+00  0.51109989000E-03 0.  1.
     -623    1    1    2    0    0  0.48480525307E-02 -0.15491141919E-01  0.35510123726E-02  0.17130000081E+03  0.17130000000E+03 0. -1.
      622    1    1    2    0    0  0.38371618326E-02  0.13142652654E-01  0.32426795365E+01  0.32461759086E+01  0.15000000000E+00 0.  1.
</event>
<event>
 5   0  0.6780500E+06  0.9118800E+02  0.7818608E-02  0.1180000E+00
       11   -1    0    0    0    0  0.00000000000E+00  0.00000000000E+00  0.39999999673E+01  0.40000000000E+01  0.51109989000E-03 0. -1.
     -623   -1    0    0    0    0  0.00000000000E+00  0.00000000000E+00  0.12525980253E-10  0.17130000000E+03  0.17130000000E+03 0.  1.
       11    1    1    2    0    0 -0.37476525501E-02  0.81442851097E-02  0.12510183178E+00  0.12542369720E+00  0.51109989000E-03 0. -1.
     -623    1    1    2    0    0  0.66145730884E-02 -0.47197543955E-02  0.32292641130E-02  0.17130000022E+03  0.17130000000E+03 0.  1.
      622    1    1    2    0    0 -0.28669205385E-02 -0.34245307141E-02  0.38716688716E+01  0.38745760797E+01  0.15000000000E+00 0. -1.
</event>
<event>
 5   0  0.6780500E+06  0.9118800E+02  0.7818608E-02  0.1180000E+00
       11   -1    0    0    0    0  0.00000000000E+00  0.00000000000E+00  0.39999999673E+01  0.40000000000E+01  0.51109989000E-03 0. -1.
     -623   -1    0    0    0    0  0.00000000000E+00  0.00000000000E+00  0.12525980253E-10  0.17130000000E+03  0.17130000000E+03 0.  1.
       11    1    1    2    0    0  0.30080094363E-01 -0.87245537017E-01  0.66561497870E+00  0.67198225936E+00  0.51109989000E-03 0. -1.
     -623    1    1    2    0    0 -0.99654331868E-01  0.44800116245E-01  0.10783673296E-01  0.17130003518E+03  0.17130000000E+03 0.  1.
      622    1    1    2    0    0  0.69574237506E-01  0.42445420772E-01  0.33236013154E+01  0.33279825558E+01  0.15000000000E+00 0. -1.
</event>
<event>
 5   0  0.6780500E+06  0.9118800E+02  0.7818608E-02  0.1180000E+00
       11   -1    0    0    0    0  0.00000000000E+00  0.00000000000E+00  0.39999999673E+01  0.40000000000E+01  0.51109989000E-03 0. -1.
     -623   -1    0    0    0    0  0.00000000000E+00  0.00000000000E+00  0.12525980253E-10  0.17130000000E+03  0.17130000000E+03 0. -1.
       11    1    1    2    0    0 -0.54372263578E-01  0.57931548574E-02  0.60050974029E+00  0.60299428944E+00  0.51109989000E-03 0. -1.
     -623    1    1    2    0    0 -0.43884843488E-01  0.30430473666E-02  0.72379006730E-02  0.17130000580E+03  0.17130000000E+03 0. -1.
      622    1    1    2    0    0  0.98257107066E-01 -0.88362022240E-02  0.33922523264E+01  0.33969999093E+01  0.15000000000E+00 0.  0.
</event>
<event>
 5   0  0.6780500E+06  0.9118800E+02  0.7818608E-02  0.1180000E+00
       11   -1    0    0    0    0  0.00000000000E+00  0.00000000000E+00  0.39999999673E+01  0.40000000000E+01  0.51109989000E-03 0. -1.
     -623   -1    0    0    0    0  0.00000000000E+00  0.00000000000E+00  0.12525980253E-10  0.17130000000E+03  0.17130000000E+03 0. -1.
       11    1    1    2    0    0 -0.30770466875E-01 -0.13583894860E-01  0.63193844705E+00  0.63283315803E+00  0.51109989000E-03 0. -1.
     -623    1    1    2    0    0 -0.26810150643E-01  0.16876843014E-01  0.47348929411E-02  0.17130000299E+03  0.17130000000E+03 0. -1.
      622    1    1    2    0    0  0.57580617518E-01 -0.32929481544E-02  0.33633266274E+01  0.33671638471E+01  0.15000000000E+00 0. -1.
</event>
<event>
 5   0  0.6780500E+06  0.9118800E+02  0.7818608E-02  0.1180000E+00
       11   -1    0    0    0    0  0.00000000000E+00  0.00000000000E+00  0.39999999673E+01  0.40000000000E+01  0.51109989000E-03 0.  1.
     -623   -1    0    0    0    0  0.00000000000E+00  0.00000000000E+00  0.12525980253E-10  0.17130000000E+03  0.17130000000E+03 0. -1.
       11    1    1    2    0    0  0.52191537170E-02  0.48825928217E-01  0.31150027707E+00  0.31534726044E+00  0.51109989000E-03 0.  1.
     -623    1    1    2    0    0 -0.10902683201E-01  0.50894657829E-02  0.73011927565E-02  0.17130000058E+03  0.17130000000E+03 0. -1.
      622    1    1    2    0    0  0.56835294838E-02 -0.53915394000E-01  0.36811984976E+01  0.36846521614E+01  0.15000000000E+00 0.  1.
</event>
<event>
 5   0  0.6780500E+06  0.9118800E+02  0.7818608E-02  0.1180000E+00
       11   -1    0    0    0    0  0.00000000000E+00  0.00000000000E+00  0.39999999673E+01  0.40000000000E+01  0.51109989000E-03 0. -1.
     -623   -1    0    0    0    0  0.00000000000E+00  0.00000000000E+00  0.12525980253E-10  0.17130000000E+03  0.17130000000E+03 0. -1.
       11    1    1    2    0    0 -0.24605307377E-01 -0.19723892398E-01  0.37675220361E+00  0.37807001631E+00  0.51109989000E-03 0. -1.
     -623    1    1    2    0    0  0.77820303802E-01 -0.65587981451E-04  0.48883571065E-02  0.17130001775E+03  0.17130000000E+03 0. -1.
      622    1    1    2    0    0 -0.53214996425E-01  0.19789480380E-01  0.36183594066E+01  0.36219122373E+01  0.15000000000E+00 0. -1.
</event>
<event>
 5   0  0.6780500E+06  0.9118800E+02  0.7818608E-02  0.1180000E+00
       11   -1    0    0    0    0  0.00000000000E+00  0.00000000000E+00  0.39999999673E+01  0.40000000000E+01  0.51109989000E-03 0.  1.
     -623   -1    0    0    0    0  0.00000000000E+00  0.00000000000E+00  0.12525980253E-10  0.17130000000E+03  0.17130000000E+03 0. -1.
       11    1    1    2    0    0  0.12528992194E-02 -0.43947491157E-02  0.50180098444E-03  0.46256462867E-02  0.51109989000E-03 0.  1.
     -623    1    1    2    0    0 -0.65353128956E-02  0.23032989859E-02  0.69448851524E-02  0.17130000028E+03  0.17130000000E+03 0. -1.
      622    1    1    2    0    0  0.52824136763E-02  0.20914501298E-02  0.39925532813E+01  0.39953740728E+01  0.15000000000E+00 0.  1.
</event>
<event>
 5   0  0.6780500E+06  0.9118800E+02  0.7818608E-02  0.1180000E+00
       11   -1    0    0    0    0  0.00000000000E+00  0.00000000000E+00  0.39999999673E+01  0.40000000000E+01  0.51109989000E-03 0.  1.
     -623   -1    0    0    0    0  0.00000000000E+00  0.00000000000E+00  0.12525980253E-10  0.17130000000E+03  0.17130000000E+03 0. -1.
       11    1    1    2    0    0 -0.82293675111E-02 -0.22554129332E-01  0.13766313034E+00  0.13974194044E+00  0.51109989000E-03 0.  1.
     -623    1    1    2    0    0 -0.26273994866E-02  0.13061153359E-01  0.50217432956E-02  0.17130000059E+03  0.17130000000E+03 0. -1.
      622    1    1    2    0    0  0.10856766998E-01  0.94929759728E-02  0.38573150937E+01  0.38602574679E+01  0.15000000000E+00 0.  0.
</event>
<event>
 5   0  0.6780500E+06  0.9118800E+02  0.7818608E-02  0.1180000E+00
       11   -1    0    0    0    0  0.00000000000E+00  0.00000000000E+00  0.39999999673E+01  0.40000000000E+01  0.51109989000E-03 0.  1.
     -623   -1    0    0    0    0  0.00000000000E+00  0.00000000000E+00  0.12525980253E-10  0.17130000000E+03  0.17130000000E+03 0.  1.
       11    1    1    2    0    0 -0.78600949042E-02  0.88161475171E-02  0.12814202051E+00  0.12868622378E+00  0.51109989000E-03 0.  1.
     -623    1    1    2    0    0  0.30035110777E-02  0.71318665661E-03  0.34661010814E-02  0.17130000006E+03  0.17130000000E+03 0.  1.
      622    1    1    2    0    0  0.48565838265E-02 -0.95293341737E-02  0.38683918458E+01  0.38713137133E+01  0.15000000000E+00 0.  1.
</event>
<event>
 5   0  0.6780500E+06  0.9118800E+02  0.7818608E-02  0.1180000E+00
       11   -1    0    0    0    0  0.00000000000E+00  0.00000000000E+00  0.39999999673E+01  0.40000000000E+01  0.51109989000E-03 0. -1.
     -623   -1    0    0    0    0  0.00000000000E+00  0.00000000000E+00  0.12525980253E-10  0.17130000000E+03  0.17130000000E+03 0.  1.
       11    1    1    2    0    0  0.18346410194E-02 -0.24719438349E-01  0.23987952819E-01  0.34497820851E-01  0.51109989000E-03 0. -1.
     -623    1    1    2    0    0  0.46846627836E-01  0.92158462127E-02  0.13684390470E-01  0.17130000720E+03  0.17130000000E+03 0.  1.
      622    1    1    2    0    0 -0.48681268855E-01  0.15503592136E-01  0.39623276241E+01  0.39654949789E+01  0.15000000000E+00 0. -1.
</event>
<event>
 5   0  0.6780500E+06  0.9118800E+02  0.7818608E-02  0.1180000E+00
       11   -1    0    0    0    0  0.00000000000E+00  0.00000000000E+00  0.39999999673E+01  0.40000000000E+01  0.51109989000E-03 0. -1.
     -623   -1    0    0    0    0  0.00000000000E+00  0.00000000000E+00  0.12525980253E-10  0.17130000000E+03  0.17130000000E+03 0.  1.
       11    1    1    2    0    0  0.98307055767E-02 -0.14849332249E-02  0.47042691095E+00  0.47053223860E+00  0.51109989000E-03 0. -1.
     -623    1    1    2    0    0 -0.11037144544E-01 -0.17602510708E-01  0.33473450015E-02  0.17130000129E+03  0.17130000000E+03 0.  1.
      622    1    1    2    0    0  0.12064389674E-02  0.19087443933E-01  0.35262257114E+01  0.35294664687E+01  0.15000000000E+00 0. -1.
</event>
<event>
 5   0  0.6780500E+06  0.9118800E+02  0.7818608E-02  0.1180000E+00
       11   -1    0    0    0    0  0.00000000000E+00  0.00000000000E+00  0.39999999673E+01  0.40000000000E+01  0.51109989000E-03 0. -1.
     -623   -1    0    0    0    0  0.00000000000E+00  0.00000000000E+00  0.12525980253E-10  0.17130000000E+03  0.17130000000E+03 0.  1.
       11    1    1    2    0    0  0.50705366423E-01 -0.18377500568E+00  0.64845972419E+00  0.67590277557E+00  0.51109989000E-03 0. -1.
     -623    1    1    2    0    0 -0.32652948006E-01  0.13667123279E-01  0.35245419790E-01  0.17130000728E+03  0.17130000000E+03 0.  1.
      622    1    1    2    0    0 -0.18052418417E-01  0.17010788240E+00  0.33162948234E+01  0.33240899412E+01  0.15000000000E+00 0. -1.
</event>
<event>
 5   0  0.6780500E+06  0.9118800E+02  0.7818608E-02  0.1180000E+00
       11   -1    0    0    0    0  0.00000000000E+00  0.00000000000E+00  0.39999999673E+01  0.40000000000E+01  0.51109989000E-03 0. -1.
     -623   -1    0    0    0    0  0.00000000000E+00  0.00000000000E+00  0.12525980253E-10  0.17130000000E+03  0.17130000000E+03 0.  1.
       11    1    1    2    0    0  0.35561412475E-01  0.16801995036E-01  0.55137417927E+00  0.55277542265E+00  0.51109989000E-03 0. -1.
     -623    1    1    2    0    0 -0.53905729158E-02 -0.20797657752E-01  0.48021444426E-02  0.17130000141E+03  0.17130000000E+03 0.  1.
      622    1    1    2    0    0 -0.30170839560E-01  0.39956627165E-02  0.34438236436E+01  0.34472231626E+01  0.15000000000E+00 0. -1.
</event>
<event>
 5   0  0.6780500E+06  0.9118800E+02  0.7818608E-02  0.1180000E+00
       11   -1    0    0    0    0  0.00000000000E+00  0.00000000000E+00  0.39999999673E+01  0.40000000000E+01  0.51109989000E-03 0. -1.
     -623   -1    0    0    0    0  0.00000000000E+00  0.00000000000E+00  0.12525980253E-10  0.17130000000E+03  0.17130000000E+03 0.  1.
       11    1    1    2    0    0 -0.97538704747E-02 -0.18617050590E-01  0.19420074366E+00  0.19533541057E+00  0.51109989000E-03 0. -1.
     -623    1    1    2    0    0  0.15595255216E-02  0.55617473670E-02  0.41240756886E-02  0.17130000015E+03  0.17130000000E+03 0.  1.
      622    1    1    2    0    0  0.81943449531E-02  0.13055303223E-01  0.38016751481E+01  0.38046644425E+01  0.15000000000E+00 0.  0.
</event>
<event>
 5   0  0.6780500E+06  0.9118800E+02  0.7818608E-02  0.1180000E+00
       11   -1    0    0    0    0  0.00000000000E+00  0.00000000000E+00  0.39999999673E+01  0.40000000000E+01  0.51109989000E-03 0. -1.
     -623   -1    0    0    0    0  0.00000000000E+00  0.00000000000E+00  0.12525980253E-10  0.17130000000E+03  0.17130000000E+03 0.  1.
       11    1    1    2    0    0  0.11630635223E-01  0.19111587449E-01  0.36607744564E-01  0.42905857813E-01  0.51109989000E-03 0. -1.
     -623    1    1    2    0    0  0.33000423653E-01 -0.36030565998E-01  0.94374097507E-02  0.17130000723E+03  0.17130000000E+03 0.  1.
      622    1    1    2    0    0 -0.44631058876E-01  0.16918978549E-01  0.39539548130E+01  0.39570869142E+01  0.15000000000E+00 0. -1.
</event>
<event>
 5   0  0.6780500E+06  0.9118800E+02  0.7818608E-02  0.1180000E+00
       11   -1    0    0    0    0  0.00000000000E+00  0.00000000000E+00  0.39999999673E+01  0.40000000000E+01  0.51109989000E-03 0.  1.
     -623   -1    0    0    0    0  0.00000000000E+00  0.00000000000E+00  0.12525980253E-10  0.17130000000E+03  0.17130000000E+03 0.  1.
       11    1    1    2    0    0  0.47451851928E-02 -0.23519257327E-01  0.12931605068E+00  0.13152404508E+00  0.51109989000E-03 0.  1.
     -623    1    1    2    0    0 -0.12456577751E-01 -0.42322226114E-02  0.52250721957E-02  0.17130000058E+03  0.17130000000E+03 0.  1.
      622    1    1    2    0    0  0.77113925586E-02  0.27751479938E-01  0.38654588445E+01  0.38684753700E+01  0.15000000000E+00 0.  1.
</event>
<event>
 5   0  0.6780500E+06  0.9118800E+02  0.7818608E-02  0.1180000E+00
       11   -1    0    0    0    0  0.00000000000E+00  0.00000000000E+00  0.39999999673E+01  0.40000000000E+01  0.51109989000E-03 0.  1.
     -623   -1    0    0    0    0  0.00000000000E+00  0.00000000000E+00  0.12525980253E-10  0.17130000000E+03  0.17130000000E+03 0. -1.
       11    1    1    2    0    0 -0.12548604415E-01  0.91361650201E-02  0.25581604537E+00  0.25628704079E+00  0.51109989000E-03 0.  1.
     -623    1    1    2    0    0  0.12768102653E-01  0.56605765005E-02  0.35070851990E-02  0.17130000061E+03  0.17130000000E+03 0. -1.
      622    1    1    2    0    0 -0.21949823860E-03 -0.14796741521E-01  0.37406768369E+01  0.37437123540E+01  0.15000000000E+00 0.  1.
</event>
<event>
 5   0  0.6780500E+06  0.9118800E+02  0.7818608E-02  0.1180000E+00
       11   -1    0    0    0    0  0.00000000000E+00  0.00000000000E+00  0.39999999673E+01  0.40000000000E+01  0.51109989000E-03 0.  1.
     -623   -1    0    0    0    0  0.00000000000E+00  0.00000000000E+00  0.12525980253E-10  0.17130000000E+03  0.17130000000E+03 0. -1.
       11    1    1    2    0    0 -0.70959200818E-02  0.21287211722E-01  0.49470894373E-01  0.54324286261E-01  0.51109989000E-03 0.  1.
     -623    1    1    2    0    0 -0.81993763946E-02 -0.86372403190E-02  0.77561632775E-02  0.17130000059E+03  0.17130000000E+03 0. -1.
      622    1    1    2    0    0  0.15295296477E-01 -0.12649971403E-01  0.39427729097E+01  0.39456751242E+01  0.15000000000E+00 0.  1.
</event>
<event>
 5   0  0.6780500E+06  0.9118800E+02  0.7818608E-02  0.1180000E+00
       11   -1    0    0    0    0  0.00000000000E+00  0.00000000000E+00  0.39999999673E+01  0.40000000000E+01  0.51109989000E-03 0. -1.
     -623   -1    0    0    0    0  0.00000000000E+00  0.00000000000E+00  0.12525980253E-10  0.17130000000E+03  0.17130000000E+03 0.  1.
       11    1    1    2    0    0  0.23055544448E-01  0.17034221941E-01  0.59877373435E-01  0.66387377713E-01  0.51109989000E-03 0. -1.
     -623    1    1    2    0    0 -0.26209022164E-01  0.61924263491E-02  0.94432457041E-02  0.17130000238E+03  0.17130000000E+03 0.  1.
      622    1    1    2    0    0  0.31534777161E-02 -0.23226648290E-01  0.39306793482E+01  0.39336102451E+01  0.15000000000E+00 0. -1.
</event>
<event>
 5   0  0.6780500E+06  0.9118800E+02  0.7818608E-02  0.1180000E+00
       11   -1    0    0    0    0  0.00000000000E+00  0.00000000000E+00  0.39999999673E+01  0.40000000000E+01  0.51109989000E-03 0.  1.
     -623   -1    0    0    0    0  0.00000000000E+00  0.00000000000E+00  0.12525980253E-10  0.17130000000E+03  0.17130000000E+03 0.  1.
       11    1    1    2    0    0 -0.16112126429E-02  0.26652484472E-01  0.32691990510E-01  0.42213486012E-01  0.51109989000E-03 0.  1.
     -623    1    1    2    0    0 -0.87590632711E-02 -0.17489798640E-01  0.12390758304E-01  0.17130000156E+03  0.17130000000E+03 0.  1.
      622    1    1    2    0    0  0.10370275914E-01 -0.91626858318E-02  0.39549172186E+01  0.39577849491E+01  0.15000000000E+00 0.  1.
</event>
<event>
 5   0  0.6780500E+06  0.9118800E+02  0.7818608E-02  0.1180000E+00
       11   -1    0    0    0    0  0.00000000000E+00  0.00000000000E+00  0.39999999673E+01  0.40000000000E+01  0.51109989000E-03 0.  1.
     -623   -1    0    0    0    0  0.00000000000E+00  0.00000000000E+00  0.12525980253E-10  0.17130000000E+03  0.17130000000E+03 0. -1.
       11    1    1    2    0    0  0.12353639243E+00 -0.58043411751E-01  0.75080670946E+00  0.76311287113E+00  0.51109989000E-03 0.  1.
     -623    1    1    2    0    0 -0.11806686819E+00  0.85137220177E-01  0.15964359143E-01  0.17130006259E+03  0.17130000000E+03 0. -1.
      622    1    1    2    0    0 -0.54695242455E-02 -0.27093808426E-01  0.32332288988E+01  0.32368245399E+01  0.15000000000E+00 0.  1.
</event>
<event>
 5   0  0.6780500E+06  0.9118800E+02  0.7818608E-02  0.1180000E+00
       11   -1    0    0    0    0  0.00000000000E+00  0.00000000000E+00  0.39999999673E+01  0.40000000000E+01  0.51109989000E-03 0.  1.
     -623   -1    0    0    0    0  0.00000000000E+00  0.00000000000E+00  0.12525980253E-10  0.17130000000E+03  0.17130000000E+03 0. -1.
       11    1    1    2    0    0 -0.17558813991E-02 -0.78096685501E-02  0.64769727873E+00  0.64774694143E+00  0.51109989000E-03 0.  1.
     -623    1    1    2    0    0  0.80735601058E-02  0.51644321304E-02  0.34145697740E-02  0.17130000030E+03  0.17130000000E+03 0. -1.
      622    1    1    2    0    0 -0.63176787065E-02  0.26452364198E-02  0.33488881188E+01  0.33522527563E+01  0.15000000000E+00 0.  1.
</event>
<event>
 5   0  0.6780500E+06  0.9118800E+02  0.7818608E-02  0.1180000E+00
       11   -1    0    0    0    0  0.00000000000E+00  0.00000000000E+00  0.39999999673E+01  0.40000000000E+01  0.51109989000E-03 0.  1.
     -623   -1    0    0    0    0  0.00000000000E+00  0.00000000000E+00  0.12525980253E-10  0.17130000000E+03  0.17130000000E+03 0.  1.
       11    1    1    2    0    0  0.15020649371E-02 -0.23281497524E-03  0.24223690479E-02  0.29050810802E-02  0.51109989000E-03 0.  1.
     -623    1    1    2    0    0  0.21936362291E-02  0.84883809143E-02  0.33087128615E-02  0.17130000026E+03  0.17130000000E+03 0.  1.
      622    1    1    2    0    0 -0.36957011662E-02 -0.82555659391E-02  0.39942688855E+01  0.39970946626E+01  0.15000000000E+00 0.  1.
</event>
<event>
 5   0  0.6780500E+06  0.9118800E+02  0.7818608E-02  0.1180000E+00
       11   -1    0    0    0    0  0.00000000000E+00  0.00000000000E+00  0.39999999673E+01  0.40000000000E+01  0.51109989000E-03 0. -1.
     -623   -1    0    0    0    0  0.00000000000E+00  0.00000000000E+00  0.12525980253E-10  0.17130000000E+03  0.17130000000E+03 0. -1.
       11    1    1    2    0    0  0.70913478700E-02  0.10361333142E-01  0.17841756348E+00  0.17885953321E+00  0.51109989000E-03 0. -1.
     -623    1    1    2    0    0 -0.13850377627E-01 -0.24037711257E-01  0.34199780535E-02  0.17130000228E+03  0.17130000000E+03 0. -1.
      622    1    1    2    0    0  0.67590297574E-02  0.13676378115E-01  0.38181624258E+01  0.38211381862E+01  0.15000000000E+00 0. -1.
</event>
<event>
 5   0  0.6780500E+06  0.9118800E+02  0.7818608E-02  0.1180000E+00
       11   -1    0    0    0    0  0.00000000000E+00  0.00000000000E+00  0.39999999673E+01  0.40000000000E+01  0.51109989000E-03 0.  1.
     -623   -1    0    0    0    0  0.00000000000E+00  0.00000000000E+00  0.12525980253E-10  0.17130000000E+03  0.17130000000E+03 0. -1.
       11    1    1    2    0    0  0.21892596255E-01  0.72945143469E-02  0.31046431721E+00  0.31132113515E+00  0.51109989000E-03 0.  1.
     -623    1    1    2    0    0 -0.29129835825E-03  0.13549125526E-01  0.40307471812E-02  0.17130000058E+03  0.17130000000E+03 0. -1.
      622    1    1    2    0    0 -0.21601297896E-01 -0.20843639873E-01  0.36855049030E+01  0.36886782813E+01  0.15000000000E+00 0.  1.
</event>
<event>
 5   0  0.6780500E+06  0.9118800E+02  0.7818608E-02  0.1180000E+00
       11   -1    0    0    0    0  0.00000000000E+00  0.00000000000E+00  0.39999999673E+01  0.40000000000E+01  0.51109989000E-03 0. -1.
     -623   -1    0    0    0    0  0.00000000000E+00  0.00000000000E+00  0.12525980253E-10  0.17130000000E+03  0.17130000000E+03 0. -1.
       11    1    1    2    0    0  0.90596166152E-02  0.48811136301E-02  0.14566134735E+00  0.14602531033E+00  0.51109989000E-03 0. -1.
     -623    1    1    2    0    0 -0.14488131439E-02  0.60437705809E-02  0.33072625548E-02  0.17130000014E+03  0.17130000000E+03 0. -1.
      622    1    1    2    0    0 -0.76108034713E-02 -0.10924884211E-01  0.38510313575E+01  0.38539745450E+01  0.15000000000E+00 0. -1.
</event>
<event>
 5   0  0.6780500E+06  0.9118800E+02  0.7818608E-02  0.1180000E+00
       11   -1    0    0    0    0  0.00000000000E+00  0.00000000000E+00  0.39999999673E+01  0.40000000000E+01  0.51109989000E-03 0. -1.
     -623   -1    0    0    0    0  0.00000000000E+00  0.00000000000E+00  0.12525980253E-10  0.17130000000E+03  0.17130000000E+03 0.  1.
       11    1    1    2    0    0 -0.27104084953E-02 -0.57039672855E-01  0.49458918939E+00  0.49787508281E+00  0.51109989000E-03 0. -1.
     -623    1    1    2    0    0 -0.17137119565E-01  0.10414426392E-01  0.68679510499E-02  0.17130000131E+03  0.17130000000E+03 0.  1.
      622    1    1    2    0    0  0.19847528060E-01  0.46625246463E-01  0.34985428270E+01  0.35021236058E+01  0.15000000000E+00 0. -1.
</event>
<event>
 5   0  0.6780500E+06  0.9118800E+02  0.7818608E-02  0.1180000E+00
       11   -1    0    0    0    0  0.00000000000E+00  0.00000000000E+00  0.39999999673E+01  0.40000000000E+01  0.51109989000E-03 0. -1.
     -623   -1    0    0    0    0  0.00000000000E+00  0.00000000000E+00  0.12525980253E-10  0.17130000000E+03  0.17130000000E+03 0.  1.
       11    1    1    2    0    0 -0.71787205920E-02 -0.14351501011E-01  0.64106642503E+00  0.64126743417E+00  0.51109989000E-03 0. -1.
     -623    1    1    2    0    0  0.54480339711E-02  0.14901742717E-01  0.35533899312E-02  0.17130000077E+03  0.17130000000E+03 0.  1.
      622    1    1    2    0    0  0.17306866207E-02 -0.55024170669E-03  0.33553801525E+01  0.33587317943E+01  0.15000000000E+00 0. -1.
</event>
<event>
 5   0  0.6780500E+06  0.9118800E+02  0.7818608E-02  0.1180000E+00
       11   -1    0    0    0    0  0.00000000000E+00  0.00000000000E+00  0.39999999673E+01  0.40000000000E+01  0.51109989000E-03 0. -1.
     -623   -1    0    0    0    0  0.00000000000E+00  0.00000000000E+00  0.12525980253E-10  0.17130000000E+03  0.17130000000E+03 0. -1.
       11    1    1    2    0    0 -0.45422586395E-04 -0.83870325823E-03 -0.12463545989E-02  0.15874851969E-02  0.51109989000E-03 0. -1.
     -623    1    1    2    0    0 -0.90149533829E-02  0.73361133457E-02  0.56644582400E-02  0.17130000049E+03  0.17130000000E+03 0. -1.
      622    1    1    2    0    0  0.90603759693E-02 -0.64974100875E-02  0.39955818637E+01  0.39984120269E+01  0.15000000000E+00 0. -1.
</event>
<event>
 5   0  0.6780500E+06  0.9118800E+02  0.7818608E-02  0.1180000E+00
       11   -1    0    0    0    0  0.00000000000E+00  0.00000000000E+00  0.39999999673E+01  0.40000000000E+01  0.51109989000E-03 0. -1.
     -623   -1    0    0    0    0  0.00000000000E+00  0.00000000000E+00  0.12525980253E-10  0.17130000000E+03  0.17130000000E+03 0.  1.
       11    1    1    2    0    0  0.39264005989E-02  0.13707731493E-01  0.25869003457E-01  0.29542936315E-01  0.51109989000E-03 0. -1.
     -623    1    1    2    0    0  0.40631264327E-02 -0.18893943703E-01  0.65209877699E-02  0.17130000121E+03  0.17130000000E+03 0.  1.
      622    1    1    2    0    0 -0.79895270316E-02  0.51862122107E-02  0.39676099761E+01  0.39704558494E+01  0.15000000000E+00 0. -1.
</event>
<event>
 5   0  0.6780500E+06  0.9118800E+02  0.7818608E-02  0.1180000E+00
       11   -1    0    0    0    0  0.00000000000E+00  0.00000000000E+00  0.39999999673E+01  0.40000000000E+01  0.51109989000E-03 0. -1.
     -623   -1    0    0    0    0  0.00000000000E+00  0.00000000000E+00  0.12525980253E-10  0.17130000000E+03  0.17130000000E+03 0. -1.
       11    1    1    2    0    0  0.66195128874E-02 -0.81025604825E-02  0.11361391285E-01  0.15453539056E-01  0.51109989000E-03 0. -1.
     -623    1    1    2    0    0  0.17772456862E-02 -0.22710373434E-01  0.70462649912E-02  0.17130000166E+03  0.17130000000E+03 0. -1.
      622    1    1    2    0    0 -0.83967585736E-02  0.30812933917E-01  0.39815923111E+01  0.39845448014E+01  0.15000000000E+00 0. -1.
</event>
<event>
 5   0  0.6780500E+06  0.9118800E+02  0.7818608E-02  0.1180000E+00
       11   -1    0    0    0    0  0.00000000000E+00  0.00000000000E+00  0.39999999673E+01  0.40000000000E+01  0.51109989000E-03 0. -1.
     -623   -1    0    0    0    0  0.00000000000E+00  0.00000000000E+00  0.12525980253E-10  0.17130000000E+03  0.17130000000E+03 0.  1.
       11    1    1    2    0    0 -0.26903876487E-02  0.26251673777E-01  0.11285165535E+00  0.11589713500E+00  0.51109989000E-03 0. -1.
     -623    1    1    2    0    0  0.87300548768E-02 -0.81167747549E-02  0.59905365292E-02  0.17130000052E+03  0.17130000000E+03 0.  1.
      622    1    1    2    0    0 -0.60396672282E-02 -0.18134899022E-01  0.38811577755E+01  0.38841023455E+01  0.15000000000E+00 0. -1.
</event>
<event>
 5   0  0.6780500E+06  0.9118800E+02  0.7818608E-02  0.1180000E+00
       11   -1    0    0    0    0  0.00000000000E+00  0.00000000000E+00  0.39999999673E+01  0.40000000000E+01  0.51109989000E-03 0. -1.
     -623   -1    0    0    0    0  0.00000000000E+00  0.00000000000E+00  0.12525980253E-10  0.17130000000E+03  0.17130000000E+03 0.  1.
       11    1    1    2    0    0  0.28770157112E-01 -0.88730125019E-02  0.71313735034E+00  0.71377278875E+00  0.51109989000E-03 0. -1.
     -623    1    1    2    0    0 -0.12508612745E-01  0.25702455931E-02  0.41074221843E-02  0.17130000053E+03  0.17130000000E+03 0.  1.
      622    1    1    2    0    0 -0.16261544368E-01  0.63027669087E-02  0.32827551948E+01  0.32862266860E+01  0.15000000000E+00 0. -1.
</event>
<event>
 5   0  0.6780500E+06  0.9118800E+02  0.7818608E-02  0.1180000E+00
       11   -1    0    0    0    0  0.00000000000E+00  0.00000000000E+00  0.39999999673E+01  0.40000000000E+01  0.51109989000E-03 0.  1.
     -623   -1    0    0    0    0  0.00000000000E+00  0.00000000000E+00  0.12525980253E-10  0.17130000000E+03  0.17130000000E+03 0.  1.
       11    1    1    2    0    0  0.82592492067E-01 -0.25607035177E-01  0.34363716902E+00  0.35435011662E+00  0.51109989000E-03 0.  1.
     -623    1    1    2    0    0 -0.10317914629E-01 -0.40604935402E-02  0.14639014475E-01  0.17130000098E+03  0.17130000000E+03 0.  1.
      622    1    1    2    0    0 -0.72274577438E-01  0.29667528717E-01  0.36417237839E+01  0.36456488990E+01  0.15000000000E+00 0.  1.
</event>
<event>
 5   0  0.6780500E+06  0.9118800E+02  0.7818608E-02  0.1180000E+00
       11   -1    0    0    0    0  0.00000000000E+00  0.00000000000E+00  0.39999999673E+01  0.40000000000E+01  0.51109989000E-03 0. -1.
     -623   -1    0    0    0    0  0.00000000000E+00  0.00000000000E+00  0.12525980253E-10  0.17130000000E+03  0.17130000000E+03 0. -1.
       11    1    1    2    0    0 -0.95470521539E-02  0.12412799047E-01  0.18647746586E+00  0.18713452456E+00  0.51109989000E-03 0. -1.
     -623    1    1    2    0    0  0.78024086805E-03  0.54901041506E-02  0.36609843157E-02  0.17130000013E+03  0.17130000000E+03 0. -1.
      622    1    1    2    0    0  0.87668112858E-02 -0.17902903198E-01  0.38098615172E+01  0.38128653466E+01  0.15000000000E+00 0. -1.
</event>
<event>
 5   0  0.6780500E+06  0.9118800E+02  0.7818608E-02  0.1180000E+00
       11   -1    0    0    0    0  0.00000000000E+00  0.00000000000E+00  0.39999999673E+01  0.40000000000E+01  0.51109989000E-03 0.  1.
     -623   -1    0    0    0    0  0.00000000000E+00  0.00000000000E+00  0.12525980253E-10  0.17130000000E+03  0.17130000000E+03 0.  1.
       11    1    1    2    0    0  0.10954488106E-03 -0.30199787660E-03 -0.50005399936E-03  0.78388768218E-03  0.51109989000E-03 0.  1.
     -623    1    1    2    0    0  0.23732893229E-02  0.42957785581E-02  0.41008366758E-02  0.17130000012E+03  0.17130000000E+03 0.  1.
      622    1    1    2    0    0 -0.24828342039E-02 -0.39937806815E-02  0.39963991847E+01  0.39992159929E+01  0.15000000000E+00 0.  1.
</event>
<event>
 5   0  0.6780500E+06  0.9118800E+02  0.7818608E-02  0.1180000E+00
       11   -1    0    0    0    0  0.00000000000E+00  0.00000000000E+00  0.39999999673E+01  0.40000000000E+01  0.51109989000E-03 0.  1.
     -623   -1    0    0    0    0  0.00000000000E+00  0.00000000000E+00  0.12525980253E-10  0.17130000000E+03  0.17130000000E+03 0. -1.
       11    1    1    2    0    0 -0.38555182200E-01  0.17559437684E-01  0.28871850971E+00  0.29181068349E+00  0.51109989000E-03 0.  1.
     -623    1    1    2    0    0  0.26673868979E-01 -0.46115145126E-01  0.62647065118E-02  0.17130000840E+03  0.17130000000E+03 0. -1.
      622    1    1    2    0    0  0.11881313221E-01  0.28555707442E-01  0.37050167511E+01  0.37081809179E+01  0.15000000000E+00 0.  1.
</event>
<event>
 5   0  0.6780500E+06  0.9118800E+02  0.7818608E-02  0.1180000E+00
       11   -1    0    0    0    0  0.00000000000E+00  0.00000000000E+00  0.39999999673E+01  0.40000000000E+01  0.51109989000E-03 0.  1.
     -623   -1    0    0    0    0  0.00000000000E+00  0.00000000000E+00  0.12525980253E-10  0.17130000000E+03  0.17130000000E+03 0.  1.
       11    1    1    2    0    0  0.40349050807E-02 -0.11524262685E-01  0.13437138163E+00  0.13492597420E+00  0.51109989000E-03 0.  1.
     -623    1    1    2    0    0 -0.41478457393E-02 -0.59362087770E-03  0.34854373195E-02  0.17130000009E+03  0.17130000000E+03 0.  1.
      622    1    1    2    0    0  0.11294065861E-03  0.12117883563E-01  0.38621431484E+01  0.38650739391E+01  0.15000000000E+00 0.  1.
</event>
<event>
 5   0  0.6780500E+06  0.9118800E+02  0.7818608E-02  0.1180000E+00
       11   -1    0    0    0    0  0.00000000000E+00  0.00000000000E+00  0.39999999673E+01  0.40000000000E+01  0.51109989000E-03 0.  1.
     -623   -1    0    0    0    0  0.00000000000E+00  0.00000000000E+00  0.12525980253E-10  0.17130000000E+03  0.17130000000E+03 0. -1.
       11    1    1    2    0    0 -0.22337303628E-02  0.68141149610E-02  0.35871227131E-01  0.36584530515E-01  0.51109989000E-03 0.  1.
     -623    1    1    2    0    0  0.17084578794E-02 -0.79299266308E-02  0.35531699101E-02  0.17130000023E+03  0.17130000000E+03 0. -1.
      622    1    1    2    0    0  0.52527248334E-03  0.11158116701E-02  0.39605755705E+01  0.39634152408E+01  0.15000000000E+00 0.  1.
</event>
<event>
 5   0  0.6780500E+06  0.9118800E+02  0.7818608E-02  0.1180000E+00
       11   -1    0    0    0    0  0.00000000000E+00  0.00000000000E+00  0.39999999673E+01  0.40000000000E+01  0.51109989000E-03 0.  1.
     -623   -1    0    0    0    0  0.00000000000E+00  0.00000000000E+00  0.12525980253E-10  0.17130000000E+03  0.17130000000E+03 0.  1.
       11    1    1    2    0    0 -0.56717577678E-02  0.64717517574E-02  0.10345424925E-01  0.13466307845E-01  0.51109989000E-03 0.  1.
     -623    1    1    2    0    0  0.19343710168E-02 -0.15317977510E-01  0.59562253411E-02  0.17130000080E+03  0.17130000000E+03 0.  1.
      622    1    1    2    0    0  0.37373867510E-02  0.88462257523E-02  0.39836983171E+01  0.39865328928E+01  0.15000000000E+00 0.  1.
</event>
<event>
 5   0  0.6780500E+06  0.9118800E+02  0.7818608E-02  0.1180000E+00
       11   -1    0    0    0    0  0.00000000000E+00  0.00000000000E+00  0.39999999673E+01  0.40000000000E+01  0.51109989000E-03 0.  1.
     -623   -1    0    0    0    0  0.00000000000E+00  0.00000000000E+00  0.12525980253E-10  0.17130000000E+03  0.17130000000E+03 0.  1.
       11    1    1    2    0    0 -0.12279188074E-01 -0.98474608604E-02  0.34748539792E-01  0.38150664284E-01  0.51109989000E-03 0.  1.
     -623    1    1    2    0    0 -0.96414046466E-02  0.27520358067E-01  0.63454274811E-02  0.17130000260E+03  0.17130000000E+03 0.  1.
      622    1    1    2    0    0  0.21920592720E-01 -0.17672897207E-01  0.39589060001E+01  0.39618467362E+01  0.15000000000E+00 0.  1.
</event>
<event>
 5   0  0.6780500E+06  0.9118800E+02  0.7818608E-02  0.1180000E+00
       11   -1    0    0    0    0  0.00000000000E+00  0.00000000000E+00  0.39999999673E+01  0.40000000000E+01  0.51109989000E-03 0. -1.
     -623   -1    0    0    0    0  0.00000000000E+00  0.00000000000E+00  0.12525980253E-10  0.17130000000E+03  0.17130000000E+03 0.  1.
       11    1    1    2    0    0  0.20399784698E-01 -0.22516944069E-01  0.77711312722E-01  0.83441436553E-01  0.51109989000E-03 0. -1.
     -623    1    1    2    0    0  0.15261577229E-02  0.35824434268E-01  0.86915853014E-02  0.17130000397E+03  0.17130000000E+03 0.  1.
      622    1    1    2    0    0 -0.21925942421E-01 -0.13307490198E-01  0.39135970693E+01  0.39165545901E+01  0.15000000000E+00 0. -1.
</event>
<event>
 5   0  0.6780500E+06  0.9118800E+02  0.7818608E-02  0.1180000E+00
       11   -1    0    0    0    0  0.00000000000E+00  0.00000000000E+00  0.39999999673E+01  0.40000000000E+01  0.51109989000E-03 0.  1.
     -623   -1    0    0    0    0  0.00000000000E+00  0.00000000000E+00  0.12525980253E-10  0.17130000000E+03  0.17130000000E+03 0. -1.
       11    1    1    2    0    0  0.12490974149E-01 -0.88000976541E-01  0.34121131581E+00  0.35259838282E+00  0.51109989000E-03 0.  1.
     -623    1    1    2    0    0 -0.58223742957E-01  0.13293168444E-01  0.15536707136E-01  0.17130001112E+03  0.17130000000E+03 0. -1.
      622    1    1    2    0    0  0.45732768809E-01  0.74707808096E-01  0.36432519444E+01  0.36473905019E+01  0.15000000000E+00 0.  1.
</event>
<event>
 5   0  0.6780500E+06  0.9118800E+02  0.7818608E-02  0.1180000E+00
       11   -1    0    0    0    0  0.00000000000E+00  0.00000000000E+00  0.39999999673E+01  0.40000000000E+01  0.51109989000E-03 0.  1.
     -623   -1    0    0    0    0  0.00000000000E+00  0.00000000000E+00  0.12525980253E-10  0.17130000000E+03  0.17130000000E+03 0. -1.
       11    1    1    2    0    0  0.23531364402E-02 -0.38252729874E-02  0.14692675670E+00  0.14699626874E+00  0.51109989000E-03 0.  1.
     -623    1    1    2    0    0 -0.61674722909E-02  0.76623420471E-02  0.29944967838E-02  0.17130000031E+03  0.17130000000E+03 0. -1.
      622    1    1    2    0    0  0.38143358509E-02 -0.38370690600E-02  0.38500787140E+01  0.38530034229E+01  0.15000000000E+00 0.  1.
</event>
<event>
 5   0  0.6780500E+06  0.9118800E+02  0.7818608E-02  0.1180000E+00
       11   -1    0    0    0    0  0.00000000000E+00  0.00000000000E+00  0.39999999673E+01  0.40000000000E+01  0.51109989000E-03 0. -1.
     -623   -1    0    0    0    0  0.00000000000E+00  0.00000000000E+00  0.12525980253E-10  0.17130000000E+03  0.17130000000E+03 0. -1.
       11    1    1    2    0    0 -0.31306884549E-01 -0.53043674086E-01  0.12178208469E+00  0.13647303673E+00  0.51109989000E-03 0.  1.
     -623    1    1    2    0    0  0.20981522827E-01  0.11700208567E-02  0.17968426321E-01  0.17130000223E+03  0.17130000000E+03 0. -1.
      622    1    1    2    0    0  0.10325361722E-01  0.51873653230E-01  0.38602494563E+01  0.38635247319E+01  0.15000000000E+00 0. -1.
</event>
<event>
 5   0  0.6780500E+06  0.9118800E+02  0.7818608E-02  0.1180000E+00
       11   -1    0    0    0    0  0.00000000000E+00  0.00000000000E+00  0.39999999673E+01  0.40000000000E+01  0.51109989000E-03 0. -1.
     -623   -1    0    0    0    0  0.00000000000E+00  0.00000000000E+00  0.12525980253E-10  0.17130000000E+03  0.17130000000E+03 0. -1.
       11    1    1    2    0    0 -0.48149055984E-03  0.53625555782E-04  0.31346843454E-02  0.32128142726E-02  0.51109989000E-03 0. -1.
     -623    1    1    2    0    0  0.27616499985E-02 -0.11381649858E-02  0.28946986256E-02  0.17130000005E+03  0.17130000000E+03 0. -1.
      622    1    1    2    0    0 -0.22801594387E-02  0.10845394301E-02  0.39939705844E+01  0.39967871352E+01  0.15000000000E+00 0. -1.
</event>
<event>
 5   0  0.6780500E+06  0.9118800E+02  0.7818608E-02  0.1180000E+00
       11   -1    0    0    0    0  0.00000000000E+00  0.00000000000E+00  0.39999999673E+01  0.40000000000E+01  0.51109989000E-03 0.  1.
     -623   -1    0    0    0    0  0.00000000000E+00  0.00000000000E+00  0.12525980253E-10  0.17130000000E+03  0.17130000000E+03 0.  1.
       11    1    1    2    0    0  0.10568215381E+00  0.10685448378E-01  0.64779082129E+00  0.65644200491E+00  0.51109989000E-03 0.  1.
     -623    1    1    2    0    0 -0.12350223961E-01  0.15709834514E-02  0.13345193199E-01  0.17130000097E+03  0.17130000000E+03 0.  1.
      622    1    1    2    0    0 -0.93331929849E-01 -0.12256431829E-01  0.33388639529E+01  0.33435570228E+01  0.15000000000E+00 0.  1.
</event>
<event>
 5   0  0.6780500E+06  0.9118800E+02  0.7818608E-02  0.1180000E+00
       11   -1    0    0    0    0  0.00000000000E+00  0.00000000000E+00  0.39999999673E+01  0.40000000000E+01  0.51109989000E-03 0.  1.
     -623   -1    0    0    0    0  0.00000000000E+00  0.00000000000E+00  0.12525980253E-10  0.17130000000E+03  0.17130000000E+03 0. -1.
       11    1    1    2    0    0  0.45451773687E-02  0.96307078887E-03  0.30446899129E+00  0.30450486699E+00  0.51109989000E-03 0.  1.
     -623    1    1    2    0    0 -0.46231575500E-02 -0.30861033790E-01  0.32052652647E-02  0.17130000287E+03  0.17130000000E+03 0. -1.
      622    1    1    2    0    0  0.77980181259E-04  0.29897963001E-01  0.36923257108E+01  0.36954922607E+01  0.15000000000E+00 0.  1.
</event>
<event>
 5   0  0.6780500E+06  0.9118800E+02  0.7818608E-02  0.1180000E+00
       11   -1    0    0    0    0  0.00000000000E+00  0.00000000000E+00  0.39999999673E+01  0.40000000000E+01  0.51109989000E-03 0. -1.
     -623   -1    0    0    0    0  0.00000000000E+00  0.00000000000E+00  0.12525980253E-10  0.17130000000E+03  0.17130000000E+03 0. -1.
       11    1    1    2    0    0 -0.50714610559E-01  0.90254807985E-01  0.80846426538E+00  0.81506602905E+00  0.51109989000E-03 0. -1.
     -623    1    1    2    0    0 -0.65992225945E-01  0.25411444899E-02  0.13645163849E-01  0.17130001327E+03  0.17130000000E+03 0. -1.
      622    1    1    2    0    0  0.11670683650E+00 -0.92795952474E-01  0.31778905381E+01  0.31849206971E+01  0.15000000000E+00 0.  0.
</event>
<event>
 5   0  0.6780500E+06  0.9118800E+02  0.7818608E-02  0.1180000E+00
       11   -1    0    0    0    0  0.00000000000E+00  0.00000000000E+00  0.39999999673E+01  0.40000000000E+01  0.51109989000E-03 0.  1.
     -623   -1    0    0    0    0  0.00000000000E+00  0.00000000000E+00  0.12525980253E-10  0.17130000000E+03  0.17130000000E+03 0.  1.
       11    1    1    2    0    0  0.40806574741E-02 -0.45166112425E-02  0.25329599819E-02  0.66127643164E-02  0.51109989000E-03 0.  1.
     -623    1    1    2    0    0  0.43811639874E-02  0.14105564545E-01  0.69191926340E-02  0.17130000078E+03  0.17130000000E+03 0.  1.
      622    1    1    2    0    0 -0.84618214614E-02 -0.95889533024E-02  0.39905478147E+01  0.39933864591E+01  0.15000000000E+00 0.  1.
</event>
<event>
 5   0  0.6780500E+06  0.9118800E+02  0.7818608E-02  0.1180000E+00
       11   -1    0    0    0    0  0.00000000000E+00  0.00000000000E+00  0.39999999673E+01  0.40000000000E+01  0.51109989000E-03 0.  1.
     -623   -1    0    0    0    0  0.00000000000E+00  0.00000000000E+00  0.12525980253E-10  0.17130000000E+03  0.17130000000E+03 0. -1.
       11    1    1    2    0    0 -0.30033450741E-01 -0.14508437976E-01  0.13130195311E+00  0.13547312298E+00  0.51109989000E-03 0.  1.
     -623    1    1    2    0    0 -0.33920889723E-01 -0.48687660021E-01  0.81406519662E-02  0.17130001047E+03  0.17130000000E+03 0. -1.
      622    1    1    2    0    0  0.63954340463E-01  0.63196097997E-01  0.38605573623E+01  0.38645164060E+01  0.15000000000E+00 0.  1.
</event>
<event>
 5   0  0.6780500E+06  0.9118800E+02  0.7818608E-02  0.1180000E+00
       11   -1    0    0    0    0  0.00000000000E+00  0.00000000000E+00  0.39999999673E+01  0.40000000000E+01  0.51109989000E-03 0.  1.
     -623   -1    0    0    0    0  0.00000000000E+00  0.00000000000E+00  0.12525980253E-10  0.17130000000E+03  0.17130000000E+03 0.  1.
       11    1    1    2    0    0 -0.28626684013E-01  0.18725822665E-02  0.11083460756E+01  0.11087174023E+01  0.51109989000E-03 0.  1.
     -623    1    1    2    0    0 -0.74878249688E-02  0.60911464942E-02  0.45021003805E-02  0.17130000033E+03  0.17130000000E+03 0.  1.
      622    1    1    2    0    0  0.36114508982E-01 -0.79637287608E-02  0.28871517915E+01  0.28912822667E+01  0.15000000000E+00 0.  1.
</event>
<event>
 5   0  0.6780500E+06  0.9118800E+02  0.7818608E-02  0.1180000E+00
       11   -1    0    0    0    0  0.00000000000E+00  0.00000000000E+00  0.39999999673E+01  0.40000000000E+01  0.51109989000E-03 0.  1.
     -623   -1    0    0    0    0  0.00000000000E+00  0.00000000000E+00  0.12525980253E-10  0.17130000000E+03  0.17130000000E+03 0.  1.
       11    1    1    2    0    0  0.74383855465E-02 -0.73550368365E-02  0.40264711011E-01  0.41604498795E-01  0.51109989000E-03 0.  1.
     -623    1    1    2    0    0  0.68886186603E-02  0.28081877985E-01  0.42655826917E-02  0.17130000249E+03  0.17130000000E+03 0.  1.
      622    1    1    2    0    0 -0.14327004207E-01 -0.20726841149E-01  0.39554696737E+01  0.39583930078E+01  0.15000000000E+00 0.  1.
</event>
<event>
 5   0  0.6780500E+06  0.9118800E+02  0.7818608E-02  0.1180000E+00
       11   -1    0    0    0    0  0.00000000000E+00  0.00000000000E+00  0.39999999673E+01  0.40000000000E+01  0.51109989000E-03 0. -1.
     -623   -1    0    0    0    0  0.00000000000E+00  0.00000000000E+00  0.12525980253E-10  0.17130000000E+03  0.17130000000E+03 0. -1.
       11    1    1    2    0    0  0.15208868748E-01 -0.12829117198E-01  0.69927651110E+00  0.69955971592E+00  0.51109989000E-03 0. -1.
     -623    1    1    2    0    0 -0.19668066246E-01  0.16116949685E-01  0.37001544195E-02  0.17130000193E+03  0.17130000000E+03 0. -1.
      622    1    1    2    0    0  0.44591974981E-02 -0.32878324858E-02  0.32970233018E+01  0.33004383568E+01  0.15000000000E+00 0. -1.
</event>
<event>
 5   0  0.6780500E+06  0.9118800E+02  0.7818608E-02  0.1180000E+00
       11   -1    0    0    0    0  0.00000000000E+00  0.00000000000E+00  0.39999999673E+01  0.40000000000E+01  0.51109989000E-03 0. -1.
     -623   -1    0    0    0    0  0.00000000000E+00  0.00000000000E+00  0.12525980253E-10  0.17130000000E+03  0.17130000000E+03 0.  1.
       11    1    1    2    0    0 -0.32795985055E-02  0.12261485076E-01  0.34326314798E+00  0.34349810736E+00  0.51109989000E-03 0. -1.
     -623    1    1    2    0    0  0.15879780595E-02  0.48758831247E-02  0.33536286260E-02  0.17130000011E+03  0.17130000000E+03 0.  1.
      622    1    1    2    0    0  0.16916204460E-02 -0.17137368201E-01  0.36533831908E+01  0.36565017831E+01  0.15000000000E+00 0. -1.
</event>
<event>
 5   0  0.6780500E+06  0.9118800E+02  0.7818608E-02  0.1180000E+00
       11   -1    0    0    0    0  0.00000000000E+00  0.00000000000E+00  0.39999999673E+01  0.40000000000E+01  0.51109989000E-03 0. -1.
     -623   -1    0    0    0    0  0.00000000000E+00  0.00000000000E+00  0.12525980253E-10  0.17130000000E+03  0.17130000000E+03 0.  1.
       11    1    1    2    0    0  0.65862030401E-02  0.19952818232E-01  0.39450030792E+00  0.39505980205E+00  0.51109989000E-03 0. -1.
     -623    1    1    2    0    0 -0.23369325040E-02  0.46258139503E-02  0.37680201724E-02  0.17130000012E+03  0.17130000000E+03 0.  1.
      622    1    1    2    0    0 -0.42492705360E-02 -0.24578632183E-01  0.36017316393E+01  0.36049400781E+01  0.15000000000E+00 0. -1.
</event>
<event>
 5   0  0.6780500E+06  0.9118800E+02  0.7818608E-02  0.1180000E+00
       11   -1    0    0    0    0  0.00000000000E+00  0.00000000000E+00  0.39999999673E+01  0.40000000000E+01  0.51109989000E-03 0. -1.
     -623   -1    0    0    0    0  0.00000000000E+00  0.00000000000E+00  0.12525980253E-10  0.17130000000E+03  0.17130000000E+03 0.  1.
       11    1    1    2    0    0 -0.24526549025E-01  0.76644865816E-02  0.27660783734E+00  0.27779930320E+00  0.51109989000E-03 0. -1.
     -623    1    1    2    0    0  0.17687142116E-01 -0.20033345716E-02  0.42266418958E-02  0.17130000098E+03  0.17130000000E+03 0.  1.
      622    1    1    2    0    0  0.68394069085E-02 -0.56611520100E-02  0.37191654881E+01  0.37221997198E+01  0.15000000000E+00 0. -1.
</event>
<event>
 5   0  0.6780500E+06  0.9118800E+02  0.7818608E-02  0.1180000E+00
       11   -1    0    0    0    0  0.00000000000E+00  0.00000000000E+00  0.39999999673E+01  0.40000000000E+01  0.51109989000E-03 0.  1.
     -623   -1    0    0    0    0  0.00000000000E+00  0.00000000000E+00  0.12525980253E-10  0.17130000000E+03  0.17130000000E+03 0.  1.
       11    1    1    2    0    0 -0.22731290387E-01  0.16355962576E-01  0.20251403990E+00  0.20444174390E+00  0.51109989000E-03 0.  1.
     -623    1    1    2    0    0  0.39525100641E-01 -0.13396463512E-01  0.49363162701E-02  0.17130000515E+03  0.17130000000E+03 0.  1.
      622    1    1    2    0    0 -0.16793810253E-01 -0.29594990639E-02  0.37925496112E+01  0.37955531012E+01  0.15000000000E+00 0.  1.
</event>
<event>
 5   0  0.6780500E+06  0.9118800E+02  0.7818608E-02  0.1180000E+00
       11   -1    0    0    0    0  0.00000000000E+00  0.00000000000E+00  0.39999999673E+01  0.40000000000E+01  0.51109989000E-03 0. -1.
     -623   -1    0    0    0    0  0.00000000000E+00  0.00000000000E+00  0.12525980253E-10  0.17130000000E+03  0.17130000000E+03 0.  1.
       11    1    1    2    0    0 -0.32145146907E-01 -0.25548531911E-01  0.14143396408E+00  0.14727479543E+00  0.51109989000E-03 0. -1.
     -623    1    1    2    0    0  0.12726080376E-01 -0.54744541696E-02  0.89366882290E-02  0.17130000079E+03  0.17130000000E+03 0.  1.
      622    1    1    2    0    0  0.19419066532E-01  0.31022986081E-01  0.38496293151E+01  0.38527244113E+01  0.15000000000E+00 0. -1.
</event>
<event>
 5   0  0.6780500E+06  0.9118800E+02  0.7818608E-02  0.1180000E+00
       11   -1    0    0    0    0  0.00000000000E+00  0.00000000000E+00  0.39999999673E+01  0.40000000000E+01  0.51109989000E-03 0. -1.
     -623   -1    0    0    0    0  0.00000000000E+00  0.00000000000E+00  0.12525980253E-10  0.17130000000E+03  0.17130000000E+03 0.  1.
       11    1    1    2    0    0  0.15254069546E-01  0.78686782539E-02  0.19496705779E-01  0.25980482953E-01  0.51109989000E-03 0. -1.
     -623    1    1    2    0    0 -0.60375857290E-02  0.94033723212E-02  0.93645177051E-02  0.17130000062E+03  0.17130000000E+03 0.  1.
      622    1    1    2    0    0 -0.92164838166E-02 -0.17272050575E-01  0.39711387439E+01  0.39740188966E+01  0.15000000000E+00 0. -1.
</event>
<event>
 5   0  0.6780500E+06  0.9118800E+02  0.7818608E-02  0.1180000E+00
       11   -1    0    0    0    0  0.00000000000E+00  0.00000000000E+00  0.39999999673E+01  0.40000000000E+01  0.51109989000E-03 0. -1.
     -623   -1    0    0    0    0  0.00000000000E+00  0.00000000000E+00  0.12525980253E-10  0.17130000000E+03  0.17130000000E+03 0.  1.
       11    1    1    2    0    0  0.90728650505E-02  0.45080229967E-02  0.11237644726E+00  0.11283335621E+00  0.51109989000E-03 0. -1.
     -623    1    1    2    0    0 -0.63878451272E-02 -0.86651057058E-02  0.33556173090E-02  0.17130000037E+03  0.17130000000E+03 0.  1.
      622    1    1    2    0    0 -0.26850199232E-02  0.41570827092E-02  0.38842679029E+01  0.38871662727E+01  0.15000000000E+00 0. -1.
</event>
<event>
 5   0  0.6780500E+06  0.9118800E+02  0.7818608E-02  0.1180000E+00
       11   -1    0    0    0    0  0.00000000000E+00  0.00000000000E+00  0.39999999673E+01  0.40000000000E+01  0.51109989000E-03 0.  1.
     -623   -1    0    0    0    0  0.00000000000E+00  0.00000000000E+00  0.12525980253E-10  0.17130000000E+03  0.17130000000E+03 0.  1.
       11    1    1    2    0    0  0.39264385650E-01 -0.46834582593E-01  0.10001847585E+01  0.10020503892E+01  0.51109989000E-03 0.  1.
     -623    1    1    2    0    0 -0.21057241068E-01 -0.13869303233E-01  0.62932718506E-02  0.17130000197E+03  0.17130000000E+03 0.  1.
      622    1    1    2    0    0 -0.18207144582E-01  0.60703885826E-01  0.29935219371E+01  0.29979476396E+01  0.15000000000E+00 0. -1.
</event>
<event>
 5   0  0.6780500E+06  0.9118800E+02  0.7818608E-02  0.1180000E+00
       11   -1    0    0    0    0  0.00000000000E+00  0.00000000000E+00  0.39999999673E+01  0.40000000000E+01  0.51109989000E-03 0. -1.
     -623   -1    0    0    0    0  0.00000000000E+00  0.00000000000E+00  0.12525980253E-10  0.17130000000E+03  0.17130000000E+03 0. -1.
       11    1    1    2    0    0 -0.27485126263E-02  0.63806739187E-02  0.57274526637E-02  0.90184399109E-02  0.51109989000E-03 0. -1.
     -623    1    1    2    0    0  0.25052832410E-02 -0.11632647902E-01  0.61147945782E-02  0.17130000052E+03  0.17130000000E+03 0. -1.
      622    1    1    2    0    0  0.24322938532E-03  0.52519739828E-02  0.39881577201E+01  0.39909810376E+01  0.15000000000E+00 0. -1.
</event>
<event>
 5   0  0.6780500E+06  0.9118800E+02  0.7818608E-02  0.1180000E+00
       11   -1    0    0    0    0  0.00000000000E+00  0.00000000000E+00  0.39999999673E+01  0.40000000000E+01  0.51109989000E-03 0.  1.
     -623   -1    0    0    0    0  0.00000000000E+00  0.00000000000E+00  0.12525980253E-10  0.17130000000E+03  0.17130000000E+03 0. -1.
       11    1    1    2    0    0  0.22305594565E-02 -0.45941645316E-02  0.16567200285E-02  0.53933002496E-02  0.51109989000E-03 0.  1.
     -623    1    1    2    0    0 -0.95731332348E-02  0.36679486521E-02  0.65611315681E-02  0.17130000043E+03  0.17130000000E+03 0. -1.
      622    1    1    2    0    0  0.73425737783E-02  0.92621587952E-03  0.39917821157E+01  0.39946062673E+01  0.15000000000E+00 0.  1.
</event>
<event>
 5   0  0.6780500E+06  0.9118800E+02  0.7818608E-02  0.1180000E+00
       11   -1    0    0    0    0  0.00000000000E+00  0.00000000000E+00  0.39999999673E+01  0.40000000000E+01  0.51109989000E-03 0. -1.
     -623   -1    0    0    0    0  0.00000000000E+00  0.00000000000E+00  0.12525980253E-10  0.17130000000E+03  0.17130000000E+03 0. -1.
       11    1    1    2    0    0  0.64511498444E-02  0.11169784344E-01  0.60987731411E-01  0.62338960710E-01  0.51109989000E-03 0. -1.
     -623    1    1    2    0    0 -0.27829180082E-02 -0.53204028119E-04  0.42267478566E-02  0.17130000007E+03  0.17130000000E+03 0. -1.
      622    1    1    2    0    0 -0.36682318361E-02 -0.11116580316E-01  0.39347854881E+01  0.39376609646E+01  0.15000000000E+00 0. -1.
</event>
<event>
 5   0  0.6780500E+06  0.9118800E+02  0.7818608E-02  0.1180000E+00
       11   -1    0    0    0    0  0.00000000000E+00  0.00000000000E+00  0.39999999673E+01  0.40000000000E+01  0.51109989000E-03 0.  1.
     -623   -1    0    0    0    0  0.00000000000E+00  0.00000000000E+00  0.12525980253E-10  0.17130000000E+03  0.17130000000E+03 0.  1.
       11    1    1    2    0    0  0.62247658809E-01 -0.12681496616E+00  0.91950905981E+00  0.93029779048E+00  0.51109989000E-03 0.  1.
     -623    1    1    2    0    0 -0.46770949641E-02  0.17987656995E-01  0.16930466597E-01  0.17130000184E+03  0.17130000000E+03 0.  1.
      622    1    1    2    0    0 -0.57570563845E-01  0.10882730917E+00  0.30635604409E+01  0.30697003646E+01  0.15000000000E+00 0.  1.
</event>
<event>
 5   0  0.6780500E+06  0.9118800E+02  0.7818608E-02  0.1180000E+00
       11   -1    0    0    0    0  0.00000000000E+00  0.00000000000E+00  0.39999999673E+01  0.40000000000E+01  0.51109989000E-03 0.  1.
     -623   -1    0    0    0    0  0.00000000000E+00  0.00000000000E+00  0.12525980253E-10  0.17130000000E+03  0.17130000000E+03 0.  1.
       11    1    1    2    0    0  0.71739661913E-02  0.63083647568E-01  0.68095140508E+00  0.68390502973E+00  0.51109989000E-03 0.  1.
     -623    1    1    2    0    0 -0.63659775780E-03  0.36588420750E-01  0.78582211936E-02  0.17130000409E+03  0.17130000000E+03 0.  1.
      622    1    1    2    0    0 -0.65373684335E-02 -0.99672068318E-01  0.33111903411E+01  0.33160908813E+01  0.15000000000E+00 0.  0.
</event>
<event>
 5   0  0.6780500E+06  0.9118800E+02  0.7818608E-02  0.1180000E+00
       11   -1    0    0    0    0  0.00000000000E+00  0.00000000000E+00  0.39999999673E+01  0.40000000000E+01  0.51109989000E-03 0. -1.
     -623   -1    0    0    0    0  0.00000000000E+00  0.00000000000E+00  0.12525980253E-10  0.17130000000E+03  0.17130000000E+03 0.  1.
       11    1    1    2    0    0 -0.12582047354E-01 -0.35644397626E-01  0.26038309245E-01  0.45903003923E-01  0.51109989000E-03 0. -1.
     -623    1    1    2    0    0  0.12350324624E-01  0.51790499075E-01  0.22753625307E-01  0.17130000979E+03  0.17130000000E+03 0.  1.
      622    1    1    2    0    0  0.23172272954E-03 -0.16146101449E-01  0.39512080328E+01  0.39540872106E+01  0.15000000000E+00 0. -1.
</event>
<event>
 5   0  0.6780500E+06  0.9118800E+02  0.7818608E-02  0.1180000E+00
       11   -1    0    0    0    0  0.00000000000E+00  0.00000000000E+00  0.39999999673E+01  0.40000000000E+01  0.51109989000E-03 0.  1.
     -623   -1    0    0    0    0  0.00000000000E+00  0.00000000000E+00  0.12525980253E-10  0.17130000000E+03  0.17130000000E+03 0.  1.
       11    1    1    2    0    0 -0.50970937321E-04 -0.28166431059E-01  0.15899767621E+00  0.16147406200E+00  0.51109989000E-03 0.  1.
     -623    1    1    2    0    0  0.55331858367E-02  0.36506107492E-02  0.54907690308E-02  0.17130000022E+03  0.17130000000E+03 0.  1.
      622    1    1    2    0    0 -0.54822148994E-02  0.24515820310E-01  0.38355115221E+01  0.38385257217E+01  0.15000000000E+00 0.  1.
</event>
<event>
 5   0  0.6780500E+06  0.9118800E+02  0.7818608E-02  0.1180000E+00
       11   -1    0    0    0    0  0.00000000000E+00  0.00000000000E+00  0.39999999673E+01  0.40000000000E+01  0.51109989000E-03 0.  1.
     -623   -1    0    0    0    0  0.00000000000E+00  0.00000000000E+00  0.12525980253E-10  0.17130000000E+03  0.17130000000E+03 0.  1.
       11    1    1    2    0    0  0.36662684461E-02 -0.12185907091E-01  0.68059559558E+00  0.68071474481E+00  0.51109989000E-03 0.  1.
     -623    1    1    2    0    0 -0.20989557608E-01 -0.30840589334E-01  0.38386618308E-02  0.17130000411E+03  0.17130000000E+03 0.  1.
      622    1    1    2    0    0  0.17323289163E-01  0.43026496426E-01  0.33155657101E+01  0.33192811501E+01  0.15000000000E+00 0.  0.
</event>
<event>
 5   0  0.6780500E+06  0.9118800E+02  0.7818608E-02  0.1180000E+00
       11   -1    0    0    0    0  0.00000000000E+00  0.00000000000E+00  0.39999999673E+01  0.40000000000E+01  0.51109989000E-03 0.  1.
     -623   -1    0    0    0    0  0.00000000000E+00  0.00000000000E+00  0.12525980253E-10  0.17130000000E+03  0.17130000000E+03 0. -1.
       11    1    1    2    0    0  0.25318512322E-02 -0.19779376768E-01  0.12941928068E+00  0.13094749119E+00  0.51109989000E-03 0.  1.
     -623    1    1    2    0    0 -0.10790533397E-01  0.15169712613E-02  0.44893197338E-02  0.17130000041E+03  0.17130000000E+03 0. -1.
      622    1    1    2    0    0  0.82586821649E-02  0.18262405507E-01  0.38660913669E+01  0.38690521034E+01  0.15000000000E+00 0.  1.
</event>
<event>
 5   0  0.6780500E+06  0.9118800E+02  0.7818608E-02  0.1180000E+00
       11   -1    0    0    0    0  0.00000000000E+00  0.00000000000E+00  0.39999999673E+01  0.40000000000E+01  0.51109989000E-03 0. -1.
     -623   -1    0    0    0    0  0.00000000000E+00  0.00000000000E+00  0.12525980253E-10  0.17130000000E+03  0.17130000000E+03 0.  1.
       11    1    1    2    0    0 -0.79526090041E-02 -0.11151744707E-01  0.51422811826E+00  0.51441075439E+00  0.51109989000E-03 0. -1.
     -623    1    1    2    0    0  0.13012860733E-01  0.11710651918E-02  0.34301863559E-02  0.17130000053E+03  0.17130000000E+03 0.  1.
      622    1    1    2    0    0 -0.50602517289E-02  0.99806795151E-02  0.34823416628E+01  0.34855887130E+01  0.15000000000E+00 0. -1.
</event>
<event>
 5   0  0.6780500E+06  0.9118800E+02  0.7818608E-02  0.1180000E+00
       11   -1    0    0    0    0  0.00000000000E+00  0.00000000000E+00  0.39999999673E+01  0.40000000000E+01  0.51109989000E-03 0. -1.
     -623   -1    0    0    0    0  0.00000000000E+00  0.00000000000E+00  0.12525980253E-10  0.17130000000E+03  0.17130000000E+03 0. -1.
       11    1    1    2    0    0  0.13094596305E-01 -0.13444418703E-01  0.71683445590E-01  0.74101271524E-01  0.51109989000E-03 0. -1.
     -623    1    1    2    0    0 -0.30819921930E-01  0.38787822042E-02  0.53390339069E-02  0.17130000290E+03  0.17130000000E+03 0. -1.
      622    1    1    2    0    0  0.17725325625E-01  0.95656364983E-02  0.39229774879E+01  0.39258958289E+01  0.15000000000E+00 0. -1.
</event>
<event>
 5   0  0.6780500E+06  0.9118800E+02  0.7818608E-02  0.1180000E+00
       11   -1    0    0    0    0  0.00000000000E+00  0.00000000000E+00  0.39999999673E+01  0.40000000000E+01  0.51109989000E-03 0.  1.
     -623   -1    0    0    0    0  0.00000000000E+00  0.00000000000E+00  0.12525980253E-10  0.17130000000E+03  0.17130000000E+03 0.  1.
       11    1    1    2    0    0 -0.19727487752E-02 -0.35366492207E-01  0.85310953500E+00  0.85384472853E+00  0.51109989000E-03 0.  1.
     -623    1    1    2    0    0 -0.23848553675E-01  0.24631436370E-01  0.44409005488E-02  0.17130000349E+03  0.17130000000E+03 0.  1.
      622    1    1    2    0    0  0.25821302450E-01  0.10735055837E-01  0.31424495318E+01  0.31461517828E+01  0.15000000000E+00 0.  1.
</event>
<event>
 5   0  0.6780500E+06  0.9118800E+02  0.7818608E-02  0.1180000E+00
       11   -1    0    0    0    0  0.00000000000E+00  0.00000000000E+00  0.39999999673E+01  0.40000000000E+01  0.51109989000E-03 0. -1.
     -623   -1    0    0    0    0  0.00000000000E+00  0.00000000000E+00  0.12525980253E-10  0.17130000000E+03  0.17130000000E+03 0.  1.
       11    1    1    2    0    0 -0.82667214497E-01 -0.57638737351E-01  0.49962698567E+00  0.50968959027E+00  0.51109989000E-03 0. -1.
     -623    1    1    2    0    0  0.34095501893E-01  0.36776399309E-01  0.13695875672E-01  0.17130000789E+03  0.17130000000E+03 0.  1.
      622    1    1    2    0    0  0.48571712604E-01  0.20862338043E-01  0.34866771060E+01  0.34903025213E+01  0.15000000000E+00 0.  0.
</event>
<event>
 5   0  0.6780500E+06  0.9118800E+02  0.7818608E-02  0.1180000E+00
       11   -1    0    0    0    0  0.00000000000E+00  0.00000000000E+00  0.39999999673E+01  0.40000000000E+01  0.51109989000E-03 0.  1.
     -623   -1    0    0    0    0  0.00000000000E+00  0.00000000000E+00  0.12525980253E-10  0.17130000000E+03  0.17130000000E+03 0.  1.
       11    1    1    2    0    0  0.13598742373E-01  0.51160546577E-02  0.33108244342E-01  0.36159602817E-01  0.51109989000E-03 0.  1.
     -623    1    1    2    0    0 -0.18394553928E-01  0.47854869611E-02  0.59069354765E-02  0.17130000116E+03  0.17130000000E+03 0.  1.
      622    1    1    2    0    0  0.47958115552E-02 -0.99015416189E-02  0.39609847875E+01  0.39638392409E+01  0.15000000000E+00 0.  1.
</event>
<event>
 5   0  0.6780500E+06  0.9118800E+02  0.7818608E-02  0.1180000E+00
       11   -1    0    0    0    0  0.00000000000E+00  0.00000000000E+00  0.39999999673E+01  0.40000000000E+01  0.51109989000E-03 0.  1.
     -623   -1    0    0    0    0  0.00000000000E+00  0.00000000000E+00  0.12525980253E-10  0.17130000000E+03  0.17130000000E+03 0.  1.
       11    1    1    2    0    0 -0.12853261281E-01 -0.43388101890E-01  0.43665121938E+00  0.43899007087E+00  0.51109989000E-03 0.  1.
     -623    1    1    2    0    0  0.84897756650E-01  0.22381405431E-01  0.63136132041E-02  0.17130002262E+03  0.17130000000E+03 0.  1.
      622    1    1    2    0    0 -0.72044495370E-01  0.21006696459E-01  0.35570351348E+01  0.35609873126E+01  0.15000000000E+00 0.  1.
</event>
<event>
 5   0  0.6780500E+06  0.9118800E+02  0.7818608E-02  0.1180000E+00
       11   -1    0    0    0    0  0.00000000000E+00  0.00000000000E+00  0.39999999673E+01  0.40000000000E+01  0.51109989000E-03 0. -1.
     -623   -1    0    0    0    0  0.00000000000E+00  0.00000000000E+00  0.12525980253E-10  0.17130000000E+03  0.17130000000E+03 0. -1.
       11    1    1    2    0    0  0.11235351434E-02  0.49814049763E-02  0.61934339783E-01  0.62146604044E-01  0.51109989000E-03 0. -1.
     -623    1    1    2    0    0  0.34754194544E-03 -0.46378018852E-02  0.30705358462E-02  0.17130000009E+03  0.17130000000E+03 0. -1.
      622    1    1    2    0    0 -0.14710770888E-02 -0.34360309101E-03  0.39349950918E+01  0.39378533053E+01  0.15000000000E+00 0. -1.
</event>
<event>
 5   0  0.6780500E+06  0.9118800E+02  0.7818608E-02  0.1180000E+00
       11   -1    0    0    0    0  0.00000000000E+00  0.00000000000E+00  0.39999999673E+01  0.40000000000E+01  0.51109989000E-03 0.  1.
     -623   -1    0    0    0    0  0.00000000000E+00  0.00000000000E+00  0.12525980253E-10  0.17130000000E+03  0.17130000000E+03 0. -1.
       11    1    1    2    0    0  0.15316951439E-01  0.28604402653E-01  0.29505849620E+00  0.29683766313E+00  0.51109989000E-03 0.  1.
     -623    1    1    2    0    0 -0.32427480399E-01  0.98962322081E-02  0.50616324506E-02  0.17130000343E+03  0.17130000000E+03 0. -1.
      622    1    1    2    0    0  0.17110528960E-01 -0.38500634861E-01  0.36998798387E+01  0.37031589069E+01  0.15000000000E+00 0.  1.
</event>
<event>
 5   0  0.6780500E+06  0.9118800E+02  0.7818608E-02  0.1180000E+00
       11   -1    0    0    0    0  0.00000000000E+00  0.00000000000E+00  0.39999999673E+01  0.40000000000E+01  0.51109989000E-03 0. -1.
     -623   -1    0    0    0    0  0.00000000000E+00  0.00000000000E+00  0.12525980253E-10  0.17130000000E+03  0.17130000000E+03 0. -1.
       11    1    1    2    0    0 -0.50444921051E-01  0.22842142974E-01  0.51512897879E+00  0.51809707543E+00  0.51109989000E-03 0. -1.
     -623    1    1    2    0    0 -0.46844355191E-02 -0.11606267117E-01  0.66561590015E-02  0.17130000059E+03  0.17130000000E+03 0. -1.
      622    1    1    2    0    0  0.55129356570E-01 -0.11235875856E-01  0.34782148296E+01  0.34819023380E+01  0.15000000000E+00 0. -1.
</event>
<event>
 5   0  0.6780500E+06  0.9118800E+02  0.7818608E-02  0.1180000E+00
       11   -1    0    0    0    0  0.00000000000E+00  0.00000000000E+00  0.39999999673E+01  0.40000000000E+01  0.51109989000E-03 0.  1.
     -623   -1    0    0    0    0  0.00000000000E+00  0.00000000000E+00  0.12525980253E-10  0.17130000000E+03  0.17130000000E+03 0. -1.
       11    1    1    2    0    0  0.60520376794E-02 -0.10046557489E-01  0.28107319201E-01  0.30460516928E-01  0.51109989000E-03 0.  1.
     -623    1    1    2    0    0 -0.60216415149E-02 -0.23062878307E-02  0.52076944489E-02  0.17130000020E+03  0.17130000000E+03 0. -1.
      622    1    1    2    0    0 -0.30396164444E-04  0.12352845320E-01  0.39666849537E+01  0.39695392825E+01  0.15000000000E+00 0.  1.
</event>
<event>
 5   0  0.6780500E+06  0.9118800E+02  0.7818608E-02  0.1180000E+00
       11   -1    0    0    0    0  0.00000000000E+00  0.00000000000E+00  0.39999999673E+01  0.40000000000E+01  0.51109989000E-03 0. -1.
     -623   -1    0    0    0    0  0.00000000000E+00  0.00000000000E+00  0.12525980253E-10  0.17130000000E+03  0.17130000000E+03 0.  1.
       11    1    1    2    0    0 -0.53697600539E-02 -0.11253673527E-01  0.24662357090E+00  0.24693911484E+00  0.51109989000E-03 0. -1.
     -623    1    1    2    0    0  0.89578437957E-03 -0.33418821388E-02  0.33454027811E-02  0.17130000007E+03  0.17130000000E+03 0.  1.
      622    1    1    2    0    0  0.44739756743E-02  0.14595555666E-01  0.37500309936E+01  0.37530608175E+01  0.15000000000E+00 0. -1.
</event>
<event>
 5   0  0.6780500E+06  0.9118800E+02  0.7818608E-02  0.1180000E+00
       11   -1    0    0    0    0  0.00000000000E+00  0.00000000000E+00  0.39999999673E+01  0.40000000000E+01  0.51109989000E-03 0.  1.
     -623   -1    0    0    0    0  0.00000000000E+00  0.00000000000E+00  0.12525980253E-10  0.17130000000E+03  0.17130000000E+03 0.  1.
       11    1    1    2    0    0 -0.18743355735E-02  0.41729527995E-02  0.23401583304E-01  0.23849989354E-01  0.51109989000E-03 0.  1.
     -623    1    1    2    0    0 -0.33289567545E-02  0.12334335861E-03  0.32845446078E-02  0.17130000006E+03  0.17130000000E+03 0.  1.
      622    1    1    2    0    0  0.52032923280E-02 -0.42962961581E-02  0.39733138394E+01  0.39761499468E+01  0.15000000000E+00 0.  1.
</event>
<event>
 5   0  0.6780500E+06  0.9118800E+02  0.7818608E-02  0.1180000E+00
       11   -1    0    0    0    0  0.00000000000E+00  0.00000000000E+00  0.39999999673E+01  0.40000000000E+01  0.51109989000E-03 0. -1.
     -623   -1    0    0    0    0  0.00000000000E+00  0.00000000000E+00  0.12525980253E-10  0.17130000000E+03  0.17130000000E+03 0. -1.
       11    1    1    2    0    0 -0.24522667302E-01 -0.21043962587E-01  0.40763774402E+00  0.40891686337E+00  0.51109989000E-03 0. -1.
     -623    1    1    2    0    0  0.21833937880E-02  0.24021818734E-01  0.44857532513E-02  0.17130000176E+03  0.17130000000E+03 0. -1.
      622    1    1    2    0    0  0.22339273514E-01 -0.29778561469E-02  0.35878764701E+01  0.35910813796E+01  0.15000000000E+00 0.  1.
</event>
<event>
 5   0  0.6780500E+06  0.9118800E+02  0.7818608E-02  0.1180000E+00
       11   -1    0    0    0    0  0.00000000000E+00  0.00000000000E+00  0.39999999673E+01  0.40000000000E+01  0.51109989000E-03 0. -1.
     -623   -1    0    0    0    0  0.00000000000E+00  0.00000000000E+00  0.12525980253E-10  0.17130000000E+03  0.17130000000E+03 0.  1.
       11    1    1    2    0    0 -0.23962563034E-01  0.16343560976E-01  0.32887437212E-01  0.43853861397E-01  0.51109989000E-03 0. -1.
     -623    1    1    2    0    0 -0.22639272432E-01  0.49799066492E-03  0.14123730337E-01  0.17130000208E+03  0.17130000000E+03 0.  1.
      622    1    1    2    0    0  0.46601835466E-01 -0.16841551641E-01  0.39529887998E+01  0.39561440596E+01  0.15000000000E+00 0. -1.
</event>
<event>
 5   0  0.6780500E+06  0.9118800E+02  0.7818608E-02  0.1180000E+00
       11   -1    0    0    0    0  0.00000000000E+00  0.00000000000E+00  0.39999999673E+01  0.40000000000E+01  0.51109989000E-03 0. -1.
     -623   -1    0    0    0    0  0.00000000000E+00  0.00000000000E+00  0.12525980253E-10  0.17130000000E+03  0.17130000000E+03 0.  1.
       11    1    1    2    0    0  0.63843100871E-03  0.69965209609E-02  0.20099103981E-01  0.21297748793E-01  0.51109989000E-03 0. -1.
     -623    1    1    2    0    0 -0.21717892147E-02 -0.97680870357E-02  0.40287743545E-02  0.17130000034E+03  0.17130000000E+03 0.  1.
      622    1    1    2    0    0  0.15333582060E-02  0.27715660748E-02  0.39758720891E+01  0.39787019116E+01  0.15000000000E+00 0. -1.
</event>
<event>
 5   0  0.6780500E+06  0.9118800E+02  0.7818608E-02  0.1180000E+00
       11   -1    0    0    0    0  0.00000000000E+00  0.00000000000E+00  0.39999999673E+01  0.40000000000E+01  0.51109989000E-03 0.  1.
     -623   -1    0    0    0    0  0.00000000000E+00  0.00000000000E+00  0.12525980253E-10  0.17130000000E+03  0.17130000000E+03 0.  1.
       11    1    1    2    0    0  0.75477926717E-02  0.25811111780E-01  0.51643510290E+00  0.51713504947E+00  0.51109989000E-03 0.  1.
     -623    1    1    2    0    0  0.98454535481E-02 -0.49441942383E-02  0.40379553852E-02  0.17130000040E+03  0.17130000000E+03 0.  1.
      622    1    1    2    0    0 -0.17393246220E-01 -0.20866917541E-01  0.34795269091E+01  0.34828645487E+01  0.15000000000E+00 0.  1.
</event>
<event>
 5   0  0.6780500E+06  0.9118800E+02  0.7818608E-02  0.1180000E+00
       11   -1    0    0    0    0  0.00000000000E+00  0.00000000000E+00  0.39999999673E+01  0.40000000000E+01  0.51109989000E-03 0.  1.
     -623   -1    0    0    0    0  0.00000000000E+00  0.00000000000E+00  0.12525980253E-10  0.17130000000E+03  0.17130000000E+03 0.  1.
       11    1    1    2    0    0  0.30864901879E-01 -0.40079077757E-01  0.82617633398E+00  0.82772372848E+00  0.51109989000E-03 0.  1.
     -623    1    1    2    0    0 -0.14717982525E-01  0.86660464228E-02  0.52934820203E-02  0.17130000093E+03  0.17130000000E+03 0.  1.
      622    1    1    2    0    0 -0.16146919354E-01  0.31413031334E-01  0.31685301514E+01  0.31722753382E+01  0.15000000000E+00 0.  1.
</event>
<event>
 5   0  0.6780500E+06  0.9118800E+02  0.7818608E-02  0.1180000E+00
       11   -1    0    0    0    0  0.00000000000E+00  0.00000000000E+00  0.39999999673E+01  0.40000000000E+01  0.51109989000E-03 0. -1.
     -623   -1    0    0    0    0  0.00000000000E+00  0.00000000000E+00  0.12525980253E-10  0.17130000000E+03  0.17130000000E+03 0.  1.
       11    1    1    2    0    0 -0.10520485856E-02 -0.29116532755E-02  0.18796845616E-02  0.36577271867E-02  0.51109989000E-03 0. -1.
     -623    1    1    2    0    0 -0.23729182671E-02 -0.31128494167E-02  0.46001957909E-02  0.17130000011E+03  0.17130000000E+03 0.  1.
      622    1    1    2    0    0  0.34249668528E-02  0.60245026924E-02  0.39935200872E+01  0.39963421665E+01  0.15000000000E+00 0. -1.
</event>
<event>
 5   0  0.6780500E+06  0.9118800E+02  0.7818608E-02  0.1180000E+00
       11   -1    0    0    0    0  0.00000000000E+00  0.00000000000E+00  0.39999999673E+01  0.40000000000E+01  0.51109989000E-03 0.  1.
     -623   -1    0    0    0    0  0.00000000000E+00  0.00000000000E+00  0.12525980253E-10  0.17130000000E+03  0.17130000000E+03 0.  1.
       11    1    1    2    0    0 -0.14388936812E-01  0.66224486976E-02  0.49027033609E-01  0.51524844268E-01  0.51109989000E-03 0.  1.
     -623    1    1    2    0    0  0.37344514365E-02 -0.55900504999E-01  0.56793936811E-02  0.17130000926E+03  0.17130000000E+03 0.  1.
      622    1    1    2    0    0  0.10654485375E-01  0.49278056302E-01  0.39452935401E+01  0.39484658999E+01  0.15000000000E+00 0.  1.
</event>
<event>
 5   0  0.6780500E+06  0.9118800E+02  0.7818608E-02  0.1180000E+00
       11   -1    0    0    0    0  0.00000000000E+00  0.00000000000E+00  0.39999999673E+01  0.40000000000E+01  0.51109989000E-03 0. -1.
     -623   -1    0    0    0    0  0.00000000000E+00  0.00000000000E+00  0.12525980253E-10  0.17130000000E+03  0.17130000000E+03 0.  1.
       11    1    1    2    0    0  0.45188331205E-03  0.10402380945E-02  0.31957050448E-02  0.34292922074E-02  0.51109989000E-03 0. -1.
     -623    1    1    2    0    0  0.40743864177E-02 -0.28024712813E-02  0.30525121600E-02  0.17130000010E+03  0.17130000000E+03 0.  1.
      622    1    1    2    0    0 -0.45262697297E-02  0.17622331868E-02  0.39937517502E+01  0.39965706092E+01  0.15000000000E+00 0. -1.
</event>
<event>
 5   0  0.6780500E+06  0.9118800E+02  0.7818608E-02  0.1180000E+00
       11   -1    0    0    0    0  0.00000000000E+00  0.00000000000E+00  0.39999999673E+01  0.40000000000E+01  0.51109989000E-03 0. -1.
     -623   -1    0    0    0    0  0.00000000000E+00  0.00000000000E+00  0.12525980253E-10  0.17130000000E+03  0.17130000000E+03 0.  1.
       11    1    1    2    0    0 -0.43656412638E-02 -0.26764010478E-04  0.32725460305E+00  0.32728412118E+00  0.51109989000E-03 0. -1.
     -623    1    1    2    0    0  0.86514572146E-02 -0.42330301122E-02  0.30991664364E-02  0.17130000030E+03  0.17130000000E+03 0.  1.
      622    1    1    2    0    0 -0.42858159510E-02  0.42597941228E-02  0.36696461980E+01  0.36727155801E+01  0.15000000000E+00 0. -1.
</event>
<event>
 5   0  0.6780500E+06  0.9118800E+02  0.7818608E-02  0.1180000E+00
       11   -1    0    0    0    0  0.00000000000E+00  0.00000000000E+00  0.39999999673E+01  0.40000000000E+01  0.51109989000E-03 0. -1.
     -623   -1    0    0    0    0  0.00000000000E+00  0.00000000000E+00  0.12525980253E-10  0.17130000000E+03  0.17130000000E+03 0. -1.
       11    1    1    2    0    0 -0.24251290857E-01  0.41052293796E-02 -0.84216668835E-02  0.26003148130E-01  0.51109989000E-03 0. -1.
     -623    1    1    2    0    0  0.32014531033E-01 -0.61870566602E-01  0.37702767726E-01  0.17130001831E+03  0.17130000000E+03 0. -1.
      622    1    1    2    0    0 -0.77632401753E-02  0.57765337222E-01  0.39707188665E+01  0.39739785378E+01  0.15000000000E+00 0. -1.
</event>
<event>
 5   0  0.6780500E+06  0.9118800E+02  0.7818608E-02  0.1180000E+00
       11   -1    0    0    0    0  0.00000000000E+00  0.00000000000E+00  0.39999999673E+01  0.40000000000E+01  0.51109989000E-03 0.  1.
     -623   -1    0    0    0    0  0.00000000000E+00  0.00000000000E+00  0.12525980253E-10  0.17130000000E+03  0.17130000000E+03 0.  1.
       11    1    1    2    0    0  0.15106153386E-01  0.28337598393E-02  0.19326969152E+00  0.19388053267E+00  0.51109989000E-03 0.  1.
     -623    1    1    2    0    0 -0.69630612686E-02  0.77747797046E-02  0.35915929142E-02  0.17130000036E+03  0.17130000000E+03 0.  1.
      622    1    1    2    0    0 -0.81430921170E-02 -0.10608539544E-01  0.38031386830E+01  0.38061191118E+01  0.15000000000E+00 0.  1.
</event>
<event>
 5   0  0.6780500E+06  0.9118800E+02  0.7818608E-02  0.1180000E+00
       11   -1    0    0    0    0  0.00000000000E+00  0.00000000000E+00  0.39999999673E+01  0.40000000000E+01  0.51109989000E-03 0.  1.
     -623   -1    0    0    0    0  0.00000000000E+00  0.00000000000E+00  0.12525980253E-10  0.17130000000E+03  0.17130000000E+03 0. -1.
       11    1    1    2    0    0 -0.19275953445E-02 -0.42116474495E-04  0.39650247367E-01  0.39700387107E-01  0.51109989000E-03 0.  1.
     -623    1    1    2    0    0 -0.17018034965E-02  0.50792681178E-02  0.28967991047E-02  0.17130000011E+03  0.17130000000E+03 0. -1.
      622    1    1    2    0    0  0.36293988410E-02 -0.50371516433E-02  0.39574529209E+01  0.39602995046E+01  0.15000000000E+00 0.  1.
</event>
<event>
 5   0  0.6780500E+06  0.9118800E+02  0.7818608E-02  0.1180000E+00
       11   -1    0    0    0    0  0.00000000000E+00  0.00000000000E+00  0.39999999673E+01  0.40000000000E+01  0.51109989000E-03 0.  1.
     -623   -1    0    0    0    0  0.00000000000E+00  0.00000000000E+00  0.12525980253E-10  0.17130000000E+03  0.17130000000E+03 0. -1.
       11    1    1    2    0    0 -0.21333562462E-01 -0.17476904114E-02  0.17076584027E+00  0.17210290159E+00  0.51109989000E-03 0.  1.
     -623    1    1    2    0    0  0.58916402494E-02  0.15754263317E-01  0.43348059090E-02  0.17130000088E+03  0.17130000000E+03 0. -1.
      622    1    1    2    0    0  0.15441922213E-01 -0.14006572906E-01  0.38248993212E+01  0.38278962178E+01  0.15000000000E+00 0.  1.
</event>
<event>
 5   0  0.6780500E+06  0.9118800E+02  0.7818608E-02  0.1180000E+00
       11   -1    0    0    0    0  0.00000000000E+00  0.00000000000E+00  0.39999999673E+01  0.40000000000E+01  0.51109989000E-03 0. -1.
     -623   -1    0    0    0    0  0.00000000000E+00  0.00000000000E+00  0.12525980253E-10  0.17130000000E+03  0.17130000000E+03 0. -1.
       11    1    1    2    0    0 -0.41887474018E-02  0.38330784433E-02  0.11388264724E-01  0.12735458047E-01  0.51109989000E-03 0. -1.
     -623    1    1    2    0    0  0.62853380624E-02 -0.68143277717E-02  0.41716116678E-02  0.17130000030E+03  0.17130000000E+03 0. -1.
      622    1    1    2    0    0 -0.20965906605E-02  0.29812493284E-02  0.39844400910E+01  0.39872642403E+01  0.15000000000E+00 0. -1.
</event>
<event>
 5   0  0.6780500E+06  0.9118800E+02  0.7818608E-02  0.1180000E+00
       11   -1    0    0    0    0  0.00000000000E+00  0.00000000000E+00  0.39999999673E+01  0.40000000000E+01  0.51109989000E-03 0. -1.
     -623   -1    0    0    0    0  0.00000000000E+00  0.00000000000E+00  0.12525980253E-10  0.17130000000E+03  0.17130000000E+03 0. -1.
       11    1    1    2    0    0  0.13086324584E-01 -0.77758377330E-03  0.21541290197E-01  0.25221913752E-01  0.51109989000E-03 0. -1.
     -623    1    1    2    0    0  0.15165377070E-02 -0.10058105106E-01  0.65539978307E-02  0.17130000043E+03  0.17130000000E+03 0. -1.
      622    1    1    2    0    0 -0.14602862291E-01  0.10835688879E-01  0.39719046793E+01  0.39747776589E+01  0.15000000000E+00 0. -1.
</event>
<event>
 5   0  0.6780500E+06  0.9118800E+02  0.7818608E-02  0.1180000E+00
       11   -1    0    0    0    0  0.00000000000E+00  0.00000000000E+00  0.39999999673E+01  0.40000000000E+01  0.51109989000E-03 0. -1.
     -623   -1    0    0    0    0  0.00000000000E+00  0.00000000000E+00  0.12525980253E-10  0.17130000000E+03  0.17130000000E+03 0. -1.
       11    1    1    2    0    0 -0.15813740704E-02  0.77057824198E-02  0.34762889097E+00  0.34771825792E+00  0.51109989000E-03 0. -1.
     -623    1    1    2    0    0  0.91950393615E-02  0.42332897226E-02  0.31987029122E-02  0.17130000033E+03  0.17130000000E+03 0. -1.
      622    1    1    2    0    0 -0.76136652910E-02 -0.11939072142E-01  0.36491723735E+01  0.36522814131E+01  0.15000000000E+00 0. -1.
</event>
<event>
 5   0  0.6780500E+06  0.9118800E+02  0.7818608E-02  0.1180000E+00
       11   -1    0    0    0    0  0.00000000000E+00  0.00000000000E+00  0.39999999673E+01  0.40000000000E+01  0.51109989000E-03 0. -1.
     -623   -1    0    0    0    0  0.00000000000E+00  0.00000000000E+00  0.12525980253E-10  0.17130000000E+03  0.17130000000E+03 0. -1.
       11    1    1    2    0    0 -0.68584866243E-01 -0.34276619698E-02  0.43418664482E+00  0.43958382193E+00  0.51109989000E-03 0. -1.
     -623    1    1    2    0    0  0.37134611706E-01 -0.30647225457E-01  0.88675362593E-02  0.17130000700E+03  0.17130000000E+03 0. -1.
      622    1    1    2    0    0  0.31450254537E-01  0.34074887427E-01  0.35569457863E+01  0.35604091820E+01  0.15000000000E+00 0. -1.
</event>
<event>
 5   0  0.6780500E+06  0.9118800E+02  0.7818608E-02  0.1180000E+00
       11   -1    0    0    0    0  0.00000000000E+00  0.00000000000E+00  0.39999999673E+01  0.40000000000E+01  0.51109989000E-03 0.  1.
     -623   -1    0    0    0    0  0.00000000000E+00  0.00000000000E+00  0.12525980253E-10  0.17130000000E+03  0.17130000000E+03 0. -1.
       11    1    1    2    0    0  0.13331177769E-01  0.19529529956E-03  0.40468003035E+00  0.40489992175E+00  0.51109989000E-03 0.  1.
     -623    1    1    2    0    0  0.16935243217E-02  0.35817288482E-02  0.33839694095E-02  0.17130000008E+03  0.17130000000E+03 0. -1.
      622    1    1    2    0    0 -0.15024702091E-01 -0.37770241478E-02  0.35919359676E+01  0.35950999990E+01  0.15000000000E+00 0.  1.
</event>
<event>
 5   0  0.6780500E+06  0.9118800E+02  0.7818608E-02  0.1180000E+00
       11   -1    0    0    0    0  0.00000000000E+00  0.00000000000E+00  0.39999999673E+01  0.40000000000E+01  0.51109989000E-03 0.  1.
     -623   -1    0    0    0    0  0.00000000000E+00  0.00000000000E+00  0.12525980253E-10  0.17130000000E+03  0.17130000000E+03 0. -1.
       11    1    1    2    0    0 -0.86478868343E-02  0.91028580448E-02  0.74540005161E-01  0.75591808836E-01  0.51109989000E-03 0.  1.
     -623    1    1    2    0    0 -0.11170639149E-01 -0.22993730826E-01  0.39961304862E-02  0.17130000195E+03  0.17130000000E+03 0. -1.
      622    1    1    2    0    0  0.19818525983E-01  0.13890872781E-01  0.39214638317E+01  0.39244062371E+01  0.15000000000E+00 0.  1.
</event>
<event>
 5   0  0.6780500E+06  0.9118800E+02  0.7818608E-02  0.1180000E+00
       11   -1    0    0    0    0  0.00000000000E+00  0.00000000000E+00  0.39999999673E+01  0.40000000000E+01  0.51109989000E-03 0. -1.
     -623   -1    0    0    0    0  0.00000000000E+00  0.00000000000E+00  0.12525980253E-10  0.17130000000E+03  0.17130000000E+03 0. -1.
       11    1    1    2    0    0 -0.30630313665E-02 -0.26403921316E-02  0.19195069124E+00  0.19199396584E+00  0.51109989000E-03 0. -1.
     -623    1    1    2    0    0 -0.11631767570E-01  0.11367375635E-02  0.30277889442E-02  0.17130000043E+03  0.17130000000E+03 0. -1.
      622    1    1    2    0    0  0.14694798937E-01  0.15036545681E-02  0.38050214872E+01  0.38080056087E+01  0.15000000000E+00 0. -1.
</event>
<event>
 5   0  0.6780500E+06  0.9118800E+02  0.7818608E-02  0.1180000E+00
       11   -1    0    0    0    0  0.00000000000E+00  0.00000000000E+00  0.39999999673E+01  0.40000000000E+01  0.51109989000E-03 0. -1.
     -623   -1    0    0    0    0  0.00000000000E+00  0.00000000000E+00  0.12525980253E-10  0.17130000000E+03  0.17130000000E+03 0. -1.
       11    1    1    2    0    0 -0.27210824308E-01  0.21757737332E-01  0.23626045872E+00  0.23881602473E+00  0.51109989000E-03 0. -1.
     -623    1    1    2    0    0 -0.56899012100E-02  0.38731619793E-01  0.61832565876E-02  0.17130000458E+03  0.17130000000E+03 0. -1.
      622    1    1    2    0    0  0.32900725518E-01 -0.60489357126E-01  0.37575562521E+01  0.37611793905E+01  0.15000000000E+00 0. -1.
</event>
<event>
 5   0  0.6780500E+06  0.9118800E+02  0.7818608E-02  0.1180000E+00
       11   -1    0    0    0    0  0.00000000000E+00  0.00000000000E+00  0.39999999673E+01  0.40000000000E+01  0.51109989000E-03 0.  1.
     -623   -1    0    0    0    0  0.00000000000E+00  0.00000000000E+00  0.12525980253E-10  0.17130000000E+03  0.17130000000E+03 0.  1.
       11    1    1    2    0    0  0.16146195024E-01  0.90368322623E-02  0.13844207172E+00  0.13967402191E+00  0.51109989000E-03 0.  1.
     -623    1    1    2    0    0  0.44543069827E-02 -0.55909069552E-02  0.42040290355E-02  0.17130000020E+03  0.17130000000E+03 0.  1.
      622    1    1    2    0    0 -0.20600502007E-01 -0.34459253070E-02  0.38573538667E+01  0.38603257774E+01  0.15000000000E+00 0.  1.
</event>
<event>
 5   0  0.6780500E+06  0.9118800E+02  0.7818608E-02  0.1180000E+00
       11   -1    0    0    0    0  0.00000000000E+00  0.00000000000E+00  0.39999999673E+01  0.40000000000E+01  0.51109989000E-03 0.  1.
     -623   -1    0    0    0    0  0.00000000000E+00  0.00000000000E+00  0.12525980253E-10  0.17130000000E+03  0.17130000000E+03 0.  1.
       11    1    1    2    0    0 -0.16226558146E-01 -0.27021565638E-02  0.17311461988E-01  0.23886204712E-01  0.51109989000E-03 0.  1.
     -623    1    1    2    0    0  0.28094298893E-01  0.13451506078E-01  0.94404723158E-02  0.17130000309E+03  0.17130000000E+03 0.  1.
      622    1    1    2    0    0 -0.11867740747E-01 -0.10749349514E-01  0.39732480331E+01  0.39761107032E+01  0.15000000000E+00 0.  1.
</event>
<event>
 5   0  0.6780500E+06  0.9118800E+02  0.7818608E-02  0.1180000E+00
       11   -1    0    0    0    0  0.00000000000E+00  0.00000000000E+00  0.39999999673E+01  0.40000000000E+01  0.51109989000E-03 0.  1.
     -623   -1    0    0    0    0  0.00000000000E+00  0.00000000000E+00  0.12525980253E-10  0.17130000000E+03  0.17130000000E+03 0. -1.
       11    1    1    2    0    0 -0.84098920138E-03  0.56250594248E-03 -0.20180293671E-05  0.11335355937E-02  0.51109989000E-03 0.  1.
     -623    1    1    2    0    0  0.61807634962E-02 -0.47235044185E-02  0.39557650453E-02  0.17130000022E+03  0.17130000000E+03 0. -1.
      622    1    1    2    0    0 -0.53397742948E-02  0.41609984759E-02  0.39960462203E+01  0.39988662420E+01  0.15000000000E+00 0.  1.
</event>
<event>
 5   0  0.6780500E+06  0.9118800E+02  0.7818608E-02  0.1180000E+00
       11   -1    0    0    0    0  0.00000000000E+00  0.00000000000E+00  0.39999999673E+01  0.40000000000E+01  0.51109989000E-03 0.  1.
     -623   -1    0    0    0    0  0.00000000000E+00  0.00000000000E+00  0.12525980253E-10  0.17130000000E+03  0.17130000000E+03 0. -1.
       11    1    1    2    0    0  0.29356642650E-01  0.17597856610E-01  0.89872475623E-01  0.96170786223E-01  0.51109989000E-03 0.  1.
     -623    1    1    2    0    0  0.10055643736E-01 -0.20817727703E-01  0.93833772003E-02  0.17130000182E+03  0.17130000000E+03 0. -1.
      622    1    1    2    0    0 -0.39412286386E-01  0.32198710927E-02  0.39007441145E+01  0.39038273967E+01  0.15000000000E+00 0.  1.
</event>
<event>
 5   0  0.6780500E+06  0.9118800E+02  0.7818608E-02  0.1180000E+00
       11   -1    0    0    0    0  0.00000000000E+00  0.00000000000E+00  0.39999999673E+01  0.40000000000E+01  0.51109989000E-03 0. -1.
     -623   -1    0    0    0    0  0.00000000000E+00  0.00000000000E+00  0.12525980253E-10  0.17130000000E+03  0.17130000000E+03 0.  1.
       11    1    1    2    0    0 -0.38609911782E-02  0.44036600414E-02  0.28509986757E+00  0.28516047269E+00  0.51109989000E-03 0. -1.
     -623    1    1    2    0    0 -0.20766587630E-03  0.12111925638E-01  0.31296326852E-02  0.17130000046E+03  0.17130000000E+03 0.  1.
      622    1    1    2    0    0  0.40686570546E-02 -0.16515585679E-01  0.37117704671E+01  0.37148390704E+01  0.15000000000E+00 0. -1.
</event>
<event>
 5   0  0.6780500E+06  0.9118800E+02  0.7818608E-02  0.1180000E+00
       11   -1    0    0    0    0  0.00000000000E+00  0.00000000000E+00  0.39999999673E+01  0.40000000000E+01  0.51109989000E-03 0.  1.
     -623   -1    0    0    0    0  0.00000000000E+00  0.00000000000E+00  0.12525980253E-10  0.17130000000E+03  0.17130000000E+03 0. -1.
       11    1    1    2    0    0 -0.10877306391E-01 -0.14831678478E-02 -0.89927913208E-02  0.14200249999E-01  0.51109989000E-03 0.  1.
     -623    1    1    2    0    0  0.61180010463E-02  0.50041724087E-02  0.26023089202E-01  0.17130000216E+03  0.17130000000E+03 0. -1.
      622    1    1    2    0    0  0.47593053448E-02 -0.35210045610E-02  0.39829696695E+01  0.39857975910E+01  0.15000000000E+00 0.  1.
</event>
<event>
 5   0  0.6780500E+06  0.9118800E+02  0.7818608E-02  0.1180000E+00
       11   -1    0    0    0    0  0.00000000000E+00  0.00000000000E+00  0.39999999673E+01  0.40000000000E+01  0.51109989000E-03 0. -1.
     -623   -1    0    0    0    0  0.00000000000E+00  0.00000000000E+00  0.12525980253E-10  0.17130000000E+03  0.17130000000E+03 0. -1.
       11    1    1    2    0    0 -0.18971408345E-01  0.23473478879E-01  0.47985640328E-01  0.56690399946E-01  0.51109989000E-03 0. -1.
     -623    1    1    2    0    0  0.29878521302E-01  0.33043018871E-02  0.11667812886E-01  0.17130000303E+03  0.17130000000E+03 0. -1.
      622    1    1    2    0    0 -0.10907112957E-01 -0.26777780766E-01  0.39403465141E+01  0.39433065651E+01  0.15000000000E+00 0. -1.
</event>
<event>
 5   0  0.6780500E+06  0.9118800E+02  0.7818608E-02  0.1180000E+00
       11   -1    0    0    0    0  0.00000000000E+00  0.00000000000E+00  0.39999999673E+01  0.40000000000E+01  0.51109989000E-03 0. -1.
     -623   -1    0    0    0    0  0.00000000000E+00  0.00000000000E+00  0.12525980253E-10  0.17130000000E+03  0.17130000000E+03 0. -1.
       11    1    1    2    0    0  0.41697620678E-02  0.10946242046E-02  0.27249758430E-02  0.51256057489E-02  0.51109989000E-03 0. -1.
     -623    1    1    2    0    0 -0.91113884349E-02 -0.11985068260E-01  0.52363545481E-02  0.17130000074E+03  0.17130000000E+03 0. -1.
      622    1    1    2    0    0  0.49416263673E-02  0.10890444055E-01  0.39920386370E+01  0.39948736527E+01  0.15000000000E+00 0. -1.
</event>
<event>
 5   0  0.6780500E+06  0.9118800E+02  0.7818608E-02  0.1180000E+00
       11   -1    0    0    0    0  0.00000000000E+00  0.00000000000E+00  0.39999999673E+01  0.40000000000E+01  0.51109989000E-03 0.  1.
     -623   -1    0    0    0    0  0.00000000000E+00  0.00000000000E+00  0.12525980253E-10  0.17130000000E+03  0.17130000000E+03 0.  1.
       11    1    1    2    0    0  0.11600676102E-02 -0.14072023987E-02  0.35222370912E-01  0.35273256317E-01  0.51109989000E-03 0.  1.
     -623    1    1    2    0    0  0.49596385735E-02 -0.11862793530E-03  0.28945076181E-02  0.17130000010E+03  0.17130000000E+03 0.  1.
      622    1    1    2    0    0 -0.61197061838E-02  0.15258303340E-02  0.39618830889E+01  0.39647266474E+01  0.15000000000E+00 0.  1.
</event>
<event>
 5   0  0.6780500E+06  0.9118800E+02  0.7818608E-02  0.1180000E+00
       11   -1    0    0    0    0  0.00000000000E+00  0.00000000000E+00  0.39999999673E+01  0.40000000000E+01  0.51109989000E-03 0.  1.
     -623   -1    0    0    0    0  0.00000000000E+00  0.00000000000E+00  0.12525980253E-10  0.17130000000E+03  0.17130000000E+03 0.  1.
       11    1    1    2    0    0  0.12415146125E-02 -0.10163487813E-02 -0.29417051624E-03  0.17094100645E-02  0.51109989000E-03 0.  1.
     -623    1    1    2    0    0  0.27436955175E-02  0.56007834653E-02  0.48230402712E-02  0.17130000018E+03  0.17130000000E+03 0.  1.
      622    1    1    2    0    0 -0.39852101300E-02 -0.45844346840E-02  0.39954710976E+01  0.39982904085E+01  0.15000000000E+00 0.  1.
</event>
<event>
 5   0  0.6780500E+06  0.9118800E+02  0.7818608E-02  0.1180000E+00
       11   -1    0    0    0    0  0.00000000000E+00  0.00000000000E+00  0.39999999673E+01  0.40000000000E+01  0.51109989000E-03 0.  1.
     -623   -1    0    0    0    0  0.00000000000E+00  0.00000000000E+00  0.12525980253E-10  0.17130000000E+03  0.17130000000E+03 0. -1.
       11    1    1    2    0    0 -0.27261688539E-02  0.71551058932E-03 -0.30813810727E-02  0.42071467519E-02  0.51109989000E-03 0.  1.
     -623    1    1    2    0    0  0.66145149727E-02 -0.54225922749E-02  0.10110128969E-01  0.17130000051E+03  0.17130000000E+03 0. -1.
      622    1    1    2    0    0 -0.38883461188E-02  0.47070816856E-02  0.39929712195E+01  0.39957923414E+01  0.15000000000E+00 0.  1.
</event>
<event>
 5   0  0.6780500E+06  0.9118800E+02  0.7818608E-02  0.1180000E+00
       11   -1    0    0    0    0  0.00000000000E+00  0.00000000000E+00  0.39999999673E+01  0.40000000000E+01  0.51109989000E-03 0.  1.
     -623   -1    0    0    0    0  0.00000000000E+00  0.00000000000E+00  0.12525980253E-10  0.17130000000E+03  0.17130000000E+03 0.  1.
       11    1    1    2    0    0 -0.97062447270E-02  0.54716497651E-02  0.25749787746E+00  0.25773934169E+00  0.51109989000E-03 0.  1.
     -623    1    1    2    0    0  0.20144780089E-01 -0.63563094299E-02  0.32648537624E-02  0.17130000133E+03  0.17130000000E+03 0.  1.
      622    1    1    2    0    0 -0.10438535362E-01  0.88465966476E-03  0.37392372361E+01  0.37422593248E+01  0.15000000000E+00 0.  1.
</event>
<event>
 5   0  0.6780500E+06  0.9118800E+02  0.7818608E-02  0.1180000E+00
       11   -1    0    0    0    0  0.00000000000E+00  0.00000000000E+00  0.39999999673E+01  0.40000000000E+01  0.51109989000E-03 0.  1.
     -623   -1    0    0    0    0  0.00000000000E+00  0.00000000000E+00  0.12525980253E-10  0.17130000000E+03  0.17130000000E+03 0.  1.
       11    1    1    2    0    0  0.14148972523E-02 -0.58847220909E-02  0.47262213709E-02  0.76961210922E-02  0.51109989000E-03 0.  1.
     -623    1    1    2    0    0  0.14967867445E-01  0.34148535309E-02  0.58239740729E-02  0.17130000079E+03  0.17130000000E+03 0.  1.
      622    1    1    2    0    0 -0.16382764697E-01  0.24698685600E-02  0.39894497719E+01  0.39923030919E+01  0.15000000000E+00 0.  1.
</event>
<event>
 5   0  0.6780500E+06  0.9118800E+02  0.7818608E-02  0.1180000E+00
       11   -1    0    0    0    0  0.00000000000E+00  0.00000000000E+00  0.39999999673E+01  0.40000000000E+01  0.51109989000E-03 0.  1.
     -623   -1    0    0    0    0  0.00000000000E+00  0.00000000000E+00  0.12525980253E-10  0.17130000000E+03  0.17130000000E+03 0.  1.
       11    1    1    2    0    0  0.41094490022E-02  0.15297604633E-01 -0.79520583113E-03  0.15868139589E-01  0.51109989000E-03 0.  1.
     -623    1    1    2    0    0  0.18717214186E-01  0.36273792584E-02  0.19600618793E-01  0.17130000218E+03  0.17130000000E+03 0.  1.
      622    1    1    2    0    0 -0.22826663188E-01 -0.18924983891E-01  0.39811945544E+01  0.39841296781E+01  0.15000000000E+00 0.  1.
</event>
<event>
 5   0  0.6780500E+06  0.9118800E+02  0.7818608E-02  0.1180000E+00
       11   -1    0    0    0    0  0.00000000000E+00  0.00000000000E+00  0.39999999673E+01  0.40000000000E+01  0.51109989000E-03 0. -1.
     -623   -1    0    0    0    0  0.00000000000E+00  0.00000000000E+00  0.12525980253E-10  0.17130000000E+03  0.17130000000E+03 0. -1.
       11    1    1    2    0    0  0.94266198117E-02 -0.75633882113E-02  0.98734952513E-02  0.15614516768E-01  0.51109989000E-03 0. -1.
     -623    1    1    2    0    0 -0.51890482108E-02  0.11124937298E-01  0.85700146382E-02  0.17130000065E+03  0.17130000000E+03 0. -1.
      622    1    1    2    0    0 -0.42375716009E-02 -0.35615490869E-02  0.39815564575E+01  0.39843848291E+01  0.15000000000E+00 0. -1.
</event>
<event>
 5   0  0.6780500E+06  0.9118800E+02  0.7818608E-02  0.1180000E+00
       11   -1    0    0    0    0  0.00000000000E+00  0.00000000000E+00  0.39999999673E+01  0.40000000000E+01  0.51109989000E-03 0. -1.
     -623   -1    0    0    0    0  0.00000000000E+00  0.00000000000E+00  0.12525980253E-10  0.17130000000E+03  0.17130000000E+03 0.  1.
       11    1    1    2    0    0 -0.45948427767E-03 -0.22622406040E-02  0.69334333260E-02  0.73254746697E-02  0.51109989000E-03 0. -1.
     -623    1    1    2    0    0  0.37639612727E-02  0.62061841689E-02  0.32141655615E-02  0.17130000018E+03  0.17130000000E+03 0.  1.
      622    1    1    2    0    0 -0.33044769950E-02 -0.39439435649E-02  0.39898523685E+01  0.39926743414E+01  0.15000000000E+00 0. -1.
</event>
<event>
 5   0  0.6780500E+06  0.9118800E+02  0.7818608E-02  0.1180000E+00
       11   -1    0    0    0    0  0.00000000000E+00  0.00000000000E+00  0.39999999673E+01  0.40000000000E+01  0.51109989000E-03 0.  1.
     -623   -1    0    0    0    0  0.00000000000E+00  0.00000000000E+00  0.12525980253E-10  0.17130000000E+03  0.17130000000E+03 0.  1.
       11    1    1    2    0    0  0.91777921490E-01  0.26829768186E-02  0.33353390474E+00  0.34594148648E+00  0.51109989000E-03 0.  1.
     -623    1    1    2    0    0 -0.10589190671E-01  0.41596342927E-01  0.16665228720E-01  0.17130000619E+03  0.17130000000E+03 0.  1.
      622    1    1    2    0    0 -0.81188730819E-01 -0.44279319746E-01  0.36498008339E+01  0.36540523252E+01  0.15000000000E+00 0.  1.
</event>
<event>
 5   0  0.6780500E+06  0.9118800E+02  0.7818608E-02  0.1180000E+00
       11   -1    0    0    0    0  0.00000000000E+00  0.00000000000E+00  0.39999999673E+01  0.40000000000E+01  0.51109989000E-03 0.  1.
     -623   -1    0    0    0    0  0.00000000000E+00  0.00000000000E+00  0.12525980253E-10  0.17130000000E+03  0.17130000000E+03 0. -1.
       11    1    1    2    0    0  0.16700619734E-02 -0.33422160945E-02  0.26815549227E-01  0.27079409500E-01  0.51109989000E-03 0.  1.
     -623    1    1    2    0    0 -0.23348601287E-02  0.62084455397E-02  0.30977543138E-02  0.17130000016E+03  0.17130000000E+03 0. -1.
      622    1    1    2    0    0  0.66479815528E-03 -0.28662294450E-02  0.39700866637E+01  0.39729204340E+01  0.15000000000E+00 0.  1.
</event>
<event>
 5   0  0.6780500E+06  0.9118800E+02  0.7818608E-02  0.1180000E+00
       11   -1    0    0    0    0  0.00000000000E+00  0.00000000000E+00  0.39999999673E+01  0.40000000000E+01  0.51109989000E-03 0.  1.
     -623   -1    0    0    0    0  0.00000000000E+00  0.00000000000E+00  0.12525980253E-10  0.17130000000E+03  0.17130000000E+03 0.  1.
       11    1    1    2    0    0  0.39578995338E-02 -0.15636961418E-01  0.54927253330E-01  0.57248964293E-01  0.51109989000E-03 0.  1.
     -623    1    1    2    0    0 -0.12881022109E-01  0.24516655643E-01  0.51984796138E-02  0.17130000232E+03  0.17130000000E+03 0.  1.
      622    1    1    2    0    0  0.89231225752E-02 -0.88796942259E-02  0.39398742345E+01  0.39427487182E+01  0.15000000000E+00 0.  1.
</event>
<event>
 5   0  0.6780500E+06  0.9118800E+02  0.7818608E-02  0.1180000E+00
       11   -1    0    0    0    0  0.00000000000E+00  0.00000000000E+00  0.39999999673E+01  0.40000000000E+01  0.51109989000E-03 0.  1.
     -623   -1    0    0    0    0  0.00000000000E+00  0.00000000000E+00  0.12525980253E-10  0.17130000000E+03  0.17130000000E+03 0.  1.
       11    1    1    2    0    0  0.81551473997E-02  0.23511305544E-02  0.22699610814E+00  0.22715529617E+00  0.51109989000E-03 0.  1.
     -623    1    1    2    0    0 -0.30500163167E-01  0.25378204446E-01  0.33150089818E-02  0.17130000463E+03  0.17130000000E+03 0.  1.
      622    1    1    2    0    0  0.22345015767E-01 -0.27729335001E-01  0.37696888502E+01  0.37728400766E+01  0.15000000000E+00 0.  1.
</event>
<event>
 5   0  0.6780500E+06  0.9118800E+02  0.7818608E-02  0.1180000E+00
       11   -1    0    0    0    0  0.00000000000E+00  0.00000000000E+00  0.39999999673E+01  0.40000000000E+01  0.51109989000E-03 0.  1.
     -623   -1    0    0    0    0  0.00000000000E+00  0.00000000000E+00  0.12525980253E-10  0.17130000000E+03  0.17130000000E+03 0. -1.
       11    1    1    2    0    0 -0.11040213266E-01 -0.28799141254E-02  0.26256358234E-01  0.28632809592E-01  0.51109989000E-03 0.  1.
     -623    1    1    2    0    0  0.72328447909E-03 -0.60096045888E-02  0.52337610824E-02  0.17130000019E+03  0.17130000000E+03 0. -1.
      622    1    1    2    0    0  0.10316928787E-01  0.88895187143E-02  0.39685098481E+01  0.39713670036E+01  0.15000000000E+00 0.  1.
</event>
<event>
 5   0  0.6780500E+06  0.9118800E+02  0.7818608E-02  0.1180000E+00
       11   -1    0    0    0    0  0.00000000000E+00  0.00000000000E+00  0.39999999673E+01  0.40000000000E+01  0.51109989000E-03 0.  1.
     -623   -1    0    0    0    0  0.00000000000E+00  0.00000000000E+00  0.12525980253E-10  0.17130000000E+03  0.17130000000E+03 0. -1.
       11    1    1    2    0    0  0.27920529290E-01  0.15302888879E-01  0.25124708364E+00  0.25325696955E+00  0.51109989000E-03 0.  1.
     -623    1    1    2    0    0  0.88584421853E-02 -0.80231283353E-02  0.52019047146E-02  0.17130000050E+03  0.17130000000E+03 0. -1.
      622    1    1    2    0    0 -0.36778971475E-01 -0.72797605438E-02  0.37435509790E+01  0.37467425345E+01  0.15000000000E+00 0.  1.
</event>
<event>
 5   0  0.6780500E+06  0.9118800E+02  0.7818608E-02  0.1180000E+00
       11   -1    0    0    0    0  0.00000000000E+00  0.00000000000E+00  0.39999999673E+01  0.40000000000E+01  0.51109989000E-03 0.  1.
     -623   -1    0    0    0    0  0.00000000000E+00  0.00000000000E+00  0.12525980253E-10  0.17130000000E+03  0.17130000000E+03 0.  1.
       11    1    1    2    0    0  0.41050583206E-01  0.36297766487E-01  0.55307988276E+00  0.55578799570E+00  0.51109989000E-03 0.  1.
     -623    1    1    2    0    0 -0.10556769379E+00  0.39438542936E-01  0.74518960054E-02  0.17130003723E+03  0.17130000000E+03 0.  1.
      622    1    1    2    0    0  0.64517110589E-01 -0.75736309424E-01  0.34394681887E+01  0.34441747730E+01  0.15000000000E+00 0.  1.
</event>
<event>
 5   0  0.6780500E+06  0.9118800E+02  0.7818608E-02  0.1180000E+00
       11   -1    0    0    0    0  0.00000000000E+00  0.00000000000E+00  0.39999999673E+01  0.40000000000E+01  0.51109989000E-03 0. -1.
     -623   -1    0    0    0    0  0.00000000000E+00  0.00000000000E+00  0.12525980253E-10  0.17130000000E+03  0.17130000000E+03 0.  1.
       11    1    1    2    0    0  0.11920091877E+00 -0.26172057636E-01  0.88468970203E+00  0.89306772741E+00  0.51109989000E-03 0. -1.
     -623    1    1    2    0    0 -0.47742275178E-01  0.10008075876E+00  0.13740842978E-01  0.17130003644E+03  0.17130000000E+03 0.  1.
      622    1    1    2    0    0 -0.71458643589E-01 -0.73908701125E-01  0.31015694224E+01  0.31068958327E+01  0.15000000000E+00 0. -1.
</event>
<event>
 5   0  0.6780500E+06  0.9118800E+02  0.7818608E-02  0.1180000E+00
       11   -1    0    0    0    0  0.00000000000E+00  0.00000000000E+00  0.39999999673E+01  0.40000000000E+01  0.51109989000E-03 0.  1.
     -623   -1    0    0    0    0  0.00000000000E+00  0.00000000000E+00  0.12525980253E-10  0.17130000000E+03  0.17130000000E+03 0. -1.
       11    1    1    2    0    0  0.23916833625E-03 -0.67005315382E-03  0.34948801489E-02  0.36029962780E-02  0.51109989000E-03 0.  1.
     -623    1    1    2    0    0 -0.34440501230E-02  0.27254394835E-02  0.29260075234E-02  0.17130000008E+03  0.17130000000E+03 0. -1.
      622    1    1    2    0    0  0.32048817867E-02 -0.20553863297E-02  0.39935790797E+01  0.39963969224E+01  0.15000000000E+00 0.  1.
</event>
<event>
 5   0  0.6780500E+06  0.9118800E+02  0.7818608E-02  0.1180000E+00
       11   -1    0    0    0    0  0.00000000000E+00  0.00000000000E+00  0.39999999673E+01  0.40000000000E+01  0.51109989000E-03 0. -1.
     -623   -1    0    0    0    0  0.00000000000E+00  0.00000000000E+00  0.12525980253E-10  0.17130000000E+03  0.17130000000E+03 0. -1.
       11    1    1    2    0    0  0.29438579454E-02  0.38568571329E-02  0.25152326666E-01  0.25621132027E-01  0.51109989000E-03 0. -1.
     -623    1    1    2    0    0 -0.41201956979E-02 -0.89899637644E-03  0.33017719006E-02  0.17130000008E+03  0.17130000000E+03 0. -1.
      622    1    1    2    0    0  0.11763377526E-02 -0.29578607564E-02  0.39715458688E+01  0.39743787843E+01  0.15000000000E+00 0. -1.
</event>
<event>
 5   0  0.6780500E+06  0.9118800E+02  0.7818608E-02  0.1180000E+00
       11   -1    0    0    0    0  0.00000000000E+00  0.00000000000E+00  0.39999999673E+01  0.40000000000E+01  0.51109989000E-03 0.  1.
     -623   -1    0    0    0    0  0.00000000000E+00  0.00000000000E+00  0.12525980253E-10  0.17130000000E+03  0.17130000000E+03 0. -1.
       11    1    1    2    0    0 -0.19485595202E-01  0.24340997771E-01  0.52945830867E+00  0.53037584262E+00  0.51109989000E-03 0.  1.
     -623    1    1    2    0    0 -0.11805283051E-01 -0.22627079396E-01  0.43050584765E-02  0.17130000196E+03  0.17130000000E+03 0. -1.
      622    1    1    2    0    0  0.31290878253E-01 -0.17139183750E-02  0.34662366002E+01  0.34696222021E+01  0.15000000000E+00 0.  1.
</event>
<event>
 5   0  0.6780500E+06  0.9118800E+02  0.7818608E-02  0.1180000E+00
       11   -1    0    0    0    0  0.00000000000E+00  0.00000000000E+00  0.39999999673E+01  0.40000000000E+01  0.51109989000E-03 0.  1.
     -623   -1    0    0    0    0  0.00000000000E+00  0.00000000000E+00  0.12525980253E-10  0.17130000000E+03  0.17130000000E+03 0. -1.
       11    1    1    2    0    0  0.12525505641E-04 -0.61786155768E-02 -0.33961484048E-02  0.70689811444E-02  0.51109989000E-03 0.  1.
     -623    1    1    2    0    0  0.57648527480E-02 -0.16527923784E-01  0.13353777959E-01  0.17130000141E+03  0.17130000000E+03 0. -1.
      622    1    1    2    0    0 -0.57773782536E-02  0.22706539361E-01  0.39900423378E+01  0.39929296040E+01  0.15000000000E+00 0.  1.
</event>
<event>
 5   0  0.6780500E+06  0.9118800E+02  0.7818608E-02  0.1180000E+00
       11   -1    0    0    0    0  0.00000000000E+00  0.00000000000E+00  0.39999999673E+01  0.40000000000E+01  0.51109989000E-03 0. -1.
     -623   -1    0    0    0    0  0.00000000000E+00  0.00000000000E+00  0.12525980253E-10  0.17130000000E+03  0.17130000000E+03 0. -1.
       11    1    1    2    0    0 -0.32879786835E-01  0.76860645409E-01  0.10373909061E+01  0.10407539539E+01  0.51109989000E-03 0. -1.
     -623    1    1    2    0    0  0.11173878249E-02  0.19989499124E-01  0.89266036934E-02  0.17130000140E+03  0.17130000000E+03 0. -1.
      622    1    1    2    0    0  0.31762399010E-01 -0.96850144533E-01  0.29536824576E+01  0.29592446436E+01  0.15000000000E+00 0. -1.
</event>
<event>
 5   0  0.6780500E+06  0.9118800E+02  0.7818608E-02  0.1180000E+00
       11   -1    0    0    0    0  0.00000000000E+00  0.00000000000E+00  0.39999999673E+01  0.40000000000E+01  0.51109989000E-03 0. -1.
     -623   -1    0    0    0    0  0.00000000000E+00  0.00000000000E+00  0.12525980253E-10  0.17130000000E+03  0.17130000000E+03 0. -1.
       11    1    1    2    0    0 -0.92138456307E-02 -0.19028036385E-01  0.14908417999E+00  0.15057660862E+00  0.51109989000E-03 0. -1.
     -623    1    1    2    0    0  0.17562958530E-01  0.42594548225E-01  0.45035369647E-02  0.17130000626E+03  0.17130000000E+03 0. -1.
      622    1    1    2    0    0 -0.83491128990E-02 -0.23566511841E-01  0.38464122504E+01  0.38494171362E+01  0.15000000000E+00 0. -1.
</event>
<event>
 5   0  0.6780500E+06  0.9118800E+02  0.7818608E-02  0.1180000E+00
       11   -1    0    0    0    0  0.00000000000E+00  0.00000000000E+00  0.39999999673E+01  0.40000000000E+01  0.51109989000E-03 0. -1.
     -623   -1    0    0    0    0  0.00000000000E+00  0.00000000000E+00  0.12525980253E-10  0.17130000000E+03  0.17130000000E+03 0. -1.
       11    1    1    2    0    0 -0.63017489064E-02  0.19498718528E-01  0.60406243908E-01  0.63789400274E-01  0.51109989000E-03 0. -1.
     -623    1    1    2    0    0  0.23491832012E-01 -0.92306955564E-02  0.62951834731E-02  0.17130000198E+03  0.17130000000E+03 0. -1.
      622    1    1    2    0    0 -0.17190083106E-01 -0.10268022972E-01  0.39332985400E+01  0.39362086245E+01  0.15000000000E+00 0. -1.
</event>
<event>
 5   0  0.6780500E+06  0.9118800E+02  0.7818608E-02  0.1180000E+00
       11   -1    0    0    0    0  0.00000000000E+00  0.00000000000E+00  0.39999999673E+01  0.40000000000E+01  0.51109989000E-03 0.  1.
     -623   -1    0    0    0    0  0.00000000000E+00  0.00000000000E+00  0.12525980253E-10  0.17130000000E+03  0.17130000000E+03 0. -1.
       11    1    1    2    0    0  0.12153975764E+00 -0.22827807294E-01  0.63463237580E+00  0.64656904899E+00  0.51109989000E-03 0.  1.
     -623    1    1    2    0    0  0.36878735340E-01  0.40970284341E-01  0.19099976972E-01  0.17130000993E+03  0.17130000000E+03 0. -1.
      622    1    1    2    0    0 -0.15841849298E+00 -0.18142477047E-01  0.33462676146E+01  0.33534210169E+01  0.15000000000E+00 0.  1.
</event>
<event>
 5   0  0.6780500E+06  0.9118800E+02  0.7818608E-02  0.1180000E+00
       11   -1    0    0    0    0  0.00000000000E+00  0.00000000000E+00  0.39999999673E+01  0.40000000000E+01  0.51109989000E-03 0. -1.
     -623   -1    0    0    0    0  0.00000000000E+00  0.00000000000E+00  0.12525980253E-10  0.17130000000E+03  0.17130000000E+03 0.  1.
       11    1    1    2    0    0 -0.18408032070E-02 -0.31083239864E-02  0.87120677404E-01  0.87197040589E-01  0.51109989000E-03 0. -1.
     -623    1    1    2    0    0 -0.14647620633E-02 -0.20836025054E-02  0.29574533518E-02  0.17130000004E+03  0.17130000000E+03 0.  1.
      622    1    1    2    0    0  0.33055652703E-02  0.51919264918E-02  0.39099218366E+01  0.39128029149E+01  0.15000000000E+00 0. -1.
</event>
<event>
 5   0  0.6780500E+06  0.9118800E+02  0.7818608E-02  0.1180000E+00
       11   -1    0    0    0    0  0.00000000000E+00  0.00000000000E+00  0.39999999673E+01  0.40000000000E+01  0.51109989000E-03 0. -1.
     -623   -1    0    0    0    0  0.00000000000E+00  0.00000000000E+00  0.12525980253E-10  0.17130000000E+03  0.17130000000E+03 0. -1.
       11    1    1    2    0    0  0.59895807568E-02  0.40098681463E-02  0.28820667099E-01  0.29712727833E-01  0.51109989000E-03 0. -1.
     -623    1    1    2    0    0 -0.39755757994E-02 -0.13091189553E-02  0.37281102546E-02  0.17130000009E+03  0.17130000000E+03 0. -1.
      622    1    1    2    0    0 -0.20140049572E-02 -0.27007491910E-02  0.39674511901E+01  0.39702871806E+01  0.15000000000E+00 0. -1.
</event>
<event>
 5   0  0.6780500E+06  0.9118800E+02  0.7818608E-02  0.1180000E+00
       11   -1    0    0    0    0  0.00000000000E+00  0.00000000000E+00  0.39999999673E+01  0.40000000000E+01  0.51109989000E-03 0. -1.
     -623   -1    0    0    0    0  0.00000000000E+00  0.00000000000E+00  0.12525980253E-10  0.17130000000E+03  0.17130000000E+03 0. -1.
       11    1    1    2    0    0  0.11359044957E-01 -0.91122573233E-02  0.17332810407E-01  0.22643954504E-01  0.51109989000E-03 0. -1.
     -623    1    1    2    0    0 -0.12334835119E-01  0.40644391268E-02  0.81446417871E-02  0.17130000069E+03  0.17130000000E+03 0. -1.
      622    1    1    2    0    0  0.97579016229E-03  0.50478181965E-02  0.39745225152E+01  0.39773553596E+01  0.15000000000E+00 0.  0.
</event>
<event>
 5   0  0.6780500E+06  0.9118800E+02  0.7818608E-02  0.1180000E+00
       11   -1    0    0    0    0  0.00000000000E+00  0.00000000000E+00  0.39999999673E+01  0.40000000000E+01  0.51109989000E-03 0.  1.
     -623   -1    0    0    0    0  0.00000000000E+00  0.00000000000E+00  0.12525980253E-10  0.17130000000E+03  0.17130000000E+03 0.  1.
       11    1    1    2    0    0  0.31991250381E-02  0.13826850447E-01  0.22368206216E+00  0.22413242145E+00  0.51109989000E-03 0.  1.
     -623    1    1    2    0    0 -0.15248753760E-01 -0.13206138649E-01  0.34514671139E-02  0.17130000122E+03  0.17130000000E+03 0.  1.
      622    1    1    2    0    0  0.12049628722E-01 -0.62071179813E-03  0.37728664381E+01  0.37758663560E+01  0.15000000000E+00 0.  1.
</event>
<event>
 5   0  0.6780500E+06  0.9118800E+02  0.7818608E-02  0.1180000E+00
       11   -1    0    0    0    0  0.00000000000E+00  0.00000000000E+00  0.39999999673E+01  0.40000000000E+01  0.51109989000E-03 0.  1.
     -623   -1    0    0    0    0  0.00000000000E+00  0.00000000000E+00  0.12525980253E-10  0.17130000000E+03  0.17130000000E+03 0.  1.
       11    1    1    2    0    0 -0.23066407079E-01  0.18777145106E-01  0.11005046381E+00  0.11400002685E+00  0.51109989000E-03 0.  1.
     -623    1    1    2    0    0 -0.63900792085E-04 -0.11220633169E-01  0.69223679236E-02  0.17130000051E+03  0.17130000000E+03 0.  1.
      622    1    1    2    0    0  0.23130307871E-01 -0.75565119365E-02  0.38830271357E+01  0.38859994658E+01  0.15000000000E+00 0.  1.
</event>
<event>
 5   0  0.6780500E+06  0.9118800E+02  0.7818608E-02  0.1180000E+00
       11   -1    0    0    0    0  0.00000000000E+00  0.00000000000E+00  0.39999999673E+01  0.40000000000E+01  0.51109989000E-03 0.  1.
     -623   -1    0    0    0    0  0.00000000000E+00  0.00000000000E+00  0.12525980253E-10  0.17130000000E+03  0.17130000000E+03 0.  1.
       11    1    1    2    0    0  0.10717251916E-01 -0.76703809260E-02  0.69514291842E+00  0.69526802924E+00  0.51109989000E-03 0.  1.
     -623    1    1    2    0    0  0.90623689028E-02 -0.21171864368E-01  0.37178832335E-02  0.17130000159E+03  0.17130000000E+03 0.  1.
      622    1    1    2    0    0 -0.19779620818E-01  0.28842245294E-01  0.33011391657E+01  0.33047303823E+01  0.15000000000E+00 0.  0.
</event>
<event>
 5   0  0.6780500E+06  0.9118800E+02  0.7818608E-02  0.1180000E+00
       11   -1    0    0    0    0  0.00000000000E+00  0.00000000000E+00  0.39999999673E+01  0.40000000000E+01  0.51109989000E-03 0. -1.
     -623   -1    0    0    0    0  0.00000000000E+00  0.00000000000E+00  0.12525980253E-10  0.17130000000E+03  0.17130000000E+03 0.  1.
       11    1    1    2    0    0  0.12410862551E-01 -0.51978653840E-01  0.47644088972E+00  0.47942881910E+00  0.51109989000E-03 0. -1.
     -623    1    1    2    0    0  0.70162016730E-02  0.93446673887E-02  0.64974207808E-02  0.17130000052E+03  0.17130000000E+03 0.  1.
      622    1    1    2    0    0 -0.19427064224E-01  0.42633986452E-01  0.35170616569E+01  0.35205706591E+01  0.15000000000E+00 0. -1.
</event>
<event>
 5   0  0.6780500E+06  0.9118800E+02  0.7818608E-02  0.1180000E+00
       11   -1    0    0    0    0  0.00000000000E+00  0.00000000000E+00  0.39999999673E+01  0.40000000000E+01  0.51109989000E-03 0.  1.
     -623   -1    0    0    0    0  0.00000000000E+00  0.00000000000E+00  0.12525980253E-10  0.17130000000E+03  0.17130000000E+03 0. -1.
       11    1    1    2    0    0 -0.69804646048E-03 -0.97909508456E-03 -0.51995384709E-03  0.14062258518E-02  0.51109989000E-03 0.  1.
     -623    1    1    2    0    0 -0.10345903350E-02  0.24052807007E-02  0.47413425268E-02  0.17130000009E+03  0.17130000000E+03 0. -1.
      622    1    1    2    0    0  0.17326367954E-02 -0.14261856161E-02  0.39957785786E+01  0.39985936885E+01  0.15000000000E+00 0.  1.
</event>
<event>
 5   0  0.6780500E+06  0.9118800E+02  0.7818608E-02  0.1180000E+00
       11   -1    0    0    0    0  0.00000000000E+00  0.00000000000E+00  0.39999999673E+01  0.40000000000E+01  0.51109989000E-03 0. -1.
     -623   -1    0    0    0    0  0.00000000000E+00  0.00000000000E+00  0.12525980253E-10  0.17130000000E+03  0.17130000000E+03 0.  1.
       11    1    1    2    0    0 -0.11066051035E-01 -0.98152967076E-02  0.11575140346E+00  0.11669381372E+00  0.51109989000E-03 0. -1.
     -623    1    1    2    0    0  0.10807390902E-01 -0.40163837717E-02  0.38655670998E-02  0.17130000043E+03  0.17130000000E+03 0.  1.
      622    1    1    2    0    0  0.25866013209E-03  0.13831680479E-01  0.38803829969E+01  0.38833057547E+01  0.15000000000E+00 0. -1.
</event>
<event>
 5   0  0.6780500E+06  0.9118800E+02  0.7818608E-02  0.1180000E+00
       11   -1    0    0    0    0  0.00000000000E+00  0.00000000000E+00  0.39999999673E+01  0.40000000000E+01  0.51109989000E-03 0.  1.
     -623   -1    0    0    0    0  0.00000000000E+00  0.00000000000E+00  0.12525980253E-10  0.17130000000E+03  0.17130000000E+03 0.  1.
       11    1    1    2    0    0 -0.86384484529E-02 -0.70716579650E-02  0.43401495032E+00  0.43415880673E+00  0.51109989000E-03 0.  1.
     -623    1    1    2    0    0  0.17232282561E-02  0.17408106780E-01  0.33227886932E-02  0.17130000093E+03  0.17130000000E+03 0.  1.
      622    1    1    2    0    0  0.69152201969E-02 -0.10336448814E-01  0.35626622283E+01  0.35658402678E+01  0.15000000000E+00 0.  1.
</event>
<event>
 5   0  0.6780500E+06  0.9118800E+02  0.7818608E-02  0.1180000E+00
       11   -1    0    0    0    0  0.00000000000E+00  0.00000000000E+00  0.39999999673E+01  0.40000000000E+01  0.51109989000E-03 0. -1.
     -623   -1    0    0    0    0  0.00000000000E+00  0.00000000000E+00  0.12525980253E-10  0.17130000000E+03  0.17130000000E+03 0. -1.
       11    1    1    2    0    0  0.36782042656E-02  0.58753032012E-03  0.75524102023E-01  0.75617627479E-01  0.51109989000E-03 0. -1.
     -623    1    1    2    0    0  0.21184942432E-02  0.53151383652E-02  0.29700817852E-02  0.17130000012E+03  0.17130000000E+03 0. -1.
      622    1    1    2    0    0 -0.57966985088E-02 -0.59026686853E-02  0.39215057836E+01  0.39243822512E+01  0.15000000000E+00 0. -1.
</event>
<event>
 5   0  0.6780500E+06  0.9118800E+02  0.7818608E-02  0.1180000E+00
       11   -1    0    0    0    0  0.00000000000E+00  0.00000000000E+00  0.39999999673E+01  0.40000000000E+01  0.51109989000E-03 0. -1.
     -623   -1    0    0    0    0  0.00000000000E+00  0.00000000000E+00  0.12525980253E-10  0.17130000000E+03  0.17130000000E+03 0. -1.
       11    1    1    2    0    0  0.35281748403E-02 -0.17650516353E-02  0.96274816800E-01  0.96356966517E-01  0.51109989000E-03 0. -1.
     -623    1    1    2    0    0 -0.15163468327E-01 -0.14378302132E-01  0.30171652595E-02  0.17130000130E+03  0.17130000000E+03 0. -1.
      622    1    1    2    0    0  0.11635293486E-01  0.16143353767E-01  0.39007079853E+01  0.39036417323E+01  0.15000000000E+00 0. -1.
</event>
<event>
 5   0  0.6780500E+06  0.9118800E+02  0.7818608E-02  0.1180000E+00
       11   -1    0    0    0    0  0.00000000000E+00  0.00000000000E+00  0.39999999673E+01  0.40000000000E+01  0.51109989000E-03 0.  1.
     -623   -1    0    0    0    0  0.00000000000E+00  0.00000000000E+00  0.12525980253E-10  0.17130000000E+03  0.17130000000E+03 0. -1.
       11    1    1    2    0    0  0.56062395534E-02 -0.35763231592E-02  0.58973924259E-01  0.59349852358E-01  0.51109989000E-03 0.  1.
     -623    1    1    2    0    0 -0.87538232120E-02  0.29000243675E-02  0.32333841785E-02  0.17130000028E+03  0.17130000000E+03 0. -1.
      622    1    1    2    0    0  0.31475836586E-02  0.67629879162E-03  0.39377926589E+01  0.39406498689E+01  0.15000000000E+00 0.  1.
</event>
<event>
 5   0  0.6780500E+06  0.9118800E+02  0.7818608E-02  0.1180000E+00
       11   -1    0    0    0    0  0.00000000000E+00  0.00000000000E+00  0.39999999673E+01  0.40000000000E+01  0.51109989000E-03 0.  1.
     -623   -1    0    0    0    0  0.00000000000E+00  0.00000000000E+00  0.12525980253E-10  0.17130000000E+03  0.17130000000E+03 0. -1.
       11    1    1    2    0    0  0.38915614595E-02 -0.18818955811E-01  0.19487712635E-01  0.27373883817E-01  0.51109989000E-03 0.  1.
     -623    1    1    2    0    0 -0.16991807370E-01  0.86241629693E-02  0.10755132993E-01  0.17130000140E+03  0.17130000000E+03 0. -1.
      622    1    1    2    0    0  0.13100245911E-01  0.10194792842E-01  0.39697571218E+01  0.39726247187E+01  0.15000000000E+00 0.  1.
</event>
<event>
 5   0  0.6780500E+06  0.9118800E+02  0.7818608E-02  0.1180000E+00
       11   -1    0    0    0    0  0.00000000000E+00  0.00000000000E+00  0.39999999673E+01  0.40000000000E+01  0.51109989000E-03 0.  1.
     -623   -1    0    0    0    0  0.00000000000E+00  0.00000000000E+00  0.12525980253E-10  0.17130000000E+03  0.17130000000E+03 0. -1.
       11    1    1    2    0    0  0.65900225019E-02 -0.62292763118E-02  0.93770243857E-01  0.94209087324E-01  0.51109989000E-03 0.  1.
     -623    1    1    2    0    0 -0.95954350063E-02 -0.57881852243E-02  0.33402702871E-02  0.17130000040E+03  0.17130000000E+03 0. -1.
      622    1    1    2    0    0  0.30054125044E-02  0.12017461536E-01  0.39028894532E+01  0.39057905136E+01  0.15000000000E+00 0.  1.
</event>
<event>
 5   0  0.6780500E+06  0.9118800E+02  0.7818608E-02  0.1180000E+00
       11   -1    0    0    0    0  0.00000000000E+00  0.00000000000E+00  0.39999999673E+01  0.40000000000E+01  0.51109989000E-03 0. -1.
     -623   -1    0    0    0    0  0.00000000000E+00  0.00000000000E+00  0.12525980253E-10  0.17130000000E+03  0.17130000000E+03 0. -1.
       11    1    1    2    0    0  0.24064531280E-01  0.27014845757E-01  0.87150026639E+00  0.87225104133E+00  0.51109989000E-03 0. -1.
     -623    1    1    2    0    0  0.25868117489E-01  0.95714600760E-02  0.49652637848E-02  0.17130000229E+03  0.17130000000E+03 0. -1.
      622    1    1    2    0    0 -0.49932648769E-01 -0.36586305833E-01  0.31235344372E+01  0.31277466661E+01  0.15000000000E+00 0. -1.
</event>
<event>
 5   0  0.6780500E+06  0.9118800E+02  0.7818608E-02  0.1180000E+00
       11   -1    0    0    0    0  0.00000000000E+00  0.00000000000E+00  0.39999999673E+01  0.40000000000E+01  0.51109989000E-03 0. -1.
     -623   -1    0    0    0    0  0.00000000000E+00  0.00000000000E+00  0.12525980253E-10  0.17130000000E+03  0.17130000000E+03 0.  1.
       11    1    1    2    0    0  0.10270633556E-01 -0.30212159722E-02  0.38257900191E-01  0.39730867199E-01  0.51109989000E-03 0. -1.
     -623    1    1    2    0    0 -0.31145896465E-01  0.88431060045E-02  0.43771287938E-02  0.17130000312E+03  0.17130000000E+03 0.  1.
      622    1    1    2    0    0  0.20875262908E-01 -0.58218900323E-02  0.39573649384E+01  0.39602660171E+01  0.15000000000E+00 0. -1.
</event>
<event>
 5   0  0.6780500E+06  0.9118800E+02  0.7818608E-02  0.1180000E+00
       11   -1    0    0    0    0  0.00000000000E+00  0.00000000000E+00  0.39999999673E+01  0.40000000000E+01  0.51109989000E-03 0. -1.
     -623   -1    0    0    0    0  0.00000000000E+00  0.00000000000E+00  0.12525980253E-10  0.17130000000E+03  0.17130000000E+03 0. -1.
       11    1    1    2    0    0  0.17482447380E-02 -0.22922680828E-01  0.46581705820E-01  0.51948264611E-01  0.51109989000E-03 0. -1.
     -623    1    1    2    0    0 -0.10238893891E-01  0.17654040389E-01  0.82311310256E-02  0.17130000141E+03  0.17130000000E+03 0. -1.
      622    1    1    2    0    0  0.84906491534E-02  0.52686404388E-02  0.39451871305E+01  0.39480503219E+01  0.15000000000E+00 0. -1.
</event>
<event>
 5   0  0.6780500E+06  0.9118800E+02  0.7818608E-02  0.1180000E+00
       11   -1    0    0    0    0  0.00000000000E+00  0.00000000000E+00  0.39999999673E+01  0.40000000000E+01  0.51109989000E-03 0.  1.
     -623   -1    0    0    0    0  0.00000000000E+00  0.00000000000E+00  0.12525980253E-10  0.17130000000E+03  0.17130000000E+03 0.  1.
       11    1    1    2    0    0 -0.73020635682E-02  0.64794119264E-03  0.29611137502E-01  0.30509353441E-01  0.51109989000E-03 0.  1.
     -623    1    1    2    0    0  0.48650534170E-02  0.26016183450E-02  0.37355218670E-02  0.17130000013E+03  0.17130000000E+03 0.  1.
      622    1    1    2    0    0  0.24370101511E-02 -0.32495595377E-02  0.39666533081E+01  0.39694905171E+01  0.15000000000E+00 0.  1.
</event>
<event>
 5   0  0.6780500E+06  0.9118800E+02  0.7818608E-02  0.1180000E+00
       11   -1    0    0    0    0  0.00000000000E+00  0.00000000000E+00  0.39999999673E+01  0.40000000000E+01  0.51109989000E-03 0.  1.
     -623   -1    0    0    0    0  0.00000000000E+00  0.00000000000E+00  0.12525980253E-10  0.17130000000E+03  0.17130000000E+03 0.  1.
       11    1    1    2    0    0 -0.87205168903E-02  0.14070206838E-01  0.78366128041E-01  0.80096999818E-01  0.51109989000E-03 0.  1.
     -623    1    1    2    0    0 -0.78462185710E-02 -0.88177318824E-02  0.46408849258E-02  0.17130000047E+03  0.17130000000E+03 0.  1.
      622    1    1    2    0    0  0.16566735461E-01 -0.52524749561E-02  0.39169929544E+01  0.39199025307E+01  0.15000000000E+00 0.  1.
</event>
<event>
 5   0  0.6780500E+06  0.9118800E+02  0.7818608E-02  0.1180000E+00
       11   -1    0    0    0    0  0.00000000000E+00  0.00000000000E+00  0.39999999673E+01  0.40000000000E+01  0.51109989000E-03 0. -1.
     -623   -1    0    0    0    0  0.00000000000E+00  0.00000000000E+00  0.12525980253E-10  0.17130000000E+03  0.17130000000E+03 0.  1.
       11    1    1    2    0    0  0.42083070471E-02  0.29666625155E-02  0.58323848339E-01  0.58552911461E-01  0.51109989000E-03 0. -1.
     -623    1    1    2    0    0 -0.59249952940E-02  0.31534200939E-02  0.30896348702E-02  0.17130000016E+03  0.17130000000E+03 0.  1.
      622    1    1    2    0    0  0.17166882468E-02 -0.61200826094E-02  0.39385864842E+01  0.39414469292E+01  0.15000000000E+00 0. -1.
</event>
<event>
 5   0  0.6780500E+06  0.9118800E+02  0.7818608E-02  0.1180000E+00
       11   -1    0    0    0    0  0.00000000000E+00  0.00000000000E+00  0.39999999673E+01  0.40000000000E+01  0.51109989000E-03 0. -1.
     -623   -1    0    0    0    0  0.00000000000E+00  0.00000000000E+00  0.12525980253E-10  0.17130000000E+03  0.17130000000E+03 0.  1.
       11    1    1    2    0    0 -0.14042594795E-01  0.32291418445E-01  0.24864523022E+00  0.25112674470E+00  0.51109989000E-03 0. -1.
     -623    1    1    2    0    0  0.31854875869E-01  0.12156235966E-01  0.57931454469E-02  0.17130000349E+03  0.17130000000E+03 0.  1.
      622    1    1    2    0    0 -0.17812281075E-01 -0.44447654411E-01  0.37455615917E+01  0.37488697641E+01  0.15000000000E+00 0. -1.
</event>
<event>
 5   0  0.6780500E+06  0.9118800E+02  0.7818608E-02  0.1180000E+00
       11   -1    0    0    0    0  0.00000000000E+00  0.00000000000E+00  0.39999999673E+01  0.40000000000E+01  0.51109989000E-03 0. -1.
     -623   -1    0    0    0    0  0.00000000000E+00  0.00000000000E+00  0.12525980253E-10  0.17130000000E+03  0.17130000000E+03 0.  1.
       11    1    1    2    0    0 -0.17989547897E-02 -0.13118778152E-02  0.63842992134E-02  0.67806901857E-02  0.51109989000E-03 0. -1.
     -623    1    1    2    0    0  0.11260860540E-02  0.89224915981E-02  0.32222095190E-02  0.17130000027E+03  0.17130000000E+03 0.  1.
      622    1    1    2    0    0  0.67286873571E-03 -0.76106137829E-02  0.39903934586E+01  0.39932190434E+01  0.15000000000E+00 0. -1.
</event>
<event>
 5   0  0.6780500E+06  0.9118800E+02  0.7818608E-02  0.1180000E+00
       11   -1    0    0    0    0  0.00000000000E+00  0.00000000000E+00  0.39999999673E+01  0.40000000000E+01  0.51109989000E-03 0.  1.
     -623   -1    0    0    0    0  0.00000000000E+00  0.00000000000E+00  0.12525980253E-10  0.17130000000E+03  0.17130000000E+03 0. -1.
       11    1    1    2    0    0 -0.17749777894E-03 -0.19528229865E-02 -0.19068233523E-02  0.27824847659E-02  0.51109989000E-03 0.  1.
     -623    1    1    2    0    0  0.89302092349E-02  0.37638611618E-03  0.75150238796E-02  0.17130000040E+03  0.17130000000E+03 0. -1.
      622    1    1    2    0    0 -0.87527114559E-02  0.15764368703E-02  0.39943917668E+01  0.39972171172E+01  0.15000000000E+00 0.  1.
</event>
<event>
 5   0  0.6780500E+06  0.9118800E+02  0.7818608E-02  0.1180000E+00
       11   -1    0    0    0    0  0.00000000000E+00  0.00000000000E+00  0.39999999673E+01  0.40000000000E+01  0.51109989000E-03 0.  1.
     -623   -1    0    0    0    0  0.00000000000E+00  0.00000000000E+00  0.12525980253E-10  0.17130000000E+03  0.17130000000E+03 0.  1.
       11    1    1    2    0    0  0.13315654241E-02 -0.62044003176E-02  0.20532792541E-02  0.66891575383E-02  0.51109989000E-03 0.  1.
     -623    1    1    2    0    0  0.96718119459E-02  0.18936991420E-02  0.74719967597E-02  0.17130000045E+03  0.17130000000E+03 0.  1.
      622    1    1    2    0    0 -0.11003377370E-01  0.43107011756E-02  0.39904746914E+01  0.39933103960E+01  0.15000000000E+00 0.  1.
</event>
<event>
 5   0  0.6780500E+06  0.9118800E+02  0.7818608E-02  0.1180000E+00
       11   -1    0    0    0    0  0.00000000000E+00  0.00000000000E+00  0.39999999673E+01  0.40000000000E+01  0.51109989000E-03 0. -1.
     -623   -1    0    0    0    0  0.00000000000E+00  0.00000000000E+00  0.12525980253E-10  0.17130000000E+03  0.17130000000E+03 0.  1.
       11    1    1    2    0    0 -0.45128635374E-01  0.24713308009E-01  0.12709971590E+00  0.13712016747E+00  0.51109989000E-03 0. -1.
     -623    1    1    2    0    0 -0.27697983179E-02  0.24047588295E-01  0.13541319333E-01  0.17130000225E+03  0.17130000000E+03 0.  1.
      622    1    1    2    0    0  0.47898433692E-01 -0.48760896304E-01  0.38593589321E+01  0.38628775870E+01  0.15000000000E+00 0. -1.
</event>
<event>
 5   0  0.6780500E+06  0.9118800E+02  0.7818608E-02  0.1180000E+00
       11   -1    0    0    0    0  0.00000000000E+00  0.00000000000E+00  0.39999999673E+01  0.40000000000E+01  0.51109989000E-03 0. -1.
     -623   -1    0    0    0    0  0.00000000000E+00  0.00000000000E+00  0.12525980253E-10  0.17130000000E+03  0.17130000000E+03 0. -1.
       11    1    1    2    0    0 -0.11527527689E-02  0.43117158972E-02  0.40670650118E-01  0.40918000159E-01  0.51109989000E-03 0. -1.
     -623    1    1    2    0    0  0.12984835341E-01  0.22816468414E-02  0.31136292829E-02  0.17130000054E+03  0.17130000000E+03 0. -1.
      622    1    1    2    0    0 -0.11832082572E-01 -0.65933627387E-02  0.39562156880E+01  0.39590814642E+01  0.15000000000E+00 0. -1.
</event>
<event>
 5   0  0.6780500E+06  0.9118800E+02  0.7818608E-02  0.1180000E+00
       11   -1    0    0    0    0  0.00000000000E+00  0.00000000000E+00  0.39999999673E+01  0.40000000000E+01  0.51109989000E-03 0. -1.
     -623   -1    0    0    0    0  0.00000000000E+00  0.00000000000E+00  0.12525980253E-10  0.17130000000E+03  0.17130000000E+03 0. -1.
       11    1    1    2    0    0 -0.27142134752E-02  0.24068226160E-01  0.11332654733E+00  0.11588707441E+00  0.51109989000E-03 0. -1.
     -623    1    1    2    0    0 -0.10499825164E-01 -0.11935876987E-01  0.55002729009E-02  0.17130000083E+03  0.17130000000E+03 0. -1.
      622    1    1    2    0    0  0.13214038639E-01 -0.12132349173E-01  0.38811731471E+01  0.38841120997E+01  0.15000000000E+00 0. -1.
</event>
<event>
 5   0  0.6780500E+06  0.9118800E+02  0.7818608E-02  0.1180000E+00
       11   -1    0    0    0    0  0.00000000000E+00  0.00000000000E+00  0.39999999673E+01  0.40000000000E+01  0.51109989000E-03 0. -1.
     -623   -1    0    0    0    0  0.00000000000E+00  0.00000000000E+00  0.12525980253E-10  0.17130000000E+03  0.17130000000E+03 0. -1.
       11    1    1    2    0    0  0.33907952313E-02  0.12110381816E-01  0.44680289417E-01  0.46419266749E-01  0.51109989000E-03 0. -1.
     -623    1    1    2    0    0  0.26195656572E-01 -0.10006579371E-01  0.46991985939E-02  0.17130000236E+03  0.17130000000E+03 0. -1.
      622    1    1    2    0    0 -0.29586451803E-01 -0.21038024448E-02  0.39506204794E+01  0.39535783736E+01  0.15000000000E+00 0. -1.
</event>
<event>
 5   0  0.6780500E+06  0.9118800E+02  0.7818608E-02  0.1180000E+00
       11   -1    0    0    0    0  0.00000000000E+00  0.00000000000E+00  0.39999999673E+01  0.40000000000E+01  0.51109989000E-03 0. -1.
     -623   -1    0    0    0    0  0.00000000000E+00  0.00000000000E+00  0.12525980253E-10  0.17130000000E+03  0.17130000000E+03 0. -1.
       11    1    1    2    0    0 -0.44206550199E-02  0.53683328709E-03  0.84677151636E-02  0.95809082345E-02  0.51109989000E-03 0. -1.
     -623    1    1    2    0    0  0.40902116073E-02  0.54448911657E-02  0.39380907883E-02  0.17130000018E+03  0.17130000000E+03 0. -1.
      622    1    1    2    0    0  0.33044341261E-03 -0.59817244528E-02  0.39875941614E+01  0.39904189111E+01  0.15000000000E+00 0. -1.
</event>
<event>
 5   0  0.6780500E+06  0.9118800E+02  0.7818608E-02  0.1180000E+00
       11   -1    0    0    0    0  0.00000000000E+00  0.00000000000E+00  0.39999999673E+01  0.40000000000E+01  0.51109989000E-03 0. -1.
     -623   -1    0    0    0    0  0.00000000000E+00  0.00000000000E+00  0.12525980253E-10  0.17130000000E+03  0.17130000000E+03 0.  1.
       11    1    1    2    0    0 -0.13071461546E-01  0.80035382312E-02  0.60020303267E-01  0.61948508929E-01  0.51109989000E-03 0. -1.
     -623    1    1    2    0    0  0.36616841946E-02 -0.14797977888E-01  0.48038147723E-02  0.17130000075E+03  0.17130000000E+03 0.  1.
      622    1    1    2    0    0  0.94097773516E-02  0.67944396567E-02  0.39351758494E+01  0.39380507455E+01  0.15000000000E+00 0. -1.
</event>
<event>
 5   0  0.6780500E+06  0.9118800E+02  0.7818608E-02  0.1180000E+00
       11   -1    0    0    0    0  0.00000000000E+00  0.00000000000E+00  0.39999999673E+01  0.40000000000E+01  0.51109989000E-03 0.  1.
     -623   -1    0    0    0    0  0.00000000000E+00  0.00000000000E+00  0.12525980253E-10  0.17130000000E+03  0.17130000000E+03 0.  1.
       11    1    1    2    0    0  0.18495248243E-02 -0.41789652560E-04  0.79308979486E-01  0.79332199880E-01  0.51109989000E-03 0.  1.
     -623    1    1    2    0    0  0.14223756761E-01 -0.80338527689E-02  0.29357469886E-02  0.17130000080E+03  0.17130000000E+03 0.  1.
      622    1    1    2    0    0 -0.16073281586E-01  0.80756424215E-02  0.39177552409E+01  0.39206669960E+01  0.15000000000E+00 0.  1.
</event>
<event>
 5   0  0.6780500E+06  0.9118800E+02  0.7818608E-02  0.1180000E+00
       11   -1    0    0    0    0  0.00000000000E+00  0.00000000000E+00  0.39999999673E+01  0.40000000000E+01  0.51109989000E-03 0. -1.
     -623   -1    0    0    0    0  0.00000000000E+00  0.00000000000E+00  0.12525980253E-10  0.17130000000E+03  0.17130000000E+03 0. -1.
       11    1    1    2    0    0  0.11433076008E+00 -0.26887151639E-01  0.98101161681E+00  0.98801745691E+00  0.51109989000E-03 0. -1.
     -623    1    1    2    0    0 -0.19080664747E-01 -0.23078027572E-01  0.12669812637E-01  0.17130000309E+03  0.17130000000E+03 0. -1.
      622    1    1    2    0    0 -0.95250095337E-01  0.49965179211E-01  0.30063185379E+01  0.30119794573E+01  0.15000000000E+00 0. -1.
</event>
<event>
 5   0  0.6780500E+06  0.9118800E+02  0.7818608E-02  0.1180000E+00
       11   -1    0    0    0    0  0.00000000000E+00  0.00000000000E+00  0.39999999673E+01  0.40000000000E+01  0.51109989000E-03 0. -1.
     -623   -1    0    0    0    0  0.00000000000E+00  0.00000000000E+00  0.12525980253E-10  0.17130000000E+03  0.17130000000E+03 0. -1.
       11    1    1    2    0    0  0.46479472165E-02 -0.66022961394E-02  0.45935681569E-01  0.46642703523E-01  0.51109989000E-03 0. -1.
     -623    1    1    2    0    0 -0.12256230756E-02  0.13427684869E-01  0.35616434908E-02  0.17130000057E+03  0.17130000000E+03 0. -1.
      622    1    1    2    0    0 -0.34223241409E-02 -0.68253887293E-02  0.39505026423E+01  0.39533567288E+01  0.15000000000E+00 0. -1.
</event>
<event>
 5   0  0.6780500E+06  0.9118800E+02  0.7818608E-02  0.1180000E+00
       11   -1    0    0    0    0  0.00000000000E+00  0.00000000000E+00  0.39999999673E+01  0.40000000000E+01  0.51109989000E-03 0.  1.
     -623   -1    0    0    0    0  0.00000000000E+00  0.00000000000E+00  0.12525980253E-10  0.17130000000E+03  0.17130000000E+03 0. -1.
       11    1    1    2    0    0 -0.11779958456E-01  0.90435310050E-04  0.89108662547E-02  0.14779728017E-01  0.51109989000E-03 0.  1.
     -623    1    1    2    0    0  0.22727657805E-01  0.23109776792E-02  0.87102779915E-02  0.17130000174E+03  0.17130000000E+03 0. -1.
      622    1    1    2    0    0 -0.10947699350E-01 -0.24014129893E-02  0.39823788231E+01  0.39852185272E+01  0.15000000000E+00 0.  1.
</event>
<event>
 5   0  0.6780500E+06  0.9118800E+02  0.7818608E-02  0.1180000E+00
       11   -1    0    0    0    0  0.00000000000E+00  0.00000000000E+00  0.39999999673E+01  0.40000000000E+01  0.51109989000E-03 0. -1.
     -623   -1    0    0    0    0  0.00000000000E+00  0.00000000000E+00  0.12525980253E-10  0.17130000000E+03  0.17130000000E+03 0.  1.
       11    1    1    2    0    0 -0.18604667836E-02  0.27838317400E-02  0.52442533095E-01  0.52551798793E-01  0.51109989000E-03 0. -1.
     -623    1    1    2    0    0  0.17839628594E-02 -0.40921033055E-02  0.29605064915E-02  0.17130000008E+03  0.17130000000E+03 0.  1.
      622    1    1    2    0    0  0.76503924177E-04  0.13082715655E-02  0.39445969278E+01  0.39474481175E+01  0.15000000000E+00 0. -1.
</event>
<event>
 5   0  0.6780500E+06  0.9118800E+02  0.7818608E-02  0.1180000E+00
       11   -1    0    0    0    0  0.00000000000E+00  0.00000000000E+00  0.39999999673E+01  0.40000000000E+01  0.51109989000E-03 0. -1.
     -623   -1    0    0    0    0  0.00000000000E+00  0.00000000000E+00  0.12525980253E-10  0.17130000000E+03  0.17130000000E+03 0.  1.
       11    1    1    2    0    0 -0.35825161968E-01 -0.12413813441E-01  0.39341996899E+00  0.39524306220E+00  0.51109989000E-03 0. -1.
     -623    1    1    2    0    0  0.42492359270E-01  0.39300400699E-02  0.49668439146E-02  0.17130000539E+03  0.17130000000E+03 0.  1.
      622    1    1    2    0    0 -0.66671973012E-02  0.84837733714E-02  0.36016131545E+01  0.36047515504E+01  0.15000000000E+00 0. -1.
</event>
<event>
 5   0  0.6780500E+06  0.9118800E+02  0.7818608E-02  0.1180000E+00
       11   -1    0    0    0    0  0.00000000000E+00  0.00000000000E+00  0.39999999673E+01  0.40000000000E+01  0.51109989000E-03 0. -1.
     -623   -1    0    0    0    0  0.00000000000E+00  0.00000000000E+00  0.12525980253E-10  0.17130000000E+03  0.17130000000E+03 0.  1.
       11    1    1    2    0    0 -0.42404846311E-01 -0.15485908890E-01  0.94385062957E+00  0.94492976275E+00  0.51109989000E-03 0. -1.
     -623    1    1    2    0    0  0.60839707108E-03  0.69309623495E-02  0.50622030310E-02  0.17130000022E+03  0.17130000000E+03 0.  1.
      622    1    1    2    0    0  0.41796449240E-01  0.85549465407E-02  0.30510871348E+01  0.30550700212E+01  0.15000000000E+00 0. -1.
</event>
<event>
 5   0  0.6780500E+06  0.9118800E+02  0.7818608E-02  0.1180000E+00
       11   -1    0    0    0    0  0.00000000000E+00  0.00000000000E+00  0.39999999673E+01  0.40000000000E+01  0.51109989000E-03 0. -1.
     -623   -1    0    0    0    0  0.00000000000E+00  0.00000000000E+00  0.12525980253E-10  0.17130000000E+03  0.17130000000E+03 0. -1.
       11    1    1    2    0    0 -0.11984962365E-02  0.15480570780E-01  0.48110683293E+00  0.48135759096E+00  0.51109989000E-03 0. -1.
     -623    1    1    2    0    0  0.50220192791E-02  0.39621983751E-02  0.35054361630E-02  0.17130000016E+03  0.17130000000E+03 0. -1.
      622    1    1    2    0    0 -0.38235230428E-02 -0.19442769156E-01  0.35153876984E+01  0.35186422538E+01  0.15000000000E+00 0. -1.
</event>
<event>
 5   0  0.6780500E+06  0.9118800E+02  0.7818608E-02  0.1180000E+00
       11   -1    0    0    0    0  0.00000000000E+00  0.00000000000E+00  0.39999999673E+01  0.40000000000E+01  0.51109989000E-03 0. -1.
     -623   -1    0    0    0    0  0.00000000000E+00  0.00000000000E+00  0.12525980253E-10  0.17130000000E+03  0.17130000000E+03 0.  1.
       11    1    1    2    0    0  0.16368909753E-02 -0.11550868482E-02  0.74885044379E-02  0.77686909776E-02  0.51109989000E-03 0. -1.
     -623    1    1    2    0    0 -0.25432262284E-02  0.10316125549E-02  0.30992770674E-02  0.17130000005E+03  0.17130000000E+03 0.  1.
      622    1    1    2    0    0  0.90633525307E-03  0.12347429334E-03  0.39894121859E+01  0.39922312590E+01  0.15000000000E+00 0. -1.
</event>
<event>
 5   0  0.6780500E+06  0.9118800E+02  0.7818608E-02  0.1180000E+00
       11   -1    0    0    0    0  0.00000000000E+00  0.00000000000E+00  0.39999999673E+01  0.40000000000E+01  0.51109989000E-03 0.  1.
     -623   -1    0    0    0    0  0.00000000000E+00  0.00000000000E+00  0.12525980253E-10  0.17130000000E+03  0.17130000000E+03 0.  1.
       11    1    1    2    0    0 -0.55337507823E-02  0.21585466816E-01  0.50910955828E-01  0.55576446641E-01  0.51109989000E-03 0.  1.
     -623    1    1    2    0    0 -0.20746705479E-01 -0.27189056560E-02  0.76528356141E-02  0.17130000145E+03  0.17130000000E+03 0.  1.
      622    1    1    2    0    0  0.26280456261E-01 -0.18866561160E-01  0.39414361759E+01  0.39444221045E+01  0.15000000000E+00 0.  1.
</event>
<event>
 5   0  0.6780500E+06  0.9118800E+02  0.7818608E-02  0.1180000E+00
       11   -1    0    0    0    0  0.00000000000E+00  0.00000000000E+00  0.39999999673E+01  0.40000000000E+01  0.51109989000E-03 0.  1.
     -623   -1    0    0    0    0  0.00000000000E+00  0.00000000000E+00  0.12525980253E-10  0.17130000000E+03  0.17130000000E+03 0.  1.
       11    1    1    2    0    0  0.10231233478E+00 -0.16368129646E+00  0.65380526599E+00  0.68170445775E+00  0.51109989000E-03 0.  1.
     -623    1    1    2    0    0 -0.24668826797E-02 -0.71823719543E-01  0.41195358285E-01  0.17130002003E+03  0.17130000000E+03 0.  1.
      622    1    1    2    0    0 -0.99845452102E-01  0.23550501600E+00  0.33049993431E+01  0.33182755137E+01  0.15000000000E+00 0.  1.
</event>
<event>
 5   0  0.6780500E+06  0.9118800E+02  0.7818608E-02  0.1180000E+00
       11   -1    0    0    0    0  0.00000000000E+00  0.00000000000E+00  0.39999999673E+01  0.40000000000E+01  0.51109989000E-03 0. -1.
     -623   -1    0    0    0    0  0.00000000000E+00  0.00000000000E+00  0.12525980253E-10  0.17130000000E+03  0.17130000000E+03 0. -1.
       11    1    1    2    0    0 -0.40124481142E-02 -0.24130702045E-02  0.24177554863E-02  0.52942811004E-02  0.51109989000E-03 0. -1.
     -623    1    1    2    0    0 -0.11892181161E-01  0.85324853943E-02  0.57308100185E-02  0.17130000072E+03  0.17130000000E+03 0. -1.
      622    1    1    2    0    0  0.15904629275E-01 -0.61194151901E-02  0.39918514020E+01  0.39947049979E+01  0.15000000000E+00 0. -1.
</event>
<event>
 5   0  0.6780500E+06  0.9118800E+02  0.7818608E-02  0.1180000E+00
       11   -1    0    0    0    0  0.00000000000E+00  0.00000000000E+00  0.39999999673E+01  0.40000000000E+01  0.51109989000E-03 0.  1.
     -623   -1    0    0    0    0  0.00000000000E+00  0.00000000000E+00  0.12525980253E-10  0.17130000000E+03  0.17130000000E+03 0.  1.
       11    1    1    2    0    0 -0.83646587953E-03 -0.30104523144E-02  0.30920641015E-02  0.44254468819E-02  0.51109989000E-03 0.  1.
     -623    1    1    2    0    0  0.12456431943E-02  0.75626488169E-02  0.41527959276E-02  0.17130000022E+03  0.17130000000E+03 0.  1.
      622    1    1    2    0    0 -0.40917731480E-03 -0.45521965026E-02  0.39927551073E+01  0.39955743313E+01  0.15000000000E+00 0.  1.
</event>
<event>
 5   0  0.6780500E+06  0.9118800E+02  0.7818608E-02  0.1180000E+00
       11   -1    0    0    0    0  0.00000000000E+00  0.00000000000E+00  0.39999999673E+01  0.40000000000E+01  0.51109989000E-03 0. -1.
     -623   -1    0    0    0    0  0.00000000000E+00  0.00000000000E+00  0.12525980253E-10  0.17130000000E+03  0.17130000000E+03 0.  1.
       11    1    1    2    0    0 -0.37489334939E-01  0.31373536234E-02  0.80396323146E-01  0.88764425412E-01  0.51109989000E-03 0. -1.
     -623    1    1    2    0    0  0.53451198950E-02  0.11905144216E-01  0.11407470410E-01  0.17130000088E+03  0.17130000000E+03 0.  1.
      622    1    1    2    0    0  0.32144215044E-01 -0.15042497840E-01  0.39081961738E+01  0.39112346977E+01  0.15000000000E+00 0. -1.
</event>
<event>
 5   0  0.6780500E+06  0.9118800E+02  0.7818608E-02  0.1180000E+00
       11   -1    0    0    0    0  0.00000000000E+00  0.00000000000E+00  0.39999999673E+01  0.40000000000E+01  0.51109989000E-03 0.  1.
     -623   -1    0    0    0    0  0.00000000000E+00  0.00000000000E+00  0.12525980253E-10  0.17130000000E+03  0.17130000000E+03 0.  1.
       11    1    1    2    0    0 -0.11931288667E-01 -0.76952002980E-02  0.68312469711E+00  0.68327240891E+00  0.51109989000E-03 0.  1.
     -623    1    1    2    0    0 -0.19147879494E-01  0.23936616410E-01  0.37296723038E-02  0.17130000278E+03  0.17130000000E+03 0.  1.
      622    1    1    2    0    0  0.31079168162E-01 -0.16241416112E-01  0.33131455979E+01  0.33167248079E+01  0.15000000000E+00 0.  1.
</event>
<event>
 5   0  0.6780500E+06  0.9118800E+02  0.7818608E-02  0.1180000E+00
       11   -1    0    0    0    0  0.00000000000E+00  0.00000000000E+00  0.39999999673E+01  0.40000000000E+01  0.51109989000E-03 0. -1.
     -623   -1    0    0    0    0  0.00000000000E+00  0.00000000000E+00  0.12525980253E-10  0.17130000000E+03  0.17130000000E+03 0. -1.
       11    1    1    2    0    0  0.35666879521E-02  0.42545748734E-03  0.25321527275E-01  0.25580133769E-01  0.51109989000E-03 0. -1.
     -623    1    1    2    0    0 -0.20079732113E-03  0.41934893433E-02  0.30943759991E-02  0.17130000008E+03  0.17130000000E+03 0. -1.
      622    1    1    2    0    0 -0.33658906310E-02 -0.46189468308E-02  0.39715840642E+01  0.39744197870E+01  0.15000000000E+00 0. -1.
</event>
<event>
 5   0  0.6780500E+06  0.9118800E+02  0.7818608E-02  0.1180000E+00
       11   -1    0    0    0    0  0.00000000000E+00  0.00000000000E+00  0.39999999673E+01  0.40000000000E+01  0.51109989000E-03 0. -1.
     -623   -1    0    0    0    0  0.00000000000E+00  0.00000000000E+00  0.12525980253E-10  0.17130000000E+03  0.17130000000E+03 0. -1.
       11    1    1    2    0    0 -0.67822023606E-03 -0.21119371938E-02  0.55815848649E-02  0.60278996425E-02  0.51109989000E-03 0. -1.
     -623    1    1    2    0    0  0.15537546237E-02  0.16660019580E-02  0.32641880812E-02  0.17130000005E+03  0.17130000000E+03 0. -1.
      622    1    1    2    0    0 -0.87553438764E-03  0.44593523584E-03  0.39911541944E+01  0.39939720541E+01  0.15000000000E+00 0. -1.
</event>
<event>
 5   0  0.6780500E+06  0.9118800E+02  0.7818608E-02  0.1180000E+00
       11   -1    0    0    0    0  0.00000000000E+00  0.00000000000E+00  0.39999999673E+01  0.40000000000E+01  0.51109989000E-03 0.  1.
     -623   -1    0    0    0    0  0.00000000000E+00  0.00000000000E+00  0.12525980253E-10  0.17130000000E+03  0.17130000000E+03 0. -1.
       11    1    1    2    0    0  0.48462122235E-02 -0.38903373521E-02  0.34315770372E-01  0.34877697985E-01  0.51109989000E-03 0.  1.
     -623    1    1    2    0    0  0.11707650054E-02  0.10109050924E-01  0.34099350059E-02  0.17130000034E+03  0.17130000000E+03 0. -1.
      622    1    1    2    0    0 -0.60169772289E-02 -0.62187135724E-02  0.39622742620E+01  0.39651219658E+01  0.15000000000E+00 0.  1.
</event>
<event>
 5   0  0.6780500E+06  0.9118800E+02  0.7818608E-02  0.1180000E+00
       11   -1    0    0    0    0  0.00000000000E+00  0.00000000000E+00  0.39999999673E+01  0.40000000000E+01  0.51109989000E-03 0.  1.
     -623   -1    0    0    0    0  0.00000000000E+00  0.00000000000E+00  0.12525980253E-10  0.17130000000E+03  0.17130000000E+03 0. -1.
       11    1    1    2    0    0  0.28525464837E-01 -0.27222700933E-02  0.82760454052E+00  0.82810062771E+00  0.51109989000E-03 0.  1.
     -623    1    1    2    0    0 -0.44993802141E-03 -0.45026200426E-02  0.41775537438E-02  0.17130000011E+03  0.17130000000E+03 0. -1.
      622    1    1    2    0    0 -0.28075526816E-01  0.72248901359E-02  0.31682178731E+01  0.31718992616E+01  0.15000000000E+00 0.  1.
</event>
<event>
 5   0  0.6780500E+06  0.9118800E+02  0.7818608E-02  0.1180000E+00
       11   -1    0    0    0    0  0.00000000000E+00  0.00000000000E+00  0.39999999673E+01  0.40000000000E+01  0.51109989000E-03 0.  1.
     -623   -1    0    0    0    0  0.00000000000E+00  0.00000000000E+00  0.12525980253E-10  0.17130000000E+03  0.17130000000E+03 0. -1.
       11    1    1    2    0    0 -0.15939364142E-02 -0.11573021413E-01  0.29538214973E-01  0.31768582343E-01  0.51109989000E-03 0.  1.
     -623    1    1    2    0    0  0.56638179555E-02  0.18631635815E-02  0.50805201051E-02  0.17130000018E+03  0.17130000000E+03 0. -1.
      622    1    1    2    0    0 -0.40698815413E-02  0.97098578320E-02  0.39653812323E+01  0.39682312386E+01  0.15000000000E+00 0.  1.
</event>
<event>
 5   0  0.6780500E+06  0.9118800E+02  0.7818608E-02  0.1180000E+00
       11   -1    0    0    0    0  0.00000000000E+00  0.00000000000E+00  0.39999999673E+01  0.40000000000E+01  0.51109989000E-03 0.  1.
     -623   -1    0    0    0    0  0.00000000000E+00  0.00000000000E+00  0.12525980253E-10  0.17130000000E+03  0.17130000000E+03 0. -1.
       11    1    1    2    0    0 -0.10083358854E-01  0.38333197119E-01  0.13298244150E+00  0.13876490585E+00  0.51109989000E-03 0.  1.
     -623    1    1    2    0    0 -0.35827381961E-01 -0.60130781832E-01  0.90463954963E-02  0.17130001454E+03  0.17130000000E+03 0. -1.
      622    1    1    2    0    0  0.45910740815E-01  0.21797584713E-01  0.38579711304E+01  0.38612205549E+01  0.15000000000E+00 0.  1.
</event>
<event>
 5   0  0.6780500E+06  0.9118800E+02  0.7818608E-02  0.1180000E+00
       11   -1    0    0    0    0  0.00000000000E+00  0.00000000000E+00  0.39999999673E+01  0.40000000000E+01  0.51109989000E-03 0.  1.
     -623   -1    0    0    0    0  0.00000000000E+00  0.00000000000E+00  0.12525980253E-10  0.17130000000E+03  0.17130000000E+03 0. -1.
       11    1    1    2    0    0  0.11793593123E-01 -0.25463742841E-01  0.27958264372E-01  0.39615865610E-01  0.51109989000E-03 0.  1.
     -623    1    1    2    0    0  0.29481586256E-01  0.13890169396E-01  0.14735127959E-01  0.17130000373E+03  0.17130000000E+03 0. -1.
      622    1    1    2    0    0 -0.41275179380E-01  0.11573573445E-01  0.39573065750E+01  0.39603804005E+01  0.15000000000E+00 0.  1.
</event>
<event>
 5   0  0.6780500E+06  0.9118800E+02  0.7818608E-02  0.1180000E+00
       11   -1    0    0    0    0  0.00000000000E+00  0.00000000000E+00  0.39999999673E+01  0.40000000000E+01  0.51109989000E-03 0.  1.
     -623   -1    0    0    0    0  0.00000000000E+00  0.00000000000E+00  0.12525980253E-10  0.17130000000E+03  0.17130000000E+03 0. -1.
       11    1    1    2    0    0  0.61198442631E-02  0.18285553442E-01  0.14943769461E+00  0.15067746929E+00  0.51109989000E-03 0.  1.
     -623    1    1    2    0    0 -0.35868376360E-02 -0.42787194072E-03  0.42058225744E-02  0.17130000009E+03  0.17130000000E+03 0. -1.
      622    1    1    2    0    0 -0.25330066270E-02 -0.17857681501E-01  0.38463564503E+01  0.38493224411E+01  0.15000000000E+00 0.  1.
</event>
<event>
 5   0  0.6780500E+06  0.9118800E+02  0.7818608E-02  0.1180000E+00
       11   -1    0    0    0    0  0.00000000000E+00  0.00000000000E+00  0.39999999673E+01  0.40000000000E+01  0.51109989000E-03 0.  1.
     -623   -1    0    0    0    0  0.00000000000E+00  0.00000000000E+00  0.12525980253E-10  0.17130000000E+03  0.17130000000E+03 0. -1.
       11    1    1    2    0    0 -0.50674755298E-02  0.38356121343E-02  0.13921872357E+00  0.13936464919E+00  0.51109989000E-03 0.  1.
     -623    1    1    2    0    0 -0.79149059245E-02  0.43488898128E-02  0.30918148618E-02  0.17130000027E+03  0.17130000000E+03 0. -1.
      622    1    1    2    0    0  0.12982381454E-01 -0.81845019472E-02  0.38576894290E+01  0.38606350849E+01  0.15000000000E+00 0.  1.
</event>
<event>
 5   0  0.6780500E+06  0.9118800E+02  0.7818608E-02  0.1180000E+00
       11   -1    0    0    0    0  0.00000000000E+00  0.00000000000E+00  0.39999999673E+01  0.40000000000E+01  0.51109989000E-03 0.  1.
     -623   -1    0    0    0    0  0.00000000000E+00  0.00000000000E+00  0.12525980253E-10  0.17130000000E+03  0.17130000000E+03 0. -1.
       11    1    1    2    0    0 -0.48794208330E-03 -0.58144894068E-02  0.51063988712E-01  0.51398818460E-01  0.51109989000E-03 0.  1.
     -623    1    1    2    0    0 -0.79027152037E-02 -0.67362544481E-02  0.32141634592E-02  0.17130000034E+03  0.17130000000E+03 0. -1.
      622    1    1    2    0    0  0.83906572870E-02  0.12550743855E-01  0.39457218152E+01  0.39486008366E+01  0.15000000000E+00 0.  1.
</event>
<event>
 5   0  0.6780500E+06  0.9118800E+02  0.7818608E-02  0.1180000E+00
       11   -1    0    0    0    0  0.00000000000E+00  0.00000000000E+00  0.39999999673E+01  0.40000000000E+01  0.51109989000E-03 0.  1.
     -623   -1    0    0    0    0  0.00000000000E+00  0.00000000000E+00  0.12525980253E-10  0.17130000000E+03  0.17130000000E+03 0.  1.
       11    1    1    2    0    0 -0.19056927596E-01 -0.60043737568E-02  0.34291457312E+00  0.34349655701E+00  0.51109989000E-03 0.  1.
     -623    1    1    2    0    0  0.16810908057E-01  0.89615474506E-02  0.36629431551E-02  0.17130000110E+03  0.17130000000E+03 0.  1.
      622    1    1    2    0    0  0.22460195386E-02 -0.29571736940E-02  0.36534224512E+01  0.36565023446E+01  0.15000000000E+00 0.  1.
</event>
<event>
 5   0  0.6780500E+06  0.9118800E+02  0.7818608E-02  0.1180000E+00
       11   -1    0    0    0    0  0.00000000000E+00  0.00000000000E+00  0.39999999673E+01  0.40000000000E+01  0.51109989000E-03 0.  1.
     -623   -1    0    0    0    0  0.00000000000E+00  0.00000000000E+00  0.12525980253E-10  0.17130000000E+03  0.17130000000E+03 0.  1.
       11    1    1    2    0    0 -0.47883390723E-02 -0.92836707930E-02  0.22628785388E-01  0.24928655914E-01  0.51109989000E-03 0.  1.
     -623    1    1    2    0    0 -0.10837502406E-01  0.91552902347E-02  0.51623860767E-02  0.17130000067E+03  0.17130000000E+03 0.  1.
      622    1    1    2    0    0  0.15625841478E-01  0.12838055839E-03  0.39722087959E+01  0.39750706788E+01  0.15000000000E+00 0.  1.
</event>
<event>
 5   0  0.6780500E+06  0.9118800E+02  0.7818608E-02  0.1180000E+00
       11   -1    0    0    0    0  0.00000000000E+00  0.00000000000E+00  0.39999999673E+01  0.40000000000E+01  0.51109989000E-03 0. -1.
     -623   -1    0    0    0    0  0.00000000000E+00  0.00000000000E+00  0.12525980253E-10  0.17130000000E+03  0.17130000000E+03 0. -1.
       11    1    1    2    0    0  0.35892601665E-01 -0.12468342838E-01  0.49710748737E+00  0.49855777363E+00  0.51109989000E-03 0. -1.
     -623    1    1    2    0    0 -0.19033877199E-01  0.13572826266E-02  0.47240887902E-02  0.17130000113E+03  0.17130000000E+03 0. -1.
      622    1    1    2    0    0 -0.16858724466E-01  0.11111060211E-01  0.34981683912E+01  0.35014410984E+01  0.15000000000E+00 0. -1.
</event>
<event>
 5   0  0.6780500E+06  0.9118800E+02  0.7818608E-02  0.1180000E+00
       11   -1    0    0    0    0  0.00000000000E+00  0.00000000000E+00  0.39999999673E+01  0.40000000000E+01  0.51109989000E-03 0. -1.
     -623   -1    0    0    0    0  0.00000000000E+00  0.00000000000E+00  0.12525980253E-10  0.17130000000E+03  0.17130000000E+03 0. -1.
       11    1    1    2    0    0 -0.95315736974E-04  0.22735315180E-01  0.93001410747E-01  0.95741460526E-01  0.51109989000E-03 0. -1.
     -623    1    1    2    0    0 -0.21852275626E-02 -0.26667194780E-01  0.56273817989E-02  0.17130000218E+03  0.17130000000E+03 0. -1.
      622    1    1    2    0    0  0.22805432996E-02  0.39318795996E-02  0.39013711748E+01  0.39042563574E+01  0.15000000000E+00 0. -1.
</event>
<event>
 5   0  0.6780500E+06  0.9118800E+02  0.7818608E-02  0.1180000E+00
       11   -1    0    0    0    0  0.00000000000E+00  0.00000000000E+00  0.39999999673E+01  0.40000000000E+01  0.51109989000E-03 0.  1.
     -623   -1    0    0    0    0  0.00000000000E+00  0.00000000000E+00  0.12525980253E-10  0.17130000000E+03  0.17130000000E+03 0. -1.
       11    1    1    2    0    0 -0.18966893291E-01  0.23871230567E-01  0.44192254240E+00  0.44297333260E+00  0.51109989000E-03 0.  1.
     -623    1    1    2    0    0  0.16869046672E-01 -0.94123493096E-02  0.42460939243E-02  0.17130000114E+03  0.17130000000E+03 0. -1.
      622    1    1    2    0    0  0.20978466188E-02 -0.14458881257E-01  0.35538313312E+01  0.35570255257E+01  0.15000000000E+00 0.  1.
</event>
<event>
 5   0  0.6780500E+06  0.9118800E+02  0.7818608E-02  0.1180000E+00
       11   -1    0    0    0    0  0.00000000000E+00  0.00000000000E+00  0.39999999673E+01  0.40000000000E+01  0.51109989000E-03 0.  1.
     -623   -1    0    0    0    0  0.00000000000E+00  0.00000000000E+00  0.12525980253E-10  0.17130000000E+03  0.17130000000E+03 0.  1.
       11    1    1    2    0    0  0.23415957902E-01 -0.15118917032E-01  0.58639016660E+00  0.58705244863E+00  0.51109989000E-03 0.  1.
     -623    1    1    2    0    0 -0.16295976084E-01 -0.18984324669E-01  0.41399812556E-02  0.17130000188E+03  0.17130000000E+03 0.  1.
      622    1    1    2    0    0 -0.71199818182E-02  0.34103241702E-01  0.34094698195E+01  0.34129456742E+01  0.15000000000E+00 0.  1.
</event>
<event>
 5   0  0.6780500E+06  0.9118800E+02  0.7818608E-02  0.1180000E+00
       11   -1    0    0    0    0  0.00000000000E+00  0.00000000000E+00  0.39999999673E+01  0.40000000000E+01  0.51109989000E-03 0.  1.
     -623   -1    0    0    0    0  0.00000000000E+00  0.00000000000E+00  0.12525980253E-10  0.17130000000E+03  0.17130000000E+03 0.  1.
       11    1    1    2    0    0  0.17988402251E-01  0.83179800086E-01  0.41024048494E+00  0.41897491388E+00  0.51109989000E-03 0.  1.
     -623    1    1    2    0    0  0.18019223114E-01 -0.65417144469E-02  0.12881014917E-01  0.17130000156E+03  0.17130000000E+03 0.  1.
      622    1    1    2    0    0 -0.36007625366E-01 -0.76638085639E-01  0.35768784675E+01  0.35810235292E+01  0.15000000000E+00 0.  1.
</event>
<event>
 5   0  0.6780500E+06  0.9118800E+02  0.7818608E-02  0.1180000E+00
       11   -1    0    0    0    0  0.00000000000E+00  0.00000000000E+00  0.39999999673E+01  0.40000000000E+01  0.51109989000E-03 0.  1.
     -623   -1    0    0    0    0  0.00000000000E+00  0.00000000000E+00  0.12525980253E-10  0.17130000000E+03  0.17130000000E+03 0.  1.
       11    1    1    2    0    0 -0.79128584070E-02 -0.18098590732E-01  0.35170515116E+00  0.35225977189E+00  0.51109989000E-03 0.  1.
     -623    1    1    2    0    0 -0.91009571471E-02  0.20612518801E-01  0.36820957475E-02  0.17130000152E+03  0.17130000000E+03 0.  1.
      622    1    1    2    0    0  0.17013815554E-01 -0.25139280686E-02  0.36446127205E+01  0.36477387066E+01  0.15000000000E+00 0.  1.
</event>
<event>
 5   0  0.6780500E+06  0.9118800E+02  0.7818608E-02  0.1180000E+00
       11   -1    0    0    0    0  0.00000000000E+00  0.00000000000E+00  0.39999999673E+01  0.40000000000E+01  0.51109989000E-03 0. -1.
     -623   -1    0    0    0    0  0.00000000000E+00  0.00000000000E+00  0.12525980253E-10  0.17130000000E+03  0.17130000000E+03 0. -1.
       11    1    1    2    0    0 -0.26111686926E-01 -0.27823176556E-01  0.15863674321E+00  0.16316196514E+00  0.51109989000E-03 0. -1.
     -623    1    1    2    0    0  0.93785920474E-02 -0.71012100628E-02  0.76545778708E-02  0.17130000057E+03  0.17130000000E+03 0. -1.
      622    1    1    2    0    0  0.16733094879E-01  0.34924386619E-01  0.38337086463E+01  0.38368374599E+01  0.15000000000E+00 0. -1.
</event>
<event>
 5   0  0.6780500E+06  0.9118800E+02  0.7818608E-02  0.1180000E+00
       11   -1    0    0    0    0  0.00000000000E+00  0.00000000000E+00  0.39999999673E+01  0.40000000000E+01  0.51109989000E-03 0.  1.
     -623   -1    0    0    0    0  0.00000000000E+00  0.00000000000E+00  0.12525980253E-10  0.17130000000E+03  0.17130000000E+03 0.  1.
       11    1    1    2    0    0  0.15605319714E-01  0.15836588963E-01  0.90160407314E+00  0.90187831190E+00  0.51109989000E-03 0.  1.
     -623    1    1    2    0    0 -0.64516134877E-02 -0.16848399895E-02  0.39536431682E-02  0.17130000018E+03  0.17130000000E+03 0.  1.
      622    1    1    2    0    0 -0.91537062260E-02 -0.14151748974E-01  0.30944422511E+01  0.30981215127E+01  0.15000000000E+00 0.  1.
</event>
<event>
 5   0  0.6780500E+06  0.9118800E+02  0.7818608E-02  0.1180000E+00
       11   -1    0    0    0    0  0.00000000000E+00  0.00000000000E+00  0.39999999673E+01  0.40000000000E+01  0.51109989000E-03 0.  1.
     -623   -1    0    0    0    0  0.00000000000E+00  0.00000000000E+00  0.12525980253E-10  0.17130000000E+03  0.17130000000E+03 0. -1.
       11    1    1    2    0    0 -0.21828783628E-01  0.10932387962E-01  0.16768368046E+00  0.16945232609E+00  0.51109989000E-03 0.  1.
     -623    1    1    2    0    0  0.11082748523E-01  0.10974299466E-01  0.47852092856E-02  0.17130000078E+03  0.17130000000E+03 0. -1.
      622    1    1    2    0    0  0.10746035105E-01 -0.21906687429E-01  0.38275310776E+01  0.38305468970E+01  0.15000000000E+00 0.  1.
</event>
<event>
 5   0  0.6780500E+06  0.9118800E+02  0.7818608E-02  0.1180000E+00
       11   -1    0    0    0    0  0.00000000000E+00  0.00000000000E+00  0.39999999673E+01  0.40000000000E+01  0.51109989000E-03 0. -1.
     -623   -1    0    0    0    0  0.00000000000E+00  0.00000000000E+00  0.12525980253E-10  0.17130000000E+03  0.17130000000E+03 0.  1.
       11    1    1    2    0    0 -0.36833592792E-01 -0.32901057746E-01  0.12098870647E+00  0.13068175647E+00  0.51109989000E-03 0. -1.
     -623    1    1    2    0    0  0.25713641187E-02  0.64741155533E-02  0.12844352495E-01  0.17130000062E+03  0.17130000000E+03 0.  1.
      622    1    1    2    0    0  0.34262228673E-01  0.26426942193E-01  0.38661669084E+01  0.38693176203E+01  0.15000000000E+00 0. -1.
</event>
<event>
 5   0  0.6780500E+06  0.9118800E+02  0.7818608E-02  0.1180000E+00
       11   -1    0    0    0    0  0.00000000000E+00  0.00000000000E+00  0.39999999673E+01  0.40000000000E+01  0.51109989000E-03 0. -1.
     -623   -1    0    0    0    0  0.00000000000E+00  0.00000000000E+00  0.12525980253E-10  0.17130000000E+03  0.17130000000E+03 0.  1.
       11    1    1    2    0    0  0.11101126578E-01 -0.11773167984E-01  0.86170728611E-01  0.87678379245E-01  0.51109989000E-03 0. -1.
     -623    1    1    2    0    0  0.70189675039E-02  0.10493321499E-01  0.44269313832E-02  0.17130000052E+03  0.17130000000E+03 0.  1.
      622    1    1    2    0    0 -0.18120094082E-01  0.12798464845E-02  0.39094023074E+01  0.39123210984E+01  0.15000000000E+00 0. -1.
</event>
<event>
 5   0  0.6780500E+06  0.9118800E+02  0.7818608E-02  0.1180000E+00
       11   -1    0    0    0    0  0.00000000000E+00  0.00000000000E+00  0.39999999673E+01  0.40000000000E+01  0.51109989000E-03 0. -1.
     -623   -1    0    0    0    0  0.00000000000E+00  0.00000000000E+00  0.12525980253E-10  0.17130000000E+03  0.17130000000E+03 0.  1.
       11    1    1    2    0    0  0.62540428415E-01  0.72957371484E-01  0.59965191465E-01  0.11327033437E+00  0.51109989000E-03 0. -1.
     -623    1    1    2    0    0  0.82313351838E-02  0.47793856278E-01  0.58740360700E-01  0.17130001694E+03  0.17130000000E+03 0.  1.
      622    1    1    2    0    0 -0.70771763599E-01 -0.12075122776E+00  0.38812944152E+01  0.38867127292E+01  0.15000000000E+00 0. -1.
</event>
<event>
 5   0  0.6780500E+06  0.9118800E+02  0.7818608E-02  0.1180000E+00
       11   -1    0    0    0    0  0.00000000000E+00  0.00000000000E+00  0.39999999673E+01  0.40000000000E+01  0.51109989000E-03 0.  1.
     -623   -1    0    0    0    0  0.00000000000E+00  0.00000000000E+00  0.12525980253E-10  0.17130000000E+03  0.17130000000E+03 0.  1.
       11    1    1    2    0    0  0.18123473991E-01  0.35850399354E-01  0.28469266351E+00  0.28751327851E+00  0.51109989000E-03 0.  1.
     -623    1    1    2    0    0  0.72761767145E-02 -0.28248442494E-04  0.61123330599E-02  0.17130000026E+03  0.17130000000E+03 0.  1.
      622    1    1    2    0    0 -0.25399650706E-01 -0.35822150912E-01  0.37091949708E+01  0.37124864579E+01  0.15000000000E+00 0.  1.
</event>
<event>
 5   0  0.6780500E+06  0.9118800E+02  0.7818608E-02  0.1180000E+00
       11   -1    0    0    0    0  0.00000000000E+00  0.00000000000E+00  0.39999999673E+01  0.40000000000E+01  0.51109989000E-03 0. -1.
     -623   -1    0    0    0    0  0.00000000000E+00  0.00000000000E+00  0.12525980253E-10  0.17130000000E+03  0.17130000000E+03 0. -1.
       11    1    1    2    0    0  0.43239651086E-02  0.37063111857E-01  0.20587975083E+00  0.20923456684E+00  0.51109989000E-03 0. -1.
     -623    1    1    2    0    0 -0.36652600411E-02 -0.80021893255E-02  0.64355718825E-02  0.17130000035E+03  0.17130000000E+03 0. -1.
      622    1    1    2    0    0 -0.65870506741E-03 -0.29060922532E-01  0.37876846446E+01  0.37907650862E+01  0.15000000000E+00 0.  0.
</event>
<event>
 5   0  0.6780500E+06  0.9118800E+02  0.7818608E-02  0.1180000E+00
       11   -1    0    0    0    0  0.00000000000E+00  0.00000000000E+00  0.39999999673E+01  0.40000000000E+01  0.51109989000E-03 0. -1.
     -623   -1    0    0    0    0  0.00000000000E+00  0.00000000000E+00  0.12525980253E-10  0.17130000000E+03  0.17130000000E+03 0. -1.
       11    1    1    2    0    0  0.94974848687E-02  0.11377414153E-01  0.89975717000E-01  0.91189575306E-01  0.51109989000E-03 0. -1.
     -623    1    1    2    0    0 -0.18352113470E-02 -0.61099624101E-02  0.41042349679E-02  0.17130000017E+03  0.17130000000E+03 0. -1.
      622    1    1    2    0    0 -0.76622735217E-02 -0.52674517426E-02  0.39059200154E+01  0.39088102567E+01  0.15000000000E+00 0. -1.
</event>
<event>
 5   0  0.6780500E+06  0.9118800E+02  0.7818608E-02  0.1180000E+00
       11   -1    0    0    0    0  0.00000000000E+00  0.00000000000E+00  0.39999999673E+01  0.40000000000E+01  0.51109989000E-03 0. -1.
     -623   -1    0    0    0    0  0.00000000000E+00  0.00000000000E+00  0.12525980253E-10  0.17130000000E+03  0.17130000000E+03 0. -1.
       11    1    1    2    0    0 -0.21757888724E-01 -0.81643165156E-02  0.91033350492E-01  0.93954211774E-01  0.51109989000E-03 0. -1.
     -623    1    1    2    0    0  0.20914048151E-01 -0.15267900307E-01  0.58745294557E-02  0.17130000206E+03  0.17130000000E+03 0. -1.
      622    1    1    2    0    0  0.84384057310E-03  0.23432216823E-01  0.39030920874E+01  0.39060437304E+01  0.15000000000E+00 0. -1.
</event>
<event>
 5   0  0.6780500E+06  0.9118800E+02  0.7818608E-02  0.1180000E+00
       11   -1    0    0    0    0  0.00000000000E+00  0.00000000000E+00  0.39999999673E+01  0.40000000000E+01  0.51109989000E-03 0. -1.
     -623   -1    0    0    0    0  0.00000000000E+00  0.00000000000E+00  0.12525980253E-10  0.17130000000E+03  0.17130000000E+03 0.  1.
       11    1    1    2    0    0  0.19628581591E-01  0.12281743690E-01  0.44279172630E+00  0.44339699655E+00  0.51109989000E-03 0. -1.
     -623    1    1    2    0    0 -0.28745576318E-01  0.25896437140E-02  0.38150670868E-02  0.17130000247E+03  0.17130000000E+03 0.  1.
      622    1    1    2    0    0  0.91169947269E-02 -0.14871387404E-01  0.35533931740E+01  0.35566005296E+01  0.15000000000E+00 0. -1.
</event>
<event>
 5   0  0.6780500E+06  0.9118800E+02  0.7818608E-02  0.1180000E+00
       11   -1    0    0    0    0  0.00000000000E+00  0.00000000000E+00  0.39999999673E+01  0.40000000000E+01  0.51109989000E-03 0.  1.
     -623   -1    0    0    0    0  0.00000000000E+00  0.00000000000E+00  0.12525980253E-10  0.17130000000E+03  0.17130000000E+03 0. -1.
       11    1    1    2    0    0 -0.12846906868E-02 -0.58681964569E-03  0.31669265641E-02  0.35050582336E-02  0.51109989000E-03 0.  1.
     -623    1    1    2    0    0  0.78864407517E-02  0.66984566028E-02  0.31645326639E-02  0.17130000034E+03  0.17130000000E+03 0. -1.
      622    1    1    2    0    0 -0.66017500649E-02 -0.61116369571E-02  0.39936685081E+01  0.39964946000E+01  0.15000000000E+00 0.  1.
</event>
<event>
 5   0  0.6780500E+06  0.9118800E+02  0.7818608E-02  0.1180000E+00
       11   -1    0    0    0    0  0.00000000000E+00  0.00000000000E+00  0.39999999673E+01  0.40000000000E+01  0.51109989000E-03 0. -1.
     -623   -1    0    0    0    0  0.00000000000E+00  0.00000000000E+00  0.12525980253E-10  0.17130000000E+03  0.17130000000E+03 0.  1.
       11    1    1    2    0    0  0.40205818264E-04  0.19907287058E-01  0.23449405914E+00  0.23533811143E+00  0.51109989000E-03 0. -1.
     -623    1    1    2    0    0 -0.72067671259E-02 -0.18342551025E-01  0.38418526017E-02  0.17130000118E+03  0.17130000000E+03 0.  1.
      622    1    1    2    0    0  0.71665613078E-02 -0.15647360322E-02  0.37616640557E+01  0.37646607119E+01  0.15000000000E+00 0. -1.
</event>
<event>
 5   0  0.6780500E+06  0.9118800E+02  0.7818608E-02  0.1180000E+00
       11   -1    0    0    0    0  0.00000000000E+00  0.00000000000E+00  0.39999999673E+01  0.40000000000E+01  0.51109989000E-03 0. -1.
     -623   -1    0    0    0    0  0.00000000000E+00  0.00000000000E+00  0.12525980253E-10  0.17130000000E+03  0.17130000000E+03 0. -1.
       11    1    1    2    0    0 -0.17084930981E-01 -0.24258347446E-01  0.27039312113E+00  0.27201666027E+00  0.51109989000E-03 0. -1.
     -623    1    1    2    0    0 -0.18702245342E-01  0.13607879746E-01  0.48312185088E-02  0.17130000163E+03  0.17130000000E+03 0. -1.
      622    1    1    2    0    0  0.35787176323E-01  0.10650467700E-01  0.37247756277E+01  0.37279817102E+01  0.15000000000E+00 0. -1.
</event>
<event>
 5   0  0.6780500E+06  0.9118800E+02  0.7818608E-02  0.1180000E+00
       11   -1    0    0    0    0  0.00000000000E+00  0.00000000000E+00  0.39999999673E+01  0.40000000000E+01  0.51109989000E-03 0. -1.
     -623   -1    0    0    0    0  0.00000000000E+00  0.00000000000E+00  0.12525980253E-10  0.17130000000E+03  0.17130000000E+03 0.  1.
       11    1    1    2    0    0 -0.12084607868E-03 -0.26624721038E-02  0.28591518032E+00  0.28592805899E+00  0.51109989000E-03 0. -1.
     -623    1    1    2    0    0 -0.32566263126E-02  0.11246618026E-02  0.30450200250E-02  0.17130000006E+03  0.17130000000E+03 0.  1.
      622    1    1    2    0    0  0.33774723913E-02  0.15378103012E-02  0.37110397670E+01  0.37140718793E+01  0.15000000000E+00 0. -1.
</event>
<event>
 5   0  0.6780500E+06  0.9118800E+02  0.7818608E-02  0.1180000E+00
       11   -1    0    0    0    0  0.00000000000E+00  0.00000000000E+00  0.39999999673E+01  0.40000000000E+01  0.51109989000E-03 0.  1.
     -623   -1    0    0    0    0  0.00000000000E+00  0.00000000000E+00  0.12525980253E-10  0.17130000000E+03  0.17130000000E+03 0.  1.
       11    1    1    2    0    0  0.25830666748E-01 -0.54376772116E-01  0.11658320847E+01  0.11673854410E+01  0.51109989000E-03 0.  1.
     -623    1    1    2    0    0  0.25649021840E-01  0.29170920590E-01  0.61130424089E-02  0.17130000451E+03  0.17130000000E+03 0.  1.
      622    1    1    2    0    0 -0.51479688589E-01  0.25205851525E-01  0.28280548403E+01  0.28326100460E+01  0.15000000000E+00 0.  1.
</event>
<event>
 5   0  0.6780500E+06  0.9118800E+02  0.7818608E-02  0.1180000E+00
       11   -1    0    0    0    0  0.00000000000E+00  0.00000000000E+00  0.39999999673E+01  0.40000000000E+01  0.51109989000E-03 0.  1.
     -623   -1    0    0    0    0  0.00000000000E+00  0.00000000000E+00  0.12525980253E-10  0.17130000000E+03  0.17130000000E+03 0. -1.
       11    1    1    2    0    0 -0.30839675259E-01  0.10463339097E-01  0.31612655519E-01  0.45389296615E-01  0.51109989000E-03 0.  1.
     -623    1    1    2    0    0 -0.42284034180E-01 -0.13975202823E-01  0.17307243660E-01  0.17130000666E+03  0.17130000000E+03 0. -1.
      622    1    1    2    0    0  0.73123709439E-01  0.35118637265E-02  0.39510800682E+01  0.39546040403E+01  0.15000000000E+00 0.  1.
</event>
<event>
 5   0  0.6780500E+06  0.9118800E+02  0.7818608E-02  0.1180000E+00
       11   -1    0    0    0    0  0.00000000000E+00  0.00000000000E+00  0.39999999673E+01  0.40000000000E+01  0.51109989000E-03 0. -1.
     -623   -1    0    0    0    0  0.00000000000E+00  0.00000000000E+00  0.12525980253E-10  0.17130000000E+03  0.17130000000E+03 0. -1.
       11    1    1    2    0    0 -0.19333384516E-02  0.23500488625E-02  0.12807211030E-01  0.13173701194E-01  0.51109989000E-03 0. -1.
     -623    1    1    2    0    0  0.11935737419E-01  0.39170381690E-02  0.32072266953E-02  0.17130000049E+03  0.17130000000E+03 0. -1.
      622    1    1    2    0    0 -0.10002398967E-01 -0.62670870315E-02  0.39839855296E+01  0.39868258082E+01  0.15000000000E+00 0. -1.
</event>
<event>
 5   0  0.6780500E+06  0.9118800E+02  0.7818608E-02  0.1180000E+00
       11   -1    0    0    0    0  0.00000000000E+00  0.00000000000E+00  0.39999999673E+01  0.40000000000E+01  0.51109989000E-03 0.  1.
     -623   -1    0    0    0    0  0.00000000000E+00  0.00000000000E+00  0.12525980253E-10  0.17130000000E+03  0.17130000000E+03 0. -1.
       11    1    1    2    0    0 -0.13150814905E-01 -0.77962278822E-02  0.94603940719E-01  0.95832624531E-01  0.51109989000E-03 0.  1.
     -623    1    1    2    0    0  0.19673041825E-01 -0.17225245705E-01  0.41989927926E-02  0.17130000205E+03  0.17130000000E+03 0. -1.
      622    1    1    2    0    0 -0.65222269196E-02  0.25021473587E-01  0.39011970338E+01  0.39041653282E+01  0.15000000000E+00 0.  1.
</event>
<event>
 5   0  0.6780500E+06  0.9118800E+02  0.7818608E-02  0.1180000E+00
       11   -1    0    0    0    0  0.00000000000E+00  0.00000000000E+00  0.39999999673E+01  0.40000000000E+01  0.51109989000E-03 0. -1.
     -623   -1    0    0    0    0  0.00000000000E+00  0.00000000000E+00  0.12525980253E-10  0.17130000000E+03  0.17130000000E+03 0.  1.
       11    1    1    2    0    0  0.51948906864E-02 -0.14894902629E-02  0.57481144817E-02  0.79061693429E-02  0.51109989000E-03 0. -1.
     -623    1    1    2    0    0 -0.59697639899E-02 -0.33690991954E-01  0.51357868754E-02  0.17130000349E+03  0.17130000000E+03 0.  1.
      622    1    1    2    0    0  0.77487330363E-03  0.35180482218E-01  0.39891160661E+01  0.39920903366E+01  0.15000000000E+00 0. -1.
</event>
<event>
 5   0  0.6780500E+06  0.9118800E+02  0.7818608E-02  0.1180000E+00
       11   -1    0    0    0    0  0.00000000000E+00  0.00000000000E+00  0.39999999673E+01  0.40000000000E+01  0.51109989000E-03 0.  1.
     -623   -1    0    0    0    0  0.00000000000E+00  0.00000000000E+00  0.12525980253E-10  0.17130000000E+03  0.17130000000E+03 0.  1.
       11    1    1    2    0    0 -0.81559750636E-02  0.65756635685E-02  0.14556935691E-01  0.17942265197E-01  0.51109989000E-03 0.  1.
     -623    1    1    2    0    0 -0.50509115707E-02 -0.87529127250E-02  0.62343963373E-02  0.17130000041E+03  0.17130000000E+03 0.  1.
      622    1    1    2    0    0  0.13206886634E-01  0.21772491566E-02  0.39792086354E+01  0.39820573233E+01  0.15000000000E+00 0.  1.
</event>
<event>
 5   0  0.6780500E+06  0.9118800E+02  0.7818608E-02  0.1180000E+00
       11   -1    0    0    0    0  0.00000000000E+00  0.00000000000E+00  0.39999999673E+01  0.40000000000E+01  0.51109989000E-03 0. -1.
     -623   -1    0    0    0    0  0.00000000000E+00  0.00000000000E+00  0.12525980253E-10  0.17130000000E+03  0.17130000000E+03 0.  1.
       11    1    1    2    0    0 -0.17025202058E-02  0.11436143019E-01  0.10400025167E-01  0.15559745687E-01  0.51109989000E-03 0. -1.
     -623    1    1    2    0    0 -0.77927697807E-02 -0.14306462012E-01  0.79974909221E-02  0.17130000096E+03  0.17130000000E+03 0.  1.
      622    1    1    2    0    0  0.94952899865E-02  0.28703189928E-02  0.39816024513E+01  0.39844392930E+01  0.15000000000E+00 0. -1.
</event>
<event>
 5   0  0.6780500E+06  0.9118800E+02  0.7818608E-02  0.1180000E+00
       11   -1    0    0    0    0  0.00000000000E+00  0.00000000000E+00  0.39999999673E+01  0.40000000000E+01  0.51109989000E-03 0.  1.
     -623   -1    0    0    0    0  0.00000000000E+00  0.00000000000E+00  0.12525980253E-10  0.17130000000E+03  0.17130000000E+03 0. -1.
       11    1    1    2    0    0  0.10396627384E-01 -0.28118115916E-01  0.11803368433E+00  0.12178230643E+00  0.51109989000E-03 0.  1.
     -623    1    1    2    0    0  0.20150413406E-01  0.12178408677E-01  0.68054239615E-02  0.17130000175E+03  0.17130000000E+03 0. -1.
      622    1    1    2    0    0 -0.30547040789E-01  0.15939707239E-01  0.38751608591E+01  0.38782159403E+01  0.15000000000E+00 0.  1.
</event>
<event>
 5   0  0.6780500E+06  0.9118800E+02  0.7818608E-02  0.1180000E+00
       11   -1    0    0    0    0  0.00000000000E+00  0.00000000000E+00  0.39999999673E+01  0.40000000000E+01  0.51109989000E-03 0.  1.
     -623   -1    0    0    0    0  0.00000000000E+00  0.00000000000E+00  0.12525980253E-10  0.17130000000E+03  0.17130000000E+03 0.  1.
       11    1    1    2    0    0 -0.38947453753E-02  0.14367924555E-01  0.33257798645E-01  0.36441030328E-01  0.51109989000E-03 0.  1.
     -623    1    1    2    0    0  0.63010980194E-02 -0.95935278667E-03  0.60462273540E-02  0.17130000023E+03  0.17130000000E+03 0.  1.
      622    1    1    2    0    0 -0.24063526441E-02 -0.13408571768E-01  0.39606959413E+01  0.39635587444E+01  0.15000000000E+00 0.  1.
</event>
<event>
 5   0  0.6780500E+06  0.9118800E+02  0.7818608E-02  0.1180000E+00
       11   -1    0    0    0    0  0.00000000000E+00  0.00000000000E+00  0.39999999673E+01  0.40000000000E+01  0.51109989000E-03 0. -1.
     -623   -1    0    0    0    0  0.00000000000E+00  0.00000000000E+00  0.12525980253E-10  0.17130000000E+03  0.17130000000E+03 0.  1.
       11    1    1    2    0    0 -0.17797995022E-02 -0.13779188903E-01  0.25076504242E+00  0.25115015718E+00  0.51109989000E-03 0. -1.
     -623    1    1    2    0    0  0.14710891989E-01  0.20624883590E-01  0.34176888555E-02  0.17130000191E+03  0.17130000000E+03 0.  1.
      622    1    1    2    0    0 -0.12931092487E-01 -0.68456946870E-02  0.37458172361E+01  0.37488479354E+01  0.15000000000E+00 0. -1.
</event>
<event>
 5   0  0.6780500E+06  0.9118800E+02  0.7818608E-02  0.1180000E+00
       11   -1    0    0    0    0  0.00000000000E+00  0.00000000000E+00  0.39999999673E+01  0.40000000000E+01  0.51109989000E-03 0. -1.
     -623   -1    0    0    0    0  0.00000000000E+00  0.00000000000E+00  0.12525980253E-10  0.17130000000E+03  0.17130000000E+03 0.  1.
       11    1    1    2    0    0  0.18677083143E-01 -0.12435429117E-01  0.34203576063E+00  0.34277134669E+00  0.51109989000E-03 0. -1.
     -623    1    1    2    0    0 -0.48901840568E-01  0.34307332295E-01  0.40138816346E-02  0.17130001046E+03  0.17130000000E+03 0.  1.
      622    1    1    2    0    0  0.30224757425E-01 -0.21871903178E-01  0.36539503251E+01  0.36572181907E+01  0.15000000000E+00 0. -1.
</event>
<event>
 5   0  0.6780500E+06  0.9118800E+02  0.7818608E-02  0.1180000E+00
       11   -1    0    0    0    0  0.00000000000E+00  0.00000000000E+00  0.39999999673E+01  0.40000000000E+01  0.51109989000E-03 0. -1.
     -623   -1    0    0    0    0  0.00000000000E+00  0.00000000000E+00  0.12525980253E-10  0.17130000000E+03  0.17130000000E+03 0. -1.
       11    1    1    2    0    0  0.11031578538E-01  0.30505465352E-01  0.39929624711E+00  0.40061207336E+00  0.51109989000E-03 0. -1.
     -623    1    1    2    0    0 -0.74130171013E-03 -0.41156634365E-02  0.45543446368E-02  0.17130000011E+03  0.17130000000E+03 0. -1.
      622    1    1    2    0    0 -0.10290276828E-01 -0.26389801915E-01  0.35961493756E+01  0.35993878151E+01  0.15000000000E+00 0.  0.
</event>
<event>
 5   0  0.6780500E+06  0.9118800E+02  0.7818608E-02  0.1180000E+00
       11   -1    0    0    0    0  0.00000000000E+00  0.00000000000E+00  0.39999999673E+01  0.40000000000E+01  0.51109989000E-03 0.  1.
     -623   -1    0    0    0    0  0.00000000000E+00  0.00000000000E+00  0.12525980253E-10  0.17130000000E+03  0.17130000000E+03 0.  1.
       11    1    1    2    0    0  0.58133586307E-02  0.20477505698E-01  0.19901738418E+00  0.20015320084E+00  0.51109989000E-03 0.  1.
     -623    1    1    2    0    0 -0.15476705051E-02 -0.37811335533E-02  0.41367893328E-02  0.17130000010E+03  0.17130000000E+03 0.  1.
      622    1    1    2    0    0 -0.42656881256E-02 -0.16696372144E-01  0.37968457938E+01  0.37998467005E+01  0.15000000000E+00 0.  1.
</event>
<event>
 5   0  0.6780500E+06  0.9118800E+02  0.7818608E-02  0.1180000E+00
       11   -1    0    0    0    0  0.00000000000E+00  0.00000000000E+00  0.39999999673E+01  0.40000000000E+01  0.51109989000E-03 0. -1.
     -623   -1    0    0    0    0  0.00000000000E+00  0.00000000000E+00  0.12525980253E-10  0.17130000000E+03  0.17130000000E+03 0. -1.
       11    1    1    2    0    0  0.17825395217E-01 -0.30473555372E-03  0.14323776242E+00  0.14434387893E+00  0.51109989000E-03 0. -1.
     -623    1    1    2    0    0 -0.15318229947E-02  0.10359574727E-01  0.40729231704E-02  0.17130000037E+03  0.17130000000E+03 0. -1.
      622    1    1    2    0    0 -0.16293572222E-01 -0.10054839173E-01  0.38526892818E+01  0.38556557526E+01  0.15000000000E+00 0. -1.
</event>
<event>
 5   0  0.6780500E+06  0.9118800E+02  0.7818608E-02  0.1180000E+00
       11   -1    0    0    0    0  0.00000000000E+00  0.00000000000E+00  0.39999999673E+01  0.40000000000E+01  0.51109989000E-03 0.  1.
     -623   -1    0    0    0    0  0.00000000000E+00  0.00000000000E+00  0.12525980253E-10  0.17130000000E+03  0.17130000000E+03 0.  1.
       11    1    1    2    0    0  0.81247548887E-03 -0.85750793713E-02  0.45797091774E-01  0.46602864068E-01  0.51109989000E-03 0.  1.
     -623    1    1    2    0    0 -0.19380530646E-01  0.96045819254E-02  0.36975953933E-02  0.17130000141E+03  0.17130000000E+03 0.  1.
      622    1    1    2    0    0  0.18568055157E-01 -0.10295025542E-02  0.39505052802E+01  0.39533957304E+01  0.15000000000E+00 0.  1.
</event>
<event>
 5   0  0.6780500E+06  0.9118800E+02  0.7818608E-02  0.1180000E+00
       11   -1    0    0    0    0  0.00000000000E+00  0.00000000000E+00  0.39999999673E+01  0.40000000000E+01  0.51109989000E-03 0.  1.
     -623   -1    0    0    0    0  0.00000000000E+00  0.00000000000E+00  0.12525980253E-10  0.17130000000E+03  0.17130000000E+03 0. -1.
       11    1    1    2    0    0  0.27884314822E-01  0.66995885922E-01  0.30957903073E+00  0.31797078676E+00  0.51109989000E-03 0.  1.
     -623    1    1    2    0    0 -0.53549831254E-01 -0.61247774511E-01  0.11562115699E-01  0.17130001971E+03  0.17130000000E+03 0. -1.
      622    1    1    2    0    0  0.25665516432E-01 -0.57481114107E-02  0.36788588209E+01  0.36820095035E+01  0.15000000000E+00 0.  1.
</event>
<event>
 5   0  0.6780500E+06  0.9118800E+02  0.7818608E-02  0.1180000E+00
       11   -1    0    0    0    0  0.00000000000E+00  0.00000000000E+00  0.39999999673E+01  0.40000000000E+01  0.51109989000E-03 0.  1.
     -623   -1    0    0    0    0  0.00000000000E+00  0.00000000000E+00  0.12525980253E-10  0.17130000000E+03  0.17130000000E+03 0. -1.
       11    1    1    2    0    0 -0.27581256100E-01  0.25262832224E-01  0.17710978648E+00  0.18101677843E+00  0.51109989000E-03 0.  1.
     -623    1    1    2    0    0  0.64471060662E-02  0.11489906075E-01  0.70900760478E-02  0.17130000065E+03  0.17130000000E+03 0. -1.
      622    1    1    2    0    0  0.21134150034E-01 -0.36752738299E-01  0.38158001048E+01  0.38189825682E+01  0.15000000000E+00 0.  1.
</event>
<event>
 5   0  0.6780500E+06  0.9118800E+02  0.7818608E-02  0.1180000E+00
       11   -1    0    0    0    0  0.00000000000E+00  0.00000000000E+00  0.39999999673E+01  0.40000000000E+01  0.51109989000E-03 0. -1.
     -623   -1    0    0    0    0  0.00000000000E+00  0.00000000000E+00  0.12525980253E-10  0.17130000000E+03  0.17130000000E+03 0. -1.
       11    1    1    2    0    0  0.53685422252E-02  0.54051840110E-02  0.20161756613E-01  0.21559102779E-01  0.51109989000E-03 0. -1.
     -623    1    1    2    0    0 -0.35353473478E-02 -0.38107490806E-02  0.42269335539E-02  0.17130000013E+03  0.17130000000E+03 0. -1.
      622    1    1    2    0    0 -0.18331948774E-02 -0.15944349304E-02  0.39756112772E+01  0.39784407662E+01  0.15000000000E+00 0. -1.
</event>
<event>
 5   0  0.6780500E+06  0.9118800E+02  0.7818608E-02  0.1180000E+00
       11   -1    0    0    0    0  0.00000000000E+00  0.00000000000E+00  0.39999999673E+01  0.40000000000E+01  0.51109989000E-03 0. -1.
     -623   -1    0    0    0    0  0.00000000000E+00  0.00000000000E+00  0.12525980253E-10  0.17130000000E+03  0.17130000000E+03 0.  1.
       11    1    1    2    0    0  0.10279894639E-01  0.12693056712E-01  0.14580103435E+00  0.14671398284E+00  0.51109989000E-03 0. -1.
     -623    1    1    2    0    0  0.64482932445E-02 -0.12373328441E-01  0.38705730707E-02  0.17130000061E+03  0.17130000000E+03 0.  1.
      622    1    1    2    0    0 -0.16728187884E-01 -0.31972827047E-03  0.38503283599E+01  0.38532854052E+01  0.15000000000E+00 0. -1.
</event>
<event>
 5   0  0.6780500E+06  0.9118800E+02  0.7818608E-02  0.1180000E+00
       11   -1    0    0    0    0  0.00000000000E+00  0.00000000000E+00  0.39999999673E+01  0.40000000000E+01  0.51109989000E-03 0.  1.
     -623   -1    0    0    0    0  0.00000000000E+00  0.00000000000E+00  0.12525980253E-10  0.17130000000E+03  0.17130000000E+03 0.  1.
       11    1    1    2    0    0 -0.14511125442E-01  0.10924733668E-01  0.10895906835E+00  0.11046385095E+00  0.51109989000E-03 0.  1.
     -623    1    1    2    0    0  0.21187963237E-02 -0.88874681894E-03  0.44309882695E-02  0.17130000007E+03  0.17130000000E+03 0.  1.
      622    1    1    2    0    0  0.12392329119E-01 -0.10035986849E-01  0.38866099108E+01  0.38895360764E+01  0.15000000000E+00 0.  1.
</event>
<event>
 5   0  0.6780500E+06  0.9118800E+02  0.7818608E-02  0.1180000E+00
       11   -1    0    0    0    0  0.00000000000E+00  0.00000000000E+00  0.39999999673E+01  0.40000000000E+01  0.51109989000E-03 0.  1.
     -623   -1    0    0    0    0  0.00000000000E+00  0.00000000000E+00  0.12525980253E-10  0.17130000000E+03  0.17130000000E+03 0.  1.
       11    1    1    2    0    0 -0.19134450078E-03  0.29205226735E-03  0.76754025639E-02  0.77003202965E-02  0.51109989000E-03 0.  1.
     -623    1    1    2    0    0 -0.82802257288E-03  0.21418248203E-02  0.28447167206E-02  0.17130000004E+03  0.17130000000E+03 0.  1.
      622    1    1    2    0    0  0.10193670737E-02 -0.24338770877E-02  0.39894798481E+01  0.39922996407E+01  0.15000000000E+00 0.  1.
</event>
<event>
 5   0  0.6780500E+06  0.9118800E+02  0.7818608E-02  0.1180000E+00
       11   -1    0    0    0    0  0.00000000000E+00  0.00000000000E+00  0.39999999673E+01  0.40000000000E+01  0.51109989000E-03 0. -1.
     -623   -1    0    0    0    0  0.00000000000E+00  0.00000000000E+00  0.12525980253E-10  0.17130000000E+03  0.17130000000E+03 0.  1.
       11    1    1    2    0    0 -0.64512169270E-01 -0.31890614826E-01  0.10587912128E+01  0.10612341517E+01  0.51109989000E-03 0. -1.
     -623    1    1    2    0    0 -0.28873105982E-01  0.21525256902E-01  0.77818897926E-02  0.17130000396E+03  0.17130000000E+03 0.  1.
      622    1    1    2    0    0  0.93385275252E-01  0.10365357924E-01  0.29334268648E+01  0.29387618858E+01  0.15000000000E+00 0. -1.
</event>
<event>
 5   0  0.6780500E+06  0.9118800E+02  0.7818608E-02  0.1180000E+00
       11   -1    0    0    0    0  0.00000000000E+00  0.00000000000E+00  0.39999999673E+01  0.40000000000E+01  0.51109989000E-03 0. -1.
     -623   -1    0    0    0    0  0.00000000000E+00  0.00000000000E+00  0.12525980253E-10  0.17130000000E+03  0.17130000000E+03 0. -1.
       11    1    1    2    0    0  0.15065165223E-02  0.30199664047E-01  0.81767807569E+00  0.81823712088E+00  0.51109989000E-03 0. -1.
     -623    1    1    2    0    0  0.17399118542E-01 -0.15296290350E-01  0.41895485393E-02  0.17130000162E+03  0.17130000000E+03 0. -1.
      622    1    1    2    0    0 -0.18905635064E-01 -0.14903373697E-01  0.31781323431E+01  0.31817612613E+01  0.15000000000E+00 0. -1.
</event>
<event>
 5   0  0.6780500E+06  0.9118800E+02  0.7818608E-02  0.1180000E+00
       11   -1    0    0    0    0  0.00000000000E+00  0.00000000000E+00  0.39999999673E+01  0.40000000000E+01  0.51109989000E-03 0.  1.
     -623   -1    0    0    0    0  0.00000000000E+00  0.00000000000E+00  0.12525980253E-10  0.17130000000E+03  0.17130000000E+03 0.  1.
       11    1    1    2    0    0 -0.12085816940E-03 -0.82590332600E-02  0.17099414564E-02  0.84505242423E-02  0.51109989000E-03 0.  1.
     -623    1    1    2    0    0  0.29451181762E-02  0.13863004319E-01  0.95657907585E-02  0.17130000085E+03  0.17130000000E+03 0.  1.
      622    1    1    2    0    0 -0.28242600068E-02 -0.56039710589E-02  0.39887242352E+01  0.39915486224E+01  0.15000000000E+00 0.  1.
</event>
<event>
 5   0  0.6780500E+06  0.9118800E+02  0.7818608E-02  0.1180000E+00
       11   -1    0    0    0    0  0.00000000000E+00  0.00000000000E+00  0.39999999673E+01  0.40000000000E+01  0.51109989000E-03 0.  1.
     -623   -1    0    0    0    0  0.00000000000E+00  0.00000000000E+00  0.12525980253E-10  0.17130000000E+03  0.17130000000E+03 0.  1.
       11    1    1    2    0    0 -0.36219498981E-03 -0.26540481218E-01  0.22984984043E+00  0.23137791316E+00  0.51109989000E-03 0.  1.
     -623    1    1    2    0    0 -0.64128503958E-02  0.26186204435E-01  0.45226936743E-02  0.17130000218E+03  0.17130000000E+03 0.  1.
      622    1    1    2    0    0  0.67750453857E-02  0.35427678329E-03  0.37656274333E+01  0.37686199056E+01  0.15000000000E+00 0.  1.
</event>
<event>
 5   0  0.6780500E+06  0.9118800E+02  0.7818608E-02  0.1180000E+00
       11   -1    0    0    0    0  0.00000000000E+00  0.00000000000E+00  0.39999999673E+01  0.40000000000E+01  0.51109989000E-03 0. -1.
     -623   -1    0    0    0    0  0.00000000000E+00  0.00000000000E+00  0.12525980253E-10  0.17130000000E+03  0.17130000000E+03 0.  1.
       11    1    1    2    0    0 -0.33721841519E-02 -0.14038831618E-01  0.14880637929E+00  0.14950605392E+00  0.51109989000E-03 0. -1.
     -623    1    1    2    0    0 -0.79734605787E-02 -0.16435950930E-02  0.36713758088E-02  0.17130000023E+03  0.17130000000E+03 0.  1.
      622    1    1    2    0    0  0.11345644731E-01  0.15682426711E-01  0.38475222123E+01  0.38504937134E+01  0.15000000000E+00 0. -1.
</event>
<event>
 5   0  0.6780500E+06  0.9118800E+02  0.7818608E-02  0.1180000E+00
       11   -1    0    0    0    0  0.00000000000E+00  0.00000000000E+00  0.39999999673E+01  0.40000000000E+01  0.51109989000E-03 0. -1.
     -623   -1    0    0    0    0  0.00000000000E+00  0.00000000000E+00  0.12525980253E-10  0.17130000000E+03  0.17130000000E+03 0. -1.
       11    1    1    2    0    0 -0.75970753434E-02 -0.40532920622E-02  0.14070098614E-01  0.16503745890E-01  0.51109989000E-03 0. -1.
     -623    1    1    2    0    0  0.32052679705E-03  0.10386763586E-01  0.52708544328E-02  0.17130000040E+03  0.17130000000E+03 0. -1.
      622    1    1    2    0    0  0.72765485464E-02 -0.63334715240E-02  0.39806590144E+01  0.39834958579E+01  0.15000000000E+00 0. -1.
</event>
<event>
 5   0  0.6780500E+06  0.9118800E+02  0.7818608E-02  0.1180000E+00
       11   -1    0    0    0    0  0.00000000000E+00  0.00000000000E+00  0.39999999673E+01  0.40000000000E+01  0.51109989000E-03 0. -1.
     -623   -1    0    0    0    0  0.00000000000E+00  0.00000000000E+00  0.12525980253E-10  0.17130000000E+03  0.17130000000E+03 0.  1.
       11    1    1    2    0    0 -0.17449695929E-01 -0.22223156833E-01  0.70212280264E-01  0.75686102477E-01  0.51109989000E-03 0. -1.
     -623    1    1    2    0    0 -0.84624514849E-02  0.45650641709E-02  0.84674300708E-02  0.17130000048E+03  0.17130000000E+03 0.  1.
      622    1    1    2    0    0  0.25912147414E-01  0.17658092662E-01  0.39213202570E+01  0.39243134184E+01  0.15000000000E+00 0. -1.
</event>
<event>
 5   0  0.6780500E+06  0.9118800E+02  0.7818608E-02  0.1180000E+00
       11   -1    0    0    0    0  0.00000000000E+00  0.00000000000E+00  0.39999999673E+01  0.40000000000E+01  0.51109989000E-03 0. -1.
     -623   -1    0    0    0    0  0.00000000000E+00  0.00000000000E+00  0.12525980253E-10  0.17130000000E+03  0.17130000000E+03 0. -1.
       11    1    1    2    0    0 -0.12989866709E-01 -0.59836886137E-02  0.93556133960E+00  0.93567078748E+00  0.51109989000E-03 0. -1.
     -623    1    1    2    0    0  0.44468138381E-02 -0.55701870342E-02  0.38168155219E-02  0.17130000019E+03  0.17130000000E+03 0. -1.
      622    1    1    2    0    0  0.85430528709E-02  0.11553875648E-01  0.30606218122E+01  0.30643290217E+01  0.15000000000E+00 0. -1.
</event>
<event>
 5   0  0.6780500E+06  0.9118800E+02  0.7818608E-02  0.1180000E+00
       11   -1    0    0    0    0  0.00000000000E+00  0.00000000000E+00  0.39999999673E+01  0.40000000000E+01  0.51109989000E-03 0. -1.
     -623   -1    0    0    0    0  0.00000000000E+00  0.00000000000E+00  0.12525980253E-10  0.17130000000E+03  0.17130000000E+03 0.  1.
       11    1    1    2    0    0  0.34756235516E-02 -0.10052188003E-01  0.54864907257E-01  0.55888690396E-01  0.51109989000E-03 0. -1.
     -623    1    1    2    0    0 -0.13309976461E-01 -0.42998295101E-02  0.39161534812E-02  0.17130000062E+03  0.17130000000E+03 0.  1.
      622    1    1    2    0    0  0.98343529093E-02  0.14352017513E-01  0.39412189065E+01  0.39441106937E+01  0.15000000000E+00 0. -1.
</event>
<event>
 5   0  0.6780500E+06  0.9118800E+02  0.7818608E-02  0.1180000E+00
       11   -1    0    0    0    0  0.00000000000E+00  0.00000000000E+00  0.39999999673E+01  0.40000000000E+01  0.51109989000E-03 0.  1.
     -623   -1    0    0    0    0  0.00000000000E+00  0.00000000000E+00  0.12525980253E-10  0.17130000000E+03  0.17130000000E+03 0. -1.
       11    1    1    2    0    0  0.17443365418E-01  0.84512767662E-01  0.44954363764E+00  0.45775148526E+00  0.51109989000E-03 0.  1.
     -623    1    1    2    0    0 -0.14939493629E-03 -0.94693020002E-02  0.12223862445E-01  0.17130000070E+03  0.17130000000E+03 0. -1.
      622    1    1    2    0    0 -0.17293970482E-01 -0.75043465662E-01  0.35382324673E+01  0.35422478168E+01  0.15000000000E+00 0. -1.
</event>
<event>
 5   0  0.6780500E+06  0.9118800E+02  0.7818608E-02  0.1180000E+00
       11   -1    0    0    0    0  0.00000000000E+00  0.00000000000E+00  0.39999999673E+01  0.40000000000E+01  0.51109989000E-03 0.  1.
     -623   -1    0    0    0    0  0.00000000000E+00  0.00000000000E+00  0.12525980253E-10  0.17130000000E+03  0.17130000000E+03 0. -1.
       11    1    1    2    0    0 -0.12478373402E-01 -0.12640470869E-02  0.15990922110E+00  0.16040114661E+00  0.51109989000E-03 0.  1.
     -623    1    1    2    0    0  0.92509567422E-02 -0.15825404809E-02  0.34257102865E-02  0.17130000029E+03  0.17130000000E+03 0. -1.
      622    1    1    2    0    0  0.32274166604E-02  0.28465875677E-02  0.38366650359E+01  0.38395985620E+01  0.15000000000E+00 0.  1.
</event>
<event>
 5   0  0.6780500E+06  0.9118800E+02  0.7818608E-02  0.1180000E+00
       11   -1    0    0    0    0  0.00000000000E+00  0.00000000000E+00  0.39999999673E+01  0.40000000000E+01  0.51109989000E-03 0.  1.
     -623   -1    0    0    0    0  0.00000000000E+00  0.00000000000E+00  0.12525980253E-10  0.17130000000E+03  0.17130000000E+03 0. -1.
       11    1    1    2    0    0  0.18199119583E-02 -0.82861219925E-02  0.20758507050E+00  0.20775898203E+00  0.51109989000E-03 0.  1.
     -623    1    1    2    0    0 -0.11129285047E-01  0.30584736222E-01  0.32217946960E-02  0.17130000312E+03  0.17130000000E+03 0. -1.
      622    1    1    2    0    0  0.93093730883E-02 -0.22298614230E-01  0.37891931022E+01  0.37922378958E+01  0.15000000000E+00 0.  1.
</event>
<event>
 5   0  0.6780500E+06  0.9118800E+02  0.7818608E-02  0.1180000E+00
       11   -1    0    0    0    0  0.00000000000E+00  0.00000000000E+00  0.39999999673E+01  0.40000000000E+01  0.51109989000E-03 0. -1.
     -623   -1    0    0    0    0  0.00000000000E+00  0.00000000000E+00  0.12525980253E-10  0.17130000000E+03  0.17130000000E+03 0. -1.
       11    1    1    2    0    0  0.17686160380E-01 -0.37662302958E-02  0.85125808300E-02  0.19992749001E-01  0.51109989000E-03 0. -1.
     -623    1    1    2    0    0 -0.11227232955E-01  0.14453532247E-01  0.14328950028E-01  0.17130000158E+03  0.17130000000E+03 0. -1.
      622    1    1    2    0    0 -0.64589274251E-02 -0.10687301951E-01  0.39771584365E+01  0.39800056740E+01  0.15000000000E+00 0. -1.
</event>
<event>
 5   0  0.6780500E+06  0.9118800E+02  0.7818608E-02  0.1180000E+00
       11   -1    0    0    0    0  0.00000000000E+00  0.00000000000E+00  0.39999999673E+01  0.40000000000E+01  0.51109989000E-03 0. -1.
     -623   -1    0    0    0    0  0.00000000000E+00  0.00000000000E+00  0.12525980253E-10  0.17130000000E+03  0.17130000000E+03 0.  1.
       11    1    1    2    0    0 -0.21351421236E-02  0.10693831901E-01  0.51522908795E-02  0.12071627770E-01  0.51109989000E-03 0. -1.
     -623    1    1    2    0    0  0.16657470653E-02 -0.97602934931E-02  0.97420168543E-02  0.17130000056E+03  0.17130000000E+03 0.  1.
      622    1    1    2    0    0  0.46939505830E-03 -0.93353840755E-03  0.39851056596E+01  0.39879278091E+01  0.15000000000E+00 0. -1.
</event>
<event>
 5   0  0.6780500E+06  0.9118800E+02  0.7818608E-02  0.1180000E+00
       11   -1    0    0    0    0  0.00000000000E+00  0.00000000000E+00  0.39999999673E+01  0.40000000000E+01  0.51109989000E-03 0. -1.
     -623   -1    0    0    0    0  0.00000000000E+00  0.00000000000E+00  0.12525980253E-10  0.17130000000E+03  0.17130000000E+03 0. -1.
       11    1    1    2    0    0  0.62116670890E-02  0.64675395664E-02  0.79164255298E-01  0.79672168390E-01  0.51109989000E-03 0. -1.
     -623    1    1    2    0    0 -0.22908999533E-02  0.18119086187E-01  0.34587164936E-02  0.17130000101E+03  0.17130000000E+03 0. -1.
      622    1    1    2    0    0 -0.39207671357E-02 -0.24586625753E-01  0.39173769956E+01  0.39203268231E+01  0.15000000000E+00 0.  0.
</event>
<event>
 5   0  0.6780500E+06  0.9118800E+02  0.7818608E-02  0.1180000E+00
       11   -1    0    0    0    0  0.00000000000E+00  0.00000000000E+00  0.39999999673E+01  0.40000000000E+01  0.51109989000E-03 0.  1.
     -623   -1    0    0    0    0  0.00000000000E+00  0.00000000000E+00  0.12525980253E-10  0.17130000000E+03  0.17130000000E+03 0.  1.
       11    1    1    2    0    0  0.80766137360E-02 -0.97953474125E-02  0.22402422985E-01  0.25754811161E-01  0.51109989000E-03 0.  1.
     -623    1    1    2    0    0 -0.16904451987E-01  0.52897222281E-02  0.61974865161E-02  0.17130000103E+03  0.17130000000E+03 0.  1.
      622    1    1    2    0    0  0.88278382507E-02  0.45056251844E-02  0.39714000579E+01  0.39742441610E+01  0.15000000000E+00 0.  1.
</event>
<event>
 5   0  0.6780500E+06  0.9118800E+02  0.7818608E-02  0.1180000E+00
       11   -1    0    0    0    0  0.00000000000E+00  0.00000000000E+00  0.39999999673E+01  0.40000000000E+01  0.51109989000E-03 0. -1.
     -623   -1    0    0    0    0  0.00000000000E+00  0.00000000000E+00  0.12525980253E-10  0.17130000000E+03  0.17130000000E+03 0.  1.
       11    1    1    2    0    0  0.18786573756E-02 -0.30709710373E-02  0.11077758351E-01  0.11659252493E-01  0.51109989000E-03 0. -1.
     -623    1    1    2    0    0  0.33480912579E-02  0.65231095621E-02  0.34082948566E-02  0.17130000019E+03  0.17130000000E+03 0.  1.
      622    1    1    2    0    0 -0.52267486336E-02 -0.34521385248E-02  0.39855139142E+01  0.39883405567E+01  0.15000000000E+00 0. -1.
</event>
<event>
 5   0  0.6780500E+06  0.9118800E+02  0.7818608E-02  0.1180000E+00
       11   -1    0    0    0    0  0.00000000000E+00  0.00000000000E+00  0.39999999673E+01  0.40000000000E+01  0.51109989000E-03 0.  1.
     -623   -1    0    0    0    0  0.00000000000E+00  0.00000000000E+00  0.12525980253E-10  0.17130000000E+03  0.17130000000E+03 0.  1.
       11    1    1    2    0    0  0.53466218726E-01 -0.34483091604E-01  0.43359633685E+00  0.43823939201E+00  0.51109989000E-03 0.  1.
     -623    1    1    2    0    0  0.10155785220E-01 -0.72338469766E-02  0.86169885296E-02  0.17130000067E+03  0.17130000000E+03 0.  1.
      622    1    1    2    0    0 -0.63622003946E-01  0.41716938581E-01  0.35577866420E+01  0.35617599375E+01  0.15000000000E+00 0.  0.
</event>
<event>
 5   0  0.6780500E+06  0.9118800E+02  0.7818608E-02  0.1180000E+00
       11   -1    0    0    0    0  0.00000000000E+00  0.00000000000E+00  0.39999999673E+01  0.40000000000E+01  0.51109989000E-03 0.  1.
     -623   -1    0    0    0    0  0.00000000000E+00  0.00000000000E+00  0.12525980253E-10  0.17130000000E+03  0.17130000000E+03 0.  1.
       11    1    1    2    0    0  0.81914314436E-01 -0.20043669952E-02  0.56684925002E+00  0.57274104608E+00  0.51109989000E-03 0.  1.
     -623    1    1    2    0    0 -0.58244475369E-02  0.35916403249E-01  0.10193563609E-01  0.17130000417E+03  0.17130000000E+03 0.  1.
      622    1    1    2    0    0 -0.76089866899E-01 -0.33912036254E-01  0.34229571537E+01  0.34272547863E+01  0.15000000000E+00 0.  1.
</event>
<event>
 5   0  0.6780500E+06  0.9118800E+02  0.7818608E-02  0.1180000E+00
       11   -1    0    0    0    0  0.00000000000E+00  0.00000000000E+00  0.39999999673E+01  0.40000000000E+01  0.51109989000E-03 0.  1.
     -623   -1    0    0    0    0  0.00000000000E+00  0.00000000000E+00  0.12525980253E-10  0.17130000000E+03  0.17130000000E+03 0. -1.
       11    1    1    2    0    0  0.64343843467E-02  0.46083861037E-02  0.50813039468E+00  0.50819228423E+00  0.51109989000E-03 0.  1.
     -623    1    1    2    0    0 -0.25726462984E-02  0.37535729867E-02  0.32974228138E-02  0.17130000009E+03  0.17130000000E+03 0. -1.
      622    1    1    2    0    0 -0.38617380483E-02 -0.83619590904E-02  0.34885721499E+01  0.34918076236E+01  0.15000000000E+00 0.  1.
</event>
<event>
 5   0  0.6780500E+06  0.9118800E+02  0.7818608E-02  0.1180000E+00
       11   -1    0    0    0    0  0.00000000000E+00  0.00000000000E+00  0.39999999673E+01  0.40000000000E+01  0.51109989000E-03 0. -1.
     -623   -1    0    0    0    0  0.00000000000E+00  0.00000000000E+00  0.12525980253E-10  0.17130000000E+03  0.17130000000E+03 0. -1.
       11    1    1    2    0    0  0.10494367723E-01 -0.50104327602E-02  0.33765630255E-01  0.35715755619E-01  0.51109989000E-03 0. -1.
     -623    1    1    2    0    0 -0.55911937444E-02  0.11146168699E-01  0.47972556048E-02  0.17130000052E+03  0.17130000000E+03 0. -1.
      622    1    1    2    0    0 -0.49031739785E-02 -0.61357359392E-02  0.39614370815E+01  0.39642837233E+01  0.15000000000E+00 0. -1.
</event>
<event>
 5   0  0.6780500E+06  0.9118800E+02  0.7818608E-02  0.1180000E+00
       11   -1    0    0    0    0  0.00000000000E+00  0.00000000000E+00  0.39999999673E+01  0.40000000000E+01  0.51109989000E-03 0.  1.
     -623   -1    0    0    0    0  0.00000000000E+00  0.00000000000E+00  0.12525980253E-10  0.17130000000E+03  0.17130000000E+03 0. -1.
       11    1    1    2    0    0  0.34145398429E-01  0.63011260883E-01  0.19231415113E+00  0.20523479524E+00  0.51109989000E-03 0.  1.
     -623    1    1    2    0    0 -0.48076795659E-01  0.36326701920E-02  0.16505270379E-01  0.17130000758E+03  0.17130000000E+03 0. -1.
      622    1    1    2    0    0  0.13931397230E-01 -0.66643931075E-01  0.37911805459E+01  0.37947576245E+01  0.15000000000E+00 0.  1.
</event>
<event>
 5   0  0.6780500E+06  0.9118800E+02  0.7818608E-02  0.1180000E+00
       11   -1    0    0    0    0  0.00000000000E+00  0.00000000000E+00  0.39999999673E+01  0.40000000000E+01  0.51109989000E-03 0. -1.
     -623   -1    0    0    0    0  0.00000000000E+00  0.00000000000E+00  0.12525980253E-10  0.17130000000E+03  0.17130000000E+03 0.  1.
       11    1    1    2    0    0 -0.22231357250E-01 -0.22486227323E-01  0.92018524937E-01  0.97301252916E-01  0.51109989000E-03 0. -1.
     -623    1    1    2    0    0  0.16650978718E-01 -0.82526032379E-03  0.82410581229E-02  0.17130000101E+03  0.17130000000E+03 0.  1.
      622    1    1    2    0    0  0.55803785319E-02  0.23311487647E-01  0.38997403843E+01  0.39026977376E+01  0.15000000000E+00 0. -1.
</event>
<event>
 5   0  0.6780500E+06  0.9118800E+02  0.7818608E-02  0.1180000E+00
       11   -1    0    0    0    0  0.00000000000E+00  0.00000000000E+00  0.39999999673E+01  0.40000000000E+01  0.51109989000E-03 0.  1.
     -623   -1    0    0    0    0  0.00000000000E+00  0.00000000000E+00  0.12525980253E-10  0.17130000000E+03  0.17130000000E+03 0. -1.
       11    1    1    2    0    0  0.84814326030E-02  0.72768258220E-01  0.91305398675E+00  0.91598853598E+00  0.51109989000E-03 0.  1.
     -623    1    1    2    0    0 -0.57490778988E-01 -0.75453248859E-01  0.70020363110E-02  0.17130002641E+03  0.17130000000E+03 0. -1.
      622    1    1    2    0    0  0.49009346385E-01  0.26849906396E-02  0.30799439443E+01  0.30839850559E+01  0.15000000000E+00 0.  1.
</event>
<event>
 5   0  0.6780500E+06  0.9118800E+02  0.7818608E-02  0.1180000E+00
       11   -1    0    0    0    0  0.00000000000E+00  0.00000000000E+00  0.39999999673E+01  0.40000000000E+01  0.51109989000E-03 0. -1.
     -623   -1    0    0    0    0  0.00000000000E+00  0.00000000000E+00  0.12525980253E-10  0.17130000000E+03  0.17130000000E+03 0. -1.
       11    1    1    2    0    0 -0.14305043440E-01 -0.41019925148E-02  0.15769537247E-01  0.21688709932E-01  0.51109989000E-03 0. -1.
     -623    1    1    2    0    0  0.12741678515E-01  0.58689366661E-02  0.87494772990E-02  0.17130000080E+03  0.17130000000E+03 0. -1.
      622    1    1    2    0    0  0.15633649251E-02 -0.17669441512E-02  0.39754809528E+01  0.39783104922E+01  0.15000000000E+00 0. -1.
</event>
<event>
 5   0  0.6780500E+06  0.9118800E+02  0.7818608E-02  0.1180000E+00
       11   -1    0    0    0    0  0.00000000000E+00  0.00000000000E+00  0.39999999673E+01  0.40000000000E+01  0.51109989000E-03 0.  1.
     -623   -1    0    0    0    0  0.00000000000E+00  0.00000000000E+00  0.12525980253E-10  0.17130000000E+03  0.17130000000E+03 0.  1.
       11    1    1    2    0    0 -0.43114991762E-02  0.22470638327E-02  0.33484744319E-01  0.33839734724E-01  0.51109989000E-03 0.  1.
     -623    1    1    2    0    0  0.29321312651E-02 -0.67841158084E-02  0.31954956832E-02  0.17130000019E+03  0.17130000000E+03 0.  1.
      622    1    1    2    0    0  0.13793679109E-02  0.45370519759E-02  0.39633197275E+01  0.39661600762E+01  0.15000000000E+00 0.  1.
</event>
<event>
 5   0  0.6780500E+06  0.9118800E+02  0.7818608E-02  0.1180000E+00
       11   -1    0    0    0    0  0.00000000000E+00  0.00000000000E+00  0.39999999673E+01  0.40000000000E+01  0.51109989000E-03 0. -1.
     -623   -1    0    0    0    0  0.00000000000E+00  0.00000000000E+00  0.12525980253E-10  0.17130000000E+03  0.17130000000E+03 0. -1.
       11    1    1    2    0    0  0.13913722887E-01  0.70907295029E-02  0.66722794008E-01  0.68527823494E-01  0.51109989000E-03 0. -1.
     -623    1    1    2    0    0 -0.35910957449E-01 -0.65391152426E-02  0.47331428953E-02  0.17130000395E+03  0.17130000000E+03 0. -1.
      622    1    1    2    0    0  0.21997234562E-01 -0.55161426017E-03  0.39285440305E+01  0.39314682222E+01  0.15000000000E+00 0. -1.
</event>
<event>
 5   0  0.6780500E+06  0.9118800E+02  0.7818608E-02  0.1180000E+00
       11   -1    0    0    0    0  0.00000000000E+00  0.00000000000E+00  0.39999999673E+01  0.40000000000E+01  0.51109989000E-03 0. -1.
     -623   -1    0    0    0    0  0.00000000000E+00  0.00000000000E+00  0.12525980253E-10  0.17130000000E+03  0.17130000000E+03 0. -1.
       11    1    1    2    0    0  0.60424015607E-03 -0.45578733020E-02  0.15599765200E-01  0.16271238816E-01  0.51109989000E-03 0. -1.
     -623    1    1    2    0    0  0.18464684523E-02  0.77380353566E-02  0.34986752652E-02  0.17130000022E+03  0.17130000000E+03 0. -1.
      622    1    1    2    0    0 -0.24507086084E-02 -0.31801620549E-02  0.39809015270E+01  0.39837285409E+01  0.15000000000E+00 0. -1.
</event>
<event>
 5   0  0.6780500E+06  0.9118800E+02  0.7818608E-02  0.1180000E+00
       11   -1    0    0    0    0  0.00000000000E+00  0.00000000000E+00  0.39999999673E+01  0.40000000000E+01  0.51109989000E-03 0. -1.
     -623   -1    0    0    0    0  0.00000000000E+00  0.00000000000E+00  0.12525980253E-10  0.17130000000E+03  0.17130000000E+03 0. -1.
       11    1    1    2    0    0  0.17131266880E-02  0.12032747327E-02  0.35268776027E-02  0.41331297890E-02  0.51109989000E-03 0. -1.
     -623    1    1    2    0    0 -0.24076814625E-02  0.13402340459E-02  0.34235481063E-02  0.17130000006E+03  0.17130000000E+03 0. -1.
      622    1    1    2    0    0  0.69455477455E-03 -0.25435087786E-02  0.39930495417E+01  0.39958668139E+01  0.15000000000E+00 0. -1.
</event>
<event>
 5   0  0.6780500E+06  0.9118800E+02  0.7818608E-02  0.1180000E+00
       11   -1    0    0    0    0  0.00000000000E+00  0.00000000000E+00  0.39999999673E+01  0.40000000000E+01  0.51109989000E-03 0. -1.
     -623   -1    0    0    0    0  0.00000000000E+00  0.00000000000E+00  0.12525980253E-10  0.17130000000E+03  0.17130000000E+03 0.  1.
       11    1    1    2    0    0 -0.92369463805E-02 -0.22979360232E-02  0.31648037935E-01  0.33052401072E-01  0.51109989000E-03 0. -1.
     -623    1    1    2    0    0  0.36117020490E-01  0.24666887881E-01  0.44011732862E-02  0.17130000564E+03  0.17130000000E+03 0.  1.
      622    1    1    2    0    0 -0.26880074110E-01 -0.22368951858E-01  0.39639507562E+01  0.39669419590E+01  0.15000000000E+00 0. -1.
</event>
<event>
 5   0  0.6780500E+06  0.9118800E+02  0.7818608E-02  0.1180000E+00
       11   -1    0    0    0    0  0.00000000000E+00  0.00000000000E+00  0.39999999673E+01  0.40000000000E+01  0.51109989000E-03 0. -1.
     -623   -1    0    0    0    0  0.00000000000E+00  0.00000000000E+00  0.12525980253E-10  0.17130000000E+03  0.17130000000E+03 0.  1.
       11    1    1    2    0    0  0.94552098402E-02 -0.34351751313E-02  0.11835901990E+00  0.11878686896E+00  0.51109989000E-03 0. -1.
     -623    1    1    2    0    0 -0.19407474403E-02 -0.57652273231E-02  0.33458114515E-02  0.17130000014E+03  0.17130000000E+03 0.  1.
      622    1    1    2    0    0 -0.75144624000E-02  0.92004024543E-02  0.38782951360E+01  0.38812129903E+01  0.15000000000E+00 0. -1.
</event>
<event>
 5   0  0.6780500E+06  0.9118800E+02  0.7818608E-02  0.1180000E+00
       11   -1    0    0    0    0  0.00000000000E+00  0.00000000000E+00  0.39999999673E+01  0.40000000000E+01  0.51109989000E-03 0. -1.
     -623   -1    0    0    0    0  0.00000000000E+00  0.00000000000E+00  0.12525980253E-10  0.17130000000E+03  0.17130000000E+03 0. -1.
       11    1    1    2    0    0 -0.18580620713E-01  0.60935131947E-02  0.98305932098E-02  0.21892285232E-01  0.51109989000E-03 0. -1.
     -623    1    1    2    0    0  0.96299405463E-02  0.20634494134E-01  0.14992745678E-01  0.17130000217E+03  0.17130000000E+03 0. -1.
      622    1    1    2    0    0  0.89506801669E-02 -0.26728007329E-01  0.39751766285E+01  0.39781055452E+01  0.15000000000E+00 0. -1.
</event>
<event>
 5   0  0.6780500E+06  0.9118800E+02  0.7818608E-02  0.1180000E+00
       11   -1    0    0    0    0  0.00000000000E+00  0.00000000000E+00  0.39999999673E+01  0.40000000000E+01  0.51109989000E-03 0.  1.
     -623   -1    0    0    0    0  0.00000000000E+00  0.00000000000E+00  0.12525980253E-10  0.17130000000E+03  0.17130000000E+03 0.  1.
       11    1    1    2    0    0  0.29514307743E-01  0.45285694830E-01  0.26912421206E+00  0.27449952870E+00  0.51109989000E-03 0.  1.
     -623    1    1    2    0    0 -0.75707278730E-01 -0.40905255040E-01  0.87072890398E-02  0.17130002183E+03  0.17130000000E+03 0.  1.
      622    1    1    2    0    0  0.46192970987E-01 -0.43804397899E-02  0.37221684663E+01  0.37254786364E+01  0.15000000000E+00 0.  1.
</event>
<event>
 5   0  0.6780500E+06  0.9118800E+02  0.7818608E-02  0.1180000E+00
       11   -1    0    0    0    0  0.00000000000E+00  0.00000000000E+00  0.39999999673E+01  0.40000000000E+01  0.51109989000E-03 0.  1.
     -623   -1    0    0    0    0  0.00000000000E+00  0.00000000000E+00  0.12525980253E-10  0.17130000000E+03  0.17130000000E+03 0.  1.
       11    1    1    2    0    0  0.51375720904E-02 -0.50321433297E-02  0.19037212105E-01  0.20356664297E-01  0.51109989000E-03 0.  1.
     -623    1    1    2    0    0  0.33100279413E-02  0.57551809545E-02  0.41565279824E-02  0.17130000018E+03  0.17130000000E+03 0.  1.
      622    1    1    2    0    0 -0.84476000318E-02 -0.72303762490E-03  0.39768062273E+01  0.39796431567E+01  0.15000000000E+00 0.  1.
</event>
<event>
 5   0  0.6780500E+06  0.9118800E+02  0.7818608E-02  0.1180000E+00
       11   -1    0    0    0    0  0.00000000000E+00  0.00000000000E+00  0.39999999673E+01  0.40000000000E+01  0.51109989000E-03 0.  1.
     -623   -1    0    0    0    0  0.00000000000E+00  0.00000000000E+00  0.12525980253E-10  0.17130000000E+03  0.17130000000E+03 0. -1.
       11    1    1    2    0    0  0.61659376339E-03  0.98589940577E-02  0.25929187455E+00  0.25948047592E+00  0.51109989000E-03 0.  1.
     -623    1    1    2    0    0  0.32643867503E-01  0.98571754613E-02  0.34008160127E-02  0.17130000343E+03  0.17130000000E+03 0. -1.
      622    1    1    2    0    0 -0.33260461266E-01 -0.19716169519E-01  0.37373072768E+01  0.37405160963E+01  0.15000000000E+00 0.  0.
</event>
<event>
 5   0  0.6780500E+06  0.9118800E+02  0.7818608E-02  0.1180000E+00
       11   -1    0    0    0    0  0.00000000000E+00  0.00000000000E+00  0.39999999673E+01  0.40000000000E+01  0.51109989000E-03 0. -1.
     -623   -1    0    0    0    0  0.00000000000E+00  0.00000000000E+00  0.12525980253E-10  0.17130000000E+03  0.17130000000E+03 0. -1.
       11    1    1    2    0    0 -0.65354725165E-02  0.21832817695E-02  0.50192495701E-02  0.85400942409E-02  0.51109989000E-03 0. -1.
     -623    1    1    2    0    0  0.11091593363E-02 -0.45412268991E-03  0.63445131434E-02  0.17130000012E+03  0.17130000000E+03 0. -1.
      622    1    1    2    0    0  0.54263131801E-02 -0.17291590796E-02  0.39886362047E+01  0.39914597841E+01  0.15000000000E+00 0. -1.
</event>
<event>
 5   0  0.6780500E+06  0.9118800E+02  0.7818608E-02  0.1180000E+00
       11   -1    0    0    0    0  0.00000000000E+00  0.00000000000E+00  0.39999999673E+01  0.40000000000E+01  0.51109989000E-03 0. -1.
     -623   -1    0    0    0    0  0.00000000000E+00  0.00000000000E+00  0.12525980253E-10  0.17130000000E+03  0.17130000000E+03 0. -1.
       11    1    1    2    0    0 -0.22255940880E-01 -0.16489952105E-01  0.10700577207E+01  0.10704162892E+01  0.51109989000E-03 0. -1.
     -623    1    1    2    0    0 -0.12455707493E-01  0.23908357019E-02  0.44416149261E-02  0.17130000053E+03  0.17130000000E+03 0. -1.
      622    1    1    2    0    0  0.34711648373E-01  0.14099116403E-01  0.29255006317E+01  0.29295831836E+01  0.15000000000E+00 0.  0.
</event>
<event>
 5   0  0.6780500E+06  0.9118800E+02  0.7818608E-02  0.1180000E+00
       11   -1    0    0    0    0  0.00000000000E+00  0.00000000000E+00  0.39999999673E+01  0.40000000000E+01  0.51109989000E-03 0. -1.
     -623   -1    0    0    0    0  0.00000000000E+00  0.00000000000E+00  0.12525980253E-10  0.17130000000E+03  0.17130000000E+03 0.  1.
       11    1    1    2    0    0  0.77066008867E-01  0.24241849335E-01  0.82361987908E+00  0.82757283874E+00  0.51109989000E-03 0. -1.
     -623    1    1    2    0    0 -0.86342990016E-02 -0.41802347778E-01  0.82942613539E-02  0.17130000552E+03  0.17130000000E+03 0.  1.
      622    1    1    2    0    0 -0.68431709866E-01  0.17560498444E-01  0.31680858269E+01  0.31724216423E+01  0.15000000000E+00 0.  1.
</event>
<event>
 5   0  0.6780500E+06  0.9118800E+02  0.7818608E-02  0.1180000E+00
       11   -1    0    0    0    0  0.00000000000E+00  0.00000000000E+00  0.39999999673E+01  0.40000000000E+01  0.51109989000E-03 0. -1.
     -623   -1    0    0    0    0  0.00000000000E+00  0.00000000000E+00  0.12525980253E-10  0.17130000000E+03  0.17130000000E+03 0. -1.
       11    1    1    2    0    0  0.19605081576E-01 -0.42401792612E-01  0.34772228575E+00  0.35084657682E+00  0.51109989000E-03 0. -1.
     -623    1    1    2    0    0  0.64751783266E-02  0.81870509347E-02  0.64627292903E-02  0.17130000044E+03  0.17130000000E+03 0. -1.
      622    1    1    2    0    0 -0.26080259902E-01  0.34214741678E-01  0.36458149523E+01  0.36491529832E+01  0.15000000000E+00 0. -1.
</event>
<event>
 5   0  0.6780500E+06  0.9118800E+02  0.7818608E-02  0.1180000E+00
       11   -1    0    0    0    0  0.00000000000E+00  0.00000000000E+00  0.39999999673E+01  0.40000000000E+01  0.51109989000E-03 0.  1.
     -623   -1    0    0    0    0  0.00000000000E+00  0.00000000000E+00  0.12525980253E-10  0.17130000000E+03  0.17130000000E+03 0.  1.
       11    1    1    2    0    0  0.25131793694E-02  0.17846787713E-01  0.16546944575E-01  0.24472157650E-01  0.51109989000E-03 0.  1.
     -623    1    1    2    0    0 -0.12335878061E-01  0.52890974999E-02  0.10836383267E-01  0.17130000087E+03  0.17130000000E+03 0.  1.
      622    1    1    2    0    0  0.98226986921E-02 -0.23135885213E-01  0.39726166396E+01  0.39755269738E+01  0.15000000000E+00 0.  1.
</event>
<event>
 5   0  0.6780500E+06  0.9118800E+02  0.7818608E-02  0.1180000E+00
       11   -1    0    0    0    0  0.00000000000E+00  0.00000000000E+00  0.39999999673E+01  0.40000000000E+01  0.51109989000E-03 0. -1.
     -623   -1    0    0    0    0  0.00000000000E+00  0.00000000000E+00  0.12525980253E-10  0.17130000000E+03  0.17130000000E+03 0. -1.
       11    1    1    2    0    0 -0.57588384724E-02  0.45739581882E-02  0.52461690480E-01  0.52977122470E-01  0.51109989000E-03 0. -1.
     -623    1    1    2    0    0  0.46470918810E-02 -0.17586520910E-02  0.33679454162E-02  0.17130000011E+03  0.17130000000E+03 0. -1.
      622    1    1    2    0    0  0.11117465913E-02 -0.28153060972E-02  0.39441703315E+01  0.39470227724E+01  0.15000000000E+00 0. -1.
</event>
<event>
 5   0  0.6780500E+06  0.9118800E+02  0.7818608E-02  0.1180000E+00
       11   -1    0    0    0    0  0.00000000000E+00  0.00000000000E+00  0.39999999673E+01  0.40000000000E+01  0.51109989000E-03 0. -1.
     -623   -1    0    0    0    0  0.00000000000E+00  0.00000000000E+00  0.12525980253E-10  0.17130000000E+03  0.17130000000E+03 0. -1.
       11    1    1    2    0    0 -0.31834924161E-01 -0.57373733967E-02  0.42942236755E+00  0.43063930478E+00  0.51109989000E-03 0. -1.
     -623    1    1    2    0    0 -0.45355963583E-02  0.18356137809E-01  0.45790246446E-02  0.17130000110E+03  0.17130000000E+03 0. -1.
      622    1    1    2    0    0  0.36370520520E-01 -0.12618764413E-01  0.35659985752E+01  0.35693595905E+01  0.15000000000E+00 0. -1.
</event>
<event>
 5   0  0.6780500E+06  0.9118800E+02  0.7818608E-02  0.1180000E+00
       11   -1    0    0    0    0  0.00000000000E+00  0.00000000000E+00  0.39999999673E+01  0.40000000000E+01  0.51109989000E-03 0.  1.
     -623   -1    0    0    0    0  0.00000000000E+00  0.00000000000E+00  0.12525980253E-10  0.17130000000E+03  0.17130000000E+03 0.  1.
       11    1    1    2    0    0  0.57201997251E-02  0.20069380471E-02  0.66084727454E-02  0.89822948261E-02  0.51109989000E-03 0.  1.
     -623    1    1    2    0    0  0.97284940734E-03 -0.49942429676E-02  0.52005051014E-02  0.17130000015E+03  0.17130000000E+03 0.  1.
      622    1    1    2    0    0 -0.66930491324E-02  0.29873049206E-02  0.39881909896E+01  0.39910175507E+01  0.15000000000E+00 0.  1.
</event>
<event>
 5   0  0.6780500E+06  0.9118800E+02  0.7818608E-02  0.1180000E+00
       11   -1    0    0    0    0  0.00000000000E+00  0.00000000000E+00  0.39999999673E+01  0.40000000000E+01  0.51109989000E-03 0. -1.
     -623   -1    0    0    0    0  0.00000000000E+00  0.00000000000E+00  0.12525980253E-10  0.17130000000E+03  0.17130000000E+03 0. -1.
       11    1    1    2    0    0  0.42241758650E-02  0.32842088030E-01  0.23728033047E-01  0.40739749413E-01  0.51109989000E-03 0. -1.
     -623    1    1    2    0    0  0.22476414251E-02 -0.22822008458E-01  0.19874815647E-01  0.17130000269E+03  0.17130000000E+03 0. -1.
      622    1    1    2    0    0 -0.64718172902E-02 -0.10020079572E-01  0.39563971187E+01  0.39592575626E+01  0.15000000000E+00 0. -1.
</event>
<event>
 5   0  0.6780500E+06  0.9118800E+02  0.7818608E-02  0.1180000E+00
       11   -1    0    0    0    0  0.00000000000E+00  0.00000000000E+00  0.39999999673E+01  0.40000000000E+01  0.51109989000E-03 0. -1.
     -623   -1    0    0    0    0  0.00000000000E+00  0.00000000000E+00  0.12525980253E-10  0.17130000000E+03  0.17130000000E+03 0. -1.
       11    1    1    2    0    0  0.45194788056E-01  0.16155296293E-01  0.56536783049E+00  0.56740162799E+00  0.51109989000E-03 0. -1.
     -623    1    1    2    0    0  0.41257171555E-01 -0.21191261433E-01  0.64127229529E-02  0.17130000640E+03  0.17130000000E+03 0. -1.
      622    1    1    2    0    0 -0.86451959611E-01  0.50359651406E-02  0.34282194139E+01  0.34325919729E+01  0.15000000000E+00 0. -1.
</event>
<event>
 5   0  0.6780500E+06  0.9118800E+02  0.7818608E-02  0.1180000E+00
       11   -1    0    0    0    0  0.00000000000E+00  0.00000000000E+00  0.39999999673E+01  0.40000000000E+01  0.51109989000E-03 0. -1.
     -623   -1    0    0    0    0  0.00000000000E+00  0.00000000000E+00  0.12525980253E-10  0.17130000000E+03  0.17130000000E+03 0. -1.
       11    1    1    2    0    0 -0.27924680703E-02 -0.10952574766E-02  0.11350341674E-02  0.32476133579E-02  0.51109989000E-03 0. -1.
     -623    1    1    2    0    0  0.39678000325E-02  0.11751683725E-02  0.49286184736E-02  0.17130000012E+03  0.17130000000E+03 0. -1.
      622    1    1    2    0    0 -0.11753319622E-02 -0.79910895862E-04  0.39939363147E+01  0.39967522657E+01  0.15000000000E+00 0. -1.
</event>
<event>
 5   0  0.6780500E+06  0.9118800E+02  0.7818608E-02  0.1180000E+00
       11   -1    0    0    0    0  0.00000000000E+00  0.00000000000E+00  0.39999999673E+01  0.40000000000E+01  0.51109989000E-03 0.  1.
     -623   -1    0    0    0    0  0.00000000000E+00  0.00000000000E+00  0.12525980253E-10  0.17130000000E+03  0.17130000000E+03 0.  1.
       11    1    1    2    0    0 -0.88347425065E-02 -0.12623482980E-02  0.86086549396E-02  0.12410332777E-01  0.51109989000E-03 0.  1.
     -623    1    1    2    0    0  0.79812740371E-02  0.11324776544E-01  0.66373828249E-02  0.17130000069E+03  0.17130000000E+03 0.  1.
      622    1    1    2    0    0  0.85346846947E-03 -0.10062428246E-01  0.39847539296E+01  0.39875889784E+01  0.15000000000E+00 0.  1.
</event>
<event>
 5   0  0.6780500E+06  0.9118800E+02  0.7818608E-02  0.1180000E+00
       11   -1    0    0    0    0  0.00000000000E+00  0.00000000000E+00  0.39999999673E+01  0.40000000000E+01  0.51109989000E-03 0. -1.
     -623   -1    0    0    0    0  0.00000000000E+00  0.00000000000E+00  0.12525980253E-10  0.17130000000E+03  0.17130000000E+03 0. -1.
       11    1    1    2    0    0 -0.69925040183E-02 -0.29962803432E-01  0.87416080910E-01  0.92674144867E-01  0.51109989000E-03 0. -1.
     -623    1    1    2    0    0  0.62136573691E-01 -0.26701656170E-01  0.89525705931E-02  0.17130001358E+03  0.17130000000E+03 0. -1.
      622    1    1    2    0    0 -0.55144069673E-01  0.56664459602E-01  0.39036313159E+01  0.39073122706E+01  0.15000000000E+00 0. -1.
</event>
<event>
 5   0  0.6780500E+06  0.9118800E+02  0.7818608E-02  0.1180000E+00
       11   -1    0    0    0    0  0.00000000000E+00  0.00000000000E+00  0.39999999673E+01  0.40000000000E+01  0.51109989000E-03 0. -1.
     -623   -1    0    0    0    0  0.00000000000E+00  0.00000000000E+00  0.12525980253E-10  0.17130000000E+03  0.17130000000E+03 0. -1.
       11    1    1    2    0    0  0.82591384946E-02  0.12780301334E-02  0.13790083083E+00  0.13815479396E+00  0.51109989000E-03 0. -1.
     -623    1    1    2    0    0 -0.37571421653E-02 -0.40752988797E-02  0.31719043583E-02  0.17130000012E+03  0.17130000000E+03 0. -1.
      622    1    1    2    0    0 -0.45019963291E-02  0.27972687465E-02  0.38589272324E+01  0.38618450872E+01  0.15000000000E+00 0. -1.
</event>
<event>
 5   0  0.6780500E+06  0.9118800E+02  0.7818608E-02  0.1180000E+00
       11   -1    0    0    0    0  0.00000000000E+00  0.00000000000E+00  0.39999999673E+01  0.40000000000E+01  0.51109989000E-03 0. -1.
     -623   -1    0    0    0    0  0.00000000000E+00  0.00000000000E+00  0.12525980253E-10  0.17130000000E+03  0.17130000000E+03 0. -1.
       11    1    1    2    0    0 -0.30801137088E-02  0.19879311932E-01  0.66827438234E+00  0.66857728458E+00  0.51109989000E-03 0. -1.
     -623    1    1    2    0    0 -0.34009758666E-01  0.13179740711E-01  0.40563471951E-02  0.17130000393E+03  0.17130000000E+03 0. -1.
      622    1    1    2    0    0  0.37089872375E-01 -0.33059052643E-01  0.33276692378E+01  0.33314187842E+01  0.15000000000E+00 0.  0.
</event>
<event>
 5   0  0.6780500E+06  0.9118800E+02  0.7818608E-02  0.1180000E+00
       11   -1    0    0    0    0  0.00000000000E+00  0.00000000000E+00  0.39999999673E+01  0.40000000000E+01  0.51109989000E-03 0. -1.
     -623   -1    0    0    0    0  0.00000000000E+00  0.00000000000E+00  0.12525980253E-10  0.17130000000E+03  0.17130000000E+03 0. -1.
       11    1    1    2    0    0  0.38529563538E-01  0.31407882591E-01  0.58210982443E+00  0.58422862929E+00  0.51109989000E-03 0. -1.
     -623    1    1    2    0    0  0.16440631016E-01 -0.84838996262E-02  0.59347946875E-02  0.17130000110E+03  0.17130000000E+03 0. -1.
      622    1    1    2    0    0 -0.54970194554E-01 -0.22923982965E-01  0.34119553483E+01  0.34157702689E+01  0.15000000000E+00 0. -1.
</event>
<event>
 5   0  0.6780500E+06  0.9118800E+02  0.7818608E-02  0.1180000E+00
       11   -1    0    0    0    0  0.00000000000E+00  0.00000000000E+00  0.39999999673E+01  0.40000000000E+01  0.51109989000E-03 0.  1.
     -623   -1    0    0    0    0  0.00000000000E+00  0.00000000000E+00  0.12525980253E-10  0.17130000000E+03  0.17130000000E+03 0.  1.
       11    1    1    2    0    0 -0.25286023044E-02  0.38536579509E-02  0.19503569626E-03  0.46415267867E-02  0.51109989000E-03 0.  1.
     -623    1    1    2    0    0  0.14990508918E-01 -0.15020090239E-01  0.72997538086E-02  0.17130000147E+03  0.17130000000E+03 0.  1.
      622    1    1    2    0    0 -0.12461906614E-01  0.11166432288E-01  0.39925051779E+01  0.39953570033E+01  0.15000000000E+00 0.  1.
</event>
<event>
 5   0  0.6780500E+06  0.9118800E+02  0.7818608E-02  0.1180000E+00
       11   -1    0    0    0    0  0.00000000000E+00  0.00000000000E+00  0.39999999673E+01  0.40000000000E+01  0.51109989000E-03 0. -1.
     -623   -1    0    0    0    0  0.00000000000E+00  0.00000000000E+00  0.12525980253E-10  0.17130000000E+03  0.17130000000E+03 0.  1.
       11    1    1    2    0    0 -0.46481223642E-02  0.36421099554E-01  0.18314742325E+00  0.18679224128E+00  0.51109989000E-03 0. -1.
     -623    1    1    2    0    0  0.25151417096E-01 -0.44291904830E-01  0.66672027615E-02  0.17130000770E+03  0.17130000000E+03 0.  1.
      622    1    1    2    0    0 -0.20503294732E-01  0.78708052763E-02  0.38101853414E+01  0.38132000565E+01  0.15000000000E+00 0. -1.
</event>
<event>
 5   0  0.6780500E+06  0.9118800E+02  0.7818608E-02  0.1180000E+00
       11   -1    0    0    0    0  0.00000000000E+00  0.00000000000E+00  0.39999999673E+01  0.40000000000E+01  0.51109989000E-03 0.  1.
     -623   -1    0    0    0    0  0.00000000000E+00  0.00000000000E+00  0.12525980253E-10  0.17130000000E+03  0.17130000000E+03 0.  1.
       11    1    1    2    0    0  0.14300085319E-01  0.20470238121E-02  0.45405532955E-01  0.47650880263E-01  0.51109989000E-03 0.  1.
     -623    1    1    2    0    0 -0.17409408843E-03 -0.12296397038E-01  0.51318286753E-02  0.17130000052E+03  0.17130000000E+03 0.  1.
      622    1    1    2    0    0 -0.14125991230E-01  0.10249373226E-01  0.39494626057E+01  0.39523486014E+01  0.15000000000E+00 0.  1.
</event>
<event>
 5   0  0.6780500E+06  0.9118800E+02  0.7818608E-02  0.1180000E+00
       11   -1    0    0    0    0  0.00000000000E+00  0.00000000000E+00  0.39999999673E+01  0.40000000000E+01  0.51109989000E-03 0.  1.
     -623   -1    0    0    0    0  0.00000000000E+00  0.00000000000E+00  0.12525980253E-10  0.17130000000E+03  0.17130000000E+03 0.  1.
       11    1    1    2    0    0  0.11092506409E+00 -0.77958760408E-01  0.39142214851E+00  0.41423845516E+00  0.51109989000E-03 0.  1.
     -623    1    1    2    0    0  0.50243316222E-01  0.70227353302E-01  0.29614785031E-01  0.17130002432E+03  0.17130000000E+03 0.  1.
      622    1    1    2    0    0 -0.16116838031E+00  0.77314071055E-02  0.35789630338E+01  0.35857372211E+01  0.15000000000E+00 0.  1.
</event>
<event>
 5   0  0.6780500E+06  0.9118800E+02  0.7818608E-02  0.1180000E+00
       11   -1    0    0    0    0  0.00000000000E+00  0.00000000000E+00  0.39999999673E+01  0.40000000000E+01  0.51109989000E-03 0. -1.
     -623   -1    0    0    0    0  0.00000000000E+00  0.00000000000E+00  0.12525980253E-10  0.17130000000E+03  0.17130000000E+03 0.  1.
       11    1    1    2    0    0 -0.49480872413E-01 -0.70840028108E-01  0.18067261498E+00  0.20027361619E+00  0.51109989000E-03 0. -1.
     -623    1    1    2    0    0  0.81434175911E-01  0.33962890541E-02  0.23317406917E-01  0.17130002098E+03  0.17130000000E+03 0.  1.
      622    1    1    2    0    0 -0.31953303497E-01  0.67443739054E-01  0.37960099455E+01  0.37997054067E+01  0.15000000000E+00 0. -1.
</event>
<event>
 5   0  0.6780500E+06  0.9118800E+02  0.7818608E-02  0.1180000E+00
       11   -1    0    0    0    0  0.00000000000E+00  0.00000000000E+00  0.39999999673E+01  0.40000000000E+01  0.51109989000E-03 0.  1.
     -623   -1    0    0    0    0  0.00000000000E+00  0.00000000000E+00  0.12525980253E-10  0.17130000000E+03  0.17130000000E+03 0.  1.
       11    1    1    2    0    0 -0.17597509306E-01 -0.30026248971E-01  0.42703679562E+00  0.42845295424E+00  0.51109989000E-03 0.  1.
     -623    1    1    2    0    0  0.20248108204E-01 -0.11430957399E-01  0.48108740548E-02  0.17130000165E+03  0.17130000000E+03 0.  1.
      622    1    1    2    0    0 -0.26505988985E-02  0.41457206370E-01  0.35681522977E+01  0.35715454001E+01  0.15000000000E+00 0.  0.
</event>
<event>
 5   0  0.6780500E+06  0.9118800E+02  0.7818608E-02  0.1180000E+00
       11   -1    0    0    0    0  0.00000000000E+00  0.00000000000E+00  0.39999999673E+01  0.40000000000E+01  0.51109989000E-03 0. -1.
     -623   -1    0    0    0    0  0.00000000000E+00  0.00000000000E+00  0.12525980253E-10  0.17130000000E+03  0.17130000000E+03 0.  1.
       11    1    1    2    0    0  0.33003019737E-02 -0.34323760903E-02  0.44104991350E-01  0.44364227499E-01  0.51109989000E-03 0. -1.
     -623    1    1    2    0    0  0.37857786772E-02  0.21135127684E-01  0.31516388545E-02  0.17130000137E+03  0.17130000000E+03 0.  1.
      622    1    1    2    0    0 -0.70860806509E-02 -0.17702751594E-01  0.39527433372E+01  0.39556343978E+01  0.15000000000E+00 0. -1.
</event>
<event>
 5   0  0.6780500E+06  0.9118800E+02  0.7818608E-02  0.1180000E+00
       11   -1    0    0    0    0  0.00000000000E+00  0.00000000000E+00  0.39999999673E+01  0.40000000000E+01  0.51109989000E-03 0. -1.
     -623   -1    0    0    0    0  0.00000000000E+00  0.00000000000E+00  0.12525980253E-10  0.17130000000E+03  0.17130000000E+03 0. -1.
       11    1    1    2    0    0 -0.12058452932E-02  0.15613846585E-02  0.58907095455E-02  0.62332708478E-02  0.51109989000E-03 0. -1.
     -623    1    1    2    0    0 -0.18228765300E-02 -0.74370096549E-02  0.31660873246E-02  0.17130000020E+03  0.17130000000E+03 0. -1.
      622    1    1    2    0    0  0.30287218232E-02  0.58756249965E-02  0.39909431705E+01  0.39937665288E+01  0.15000000000E+00 0. -1.
</event>
<event>
 5   0  0.6780500E+06  0.9118800E+02  0.7818608E-02  0.1180000E+00
       11   -1    0    0    0    0  0.00000000000E+00  0.00000000000E+00  0.39999999673E+01  0.40000000000E+01  0.51109989000E-03 0. -1.
     -623   -1    0    0    0    0  0.00000000000E+00  0.00000000000E+00  0.12525980253E-10  0.17130000000E+03  0.17130000000E+03 0. -1.
       11    1    1    2    0    0 -0.21009320862E-01  0.15510702564E-01  0.97884814518E-01  0.10130978034E+00  0.51109989000E-03 0. -1.
     -623    1    1    2    0    0 -0.13732846574E-01  0.34392054973E-02  0.65133014366E-02  0.17130000071E+03  0.17130000000E+03 0. -1.
      622    1    1    2    0    0  0.34742167436E-01 -0.18949908061E-01  0.38956018514E+01  0.38986895108E+01  0.15000000000E+00 0. -1.
</event>
<event>
 5   0  0.6780500E+06  0.9118800E+02  0.7818608E-02  0.1180000E+00
       11   -1    0    0    0    0  0.00000000000E+00  0.00000000000E+00  0.39999999673E+01  0.40000000000E+01  0.51109989000E-03 0.  1.
     -623   -1    0    0    0    0  0.00000000000E+00  0.00000000000E+00  0.12525980253E-10  0.17130000000E+03  0.17130000000E+03 0.  1.
       11    1    1    2    0    0  0.97324240122E-02 -0.55720671266E-02  0.18755614004E-01  0.21858689034E-01  0.51109989000E-03 0.  1.
     -623    1    1    2    0    0 -0.10068027240E-01 -0.47564524540E-02  0.59458993252E-02  0.17130000047E+03  0.17130000000E+03 0.  1.
      622    1    1    2    0    0  0.33560322797E-03  0.10328519581E-01  0.39752984540E+01  0.39781408459E+01  0.15000000000E+00 0.  1.
</event>
<event>
 5   0  0.6780500E+06  0.9118800E+02  0.7818608E-02  0.1180000E+00
       11   -1    0    0    0    0  0.00000000000E+00  0.00000000000E+00  0.39999999673E+01  0.40000000000E+01  0.51109989000E-03 0. -1.
     -623   -1    0    0    0    0  0.00000000000E+00  0.00000000000E+00  0.12525980253E-10  0.17130000000E+03  0.17130000000E+03 0. -1.
       11    1    1    2    0    0  0.20926187985E-01 -0.29964207124E-01  0.44930172676E+00  0.45078604897E+00  0.51109989000E-03 0. -1.
     -623    1    1    2    0    0  0.28105434087E-01  0.15262863561E-01  0.50279621050E-02  0.17130000306E+03  0.17130000000E+03 0. -1.
      622    1    1    2    0    0 -0.49031622073E-01  0.14701343563E-01  0.35456702786E+01  0.35492108917E+01  0.15000000000E+00 0. -1.
</event>
<event>
 5   0  0.6780500E+06  0.9118800E+02  0.7818608E-02  0.1180000E+00
       11   -1    0    0    0    0  0.00000000000E+00  0.00000000000E+00  0.39999999673E+01  0.40000000000E+01  0.51109989000E-03 0. -1.
     -623   -1    0    0    0    0  0.00000000000E+00  0.00000000000E+00  0.12525980253E-10  0.17130000000E+03  0.17130000000E+03 0. -1.
       11    1    1    2    0    0 -0.15171096753E+00 -0.45160203076E-01  0.20207816996E+00  0.25669341559E+00  0.51109989000E-03 0. -1.
     -623    1    1    2    0    0  0.11409329238E+00  0.18217383366E-01  0.57956814923E-01  0.17130004877E+03  0.17130000000E+03 0. -1.
      622    1    1    2    0    0  0.37617675148E-01  0.26942819709E-01  0.37399649825E+01  0.37432578157E+01  0.15000000000E+00 0.  0.
</event>
<event>
 5   0  0.6780500E+06  0.9118800E+02  0.7818608E-02  0.1180000E+00
       11   -1    0    0    0    0  0.00000000000E+00  0.00000000000E+00  0.39999999673E+01  0.40000000000E+01  0.51109989000E-03 0. -1.
     -623   -1    0    0    0    0  0.00000000000E+00  0.00000000000E+00  0.12525980253E-10  0.17130000000E+03  0.17130000000E+03 0.  1.
       11    1    1    2    0    0  0.29363482201E-01  0.36429193101E-01 -0.29161170521E-02  0.46883527557E-01  0.51109989000E-03 0. -1.
     -623    1    1    2    0    0 -0.44075917369E-01 -0.35264541445E-01  0.52691479218E-01  0.17130001740E+03  0.17130000000E+03 0.  1.
      622    1    1    2    0    0  0.14712435168E-01 -0.11646516563E-02  0.39502246052E+01  0.39530990683E+01  0.15000000000E+00 0. -1.
</event>
<event>
 5   0  0.6780500E+06  0.9118800E+02  0.7818608E-02  0.1180000E+00
       11   -1    0    0    0    0  0.00000000000E+00  0.00000000000E+00  0.39999999673E+01  0.40000000000E+01  0.51109989000E-03 0. -1.
     -623   -1    0    0    0    0  0.00000000000E+00  0.00000000000E+00  0.12525980253E-10  0.17130000000E+03  0.17130000000E+03 0. -1.
       11    1    1    2    0    0 -0.14034277711E-02  0.63602327498E-02  0.97778781873E-02  0.11759689413E-01  0.51109989000E-03 0. -1.
     -623    1    1    2    0    0  0.14340360992E-01  0.40623351549E-02  0.48389126674E-02  0.17130000072E+03  0.17130000000E+03 0. -1.
      622    1    1    2    0    0 -0.12936933221E-01 -0.10422567905E-01  0.39853831765E+01  0.39882395938E+01  0.15000000000E+00 0. -1.
</event>
<event>
 5   0  0.6780500E+06  0.9118800E+02  0.7818608E-02  0.1180000E+00
       11   -1    0    0    0    0  0.00000000000E+00  0.00000000000E+00  0.39999999673E+01  0.40000000000E+01  0.51109989000E-03 0.  1.
     -623   -1    0    0    0    0  0.00000000000E+00  0.00000000000E+00  0.12525980253E-10  0.17130000000E+03  0.17130000000E+03 0.  1.
       11    1    1    2    0    0 -0.48332202528E-02  0.78700144242E-02  0.47501037425E-01  0.48393252868E-01  0.51109989000E-03 0.  1.
     -623    1    1    2    0    0  0.73229098117E-02  0.19097473115E-02  0.37532562370E-02  0.17130000021E+03  0.17130000000E+03 0.  1.
      622    1    1    2    0    0 -0.24896895589E-02 -0.97797617357E-02  0.39487456737E+01  0.39516065388E+01  0.15000000000E+00 0.  1.
</event>
<event>
 5   0  0.6780500E+06  0.9118800E+02  0.7818608E-02  0.1180000E+00
       11   -1    0    0    0    0  0.00000000000E+00  0.00000000000E+00  0.39999999673E+01  0.40000000000E+01  0.51109989000E-03 0. -1.
     -623   -1    0    0    0    0  0.00000000000E+00  0.00000000000E+00  0.12525980253E-10  0.17130000000E+03  0.17130000000E+03 0.  1.
       11    1    1    2    0    0  0.29057599565E-01 -0.49397818861E-01  0.69279540219E+00  0.69516200926E+00  0.51109989000E-03 0. -1.
     -623    1    1    2    0    0 -0.90037275309E-03  0.69622821222E-02  0.61655080503E-02  0.17130000025E+03  0.17130000000E+03 0.  1.
      622    1    1    2    0    0 -0.28157226812E-01  0.42435536739E-01  0.33010390571E+01  0.33048377359E+01  0.15000000000E+00 0. -1.
</event>
<event>
 5   0  0.6780500E+06  0.9118800E+02  0.7818608E-02  0.1180000E+00
       11   -1    0    0    0    0  0.00000000000E+00  0.00000000000E+00  0.39999999673E+01  0.40000000000E+01  0.51109989000E-03 0.  1.
     -623   -1    0    0    0    0  0.00000000000E+00  0.00000000000E+00  0.12525980253E-10  0.17130000000E+03  0.17130000000E+03 0.  1.
       11    1    1    2    0    0 -0.22553407910E-02  0.36326490772E-02  0.33279132500E-01  0.33556587775E-01  0.51109989000E-03 0.  1.
     -623    1    1    2    0    0  0.12890669033E-01 -0.51330592058E-02  0.31298750881E-02  0.17130000059E+03  0.17130000000E+03 0.  1.
      622    1    1    2    0    0 -0.10635328242E-01  0.15004101286E-02  0.39635909598E+01  0.39664428217E+01  0.15000000000E+00 0.  1.
</event>
<event>
 5   0  0.6780500E+06  0.9118800E+02  0.7818608E-02  0.1180000E+00
       11   -1    0    0    0    0  0.00000000000E+00  0.00000000000E+00  0.39999999673E+01  0.40000000000E+01  0.51109989000E-03 0.  1.
     -623   -1    0    0    0    0  0.00000000000E+00  0.00000000000E+00  0.12525980253E-10  0.17130000000E+03  0.17130000000E+03 0.  1.
       11    1    1    2    0    0 -0.27987072961E-02 -0.34130438625E-02  0.89637229501E-03  0.45328067823E-02  0.51109989000E-03 0.  1.
     -623    1    1    2    0    0 -0.14515507039E-01 -0.17546918493E-01  0.65472843405E-02  0.17130000164E+03  0.17130000000E+03 0.  1.
      622    1    1    2    0    0  0.17314214336E-01  0.20959962356E-01  0.39925563108E+01  0.39954655545E+01  0.15000000000E+00 0.  1.
</event>
<event>
 5   0  0.6780500E+06  0.9118800E+02  0.7818608E-02  0.1180000E+00
       11   -1    0    0    0    0  0.00000000000E+00  0.00000000000E+00  0.39999999673E+01  0.40000000000E+01  0.51109989000E-03 0.  1.
     -623   -1    0    0    0    0  0.00000000000E+00  0.00000000000E+00  0.12525980253E-10  0.17130000000E+03  0.17130000000E+03 0. -1.
       11    1    1    2    0    0 -0.56576120685E-02 -0.63320976619E-02  0.46290536208E-01  0.47065688122E-01  0.51109989000E-03 0.  1.
     -623    1    1    2    0    0 -0.20541460725E-01  0.64800052677E-02  0.37104138015E-02  0.17130000139E+03  0.17130000000E+03 0. -1.
      622    1    1    2    0    0  0.26199072794E-01 -0.14790760579E-03  0.39499990174E+01  0.39529329175E+01  0.15000000000E+00 0.  1.
</event>
<event>
 5   0  0.6780500E+06  0.9118800E+02  0.7818608E-02  0.1180000E+00
       11   -1    0    0    0    0  0.00000000000E+00  0.00000000000E+00  0.39999999673E+01  0.40000000000E+01  0.51109989000E-03 0.  1.
     -623   -1    0    0    0    0  0.00000000000E+00  0.00000000000E+00  0.12525980253E-10  0.17130000000E+03  0.17130000000E+03 0.  1.
       11    1    1    2    0    0 -0.33671202245E-01 -0.60303768503E-02  0.15239107636E+00  0.15618391941E+00  0.51109989000E-03 0.  1.
     -623    1    1    2    0    0  0.55913748283E-01 -0.18606084220E-01  0.68744046621E-02  0.17130001027E+03  0.17130000000E+03 0.  1.
      622    1    1    2    0    0 -0.22242546038E-01  0.24636461070E-01  0.38407344863E+01  0.38438058068E+01  0.15000000000E+00 0.  1.
</event>
<event>
 5   0  0.6780500E+06  0.9118800E+02  0.7818608E-02  0.1180000E+00
       11   -1    0    0    0    0  0.00000000000E+00  0.00000000000E+00  0.39999999673E+01  0.40000000000E+01  0.51109989000E-03 0.  1.
     -623   -1    0    0    0    0  0.00000000000E+00  0.00000000000E+00  0.12525980253E-10  0.17130000000E+03  0.17130000000E+03 0.  1.
       11    1    1    2    0    0  0.24627272524E-02  0.42472693216E-02  0.73686198089E-01  0.73851346177E-01  0.51109989000E-03 0.  1.
     -623    1    1    2    0    0 -0.15005475185E-01 -0.17486550283E-02  0.30531044807E-02  0.17130000069E+03  0.17130000000E+03 0.  1.
      622    1    1    2    0    0  0.12542747932E-01 -0.24986142933E-02  0.39232606648E+01  0.39261479605E+01  0.15000000000E+00 0.  1.
</event>
<event>
 5   0  0.6780500E+06  0.9118800E+02  0.7818608E-02  0.1180000E+00
       11   -1    0    0    0    0  0.00000000000E+00  0.00000000000E+00  0.39999999673E+01  0.40000000000E+01  0.51109989000E-03 0. -1.
     -623   -1    0    0    0    0  0.00000000000E+00  0.00000000000E+00  0.12525980253E-10  0.17130000000E+03  0.17130000000E+03 0. -1.
       11    1    1    2    0    0 -0.74718320067E-03 -0.55781967749E-02 -0.14017237781E-02  0.58224233974E-02  0.51109989000E-03 0. -1.
     -623    1    1    2    0    0  0.67681472205E-02  0.21688970347E-02  0.10048148024E-01  0.17130000044E+03  0.17130000000E+03 0. -1.
      622    1    1    2    0    0 -0.60209640198E-02  0.34092997402E-02  0.39913535431E+01  0.39941771345E+01  0.15000000000E+00 0. -1.
</event>
<event>
 5   0  0.6780500E+06  0.9118800E+02  0.7818608E-02  0.1180000E+00
       11   -1    0    0    0    0  0.00000000000E+00  0.00000000000E+00  0.39999999673E+01  0.40000000000E+01  0.51109989000E-03 0. -1.
     -623   -1    0    0    0    0  0.00000000000E+00  0.00000000000E+00  0.12525980253E-10  0.17130000000E+03  0.17130000000E+03 0.  1.
       11    1    1    2    0    0 -0.16225970665E-01 -0.74326483882E-02  0.50595073493E+00  0.50626567510E+00  0.51109989000E-03 0. -1.
     -623    1    1    2    0    0 -0.26759841492E-01 -0.20836266352E-01  0.39190273297E-02  0.17130000340E+03  0.17130000000E+03 0.  1.
      622    1    1    2    0    0  0.42985812157E-01  0.28268914740E-01  0.34901302052E+01  0.34937309227E+01  0.15000000000E+00 0.  0.
</event>
<event>
 5   0  0.6780500E+06  0.9118800E+02  0.7818608E-02  0.1180000E+00
       11   -1    0    0    0    0  0.00000000000E+00  0.00000000000E+00  0.39999999673E+01  0.40000000000E+01  0.51109989000E-03 0. -1.
     -623   -1    0    0    0    0  0.00000000000E+00  0.00000000000E+00  0.12525980253E-10  0.17130000000E+03  0.17130000000E+03 0.  1.
       11    1    1    2    0    0 -0.36170269121E-02 -0.24728343466E-01  0.41140751835E+00  0.41216620584E+00  0.51109989000E-03 0. -1.
     -623    1    1    2    0    0 -0.11697358740E-01  0.50705160382E-02  0.39827579254E-02  0.17130000052E+03  0.17130000000E+03 0.  1.
      622    1    1    2    0    0  0.15314385652E-01  0.19657827428E-01  0.35846096911E+01  0.35878332734E+01  0.15000000000E+00 0. -1.
</event>
<event>
 5   0  0.6780500E+06  0.9118800E+02  0.7818608E-02  0.1180000E+00
       11   -1    0    0    0    0  0.00000000000E+00  0.00000000000E+00  0.39999999673E+01  0.40000000000E+01  0.51109989000E-03 0.  1.
     -623   -1    0    0    0    0  0.00000000000E+00  0.00000000000E+00  0.12525980253E-10  0.17130000000E+03  0.17130000000E+03 0. -1.
       11    1    1    2    0    0  0.71277288720E-04 -0.42077551234E-02  0.10351482004E+01  0.10351568810E+01  0.51109989000E-03 0.  1.
     -623    1    1    2    0    0  0.58179626914E-02  0.68637652188E-03  0.38136396711E-02  0.17130000014E+03  0.17130000000E+03 0. -1.
      622    1    1    2    0    0 -0.58892399801E-02  0.35213786015E-02  0.29610381273E+01  0.29648429764E+01  0.15000000000E+00 0.  1.
</event>
<event>
 5   0  0.6780500E+06  0.9118800E+02  0.7818608E-02  0.1180000E+00
       11   -1    0    0    0    0  0.00000000000E+00  0.00000000000E+00  0.39999999673E+01  0.40000000000E+01  0.51109989000E-03 0.  1.
     -623   -1    0    0    0    0  0.00000000000E+00  0.00000000000E+00  0.12525980253E-10  0.17130000000E+03  0.17130000000E+03 0.  1.
       11    1    1    2    0    0  0.21336511591E-01  0.75052337208E-02  0.32126706785E+00  0.32206267304E+00  0.51109989000E-03 0.  1.
     -623    1    1    2    0    0 -0.99575847831E-02  0.65082862222E-02  0.39004193402E-02  0.17130000046E+03  0.17130000000E+03 0.  1.
      622    1    1    2    0    0 -0.11378926808E-01 -0.14013519943E-01  0.36748324802E+01  0.36779368695E+01  0.15000000000E+00 0.  1.
</event>
<event>
 5   0  0.6780500E+06  0.9118800E+02  0.7818608E-02  0.1180000E+00
       11   -1    0    0    0    0  0.00000000000E+00  0.00000000000E+00  0.39999999673E+01  0.40000000000E+01  0.51109989000E-03 0.  1.
     -623   -1    0    0    0    0  0.00000000000E+00  0.00000000000E+00  0.12525980253E-10  0.17130000000E+03  0.17130000000E+03 0. -1.
       11    1    1    2    0    0  0.14871532526E-01  0.44739546342E-01  0.30439773312E+00  0.30802764590E+00  0.51109989000E-03 0.  1.
     -623    1    1    2    0    0 -0.20273535048E-02 -0.46416695248E-02  0.69188016149E-02  0.17130000021E+03  0.17130000000E+03 0. -1.
      622    1    1    2    0    0 -0.12844179021E-01 -0.40097876817E-01  0.36886834326E+01  0.36919721395E+01  0.15000000000E+00 0.  0.
</event>
<event>
 5   0  0.6780500E+06  0.9118800E+02  0.7818608E-02  0.1180000E+00
       11   -1    0    0    0    0  0.00000000000E+00  0.00000000000E+00  0.39999999673E+01  0.40000000000E+01  0.51109989000E-03 0.  1.
     -623   -1    0    0    0    0  0.00000000000E+00  0.00000000000E+00  0.12525980253E-10  0.17130000000E+03  0.17130000000E+03 0.  1.
       11    1    1    2    0    0 -0.18081811890E-01  0.18020491258E-01  0.53154668605E+00  0.53215959138E+00  0.51109989000E-03 0.  1.
     -623    1    1    2    0    0  0.32573244458E-01 -0.40945173145E-02  0.39199743076E-02  0.17130000319E+03  0.17130000000E+03 0.  1.
      622    1    1    2    0    0 -0.14491432567E-01 -0.13925973944E-01  0.34645333069E+01  0.34678372178E+01  0.15000000000E+00 0.  1.
</event>
<event>
 5   0  0.6780500E+06  0.9118800E+02  0.7818608E-02  0.1180000E+00
       11   -1    0    0    0    0  0.00000000000E+00  0.00000000000E+00  0.39999999673E+01  0.40000000000E+01  0.51109989000E-03 0. -1.
     -623   -1    0    0    0    0  0.00000000000E+00  0.00000000000E+00  0.12525980253E-10  0.17130000000E+03  0.17130000000E+03 0. -1.
       11    1    1    2    0    0  0.15843320046E-03 -0.57685898634E-02  0.12631613045E-02  0.59294628483E-02  0.51109989000E-03 0. -1.
     -623    1    1    2    0    0 -0.95363704856E-02 -0.15710618993E-01  0.75539052432E-02  0.17130000115E+03  0.17130000000E+03 0. -1.
      622    1    1    2    0    0  0.93779372850E-02  0.21479208856E-01  0.39911829008E+01  0.39940693847E+01  0.15000000000E+00 0. -1.
</event>
<event>
 5   0  0.6780500E+06  0.9118800E+02  0.7818608E-02  0.1180000E+00
       11   -1    0    0    0    0  0.00000000000E+00  0.00000000000E+00  0.39999999673E+01  0.40000000000E+01  0.51109989000E-03 0. -1.
     -623   -1    0    0    0    0  0.00000000000E+00  0.00000000000E+00  0.12525980253E-10  0.17130000000E+03  0.17130000000E+03 0.  1.
       11    1    1    2    0    0  0.46388352476E-02 -0.32417393771E-01  0.33416588413E+00  0.33576704060E+00  0.51109989000E-03 0. -1.
     -623    1    1    2    0    0 -0.10970825019E-01 -0.45350864311E-02  0.48650748817E-02  0.17130000048E+03  0.17130000000E+03 0.  1.
      622    1    1    2    0    0  0.63319897720E-02  0.36952480203E-01  0.36609690084E+01  0.36642324790E+01  0.15000000000E+00 0. -1.
</event>
<event>
 5   0  0.6780500E+06  0.9118800E+02  0.7818608E-02  0.1180000E+00
       11   -1    0    0    0    0  0.00000000000E+00  0.00000000000E+00  0.39999999673E+01  0.40000000000E+01  0.51109989000E-03 0. -1.
     -623   -1    0    0    0    0  0.00000000000E+00  0.00000000000E+00  0.12525980253E-10  0.17130000000E+03  0.17130000000E+03 0.  1.
       11    1    1    2    0    0 -0.25189866858E-01  0.40868010089E-01  0.59803312613E+00  0.59995716915E+00  0.51109989000E-03 0. -1.
     -623    1    1    2    0    0  0.14157740783E-01 -0.85259694647E-01  0.55643257955E-02  0.17130002189E+03  0.17130000000E+03 0.  1.
      622    1    1    2    0    0  0.11032126075E-01  0.44391684557E-01  0.33964025154E+01  0.34000209376E+01  0.15000000000E+00 0. -1.
</event>
<event>
 5   0  0.6780500E+06  0.9118800E+02  0.7818608E-02  0.1180000E+00
       11   -1    0    0    0    0  0.00000000000E+00  0.00000000000E+00  0.39999999673E+01  0.40000000000E+01  0.51109989000E-03 0. -1.
     -623   -1    0    0    0    0  0.00000000000E+00  0.00000000000E+00  0.12525980253E-10  0.17130000000E+03  0.17130000000E+03 0.  1.
       11    1    1    2    0    0  0.44472537699E-02 -0.49625496013E-02  0.28406491917E-01  0.29182100178E-01  0.51109989000E-03 0. -1.
     -623    1    1    2    0    0  0.17057665821E-02  0.19010428525E-02  0.36157654763E-02  0.17130000006E+03  0.17130000000E+03 0.  1.
      622    1    1    2    0    0 -0.61530203520E-02  0.30615067488E-02  0.39679777100E+01  0.39708178426E+01  0.15000000000E+00 0. -1.
</event>
<event>
 5   0  0.6780500E+06  0.9118800E+02  0.7818608E-02  0.1180000E+00
       11   -1    0    0    0    0  0.00000000000E+00  0.00000000000E+00  0.39999999673E+01  0.40000000000E+01  0.51109989000E-03 0. -1.
     -623   -1    0    0    0    0  0.00000000000E+00  0.00000000000E+00  0.12525980253E-10  0.17130000000E+03  0.17130000000E+03 0. -1.
       11    1    1    2    0    0  0.15944343772E-01 -0.38940017551E-02  0.13368787077E+00  0.13469258837E+00  0.51109989000E-03 0. -1.
     -623    1    1    2    0    0  0.98815592559E-02  0.60829914999E-02  0.40036913037E-02  0.17130000044E+03  0.17130000000E+03 0. -1.
      622    1    1    2    0    0 -0.25825903028E-01 -0.21889897448E-02  0.38623084053E+01  0.38653069718E+01  0.15000000000E+00 0. -1.
</event>
<event>
 5   0  0.6780500E+06  0.9118800E+02  0.7818608E-02  0.1180000E+00
       11   -1    0    0    0    0  0.00000000000E+00  0.00000000000E+00  0.39999999673E+01  0.40000000000E+01  0.51109989000E-03 0. -1.
     -623   -1    0    0    0    0  0.00000000000E+00  0.00000000000E+00  0.12525980253E-10  0.17130000000E+03  0.17130000000E+03 0.  1.
       11    1    1    2    0    0  0.10026190375E-02 -0.20681719410E-02  0.47869966660E-01  0.47927836496E-01  0.51109989000E-03 0. -1.
     -623    1    1    2    0    0 -0.15281395450E-03  0.31371863898E-02  0.29057606528E-02  0.17130000005E+03  0.17130000000E+03 0.  1.
      622    1    1    2    0    0 -0.84980508304E-03 -0.10690144487E-02  0.39492242399E+01  0.39520721100E+01  0.15000000000E+00 0. -1.
</event>
<event>
 5   0  0.6780500E+06  0.9118800E+02  0.7818608E-02  0.1180000E+00
       11   -1    0    0    0    0  0.00000000000E+00  0.00000000000E+00  0.39999999673E+01  0.40000000000E+01  0.51109989000E-03 0.  1.
     -623   -1    0    0    0    0  0.00000000000E+00  0.00000000000E+00  0.12525980253E-10  0.17130000000E+03  0.17130000000E+03 0. -1.
       11    1    1    2    0    0 -0.77106282700E-02  0.48320723477E-02  0.34012986060E-01  0.35212883371E-01  0.51109989000E-03 0.  1.
     -623    1    1    2    0    0  0.77289863782E-02 -0.79604743837E-02  0.40400021179E-02  0.17130000041E+03  0.17130000000E+03 0. -1.
      622    1    1    2    0    0 -0.18358108092E-04  0.31284020359E-02  0.39619469791E+01  0.39647867096E+01  0.15000000000E+00 0.  1.
</event>
<event>
 5   0  0.6780500E+06  0.9118800E+02  0.7818608E-02  0.1180000E+00
       11   -1    0    0    0    0  0.00000000000E+00  0.00000000000E+00  0.39999999673E+01  0.40000000000E+01  0.51109989000E-03 0. -1.
     -623   -1    0    0    0    0  0.00000000000E+00  0.00000000000E+00  0.12525980253E-10  0.17130000000E+03  0.17130000000E+03 0.  1.
       11    1    1    2    0    0 -0.10026747419E-01 -0.40276684763E-02  0.42295500401E+00  0.42309331644E+00  0.51109989000E-03 0. -1.
     -623    1    1    2    0    0 -0.50301485850E-03  0.17757981945E-02  0.33011032787E-02  0.17130000004E+03  0.17130000000E+03 0.  1.
      622    1    1    2    0    0  0.10529762277E-01  0.22518702818E-02  0.35737438601E+01  0.35769066418E+01  0.15000000000E+00 0. -1.
</event>
<event>
 5   0  0.6780500E+06  0.9118800E+02  0.7818608E-02  0.1180000E+00
       11   -1    0    0    0    0  0.00000000000E+00  0.00000000000E+00  0.39999999673E+01  0.40000000000E+01  0.51109989000E-03 0. -1.
     -623   -1    0    0    0    0  0.00000000000E+00  0.00000000000E+00  0.12525980253E-10  0.17130000000E+03  0.17130000000E+03 0.  1.
       11    1    1    2    0    0 -0.17621281250E-02 -0.42226912856E-02  0.65118735561E-02  0.79750822899E-02  0.51109989000E-03 0. -1.
     -623    1    1    2    0    0 -0.61619109385E-03  0.76097631450E-02  0.42846609405E-02  0.17130000022E+03  0.17130000000E+03 0.  1.
      622    1    1    2    0    0  0.23783192188E-02 -0.33870718594E-02  0.39892034329E+01  0.39920246940E+01  0.15000000000E+00 0. -1.
</event>
<event>
 5   0  0.6780500E+06  0.9118800E+02  0.7818608E-02  0.1180000E+00
       11   -1    0    0    0    0  0.00000000000E+00  0.00000000000E+00  0.39999999673E+01  0.40000000000E+01  0.51109989000E-03 0.  1.
     -623   -1    0    0    0    0  0.00000000000E+00  0.00000000000E+00  0.12525980253E-10  0.17130000000E+03  0.17130000000E+03 0. -1.
       11    1    1    2    0    0  0.40771652815E-03  0.26444416301E-02  0.92515499663E+00  0.92515900704E+00  0.51109989000E-03 0.  1.
     -623    1    1    2    0    0  0.75967842467E-02 -0.14247908439E-01  0.36980360833E-02  0.17130000080E+03  0.17130000000E+03 0. -1.
      622    1    1    2    0    0 -0.80045007748E-02  0.11603466809E-01  0.30711469346E+01  0.30748401921E+01  0.15000000000E+00 0.  1.
</event>
<event>
 5   0  0.6780500E+06  0.9118800E+02  0.7818608E-02  0.1180000E+00
       11   -1    0    0    0    0  0.00000000000E+00  0.00000000000E+00  0.39999999673E+01  0.40000000000E+01  0.51109989000E-03 0.  1.
     -623   -1    0    0    0    0  0.00000000000E+00  0.00000000000E+00  0.12525980253E-10  0.17130000000E+03  0.17130000000E+03 0. -1.
       11    1    1    2    0    0 -0.19756814130E-01 -0.49511751320E-02  0.38977946164E+00  0.39031158806E+00  0.51109989000E-03 0.  1.
     -623    1    1    2    0    0  0.15500974100E-02 -0.36914700919E-02  0.37064513818E-02  0.17130000009E+03  0.17130000000E+03 0. -1.
      622    1    1    2    0    0  0.18206716720E-01  0.86426452240E-02  0.36065140543E+01  0.36096883251E+01  0.15000000000E+00 0.  1.
</event>
<event>
 5   0  0.6780500E+06  0.9118800E+02  0.7818608E-02  0.1180000E+00
       11   -1    0    0    0    0  0.00000000000E+00  0.00000000000E+00  0.39999999673E+01  0.40000000000E+01  0.51109989000E-03 0. -1.
     -623   -1    0    0    0    0  0.00000000000E+00  0.00000000000E+00  0.12525980253E-10  0.17130000000E+03  0.17130000000E+03 0.  1.
       11    1    1    2    0    0  0.54872720156E-01  0.59461102817E-01  0.59341582153E+00  0.59890670111E+00  0.51109989000E-03 0. -1.
     -623    1    1    2    0    0  0.35498990631E-02 -0.61856784049E-02  0.97207001641E-02  0.17130000042E+03  0.17130000000E+03 0.  1.
      622    1    1    2    0    0 -0.58422619219E-01 -0.53275424412E-01  0.33968634457E+01  0.34010928747E+01  0.15000000000E+00 0. -1.
</event>
<event>
 5   0  0.6780500E+06  0.9118800E+02  0.7818608E-02  0.1180000E+00
       11   -1    0    0    0    0  0.00000000000E+00  0.00000000000E+00  0.39999999673E+01  0.40000000000E+01  0.51109989000E-03 0. -1.
     -623   -1    0    0    0    0  0.00000000000E+00  0.00000000000E+00  0.12525980253E-10  0.17130000000E+03  0.17130000000E+03 0.  1.
       11    1    1    2    0    0 -0.45467967211E-01 -0.34197418946E-01  0.66416723627E+00  0.66659971382E+00  0.51109989000E-03 0. -1.
     -623    1    1    2    0    0 -0.29422458781E-02 -0.59044398607E-02  0.64027324989E-02  0.17130000025E+03  0.17130000000E+03 0.  1.
      622    1    1    2    0    0  0.48410213089E-01  0.40101858807E-01  0.33294299986E+01  0.33334000395E+01  0.15000000000E+00 0. -1.
</event>
<event>
 5   0  0.6780500E+06  0.9118800E+02  0.7818608E-02  0.1180000E+00
       11   -1    0    0    0    0  0.00000000000E+00  0.00000000000E+00  0.39999999673E+01  0.40000000000E+01  0.51109989000E-03 0.  1.
     -623   -1    0    0    0    0  0.00000000000E+00  0.00000000000E+00  0.12525980253E-10  0.17130000000E+03  0.17130000000E+03 0.  1.
       11    1    1    2    0    0 -0.44456369630E-01  0.30579641570E-01  0.98138258117E-01  0.11199492045E+00  0.51109989000E-03 0.  1.
     -623    1    1    2    0    0  0.22809404267E-01  0.68240226214E-02  0.16994085625E-01  0.17130000250E+03  0.17130000000E+03 0.  1.
      622    1    1    2    0    0  0.21646965363E-01 -0.37403664191E-01  0.38848676236E+01  0.38880025821E+01  0.15000000000E+00 0.  1.
</event>
<event>
 5   0  0.6780500E+06  0.9118800E+02  0.7818608E-02  0.1180000E+00
       11   -1    0    0    0    0  0.00000000000E+00  0.00000000000E+00  0.39999999673E+01  0.40000000000E+01  0.51109989000E-03 0. -1.
     -623   -1    0    0    0    0  0.00000000000E+00  0.00000000000E+00  0.12525980253E-10  0.17130000000E+03  0.17130000000E+03 0.  1.
       11    1    1    2    0    0 -0.16615149412E-02  0.20420639521E-01  0.50521387265E+00  0.50562939144E+00  0.51109989000E-03 0. -1.
     -623    1    1    2    0    0 -0.14351610730E-01 -0.46204227495E-02  0.37096181600E-02  0.17130000070E+03  0.17130000000E+03 0.  1.
      622    1    1    2    0    0  0.16013125671E-01 -0.15800216772E-01  0.34910764766E+01  0.34943699049E+01  0.15000000000E+00 0. -1.
</event>
<event>
 5   0  0.6780500E+06  0.9118800E+02  0.7818608E-02  0.1180000E+00
       11   -1    0    0    0    0  0.00000000000E+00  0.00000000000E+00  0.39999999673E+01  0.40000000000E+01  0.51109989000E-03 0.  1.
     -623   -1    0    0    0    0  0.00000000000E+00  0.00000000000E+00  0.12525980253E-10  0.17130000000E+03  0.17130000000E+03 0. -1.
       11    1    1    2    0    0 -0.52233206986E-01  0.34685775167E-01  0.96059452861E-01  0.11471307954E+00  0.51109989000E-03 0.  1.
     -623    1    1    2    0    0 -0.18708953062E-01 -0.89364156779E-02  0.22286534698E-01  0.17130000270E+03  0.17130000000E+03 0. -1.
      622    1    1    2    0    0  0.70942160048E-01 -0.25749359489E-01  0.38816539798E+01  0.38852842159E+01  0.15000000000E+00 0.  1.
</event>
<event>
 5   0  0.6780500E+06  0.9118800E+02  0.7818608E-02  0.1180000E+00
       11   -1    0    0    0    0  0.00000000000E+00  0.00000000000E+00  0.39999999673E+01  0.40000000000E+01  0.51109989000E-03 0.  1.
     -623   -1    0    0    0    0  0.00000000000E+00  0.00000000000E+00  0.12525980253E-10  0.17130000000E+03  0.17130000000E+03 0.  1.
       11    1    1    2    0    0  0.89145052318E-02 -0.78738869658E-02  0.24249156542E-01  0.27013872622E-01  0.51109989000E-03 0.  1.
     -623    1    1    2    0    0 -0.19393667535E-01  0.64849195963E-03  0.56189132756E-02  0.17130000119E+03  0.17130000000E+03 0.  1.
      622    1    1    2    0    0  0.10479162303E-01  0.72253950061E-02  0.39701318975E+01  0.39729849362E+01  0.15000000000E+00 0.  1.
</event>
<event>
 5   0  0.6780500E+06  0.9118800E+02  0.7818608E-02  0.1180000E+00
       11   -1    0    0    0    0  0.00000000000E+00  0.00000000000E+00  0.39999999673E+01  0.40000000000E+01  0.51109989000E-03 0. -1.
     -623   -1    0    0    0    0  0.00000000000E+00  0.00000000000E+00  0.12525980253E-10  0.17130000000E+03  0.17130000000E+03 0.  1.
       11    1    1    2    0    0 -0.69699823523E-02 -0.23785527966E-01  0.23669501679E+00  0.23798975648E+00  0.51109989000E-03 0. -1.
     -623    1    1    2    0    0 -0.85804394850E-02  0.40323626289E-02  0.43707032498E-02  0.17130000032E+03  0.17130000000E+03 0.  1.
      622    1    1    2    0    0  0.15550421837E-01  0.19753165337E-01  0.37589342473E+01  0.37620099254E+01  0.15000000000E+00 0. -1.
</event>
<event>
 5   0  0.6780500E+06  0.9118800E+02  0.7818608E-02  0.1180000E+00
       11   -1    0    0    0    0  0.00000000000E+00  0.00000000000E+00  0.39999999673E+01  0.40000000000E+01  0.51109989000E-03 0. -1.
     -623   -1    0    0    0    0  0.00000000000E+00  0.00000000000E+00  0.12525980253E-10  0.17130000000E+03  0.17130000000E+03 0.  1.
       11    1    1    2    0    0  0.20181167351E-01  0.11831242840E-01  0.11446239260E+01  0.11448630709E+01  0.51109989000E-03 0. -1.
     -623    1    1    2    0    0  0.45822751221E-04  0.86171681187E-02  0.43274508066E-02  0.17130000027E+03  0.17130000000E+03 0.  1.
      622    1    1    2    0    0 -0.20226990102E-01 -0.20448410958E-01  0.28510485905E+01  0.28551366577E+01  0.15000000000E+00 0. -1.
</event>
<event>
 5   0  0.6780500E+06  0.9118800E+02  0.7818608E-02  0.1180000E+00
       11   -1    0    0    0    0  0.00000000000E+00  0.00000000000E+00  0.39999999673E+01  0.40000000000E+01  0.51109989000E-03 0.  1.
     -623   -1    0    0    0    0  0.00000000000E+00  0.00000000000E+00  0.12525980253E-10  0.17130000000E+03  0.17130000000E+03 0. -1.
       11    1    1    2    0    0 -0.16001174710E-01  0.59117955372E-02  0.13797809178E-01  0.21946017384E-01  0.51109989000E-03 0.  1.
     -623    1    1    2    0    0  0.40899205580E-01 -0.30634735137E-01  0.11140041548E-01  0.17130000798E+03  0.17130000000E+03 0. -1.
      622    1    1    2    0    0 -0.24898030869E-01  0.24722939599E-01  0.39750621166E+01  0.39780459986E+01  0.15000000000E+00 0.  1.
</event>
<event>
 5   0  0.6780500E+06  0.9118800E+02  0.7818608E-02  0.1180000E+00
       11   -1    0    0    0    0  0.00000000000E+00  0.00000000000E+00  0.39999999673E+01  0.40000000000E+01  0.51109989000E-03 0.  1.
     -623   -1    0    0    0    0  0.00000000000E+00  0.00000000000E+00  0.12525980253E-10  0.17130000000E+03  0.17130000000E+03 0.  1.
       11    1    1    2    0    0  0.56451929263E-01 -0.31209826229E-01  0.27090833270E+00  0.27848242229E+00  0.51109989000E-03 0.  1.
     -623    1    1    2    0    0 -0.51334288022E-01  0.36732586220E-02  0.10711800339E-01  0.17130000807E+03  0.17130000000E+03 0.  1.
      622    1    1    2    0    0 -0.51176412417E-02  0.27536567607E-01  0.37183798343E+01  0.37215095116E+01  0.15000000000E+00 0.  1.
</event>
<event>
 5   0  0.6780500E+06  0.9118800E+02  0.7818608E-02  0.1180000E+00
       11   -1    0    0    0    0  0.00000000000E+00  0.00000000000E+00  0.39999999673E+01  0.40000000000E+01  0.51109989000E-03 0. -1.
     -623   -1    0    0    0    0  0.00000000000E+00  0.00000000000E+00  0.12525980253E-10  0.17130000000E+03  0.17130000000E+03 0.  1.
       11    1    1    2    0    0 -0.22478425038E-02 -0.13677221710E-02  0.10001828256E-03  0.26822912992E-02  0.51109989000E-03 0. -1.
     -623    1    1    2    0    0 -0.23006965373E-02  0.32740049846E-02  0.54007956329E-02  0.17130000013E+03  0.17130000000E+03 0.  1.
      622    1    1    2    0    0  0.45485390412E-02 -0.19062828137E-02  0.39944991535E+01  0.39973175769E+01  0.15000000000E+00 0. -1.
</event>
<event>
 5   0  0.6780500E+06  0.9118800E+02  0.7818608E-02  0.1180000E+00
       11   -1    0    0    0    0  0.00000000000E+00  0.00000000000E+00  0.39999999673E+01  0.40000000000E+01  0.51109989000E-03 0.  1.
     -623   -1    0    0    0    0  0.00000000000E+00  0.00000000000E+00  0.12525980253E-10  0.17130000000E+03  0.17130000000E+03 0.  1.
       11    1    1    2    0    0  0.15508657829E-01 -0.37527937915E-02  0.44836092198E-01  0.47593469254E-01  0.51109989000E-03 0.  1.
     -623    1    1    2    0    0 -0.18689777257E-02  0.62387799358E-02  0.56292882167E-02  0.17130000022E+03  0.17130000000E+03 0.  1.
      622    1    1    2    0    0 -0.13639680104E-01 -0.24859861443E-02  0.39495345870E+01  0.39524063145E+01  0.15000000000E+00 0.  1.
</event>
<event>
 5   0  0.6780500E+06  0.9118800E+02  0.7818608E-02  0.1180000E+00
       11   -1    0    0    0    0  0.00000000000E+00  0.00000000000E+00  0.39999999673E+01  0.40000000000E+01  0.51109989000E-03 0.  1.
     -623   -1    0    0    0    0  0.00000000000E+00  0.00000000000E+00  0.12525980253E-10  0.17130000000E+03  0.17130000000E+03 0.  1.
       11    1    1    2    0    0  0.97611475847E-02 -0.48066028605E-01  0.32242387387E+00  0.32613346772E+00  0.51109989000E-03 0.  1.
     -623    1    1    2    0    0 -0.64541576167E-01  0.43764610664E-01  0.72022202829E-02  0.17130001790E+03  0.17130000000E+03 0.  1.
      622    1    1    2    0    0  0.54780428584E-01  0.43014179395E-02  0.36703738733E+01  0.36738486315E+01  0.15000000000E+00 0.  1.
</event>
<event>
 5   0  0.6780500E+06  0.9118800E+02  0.7818608E-02  0.1180000E+00
       11   -1    0    0    0    0  0.00000000000E+00  0.00000000000E+00  0.39999999673E+01  0.40000000000E+01  0.51109989000E-03 0.  1.
     -623   -1    0    0    0    0  0.00000000000E+00  0.00000000000E+00  0.12525980253E-10  0.17130000000E+03  0.17130000000E+03 0. -1.
       11    1    1    2    0    0  0.17368390142E-02  0.18791825322E-02  0.17919770632E-01  0.18108764096E-01  0.51109989000E-03 0.  1.
     -623    1    1    2    0    0 -0.19428681192E-02  0.17152905623E-02  0.30169295543E-02  0.17130000005E+03  0.17130000000E+03 0. -1.
      622    1    1    2    0    0  0.20602910501E-03 -0.35944730945E-02  0.39790632672E+01  0.39818911897E+01  0.15000000000E+00 0.  1.
</event>
<event>
 5   0  0.6780500E+06  0.9118800E+02  0.7818608E-02  0.1180000E+00
       11   -1    0    0    0    0  0.00000000000E+00  0.00000000000E+00  0.39999999673E+01  0.40000000000E+01  0.51109989000E-03 0. -1.
     -623   -1    0    0    0    0  0.00000000000E+00  0.00000000000E+00  0.12525980253E-10  0.17130000000E+03  0.17130000000E+03 0. -1.
       11    1    1    2    0    0  0.61076155033E-01 -0.23774283225E-01  0.31161175624E+00  0.31842999405E+00  0.51109989000E-03 0. -1.
     -623    1    1    2    0    0 -0.99600468406E-02  0.39398544907E-01  0.10268722082E-01  0.17130000513E+03  0.17130000000E+03 0. -1.
      622    1    1    2    0    0 -0.51116108192E-01 -0.15624261682E-01  0.36781194890E+01  0.36815648778E+01  0.15000000000E+00 0. -1.
</event>
<event>
 5   0  0.6780500E+06  0.9118800E+02  0.7818608E-02  0.1180000E+00
       11   -1    0    0    0    0  0.00000000000E+00  0.00000000000E+00  0.39999999673E+01  0.40000000000E+01  0.51109989000E-03 0. -1.
     -623   -1    0    0    0    0  0.00000000000E+00  0.00000000000E+00  0.12525980253E-10  0.17130000000E+03  0.17130000000E+03 0.  1.
       11    1    1    2    0    0 -0.11275294122E-01  0.26259302851E-02  0.88889218433E+00  0.88896771840E+00  0.51109989000E-03 0. -1.
     -623    1    1    2    0    0 -0.29413240565E-02 -0.13555568486E-01  0.37461145455E-02  0.17130000060E+03  0.17130000000E+03 0.  1.
      622    1    1    2    0    0  0.14216618179E-01  0.10929638201E-01  0.31073616685E+01  0.31110316790E+01  0.15000000000E+00 0. -1.
</event>
<event>
 5   0  0.6780500E+06  0.9118800E+02  0.7818608E-02  0.1180000E+00
       11   -1    0    0    0    0  0.00000000000E+00  0.00000000000E+00  0.39999999673E+01  0.40000000000E+01  0.51109989000E-03 0.  1.
     -623   -1    0    0    0    0  0.00000000000E+00  0.00000000000E+00  0.12525980253E-10  0.17130000000E+03  0.17130000000E+03 0. -1.
       11    1    1    2    0    0 -0.33563410298E-01 -0.17381399796E-01  0.31221583568E+00  0.31449579463E+00  0.51109989000E-03 0.  1.
     -623    1    1    2    0    0  0.37298507235E-02  0.13083389043E-01  0.54576781131E-02  0.17130000063E+03  0.17130000000E+03 0. -1.
      622    1    1    2    0    0  0.29833559574E-01  0.42980107534E-02  0.36823264536E+01  0.36855035782E+01  0.15000000000E+00 0.  1.
</event>
<event>
 5   0  0.6780500E+06  0.9118800E+02  0.7818608E-02  0.1180000E+00
       11   -1    0    0    0    0  0.00000000000E+00  0.00000000000E+00  0.39999999673E+01  0.40000000000E+01  0.51109989000E-03 0. -1.
     -623   -1    0    0    0    0  0.00000000000E+00  0.00000000000E+00  0.12525980253E-10  0.17130000000E+03  0.17130000000E+03 0. -1.
       11    1    1    2    0    0  0.46260854772E-01  0.10442327512E-01  0.77659187730E-01  0.90996261187E-01  0.51109989000E-03 0. -1.
     -623    1    1    2    0    0 -0.22134473942E-01 -0.47753445329E-01  0.16477672111E-01  0.17130000888E+03  0.17130000000E+03 0. -1.
      622    1    1    2    0    0 -0.24126380830E-01  0.37311117817E-01  0.39058631075E+01  0.39089948601E+01  0.15000000000E+00 0. -1.
</event>
<event>
 5   0  0.6780500E+06  0.9118800E+02  0.7818608E-02  0.1180000E+00
       11   -1    0    0    0    0  0.00000000000E+00  0.00000000000E+00  0.39999999673E+01  0.40000000000E+01  0.51109989000E-03 0. -1.
     -623   -1    0    0    0    0  0.00000000000E+00  0.00000000000E+00  0.12525980253E-10  0.17130000000E+03  0.17130000000E+03 0. -1.
       11    1    1    2    0    0  0.96442621907E-02  0.25332062243E-01  0.63016150137E+00  0.63074440481E+00  0.51109989000E-03 0. -1.
     -623    1    1    2    0    0 -0.40201524067E-01 -0.21882606508E-01  0.40701898481E-02  0.17130000616E+03  0.17130000000E+03 0. -1.
      622    1    1    2    0    0  0.30557261877E-01 -0.34494557345E-02  0.33657682761E+01  0.33692494318E+01  0.15000000000E+00 0. -1.
</event>
<event>
 5   0  0.6780500E+06  0.9118800E+02  0.7818608E-02  0.1180000E+00
       11   -1    0    0    0    0  0.00000000000E+00  0.00000000000E+00  0.39999999673E+01  0.40000000000E+01  0.51109989000E-03 0. -1.
     -623   -1    0    0    0    0  0.00000000000E+00  0.00000000000E+00  0.12525980253E-10  0.17130000000E+03  0.17130000000E+03 0.  1.
       11    1    1    2    0    0 -0.28047508341E-02  0.44959887154E-02  0.11318886863E-01  0.12508355716E-01  0.51109989000E-03 0. -1.
     -623    1    1    2    0    0  0.56216418486E-02  0.14219747585E-02  0.40172932142E-02  0.17130000015E+03  0.17130000000E+03 0.  1.
      622    1    1    2    0    0 -0.28168910145E-02 -0.59179634739E-02  0.39846637873E+01  0.39874914990E+01  0.15000000000E+00 0. -1.
</event>
<event>
 5   0  0.6780500E+06  0.9118800E+02  0.7818608E-02  0.1180000E+00
       11   -1    0    0    0    0  0.00000000000E+00  0.00000000000E+00  0.39999999673E+01  0.40000000000E+01  0.51109989000E-03 0. -1.
     -623   -1    0    0    0    0  0.00000000000E+00  0.00000000000E+00  0.12525980253E-10  0.17130000000E+03  0.17130000000E+03 0. -1.
       11    1    1    2    0    0  0.39989315253E-02 -0.10237106395E-02  0.52927160621E-02  0.67315305265E-02  0.51109989000E-03 0. -1.
     -623    1    1    2    0    0 -0.33683405012E-02  0.24056774934E-02  0.42574095026E-02  0.17130000010E+03  0.17130000000E+03 0. -1.
      622    1    1    2    0    0 -0.63059102407E-03 -0.13819668539E-02  0.39904498418E+01  0.39932683666E+01  0.15000000000E+00 0. -1.
</event>
<event>
 5   0  0.6780500E+06  0.9118800E+02  0.7818608E-02  0.1180000E+00
       11   -1    0    0    0    0  0.00000000000E+00  0.00000000000E+00  0.39999999673E+01  0.40000000000E+01  0.51109989000E-03 0.  1.
     -623   -1    0    0    0    0  0.00000000000E+00  0.00000000000E+00  0.12525980253E-10  0.17130000000E+03  0.17130000000E+03 0. -1.
       11    1    1    2    0    0  0.10844331965E-01  0.21538542617E-01  0.14291197105E-01  0.28035832280E-01  0.51109989000E-03 0.  1.
     -623    1    1    2    0    0 -0.81504155975E-02 -0.34643743800E-02  0.16621067441E-01  0.17130000104E+03  0.17130000000E+03 0. -1.
      622    1    1    2    0    0 -0.26939163679E-02 -0.18074168237E-01  0.39690877028E+01  0.39719631324E+01  0.15000000000E+00 0.  1.
</event>
<event>
 5   0  0.6780500E+06  0.9118800E+02  0.7818608E-02  0.1180000E+00
       11   -1    0    0    0    0  0.00000000000E+00  0.00000000000E+00  0.39999999673E+01  0.40000000000E+01  0.51109989000E-03 0.  1.
     -623   -1    0    0    0    0  0.00000000000E+00  0.00000000000E+00  0.12525980253E-10  0.17130000000E+03  0.17130000000E+03 0.  1.
       11    1    1    2    0    0  0.10169080599E-02  0.78219062187E-03  0.58239055592E-02  0.59854007773E-02  0.51109989000E-03 0.  1.
     -623    1    1    2    0    0 -0.49857022875E-02  0.25526812656E-02  0.29826554140E-02  0.17130000012E+03  0.17130000000E+03 0.  1.
      622    1    1    2    0    0  0.39687942277E-02 -0.33348718875E-02  0.39911934064E+01  0.39940144817E+01  0.15000000000E+00 0.  1.
</event>
<event>
 5   0  0.6780500E+06  0.9118800E+02  0.7818608E-02  0.1180000E+00
       11   -1    0    0    0    0  0.00000000000E+00  0.00000000000E+00  0.39999999673E+01  0.40000000000E+01  0.51109989000E-03 0.  1.
     -623   -1    0    0    0    0  0.00000000000E+00  0.00000000000E+00  0.12525980253E-10  0.17130000000E+03  0.17130000000E+03 0. -1.
       11    1    1    2    0    0  0.26472069817E-01  0.18851366578E-01  0.55900353917E+00  0.55994764267E+00  0.51109989000E-03 0.  1.
     -623    1    1    2    0    0  0.19780127635E-02 -0.44671135081E-01  0.44365777252E-02  0.17130000589E+03  0.17130000000E+03 0. -1.
      622    1    1    2    0    0 -0.28450082580E-01  0.25819768503E-01  0.34365598505E+01  0.34400464638E+01  0.15000000000E+00 0.  1.
</event>
<event>
 5   0  0.6780500E+06  0.9118800E+02  0.7818608E-02  0.1180000E+00
       11   -1    0    0    0    0  0.00000000000E+00  0.00000000000E+00  0.39999999673E+01  0.40000000000E+01  0.51109989000E-03 0.  1.
     -623   -1    0    0    0    0  0.00000000000E+00  0.00000000000E+00  0.12525980253E-10  0.17130000000E+03  0.17130000000E+03 0.  1.
       11    1    1    2    0    0 -0.34033177594E-02 -0.43636819322E-02  0.54583897342E-01  0.54866085731E-01  0.51109989000E-03 0.  1.
     -623    1    1    2    0    0  0.25342871357E-02  0.92930554936E-02  0.31382787029E-02  0.17130000030E+03  0.17130000000E+03 0.  1.
      622    1    1    2    0    0  0.86903062371E-03 -0.49293735614E-02  0.39422777913E+01  0.39451336147E+01  0.15000000000E+00 0.  1.
</event>
<event>
 5   0  0.6780500E+06  0.9118800E+02  0.7818608E-02  0.1180000E+00
       11   -1    0    0    0    0  0.00000000000E+00  0.00000000000E+00  0.39999999673E+01  0.40000000000E+01  0.51109989000E-03 0. -1.
     -623   -1    0    0    0    0  0.00000000000E+00  0.00000000000E+00  0.12525980253E-10  0.17130000000E+03  0.17130000000E+03 0.  1.
       11    1    1    2    0    0 -0.20748684288E-01  0.65820293970E-02  0.43748362186E-01  0.48867283818E-01  0.51109989000E-03 0. -1.
     -623    1    1    2    0    0  0.13352598916E-01  0.16781326052E-01  0.80447854021E-02  0.17130000153E+03  0.17130000000E+03 0.  1.
      622    1    1    2    0    0  0.73960853724E-02 -0.23363355449E-01  0.39482068198E+01  0.39511311849E+01  0.15000000000E+00 0. -1.
</event>
<event>
 5   0  0.6780500E+06  0.9118800E+02  0.7818608E-02  0.1180000E+00
       11   -1    0    0    0    0  0.00000000000E+00  0.00000000000E+00  0.39999999673E+01  0.40000000000E+01  0.51109989000E-03 0. -1.
     -623   -1    0    0    0    0  0.00000000000E+00  0.00000000000E+00  0.12525980253E-10  0.17130000000E+03  0.17130000000E+03 0. -1.
       11    1    1    2    0    0 -0.53741593688E-03 -0.82790194824E-02  0.67105992950E-02  0.10682899671E-01  0.51109989000E-03 0. -1.
     -623    1    1    2    0    0 -0.73811096654E-02  0.16129037982E-01  0.68099445692E-02  0.17130000105E+03  0.17130000000E+03 0. -1.
      622    1    1    2    0    0  0.79185256023E-02 -0.78500184993E-02  0.39864794235E+01  0.39893160466E+01  0.15000000000E+00 0. -1.
</event>
<event>
 5   0  0.6780500E+06  0.9118800E+02  0.7818608E-02  0.1180000E+00
       11   -1    0    0    0    0  0.00000000000E+00  0.00000000000E+00  0.39999999673E+01  0.40000000000E+01  0.51109989000E-03 0. -1.
     -623   -1    0    0    0    0  0.00000000000E+00  0.00000000000E+00  0.12525980253E-10  0.17130000000E+03  0.17130000000E+03 0.  1.
       11    1    1    2    0    0  0.14633405187E+00  0.16737647994E-01  0.49962764493E+00  0.52088563851E+00  0.51109989000E-03 0. -1.
     -623    1    1    2    0    0  0.38197173774E-01 -0.55384763054E-01  0.29625773259E-01  0.17130001577E+03  0.17130000000E+03 0.  1.
      622    1    1    2    0    0 -0.18453122565E+00  0.38647115060E-01  0.34707465492E+01  0.34790985875E+01  0.15000000000E+00 0. -1.
</event>
<event>
 5   0  0.6780500E+06  0.9118800E+02  0.7818608E-02  0.1180000E+00
       11   -1    0    0    0    0  0.00000000000E+00  0.00000000000E+00  0.39999999673E+01  0.40000000000E+01  0.51109989000E-03 0. -1.
     -623   -1    0    0    0    0  0.00000000000E+00  0.00000000000E+00  0.12525980253E-10  0.17130000000E+03  0.17130000000E+03 0. -1.
       11    1    1    2    0    0  0.60545431570E-01  0.60388098195E-01  0.58298580400E+00  0.58922421928E+00  0.51109989000E-03 0. -1.
     -623    1    1    2    0    0  0.33421228466E-04 -0.60707343572E-01  0.10087965041E-01  0.17130001105E+03  0.17130000000E+03 0. -1.
      622    1    1    2    0    0 -0.60578852798E-01  0.31924537781E-03  0.34069261984E+01  0.34107647266E+01  0.15000000000E+00 0. -1.
</event>
<event>
 5   0  0.6780500E+06  0.9118800E+02  0.7818608E-02  0.1180000E+00
       11   -1    0    0    0    0  0.00000000000E+00  0.00000000000E+00  0.39999999673E+01  0.40000000000E+01  0.51109989000E-03 0. -1.
     -623   -1    0    0    0    0  0.00000000000E+00  0.00000000000E+00  0.12525980253E-10  0.17130000000E+03  0.17130000000E+03 0.  1.
       11    1    1    2    0    0  0.11681164610E-01  0.22454351076E-01  0.16124259149E-01  0.30015003666E-01  0.51109989000E-03 0. -1.
     -623    1    1    2    0    0  0.29013570602E-01 -0.14303440316E-02  0.16993235539E-01  0.17130000331E+03  0.17130000000E+03 0.  1.
      622    1    1    2    0    0 -0.40694735212E-01 -0.21024007044E-01  0.39668824727E+01  0.39699816904E+01  0.15000000000E+00 0. -1.
</event>
<event>
 5   0  0.6780500E+06  0.9118800E+02  0.7818608E-02  0.1180000E+00
       11   -1    0    0    0    0  0.00000000000E+00  0.00000000000E+00  0.39999999673E+01  0.40000000000E+01  0.51109989000E-03 0. -1.
     -623   -1    0    0    0    0  0.00000000000E+00  0.00000000000E+00  0.12525980253E-10  0.17130000000E+03  0.17130000000E+03 0. -1.
       11    1    1    2    0    0 -0.10261719073E-02 -0.22274063093E-01  0.19593055870E-01  0.29687303289E-01  0.51109989000E-03 0. -1.
     -623    1    1    2    0    0  0.20401815672E-01  0.19524706453E-01  0.12979842547E-01  0.17130000282E+03  0.17130000000E+03 0. -1.
      622    1    1    2    0    0 -0.19375643765E-01  0.27493566398E-02  0.39674270689E+01  0.39703098773E+01  0.15000000000E+00 0. -1.
</event>
<event>
 5   0  0.6780500E+06  0.9118800E+02  0.7818608E-02  0.1180000E+00
       11   -1    0    0    0    0  0.00000000000E+00  0.00000000000E+00  0.39999999673E+01  0.40000000000E+01  0.51109989000E-03 0. -1.
     -623   -1    0    0    0    0  0.00000000000E+00  0.00000000000E+00  0.12525980253E-10  0.17130000000E+03  0.17130000000E+03 0.  1.
       11    1    1    2    0    0 -0.41161370598E-02  0.13850615683E-01  0.13701584639E+00  0.13777657829E+00  0.51109989000E-03 0. -1.
     -623    1    1    2    0    0  0.62109446241E-02  0.81778948068E-04  0.37004982296E-02  0.17130000015E+03  0.17130000000E+03 0.  1.
      622    1    1    2    0    0 -0.20948075645E-02 -0.13932394631E-01  0.38592836228E+01  0.38622232692E+01  0.15000000000E+00 0. -1.
</event>
<event>
 5   0  0.6780500E+06  0.9118800E+02  0.7818608E-02  0.1180000E+00
       11   -1    0    0    0    0  0.00000000000E+00  0.00000000000E+00  0.39999999673E+01  0.40000000000E+01  0.51109989000E-03 0.  1.
     -623   -1    0    0    0    0  0.00000000000E+00  0.00000000000E+00  0.12525980253E-10  0.17130000000E+03  0.17130000000E+03 0. -1.
       11    1    1    2    0    0 -0.65019107154E-02 -0.94565217487E-02  0.10621595222E-01  0.15645451566E-01  0.51109989000E-03 0.  1.
     -623    1    1    2    0    0 -0.16454768718E-03 -0.41656010720E-02  0.78774847669E-02  0.17130000023E+03  0.17130000000E+03 0. -1.
      622    1    1    2    0    0  0.66664584026E-02  0.13622122821E-01  0.39815008874E+01  0.39843543166E+01  0.15000000000E+00 0.  1.
</event>
<event>
 5   0  0.6780500E+06  0.9118800E+02  0.7818608E-02  0.1180000E+00
       11   -1    0    0    0    0  0.00000000000E+00  0.00000000000E+00  0.39999999673E+01  0.40000000000E+01  0.51109989000E-03 0.  1.
     -623   -1    0    0    0    0  0.00000000000E+00  0.00000000000E+00  0.12525980253E-10  0.17130000000E+03  0.17130000000E+03 0.  1.
       11    1    1    2    0    0 -0.28124029853E-02  0.21919550697E-02 -0.73296078466E-04  0.36028978604E-02  0.51109989000E-03 0.  1.
     -623    1    1    2    0    0  0.85104749498E-02 -0.44782957079E-02  0.64973019562E-02  0.17130000039E+03  0.17130000000E+03 0.  1.
      622    1    1    2    0    0 -0.56980719646E-02  0.22863406383E-02  0.39935759615E+01  0.39963967090E+01  0.15000000000E+00 0.  1.
</event>
<event>
 5   0  0.6780500E+06  0.9118800E+02  0.7818608E-02  0.1180000E+00
       11   -1    0    0    0    0  0.00000000000E+00  0.00000000000E+00  0.39999999673E+01  0.40000000000E+01  0.51109989000E-03 0.  1.
     -623   -1    0    0    0    0  0.00000000000E+00  0.00000000000E+00  0.12525980253E-10  0.17130000000E+03  0.17130000000E+03 0. -1.
       11    1    1    2    0    0 -0.14431121720E-02  0.62532678703E-03  0.11365159782E+00  0.11366362882E+00  0.51109989000E-03 0.  1.
     -623    1    1    2    0    0 -0.75794656218E-02  0.60206269881E-02  0.29243011876E-02  0.17130000030E+03  0.17130000000E+03 0. -1.
      622    1    1    2    0    0  0.90225777938E-02 -0.66459537752E-02  0.38834240683E+01  0.38863360727E+01  0.15000000000E+00 0.  1.
</event>
<event>
 5   0  0.6780500E+06  0.9118800E+02  0.7818608E-02  0.1180000E+00
       11   -1    0    0    0    0  0.00000000000E+00  0.00000000000E+00  0.39999999673E+01  0.40000000000E+01  0.51109989000E-03 0.  1.
     -623   -1    0    0    0    0  0.00000000000E+00  0.00000000000E+00  0.12525980253E-10  0.17130000000E+03  0.17130000000E+03 0.  1.
       11    1    1    2    0    0 -0.34358318713E-02 -0.10621884258E-02  0.27010910651E-02  0.45266213603E-02  0.51109989000E-03 0.  1.
     -623    1    1    2    0    0  0.16149218610E-01  0.14390909702E-01  0.46860965697E-02  0.17130000143E+03  0.17130000000E+03 0.  1.
      622    1    1    2    0    0 -0.12713386739E-01 -0.13328721277E-01  0.39926127799E+01  0.39954719490E+01  0.15000000000E+00 0.  1.
</event>
<event>
 5   0  0.6780500E+06  0.9118800E+02  0.7818608E-02  0.1180000E+00
       11   -1    0    0    0    0  0.00000000000E+00  0.00000000000E+00  0.39999999673E+01  0.40000000000E+01  0.51109989000E-03 0.  1.
     -623   -1    0    0    0    0  0.00000000000E+00  0.00000000000E+00  0.12525980253E-10  0.17130000000E+03  0.17130000000E+03 0. -1.
       11    1    1    2    0    0 -0.23644255133E-02 -0.38898277200E-02  0.59615066684E+00  0.59616826489E+00  0.51109989000E-03 0.  1.
     -623    1    1    2    0    0  0.97651144684E-02  0.75175462004E-02  0.33347348018E-02  0.17130000048E+03  0.17130000000E+03 0. -1.
      622    1    1    2    0    0 -0.74006889550E-02 -0.36277184804E-02  0.34005145657E+01  0.34038312594E+01  0.15000000000E+00 0.  1.
</event>
<event>
 5   0  0.6780500E+06  0.9118800E+02  0.7818608E-02  0.1180000E+00
       11   -1    0    0    0    0  0.00000000000E+00  0.00000000000E+00  0.39999999673E+01  0.40000000000E+01  0.51109989000E-03 0. -1.
     -623   -1    0    0    0    0  0.00000000000E+00  0.00000000000E+00  0.12525980253E-10  0.17130000000E+03  0.17130000000E+03 0.  1.
       11    1    1    2    0    0  0.35185237607E-02  0.16716481760E-01  0.16772385092E-01  0.23945665509E-01  0.51109989000E-03 0. -1.
     -623    1    1    2    0    0  0.15535920927E-01 -0.14846445006E-01  0.10051467567E-01  0.17130000164E+03  0.17130000000E+03 0.  1.
      622    1    1    2    0    0 -0.19054444688E-01 -0.18700367536E-02  0.39731761147E+01  0.39760526917E+01  0.15000000000E+00 0. -1.
</event>
<event>
 5   0  0.6780500E+06  0.9118800E+02  0.7818608E-02  0.1180000E+00
       11   -1    0    0    0    0  0.00000000000E+00  0.00000000000E+00  0.39999999673E+01  0.40000000000E+01  0.51109989000E-03 0. -1.
     -623   -1    0    0    0    0  0.00000000000E+00  0.00000000000E+00  0.12525980253E-10  0.17130000000E+03  0.17130000000E+03 0. -1.
       11    1    1    2    0    0  0.28793183720E-01  0.14080153110E-01  0.67074843343E+00  0.67151397626E+00  0.51109989000E-03 0. -1.
     -623    1    1    2    0    0 -0.93247591508E-02  0.13744482144E-01  0.43214207864E-02  0.17130000086E+03  0.17130000000E+03 0. -1.
      622    1    1    2    0    0 -0.19468424569E-01 -0.27824635254E-01  0.33249301132E+01  0.33284851641E+01  0.15000000000E+00 0. -1.
</event>
<event>
 5   0  0.6780500E+06  0.9118800E+02  0.7818608E-02  0.1180000E+00
       11   -1    0    0    0    0  0.00000000000E+00  0.00000000000E+00  0.39999999673E+01  0.40000000000E+01  0.51109989000E-03 0.  1.
     -623   -1    0    0    0    0  0.00000000000E+00  0.00000000000E+00  0.12525980253E-10  0.17130000000E+03  0.17130000000E+03 0. -1.
       11    1    1    2    0    0  0.10335598431E-01 -0.24630438589E-01  0.20562930066E+00  0.20735755017E+00  0.51109989000E-03 0.  1.
     -623    1    1    2    0    0 -0.27792434960E-01  0.99717610835E-02  0.47668182692E-02  0.17130000261E+03  0.17130000000E+03 0. -1.
      622    1    1    2    0    0  0.17456836529E-01  0.14658677506E-01  0.37896038484E+01  0.37926398387E+01  0.15000000000E+00 0.  1.
</event>
<event>
 5   0  0.6780500E+06  0.9118800E+02  0.7818608E-02  0.1180000E+00
       11   -1    0    0    0    0  0.00000000000E+00  0.00000000000E+00  0.39999999673E+01  0.40000000000E+01  0.51109989000E-03 0.  1.
     -623   -1    0    0    0    0  0.00000000000E+00  0.00000000000E+00  0.12525980253E-10  0.17130000000E+03  0.17130000000E+03 0. -1.
       11    1    1    2    0    0  0.95790266399E-01 -0.11702616887E+00  0.10492473802E+01  0.10600901968E+01  0.51109989000E-03 0.  1.
     -623    1    1    2    0    0 -0.30413160598E-01 -0.45473548281E-01  0.19911213224E-01  0.17130000989E+03  0.17130000000E+03 0. -1.
      622    1    1    2    0    0 -0.65377105801E-01  0.16249971715E+00  0.29308413740E+01  0.29398999105E+01  0.15000000000E+00 0.  1.
</event>
<event>
 5   0  0.6780500E+06  0.9118800E+02  0.7818608E-02  0.1180000E+00
       11   -1    0    0    0    0  0.00000000000E+00  0.00000000000E+00  0.39999999673E+01  0.40000000000E+01  0.51109989000E-03 0. -1.
     -623   -1    0    0    0    0  0.00000000000E+00  0.00000000000E+00  0.12525980253E-10  0.17130000000E+03  0.17130000000E+03 0.  1.
       11    1    1    2    0    0  0.49240615562E-01 -0.52517737113E-01  0.40680666540E+00  0.41312791623E+00  0.51109989000E-03 0. -1.
     -623    1    1    2    0    0  0.93832396797E-02  0.13054804719E-01  0.10156922916E-01  0.17130000106E+03  0.17130000000E+03 0.  1.
      622    1    1    2    0    0 -0.58623855241E-01  0.39462932394E-01  0.35830363790E+01  0.35868710282E+01  0.15000000000E+00 0. -1.
</event>
<event>
 5   0  0.6780500E+06  0.9118800E+02  0.7818608E-02  0.1180000E+00
       11   -1    0    0    0    0  0.00000000000E+00  0.00000000000E+00  0.39999999673E+01  0.40000000000E+01  0.51109989000E-03 0. -1.
     -623   -1    0    0    0    0  0.00000000000E+00  0.00000000000E+00  0.12525980253E-10  0.17130000000E+03  0.17130000000E+03 0.  1.
       11    1    1    2    0    0 -0.96712681933E-02 -0.16891025760E-01  0.29753882825E+00  0.29817520977E+00  0.51109989000E-03 0. -1.
     -623    1    1    2    0    0  0.29355904481E-01  0.13062843005E-01  0.37340572762E-02  0.17130000305E+03  0.17130000000E+03 0.  1.
      622    1    1    2    0    0 -0.19684636289E-01  0.38281827548E-02  0.36987270820E+01  0.37018217362E+01  0.15000000000E+00 0. -1.
</event>
<event>
 5   0  0.6780500E+06  0.9118800E+02  0.7818608E-02  0.1180000E+00
       11   -1    0    0    0    0  0.00000000000E+00  0.00000000000E+00  0.39999999673E+01  0.40000000000E+01  0.51109989000E-03 0.  1.
     -623   -1    0    0    0    0  0.00000000000E+00  0.00000000000E+00  0.12525980253E-10  0.17130000000E+03  0.17130000000E+03 0. -1.
       11    1    1    2    0    0 -0.11986524361E-01  0.65854661957E-02  0.15400444602E-01  0.20602913588E-01  0.51109989000E-03 0.  1.
     -623    1    1    2    0    0 -0.10282382796E-02 -0.56155860298E-02  0.80522033770E-02  0.17130000028E+03  0.17130000000E+03 0. -1.
      622    1    1    2    0    0  0.13014762641E-01 -0.96988016585E-03  0.39765473194E+01  0.39793968020E+01  0.15000000000E+00 0.  1.
</event>
<event>
 5   0  0.6780500E+06  0.9118800E+02  0.7818608E-02  0.1180000E+00
       11   -1    0    0    0    0  0.00000000000E+00  0.00000000000E+00  0.39999999673E+01  0.40000000000E+01  0.51109989000E-03 0. -1.
     -623   -1    0    0    0    0  0.00000000000E+00  0.00000000000E+00  0.12525980253E-10  0.17130000000E+03  0.17130000000E+03 0.  1.
       11    1    1    2    0    0  0.11724972898E-02 -0.55238858988E-02  0.32442754695E+00  0.32447709088E+00  0.51109989000E-03 0. -1.
     -623    1    1    2    0    0  0.12436742695E-03  0.73223665631E-02  0.31124300971E-02  0.17130000018E+03  0.17130000000E+03 0.  1.
      622    1    1    2    0    0 -0.12968647167E-02 -0.17984806642E-02  0.36724599903E+01  0.36755227243E+01  0.15000000000E+00 0. -1.
</event>
<event>
 5   0  0.6780500E+06  0.9118800E+02  0.7818608E-02  0.1180000E+00
       11   -1    0    0    0    0  0.00000000000E+00  0.00000000000E+00  0.39999999673E+01  0.40000000000E+01  0.51109989000E-03 0.  1.
     -623   -1    0    0    0    0  0.00000000000E+00  0.00000000000E+00  0.12525980253E-10  0.17130000000E+03  0.17130000000E+03 0. -1.
       11    1    1    2    0    0 -0.80540045218E-03 -0.10391449195E-02  0.33587288157E+00  0.33587584357E+00  0.51109989000E-03 0.  1.
     -623    1    1    2    0    0 -0.30983448566E-01 -0.35980842542E-01  0.34063440182E-02  0.17130000661E+03  0.17130000000E+03 0. -1.
      622    1    1    2    0    0  0.31788849018E-01  0.37019987461E-01  0.36607207418E+01  0.36641175417E+01  0.15000000000E+00 0.  1.
</event>
<event>
 5   0  0.6780500E+06  0.9118800E+02  0.7818608E-02  0.1180000E+00
       11   -1    0    0    0    0  0.00000000000E+00  0.00000000000E+00  0.39999999673E+01  0.40000000000E+01  0.51109989000E-03 0. -1.
     -623   -1    0    0    0    0  0.00000000000E+00  0.00000000000E+00  0.12525980253E-10  0.17130000000E+03  0.17130000000E+03 0.  1.
       11    1    1    2    0    0 -0.18820371222E-01  0.10618049990E-01  0.40769548615E+00  0.40826807371E+00  0.51109989000E-03 0. -1.
     -623    1    1    2    0    0  0.64038897397E-02  0.62097478312E-02  0.37673251288E-02  0.17130000027E+03  0.17130000000E+03 0.  1.
      622    1    1    2    0    0  0.12416481482E-01 -0.16827797821E-01  0.35885371561E+01  0.35917316526E+01  0.15000000000E+00 0. -1.
</event>
<event>
 5   0  0.6780500E+06  0.9118800E+02  0.7818608E-02  0.1180000E+00
       11   -1    0    0    0    0  0.00000000000E+00  0.00000000000E+00  0.39999999673E+01  0.40000000000E+01  0.51109989000E-03 0. -1.
     -623   -1    0    0    0    0  0.00000000000E+00  0.00000000000E+00  0.12525980253E-10  0.17130000000E+03  0.17130000000E+03 0. -1.
       11    1    1    2    0    0 -0.16858949310E-02  0.22705182079E-02 -0.26326011592E-02  0.38973460985E-02  0.51109989000E-03 0. -1.
     -623    1    1    2    0    0  0.73749010914E-02  0.11798048018E-02  0.93521113748E-02  0.17130000042E+03  0.17130000000E+03 0. -1.
      622    1    1    2    0    0 -0.56890061605E-02 -0.34503230097E-02  0.39932804572E+01  0.39961022358E+01  0.15000000000E+00 0. -1.
</event>
<event>
 5   0  0.6780500E+06  0.9118800E+02  0.7818608E-02  0.1180000E+00
       11   -1    0    0    0    0  0.00000000000E+00  0.00000000000E+00  0.39999999673E+01  0.40000000000E+01  0.51109989000E-03 0. -1.
     -623   -1    0    0    0    0  0.00000000000E+00  0.00000000000E+00  0.12525980253E-10  0.17130000000E+03  0.17130000000E+03 0. -1.
       11    1    1    2    0    0  0.95173046598E-02  0.31438182884E-02  0.17093877632E+00  0.17123314268E+00  0.51109989000E-03 0. -1.
     -623    1    1    2    0    0 -0.11842529601E-01 -0.24018178817E-01  0.32935254363E-02  0.17130000212E+03  0.17130000000E+03 0. -1.
      622    1    1    2    0    0  0.23252249410E-02  0.20874360528E-01  0.38257676656E+01  0.38287647325E+01  0.15000000000E+00 0. -1.
</event>
<event>
 5   0  0.6780500E+06  0.9118800E+02  0.7818608E-02  0.1180000E+00
       11   -1    0    0    0    0  0.00000000000E+00  0.00000000000E+00  0.39999999673E+01  0.40000000000E+01  0.51109989000E-03 0. -1.
     -623   -1    0    0    0    0  0.00000000000E+00  0.00000000000E+00  0.12525980253E-10  0.17130000000E+03  0.17130000000E+03 0.  1.
       11    1    1    2    0    0 -0.35189837584E-01  0.15765005791E-01  0.34508556707E+00  0.34723359558E+00  0.51109989000E-03 0. -1.
     -623    1    1    2    0    0  0.30794059768E-01 -0.41418596380E-01  0.53298255446E-02  0.17130000786E+03  0.17130000000E+03 0.  1.
      622    1    1    2    0    0  0.43957778154E-02  0.25653590590E-01  0.36495845748E+01  0.36527585463E+01  0.15000000000E+00 0. -1.
</event>
<event>
 5   0  0.6780500E+06  0.9118800E+02  0.7818608E-02  0.1180000E+00
       11   -1    0    0    0    0  0.00000000000E+00  0.00000000000E+00  0.39999999673E+01  0.40000000000E+01  0.51109989000E-03 0.  1.
     -623   -1    0    0    0    0  0.00000000000E+00  0.00000000000E+00  0.12525980253E-10  0.17130000000E+03  0.17130000000E+03 0. -1.
       11    1    1    2    0    0  0.10616045718E-02 -0.18604889253E-02  0.85992244354E-02  0.88767283152E-02  0.51109989000E-03 0.  1.
     -623    1    1    2    0    0 -0.28642553821E-02 -0.17165908401E-02  0.30992947973E-02  0.17130000006E+03  0.17130000000E+03 0. -1.
      622    1    1    2    0    0  0.18026508102E-02  0.35770797653E-02  0.39883014481E+01  0.39911232111E+01  0.15000000000E+00 0.  1.
</event>
<event>
 5   0  0.6780500E+06  0.9118800E+02  0.7818608E-02  0.1180000E+00
       11   -1    0    0    0    0  0.00000000000E+00  0.00000000000E+00  0.39999999673E+01  0.40000000000E+01  0.51109989000E-03 0.  1.
     -623   -1    0    0    0    0  0.00000000000E+00  0.00000000000E+00  0.12525980253E-10  0.17130000000E+03  0.17130000000E+03 0.  1.
       11    1    1    2    0    0 -0.14752498833E-01 -0.14172725772E-02  0.96910574968E-02  0.17715041639E-01  0.51109989000E-03 0.  1.
     -623    1    1    2    0    0 -0.20422957196E-02  0.21683127403E-01  0.10938744754E-01  0.17130000173E+03  0.17130000000E+03 0.  1.
      622    1    1    2    0    0  0.16794794553E-01 -0.20265854826E-01  0.39793701651E+01  0.39822832246E+01  0.15000000000E+00 0.  1.
</event>
<event>
 5   0  0.6780500E+06  0.9118800E+02  0.7818608E-02  0.1180000E+00
       11   -1    0    0    0    0  0.00000000000E+00  0.00000000000E+00  0.39999999673E+01  0.40000000000E+01  0.51109989000E-03 0.  1.
     -623   -1    0    0    0    0  0.00000000000E+00  0.00000000000E+00  0.12525980253E-10  0.17130000000E+03  0.17130000000E+03 0.  1.
       11    1    1    2    0    0 -0.89015229292E-02 -0.37920112022E-03  0.55136367180E+00  0.55143588993E+00  0.51109989000E-03 0.  1.
     -623    1    1    2    0    0  0.44597318196E-02  0.10862746688E-01  0.33552062365E-02  0.17130000044E+03  0.17130000000E+03 0.  1.
      622    1    1    2    0    0  0.44417911096E-02 -0.10483545568E-01  0.34452810893E+01  0.34485636747E+01  0.15000000000E+00 0.  1.
</event>
<event>
 5   0  0.6780500E+06  0.9118800E+02  0.7818608E-02  0.1180000E+00
       11   -1    0    0    0    0  0.00000000000E+00  0.00000000000E+00  0.39999999673E+01  0.40000000000E+01  0.51109989000E-03 0.  1.
     -623   -1    0    0    0    0  0.00000000000E+00  0.00000000000E+00  0.12525980253E-10  0.17130000000E+03  0.17130000000E+03 0.  1.
       11    1    1    2    0    0  0.11850776723E-01  0.31696486848E-02  0.52991486703E+00  0.53005708665E+00  0.51109989000E-03 0.  1.
     -623    1    1    2    0    0  0.14699308995E-01 -0.32927922200E-02  0.34882018147E-02  0.17130000070E+03  0.17130000000E+03 0.  1.
      622    1    1    2    0    0 -0.26550085718E-01  0.12314353517E-03  0.34665968985E+01  0.34699422155E+01  0.15000000000E+00 0.  1.
</event>
<event>
 5   0  0.6780500E+06  0.9118800E+02  0.7818608E-02  0.1180000E+00
       11   -1    0    0    0    0  0.00000000000E+00  0.00000000000E+00  0.39999999673E+01  0.40000000000E+01  0.51109989000E-03 0. -1.
     -623   -1    0    0    0    0  0.00000000000E+00  0.00000000000E+00  0.12525980253E-10  0.17130000000E+03  0.17130000000E+03 0.  1.
       11    1    1    2    0    0  0.28294668608E-01 -0.13117336927E-01  0.32032455874E+00  0.32183961372E+00  0.51109989000E-03 0. -1.
     -623    1    1    2    0    0 -0.26137388454E-01 -0.97224472278E-02  0.46488297983E-02  0.17130000233E+03  0.17130000000E+03 0.  1.
      622    1    1    2    0    0 -0.21572801542E-02  0.22839784154E-01  0.36750265788E+01  0.36781580533E+01  0.15000000000E+00 0. -1.
</event>
<event>
 5   0  0.6780500E+06  0.9118800E+02  0.7818608E-02  0.1180000E+00
       11   -1    0    0    0    0  0.00000000000E+00  0.00000000000E+00  0.39999999673E+01  0.40000000000E+01  0.51109989000E-03 0.  1.
     -623   -1    0    0    0    0  0.00000000000E+00  0.00000000000E+00  0.12525980253E-10  0.17130000000E+03  0.17130000000E+03 0. -1.
       11    1    1    2    0    0  0.16891203288E-01 -0.36633638297E-01  0.58744707589E+00  0.58883076040E+00  0.51109989000E-03 0.  1.
     -623    1    1    2    0    0  0.78341413909E-04  0.10579481801E-01  0.48254810048E-02  0.17130000039E+03  0.17130000000E+03 0. -1.
      622    1    1    2    0    0 -0.16969544702E-01  0.26054156496E-01  0.34077274105E+01  0.34111688449E+01  0.15000000000E+00 0.  1.
</event>
<event>
 5   0  0.6780500E+06  0.9118800E+02  0.7818608E-02  0.1180000E+00
       11   -1    0    0    0    0  0.00000000000E+00  0.00000000000E+00  0.39999999673E+01  0.40000000000E+01  0.51109989000E-03 0.  1.
     -623   -1    0    0    0    0  0.00000000000E+00  0.00000000000E+00  0.12525980253E-10  0.17130000000E+03  0.17130000000E+03 0.  1.
       11    1    1    2    0    0 -0.34376068235E-01 -0.28416624171E-01  0.41090809518E+00  0.41332183888E+00  0.51109989000E-03 0.  1.
     -623    1    1    2    0    0  0.13371888704E-01  0.21219735435E-01  0.56224043332E-02  0.17130000193E+03  0.17130000000E+03 0.  1.
      622    1    1    2    0    0  0.21004179531E-01  0.71968887356E-02  0.35834694679E+01  0.35866762326E+01  0.15000000000E+00 0.  1.
</event>
<event>
 5   0  0.6780500E+06  0.9118800E+02  0.7818608E-02  0.1180000E+00
       11   -1    0    0    0    0  0.00000000000E+00  0.00000000000E+00  0.39999999673E+01  0.40000000000E+01  0.51109989000E-03 0. -1.
     -623   -1    0    0    0    0  0.00000000000E+00  0.00000000000E+00  0.12525980253E-10  0.17130000000E+03  0.17130000000E+03 0. -1.
       11    1    1    2    0    0  0.73618622331E-02 -0.14431913462E-01  0.11778044307E-01  0.20036484035E-01  0.51109989000E-03 0. -1.
     -623    1    1    2    0    0 -0.63085745994E-02 -0.85841488426E-02  0.11153503621E-01  0.17130000069E+03  0.17130000000E+03 0. -1.
      622    1    1    2    0    0 -0.10532876337E-02  0.23016062305E-01  0.39770684195E+01  0.39799628216E+01  0.15000000000E+00 0. -1.
</event>
<event>
 5   0  0.6780500E+06  0.9118800E+02  0.7818608E-02  0.1180000E+00
       11   -1    0    0    0    0  0.00000000000E+00  0.00000000000E+00  0.39999999673E+01  0.40000000000E+01  0.51109989000E-03 0. -1.
     -623   -1    0    0    0    0  0.00000000000E+00  0.00000000000E+00  0.12525980253E-10  0.17130000000E+03  0.17130000000E+03 0. -1.
       11    1    1    2    0    0 -0.14675793279E-01  0.27476086792E-01  0.77722426612E-01  0.83733810811E-01  0.51109989000E-03 0. -1.
     -623    1    1    2    0    0 -0.12691590769E-01 -0.32962458159E-01  0.89884611029E-02  0.17130000388E+03  0.17130000000E+03 0. -1.
      622    1    1    2    0    0  0.27367384048E-01  0.54863713661E-02  0.39132890796E+01  0.39162623118E+01  0.15000000000E+00 0. -1.
</event>
<event>
 5   0  0.6780500E+06  0.9118800E+02  0.7818608E-02  0.1180000E+00
       11   -1    0    0    0    0  0.00000000000E+00  0.00000000000E+00  0.39999999673E+01  0.40000000000E+01  0.51109989000E-03 0.  1.
     -623   -1    0    0    0    0  0.00000000000E+00  0.00000000000E+00  0.12525980253E-10  0.17130000000E+03  0.17130000000E+03 0. -1.
       11    1    1    2    0    0  0.20959536936E-01 -0.17509092176E-01  0.65133083434E-01  0.70628962021E-01  0.51109989000E-03 0.  1.
     -623    1    1    2    0    0 -0.91806443582E-04  0.22490033970E-01  0.84202392791E-02  0.17130000168E+03  0.17130000000E+03 0. -1.
      622    1    1    2    0    0 -0.20867730492E-01 -0.49809417936E-02  0.39264466446E+01  0.39293693546E+01  0.15000000000E+00 0.  1.
</event>
<event>
 5   0  0.6780500E+06  0.9118800E+02  0.7818608E-02  0.1180000E+00
       11   -1    0    0    0    0  0.00000000000E+00  0.00000000000E+00  0.39999999673E+01  0.40000000000E+01  0.51109989000E-03 0.  1.
     -623   -1    0    0    0    0  0.00000000000E+00  0.00000000000E+00  0.12525980253E-10  0.17130000000E+03  0.17130000000E+03 0.  1.
       11    1    1    2    0    0 -0.68036687920E-01  0.20614409337E-01  0.38938430576E+00  0.39582110046E+00  0.51109989000E-03 0.  1.
     -623    1    1    2    0    0  0.26609453068E-02  0.56542511650E-02  0.10249224999E-01  0.17130000042E+03  0.17130000000E+03 0.  1.
      622    1    1    2    0    0  0.65375742613E-01 -0.26268660502E-01  0.36003664366E+01  0.36041784789E+01  0.15000000000E+00 0.  1.
</event>
<event>
 5   0  0.6780500E+06  0.9118800E+02  0.7818608E-02  0.1180000E+00
       11   -1    0    0    0    0  0.00000000000E+00  0.00000000000E+00  0.39999999673E+01  0.40000000000E+01  0.51109989000E-03 0. -1.
     -623   -1    0    0    0    0  0.00000000000E+00  0.00000000000E+00  0.12525980253E-10  0.17130000000E+03  0.17130000000E+03 0. -1.
       11    1    1    2    0    0 -0.38069936472E-01 -0.61769716443E-01  0.33451227096E+00  0.34229159876E+00  0.51109989000E-03 0. -1.
     -623    1    1    2    0    0 -0.49087263350E-01  0.76266779375E-01  0.11948931390E-01  0.17130002443E+03  0.17130000000E+03 0. -1.
      622    1    1    2    0    0  0.87157199822E-01 -0.14497062933E-01  0.36535387650E+01  0.36576839735E+01  0.15000000000E+00 0. -1.
</event>
<event>
 5   0  0.6780500E+06  0.9118800E+02  0.7818608E-02  0.1180000E+00
       11   -1    0    0    0    0  0.00000000000E+00  0.00000000000E+00  0.39999999673E+01  0.40000000000E+01  0.51109989000E-03 0.  1.
     -623   -1    0    0    0    0  0.00000000000E+00  0.00000000000E+00  0.12525980253E-10  0.17130000000E+03  0.17130000000E+03 0. -1.
       11    1    1    2    0    0  0.10152802345E-01  0.50360576134E-01  0.11374738895E+01  0.11386335572E+01  0.51109989000E-03 0.  1.
     -623    1    1    2    0    0 -0.31997786288E-02  0.35078991024E-02  0.56104577261E-02  0.17130000016E+03  0.17130000000E+03 0. -1.
      622    1    1    2    0    0 -0.69530237167E-02 -0.53868475236E-01  0.28569156201E+01  0.28613662851E+01  0.15000000000E+00 0.  0.
</event>
<event>
 5   0  0.6780500E+06  0.9118800E+02  0.7818608E-02  0.1180000E+00
       11   -1    0    0    0    0  0.00000000000E+00  0.00000000000E+00  0.39999999673E+01  0.40000000000E+01  0.51109989000E-03 0.  1.
     -623   -1    0    0    0    0  0.00000000000E+00  0.00000000000E+00  0.12525980253E-10  0.17130000000E+03  0.17130000000E+03 0. -1.
       11    1    1    2    0    0  0.83670833517E-01 -0.35546878175E-01  0.35086001194E+00  0.36244640725E+00  0.51109989000E-03 0.  1.
     -623    1    1    2    0    0  0.18444825337E-01 -0.48738934649E-02  0.16341957497E-01  0.17130000184E+03  0.17130000000E+03 0. -1.
      622    1    1    2    0    0 -0.10211565885E+00  0.40420771640E-01  0.36327979979E+01  0.36375517509E+01  0.15000000000E+00 0.  1.
</event>
<event>
 5   0  0.6780500E+06  0.9118800E+02  0.7818608E-02  0.1180000E+00
       11   -1    0    0    0    0  0.00000000000E+00  0.00000000000E+00  0.39999999673E+01  0.40000000000E+01  0.51109989000E-03 0.  1.
     -623   -1    0    0    0    0  0.00000000000E+00  0.00000000000E+00  0.12525980253E-10  0.17130000000E+03  0.17130000000E+03 0. -1.
       11    1    1    2    0    0  0.44036587586E-01 -0.21017356391E-01  0.73839502148E+00  0.74000568869E+00  0.51109989000E-03 0.  1.
     -623    1    1    2    0    0 -0.34152987681E-01  0.23528968600E-01  0.50844576575E-02  0.17130000510E+03  0.17130000000E+03 0. -1.
      622    1    1    2    0    0 -0.98835999041E-02 -0.25116122098E-02  0.32565204883E+01  0.32599892154E+01  0.15000000000E+00 0.  1.
</event>
<event>
 5   0  0.6780500E+06  0.9118800E+02  0.7818608E-02  0.1180000E+00
       11   -1    0    0    0    0  0.00000000000E+00  0.00000000000E+00  0.39999999673E+01  0.40000000000E+01  0.51109989000E-03 0.  1.
     -623   -1    0    0    0    0  0.00000000000E+00  0.00000000000E+00  0.12525980253E-10  0.17130000000E+03  0.17130000000E+03 0. -1.
       11    1    1    2    0    0  0.48554508507E-02 -0.81797218792E-03  0.12011475736E-01  0.12991583965E-01  0.51109989000E-03 0.  1.
     -623    1    1    2    0    0 -0.88908860834E-02 -0.55372883471E-02  0.38102144790E-02  0.17130000036E+03  0.17130000000E+03 0. -1.
      622    1    1    2    0    0  0.40354352327E-02  0.63552605351E-02  0.39841782771E+01  0.39870080534E+01  0.15000000000E+00 0.  1.
</event>
<event>
 5   0  0.6780500E+06  0.9118800E+02  0.7818608E-02  0.1180000E+00
       11   -1    0    0    0    0  0.00000000000E+00  0.00000000000E+00  0.39999999673E+01  0.40000000000E+01  0.51109989000E-03 0. -1.
     -623   -1    0    0    0    0  0.00000000000E+00  0.00000000000E+00  0.12525980253E-10  0.17130000000E+03  0.17130000000E+03 0. -1.
       11    1    1    2    0    0  0.88397023131E-02  0.10065469887E-01  0.20507932459E-01  0.24500827231E-01  0.51109989000E-03 0. -1.
     -623    1    1    2    0    0 -0.31391944775E-02 -0.39215903117E-02  0.68327542006E-02  0.17130000021E+03  0.17130000000E+03 0. -1.
      622    1    1    2    0    0 -0.57005078356E-02 -0.61438795753E-02  0.39726592807E+01  0.39754989628E+01  0.15000000000E+00 0.  0.
</event>
<event>
 5   0  0.6780500E+06  0.9118800E+02  0.7818608E-02  0.1180000E+00
       11   -1    0    0    0    0  0.00000000000E+00  0.00000000000E+00  0.39999999673E+01  0.40000000000E+01  0.51109989000E-03 0.  1.
     -623   -1    0    0    0    0  0.00000000000E+00  0.00000000000E+00  0.12525980253E-10  0.17130000000E+03  0.17130000000E+03 0. -1.
       11    1    1    2    0    0  0.94684400557E-02  0.19111733337E-01  0.25793451452E-01  0.33473468132E-01  0.51109989000E-03 0.  1.
     -623    1    1    2    0    0  0.44826826607E-02 -0.26685567713E-01  0.10551485698E-01  0.17130000246E+03  0.17130000000E+03 0. -1.
      622    1    1    2    0    0 -0.13951122716E-01  0.75738343757E-02  0.39636550302E+01  0.39665240697E+01  0.15000000000E+00 0.  1.
</event>
<event>
 5   0  0.6780500E+06  0.9118800E+02  0.7818608E-02  0.1180000E+00
       11   -1    0    0    0    0  0.00000000000E+00  0.00000000000E+00  0.39999999673E+01  0.40000000000E+01  0.51109989000E-03 0.  1.
     -623   -1    0    0    0    0  0.00000000000E+00  0.00000000000E+00  0.12525980253E-10  0.17130000000E+03  0.17130000000E+03 0. -1.
       11    1    1    2    0    0  0.53432217006E-01 -0.76258622572E-01  0.84120569893E+00  0.84634370587E+00  0.51109989000E-03 0.  1.
     -623    1    1    2    0    0 -0.12024064149E-01 -0.10434847058E-01  0.10173767822E-01  0.17130000104E+03  0.17130000000E+03 0. -1.
      622    1    1    2    0    0 -0.41408152857E-01  0.86693469630E-01  0.31486205006E+01  0.31536552522E+01  0.15000000000E+00 0.  1.
</event>
<event>
 5   0  0.6780500E+06  0.9118800E+02  0.7818608E-02  0.1180000E+00
       11   -1    0    0    0    0  0.00000000000E+00  0.00000000000E+00  0.39999999673E+01  0.40000000000E+01  0.51109989000E-03 0. -1.
     -623   -1    0    0    0    0  0.00000000000E+00  0.00000000000E+00  0.12525980253E-10  0.17130000000E+03  0.17130000000E+03 0.  1.
       11    1    1    2    0    0  0.18313673193E-01  0.34140679072E-02  0.42556206654E-01  0.46457921105E-01  0.51109989000E-03 0. -1.
     -623    1    1    2    0    0 -0.19346239825E-01 -0.11448247471E-02  0.67502729923E-02  0.17130000123E+03  0.17130000000E+03 0.  1.
      622    1    1    2    0    0  0.10325666325E-02 -0.22692431601E-02  0.39506934877E+01  0.39535408496E+01  0.15000000000E+00 0. -1.
</event>
<event>
 5   0  0.6780500E+06  0.9118800E+02  0.7818608E-02  0.1180000E+00
       11   -1    0    0    0    0  0.00000000000E+00  0.00000000000E+00  0.39999999673E+01  0.40000000000E+01  0.51109989000E-03 0. -1.
     -623   -1    0    0    0    0  0.00000000000E+00  0.00000000000E+00  0.12525980253E-10  0.17130000000E+03  0.17130000000E+03 0.  1.
       11    1    1    2    0    0  0.23197627206E-01 -0.44851933376E-01  0.52481138794E-01  0.72831016652E-01  0.51109989000E-03 0. -1.
     -623    1    1    2    0    0 -0.43398324054E-01 -0.73157253905E-02  0.23621595782E-01  0.17130000728E+03  0.17130000000E+03 0.  1.
      622    1    1    2    0    0  0.20200696848E-01  0.52167658766E-01  0.39238972328E+01  0.39271617011E+01  0.15000000000E+00 0. -1.
</event>
<event>
 5   0  0.6780500E+06  0.9118800E+02  0.7818608E-02  0.1180000E+00
       11   -1    0    0    0    0  0.00000000000E+00  0.00000000000E+00  0.39999999673E+01  0.40000000000E+01  0.51109989000E-03 0. -1.
     -623   -1    0    0    0    0  0.00000000000E+00  0.00000000000E+00  0.12525980253E-10  0.17130000000E+03  0.17130000000E+03 0.  1.
       11    1    1    2    0    0 -0.14816186197E-03  0.39425230722E-02 -0.18661765951E-03  0.39826482832E-02  0.51109989000E-03 0. -1.
     -623    1    1    2    0    0 -0.13274969287E-01 -0.74613948188E-02  0.70104611505E-02  0.17130000082E+03  0.17130000000E+03 0.  1.
      622    1    1    2    0    0  0.13423131149E-01  0.35188717466E-02  0.39931761239E+01  0.39960165314E+01  0.15000000000E+00 0. -1.
</event>
<event>
 5   0  0.6780500E+06  0.9118800E+02  0.7818608E-02  0.1180000E+00
       11   -1    0    0    0    0  0.00000000000E+00  0.00000000000E+00  0.39999999673E+01  0.40000000000E+01  0.51109989000E-03 0. -1.
     -623   -1    0    0    0    0  0.00000000000E+00  0.00000000000E+00  0.12525980253E-10  0.17130000000E+03  0.17130000000E+03 0. -1.
       11    1    1    2    0    0 -0.32784310024E-01 -0.78579909246E-03  0.55666076697E+00  0.55762612849E+00  0.51109989000E-03 0. -1.
     -623    1    1    2    0    0 -0.11052810859E-01 -0.68952008867E-02  0.45235090850E-02  0.17130000056E+03  0.17130000000E+03 0. -1.
      622    1    1    2    0    0  0.43837120883E-01  0.76809999793E-02  0.34388156914E+01  0.34423733165E+01  0.15000000000E+00 0.  0.
</event>
<event>
 5   0  0.6780500E+06  0.9118800E+02  0.7818608E-02  0.1180000E+00
       11   -1    0    0    0    0  0.00000000000E+00  0.00000000000E+00  0.39999999673E+01  0.40000000000E+01  0.51109989000E-03 0. -1.
     -623   -1    0    0    0    0  0.00000000000E+00  0.00000000000E+00  0.12525980253E-10  0.17130000000E+03  0.17130000000E+03 0.  1.
       11    1    1    2    0    0 -0.87066729786E-02  0.73388821605E-02  0.22897119762E-01  0.25577424835E-01  0.51109989000E-03 0. -1.
     -623    1    1    2    0    0  0.21133977588E-02 -0.63996837732E-02  0.55176864347E-02  0.17130000022E+03  0.17130000000E+03 0.  1.
      622    1    1    2    0    0  0.65932752198E-02 -0.93919838727E-03  0.39715851612E+01  0.39744223537E+01  0.15000000000E+00 0. -1.
</event>
<event>
 5   0  0.6780500E+06  0.9118800E+02  0.7818608E-02  0.1180000E+00
       11   -1    0    0    0    0  0.00000000000E+00  0.00000000000E+00  0.39999999673E+01  0.40000000000E+01  0.51109989000E-03 0. -1.
     -623   -1    0    0    0    0  0.00000000000E+00  0.00000000000E+00  0.12525980253E-10  0.17130000000E+03  0.17130000000E+03 0.  1.
       11    1    1    2    0    0 -0.71155813620E-02 -0.28460692455E-02  0.20724624168E-01  0.22102101166E-01  0.51109989000E-03 0. -1.
     -623    1    1    2    0    0  0.17164401166E-01  0.38121946645E-02  0.42203512766E-02  0.17130000095E+03  0.17130000000E+03 0.  1.
      622    1    1    2    0    0 -0.10048819804E-01 -0.96612541898E-03  0.39750549919E+01  0.39778969445E+01  0.15000000000E+00 0. -1.
</event>
<event>
 5   0  0.6780500E+06  0.9118800E+02  0.7818608E-02  0.1180000E+00
       11   -1    0    0    0    0  0.00000000000E+00  0.00000000000E+00  0.39999999673E+01  0.40000000000E+01  0.51109989000E-03 0.  1.
     -623   -1    0    0    0    0  0.00000000000E+00  0.00000000000E+00  0.12525980253E-10  0.17130000000E+03  0.17130000000E+03 0. -1.
       11    1    1    2    0    0  0.12463836845E-01 -0.11612633535E-01  0.13687484358E-01  0.21858841178E-01  0.51109989000E-03 0.  1.
     -623    1    1    2    0    0 -0.17516600697E-01  0.14981192921E-01  0.11006828006E-01  0.17130000190E+03  0.17130000000E+03 0. -1.
      622    1    1    2    0    0  0.50527638526E-02 -0.33685593857E-02  0.39753056550E+01  0.39781392545E+01  0.15000000000E+00 0.  1.
</event>
<event>
 5   0  0.6780500E+06  0.9118800E+02  0.7818608E-02  0.1180000E+00
       11   -1    0    0    0    0  0.00000000000E+00  0.00000000000E+00  0.39999999673E+01  0.40000000000E+01  0.51109989000E-03 0.  1.
     -623   -1    0    0    0    0  0.00000000000E+00  0.00000000000E+00  0.12525980253E-10  0.17130000000E+03  0.17130000000E+03 0.  1.
       11    1    1    2    0    0  0.33073735463E-01 -0.29860984391E-01  0.93655878290E-01  0.10371709178E+00  0.51109989000E-03 0.  1.
     -623    1    1    2    0    0 -0.48456588474E-01  0.26710787308E-01  0.12990718071E-01  0.17130000943E+03  0.17130000000E+03 0.  1.
      622    1    1    2    0    0  0.15382853011E-01  0.31501970833E-02  0.38933533710E+01  0.38962734795E+01  0.15000000000E+00 0.  1.
</event>
<event>
 5   0  0.6780500E+06  0.9118800E+02  0.7818608E-02  0.1180000E+00
       11   -1    0    0    0    0  0.00000000000E+00  0.00000000000E+00  0.39999999673E+01  0.40000000000E+01  0.51109989000E-03 0. -1.
     -623   -1    0    0    0    0  0.00000000000E+00  0.00000000000E+00  0.12525980253E-10  0.17130000000E+03  0.17130000000E+03 0. -1.
       11    1    1    2    0    0  0.41656457377E-01 -0.22691005671E-01  0.11217113924E+00  0.12178985130E+00  0.51109989000E-03 0. -1.
     -623    1    1    2    0    0 -0.59615091651E-01 -0.15416291681E-01  0.12761118999E-01  0.17130001154E+03  0.17130000000E+03 0. -1.
      622    1    1    2    0    0  0.17958634273E-01  0.38107297352E-01  0.38750677091E+01  0.38781986062E+01  0.15000000000E+00 0. -1.
</event>
<event>
 5   0  0.6780500E+06  0.9118800E+02  0.7818608E-02  0.1180000E+00
       11   -1    0    0    0    0  0.00000000000E+00  0.00000000000E+00  0.39999999673E+01  0.40000000000E+01  0.51109989000E-03 0.  1.
     -623   -1    0    0    0    0  0.00000000000E+00  0.00000000000E+00  0.12525980253E-10  0.17130000000E+03  0.17130000000E+03 0.  1.
       11    1    1    2    0    0 -0.48874716228E-03  0.39643816232E-02  0.25519368135E-01  0.25835142090E-01  0.51109989000E-03 0.  1.
     -623    1    1    2    0    0  0.53940517764E-02 -0.67336362632E-02  0.31517750597E-02  0.17130000025E+03  0.17130000000E+03 0.  1.
      622    1    1    2    0    0 -0.49053046141E-02  0.27692546400E-02  0.39713288242E+01  0.39741646116E+01  0.15000000000E+00 0.  1.
</event>
<event>
 5   0  0.6780500E+06  0.9118800E+02  0.7818608E-02  0.1180000E+00
       11   -1    0    0    0    0  0.00000000000E+00  0.00000000000E+00  0.39999999673E+01  0.40000000000E+01  0.51109989000E-03 0.  1.
     -623   -1    0    0    0    0  0.00000000000E+00  0.00000000000E+00  0.12525980253E-10  0.17130000000E+03  0.17130000000E+03 0. -1.
       11    1    1    2    0    0 -0.29728331992E-02  0.80743165590E-02  0.22394647987E+00  0.22411229193E+00  0.51109989000E-03 0.  1.
     -623    1    1    2    0    0 -0.39139489140E-02  0.96223625679E-02  0.31945211059E-02  0.17130000034E+03  0.17130000000E+03 0. -1.
      622    1    1    2    0    0  0.68867821132E-02 -0.17696679127E-01  0.37728589664E+01  0.37758873633E+01  0.15000000000E+00 0.  1.
</event>
<event>
 5   0  0.6780500E+06  0.9118800E+02  0.7818608E-02  0.1180000E+00
       11   -1    0    0    0    0  0.00000000000E+00  0.00000000000E+00  0.39999999673E+01  0.40000000000E+01  0.51109989000E-03 0. -1.
     -623   -1    0    0    0    0  0.00000000000E+00  0.00000000000E+00  0.12525980253E-10  0.17130000000E+03  0.17130000000E+03 0.  1.
       11    1    1    2    0    0  0.70283417837E-02 -0.15633949754E-01  0.53408226428E-01  0.56093830734E-01  0.51109989000E-03 0. -1.
     -623    1    1    2    0    0  0.21280412057E-02  0.60294993561E-02  0.55616555707E-02  0.17130000021E+03  0.17130000000E+03 0.  1.
      622    1    1    2    0    0 -0.91563829893E-02  0.96044503979E-02  0.39410300853E+01  0.39439059596E+01  0.15000000000E+00 0. -1.
</event>
<event>
 5   0  0.6780500E+06  0.9118800E+02  0.7818608E-02  0.1180000E+00
       11   -1    0    0    0    0  0.00000000000E+00  0.00000000000E+00  0.39999999673E+01  0.40000000000E+01  0.51109989000E-03 0.  1.
     -623   -1    0    0    0    0  0.00000000000E+00  0.00000000000E+00  0.12525980253E-10  0.17130000000E+03  0.17130000000E+03 0.  1.
       11    1    1    2    0    0  0.42289805967E-01 -0.64416938520E-02  0.21569940767E+00  0.21990092951E+00  0.51109989000E-03 0.  1.
     -623    1    1    2    0    0 -0.98504466114E-02  0.16674569964E-01  0.73331921479E-02  0.17130000125E+03  0.17130000000E+03 0.  1.
      622    1    1    2    0    0 -0.32439359355E-01 -0.10232876112E-01  0.37769673675E+01  0.37800978187E+01  0.15000000000E+00 0.  1.
</event>
<event>
 5   0  0.6780500E+06  0.9118800E+02  0.7818608E-02  0.1180000E+00
       11   -1    0    0    0    0  0.00000000000E+00  0.00000000000E+00  0.39999999673E+01  0.40000000000E+01  0.51109989000E-03 0. -1.
     -623   -1    0    0    0    0  0.00000000000E+00  0.00000000000E+00  0.12525980253E-10  0.17130000000E+03  0.17130000000E+03 0. -1.
       11    1    1    2    0    0  0.39781556013E-02 -0.42129104822E-01  0.44004258207E-01  0.61051807169E-01  0.51109989000E-03 0. -1.
     -623    1    1    2    0    0 -0.16173010339E-01  0.89847839653E-02  0.20065263045E-01  0.17130000217E+03  0.17130000000E+03 0. -1.
      622    1    1    2    0    0  0.12194854738E-01  0.33144320857E-01  0.39359304461E+01  0.39389460186E+01  0.15000000000E+00 0. -1.
</event>
<event>
 5   0  0.6780500E+06  0.9118800E+02  0.7818608E-02  0.1180000E+00
       11   -1    0    0    0    0  0.00000000000E+00  0.00000000000E+00  0.39999999673E+01  0.40000000000E+01  0.51109989000E-03 0.  1.
     -623   -1    0    0    0    0  0.00000000000E+00  0.00000000000E+00  0.12525980253E-10  0.17130000000E+03  0.17130000000E+03 0. -1.
       11    1    1    2    0    0 -0.16091148263E-01  0.28109554666E-01 -0.13078845745E-01  0.34934074270E-01  0.51109989000E-03 0.  1.
     -623    1    1    2    0    0 -0.21913938797E-01 -0.15326040256E-01  0.51063785086E-01  0.17130000970E+03  0.17130000000E+03 0. -1.
      622    1    1    2    0    0  0.38005087060E-01 -0.12783514411E-01  0.39620150280E+01  0.39650562275E+01  0.15000000000E+00 0.  1.
</event>
<event>
 5   0  0.6780500E+06  0.9118800E+02  0.7818608E-02  0.1180000E+00
       11   -1    0    0    0    0  0.00000000000E+00  0.00000000000E+00  0.39999999673E+01  0.40000000000E+01  0.51109989000E-03 0. -1.
     -623   -1    0    0    0    0  0.00000000000E+00  0.00000000000E+00  0.12525980253E-10  0.17130000000E+03  0.17130000000E+03 0.  1.
       11    1    1    2    0    0 -0.61814645355E-02 -0.59048854746E-02  0.12051754329E+00  0.12082142873E+00  0.51109989000E-03 0. -1.
     -623    1    1    2    0    0 -0.71498061649E-03  0.92761655067E-02  0.32129201009E-02  0.17130000028E+03  0.17130000000E+03 0.  1.
      622    1    1    2    0    0  0.68964451520E-02 -0.33712800324E-02  0.38762695041E+01  0.38791782886E+01  0.15000000000E+00 0. -1.
</event>
<event>
 5   0  0.6780500E+06  0.9118800E+02  0.7818608E-02  0.1180000E+00
       11   -1    0    0    0    0  0.00000000000E+00  0.00000000000E+00  0.39999999673E+01  0.40000000000E+01  0.51109989000E-03 0. -1.
     -623   -1    0    0    0    0  0.00000000000E+00  0.00000000000E+00  0.12525980253E-10  0.17130000000E+03  0.17130000000E+03 0. -1.
       11    1    1    2    0    0  0.78815238589E-02 -0.88822769596E-02  0.65729702189E-01  0.66795720186E-01  0.51109989000E-03 0. -1.
     -623    1    1    2    0    0 -0.36089552813E-02 -0.36606821107E-02  0.39497488355E-02  0.17130000012E+03  0.17130000000E+03 0. -1.
      622    1    1    2    0    0 -0.42725685777E-02  0.12542959070E-01  0.39303205162E+01  0.39332041570E+01  0.15000000000E+00 0. -1.
</event>
<event>
 5   0  0.6780500E+06  0.9118800E+02  0.7818608E-02  0.1180000E+00
       11   -1    0    0    0    0  0.00000000000E+00  0.00000000000E+00  0.39999999673E+01  0.40000000000E+01  0.51109989000E-03 0.  1.
     -623   -1    0    0    0    0  0.00000000000E+00  0.00000000000E+00  0.12525980253E-10  0.17130000000E+03  0.17130000000E+03 0. -1.
       11    1    1    2    0    0  0.30837988445E-02  0.10165831639E-01  0.91635548268E-01  0.92250684960E-01  0.51109989000E-03 0.  1.
     -623    1    1    2    0    0  0.80733603187E-02 -0.15107036062E-01  0.35150191183E-02  0.17130000089E+03  0.17130000000E+03 0. -1.
      622    1    1    2    0    0 -0.11157159163E-01  0.49412044226E-02  0.39048494000E+01  0.39077484226E+01  0.15000000000E+00 0.  1.
</event>
<event>
 5   0  0.6780500E+06  0.9118800E+02  0.7818608E-02  0.1180000E+00
       11   -1    0    0    0    0  0.00000000000E+00  0.00000000000E+00  0.39999999673E+01  0.40000000000E+01  0.51109989000E-03 0.  1.
     -623   -1    0    0    0    0  0.00000000000E+00  0.00000000000E+00  0.12525980253E-10  0.17130000000E+03  0.17130000000E+03 0.  1.
       11    1    1    2    0    0  0.23433715798E-01  0.28861456792E-02  0.67399404731E-01  0.71417153781E-01  0.51109989000E-03 0.  1.
     -623    1    1    2    0    0 -0.17548945252E-01  0.60471202341E-02  0.68981091747E-02  0.17130000114E+03  0.17130000000E+03 0.  1.
      622    1    1    2    0    0 -0.58847705463E-02 -0.89332659133E-02  0.39257024534E+01  0.39285817017E+01  0.15000000000E+00 0.  1.
</event>
<event>
 5   0  0.6780500E+06  0.9118800E+02  0.7818608E-02  0.1180000E+00
       11   -1    0    0    0    0  0.00000000000E+00  0.00000000000E+00  0.39999999673E+01  0.40000000000E+01  0.51109989000E-03 0. -1.
     -623   -1    0    0    0    0  0.00000000000E+00  0.00000000000E+00  0.12525980253E-10  0.17130000000E+03  0.17130000000E+03 0. -1.
       11    1    1    2    0    0  0.49772807516E-01 -0.30050608043E-01  0.43029181147E+00  0.43420234413E+00  0.51109989000E-03 0. -1.
     -623    1    1    2    0    0  0.19375428252E-03  0.66535600150E-02  0.74944127319E-02  0.17130000029E+03  0.17130000000E+03 0. -1.
      622    1    1    2    0    0 -0.49966561799E-01  0.23397048027E-01  0.35622137432E+01  0.35657973626E+01  0.15000000000E+00 0. -1.
</event>
<event>
 5   0  0.6780500E+06  0.9118800E+02  0.7818608E-02  0.1180000E+00
       11   -1    0    0    0    0  0.00000000000E+00  0.00000000000E+00  0.39999999673E+01  0.40000000000E+01  0.51109989000E-03 0.  1.
     -623   -1    0    0    0    0  0.00000000000E+00  0.00000000000E+00  0.12525980253E-10  0.17130000000E+03  0.17130000000E+03 0.  1.
       11    1    1    2    0    0 -0.30690485377E-01  0.20912099010E-02  0.11700233909E+00  0.12097969923E+00  0.51109989000E-03 0.  1.
     -623    1    1    2    0    0  0.83514785775E-02 -0.76966735631E-02  0.69475734475E-02  0.17130000052E+03  0.17130000000E+03 0.  1.
      622    1    1    2    0    0  0.22339006799E-01  0.56054636621E-02  0.38760500548E+01  0.38790197834E+01  0.15000000000E+00 0.  1.
</event>
<event>
 5   0  0.6780500E+06  0.9118800E+02  0.7818608E-02  0.1180000E+00
       11   -1    0    0    0    0  0.00000000000E+00  0.00000000000E+00  0.39999999673E+01  0.40000000000E+01  0.51109989000E-03 0.  1.
     -623   -1    0    0    0    0  0.00000000000E+00  0.00000000000E+00  0.12525980253E-10  0.17130000000E+03  0.17130000000E+03 0.  1.
       11    1    1    2    0    0 -0.10407288002E-01  0.41513813557E-01  0.11667734436E+01  0.11675582377E+01  0.51109989000E-03 0.  1.
     -623    1    1    2    0    0 -0.18162939799E-02 -0.21556885524E-01  0.48576451052E-02  0.17130000143E+03  0.17130000000E+03 0.  1.
      622    1    1    2    0    0  0.12223581982E-01 -0.19956928034E-01  0.28283688786E+01  0.28324403275E+01  0.15000000000E+00 0.  1.
</event>
<event>
 5   0  0.6780500E+06  0.9118800E+02  0.7818608E-02  0.1180000E+00
       11   -1    0    0    0    0  0.00000000000E+00  0.00000000000E+00  0.39999999673E+01  0.40000000000E+01  0.51109989000E-03 0. -1.
     -623   -1    0    0    0    0  0.00000000000E+00  0.00000000000E+00  0.12525980253E-10  0.17130000000E+03  0.17130000000E+03 0.  1.
       11    1    1    2    0    0 -0.42533833402E-02  0.59420787183E-02 -0.95927135011E-03  0.73878950963E-02  0.51109989000E-03 0. -1.
     -623    1    1    2    0    0  0.12907581384E-01  0.95308152044E-02  0.11206340695E-01  0.17130000112E+03  0.17130000000E+03 0.  1.
      622    1    1    2    0    0 -0.86541980436E-02 -0.15472893923E-01  0.39897528980E+01  0.39926109869E+01  0.15000000000E+00 0. -1.
</event>
<event>
 5   0  0.6780500E+06  0.9118800E+02  0.7818608E-02  0.1180000E+00
       11   -1    0    0    0    0  0.00000000000E+00  0.00000000000E+00  0.39999999673E+01  0.40000000000E+01  0.51109989000E-03 0.  1.
     -623   -1    0    0    0    0  0.00000000000E+00  0.00000000000E+00  0.12525980253E-10  0.17130000000E+03  0.17130000000E+03 0. -1.
       11    1    1    2    0    0  0.10550626015E-01 -0.54718302149E-02  0.57232733151E+00  0.57245095183E+00  0.51109989000E-03 0.  1.
     -623    1    1    2    0    0 -0.95827324935E-02 -0.10818142138E-01  0.34469188798E-02  0.17130000064E+03  0.17130000000E+03 0. -1.
      622    1    1    2    0    0 -0.96789352184E-03  0.16289972353E-01  0.34242257170E+01  0.34275484039E+01  0.15000000000E+00 0.  1.
</event>
<event>
 5   0  0.6780500E+06  0.9118800E+02  0.7818608E-02  0.1180000E+00
       11   -1    0    0    0    0  0.00000000000E+00  0.00000000000E+00  0.39999999673E+01  0.40000000000E+01  0.51109989000E-03 0. -1.
     -623   -1    0    0    0    0  0.00000000000E+00  0.00000000000E+00  0.12525980253E-10  0.17130000000E+03  0.17130000000E+03 0.  1.
       11    1    1    2    0    0  0.25450130347E-01  0.87726060779E-02  0.20322124754E+00  0.20499708395E+00  0.51109989000E-03 0. -1.
     -623    1    1    2    0    0 -0.25960295431E-01 -0.21104382664E-01  0.47648091006E-02  0.17130000333E+03  0.17130000000E+03 0.  1.
      622    1    1    2    0    0  0.51016508456E-03  0.12331776587E-01  0.37920139107E+01  0.37949995826E+01  0.15000000000E+00 0. -1.
</event>
<event>
 5   0  0.6780500E+06  0.9118800E+02  0.7818608E-02  0.1180000E+00
       11   -1    0    0    0    0  0.00000000000E+00  0.00000000000E+00  0.39999999673E+01  0.40000000000E+01  0.51109989000E-03 0.  1.
     -623   -1    0    0    0    0  0.00000000000E+00  0.00000000000E+00  0.12525980253E-10  0.17130000000E+03  0.17130000000E+03 0.  1.
       11    1    1    2    0    0  0.72234753871E-02 -0.10773996590E-01  0.45353910878E-04  0.12981559200E-01  0.51109989000E-03 0.  1.
     -623    1    1    2    0    0 -0.16195758502E-01  0.76879372967E-02  0.15771792440E-01  0.17130000166E+03  0.17130000000E+03 0.  1.
      622    1    1    2    0    0  0.89722831153E-02  0.30860592935E-02  0.39841828210E+01  0.39870167766E+01  0.15000000000E+00 0.  1.
</event>
<event>
 5   0  0.6780500E+06  0.9118800E+02  0.7818608E-02  0.1180000E+00
       11   -1    0    0    0    0  0.00000000000E+00  0.00000000000E+00  0.39999999673E+01  0.40000000000E+01  0.51109989000E-03 0. -1.
     -623   -1    0    0    0    0  0.00000000000E+00  0.00000000000E+00  0.12525980253E-10  0.17130000000E+03  0.17130000000E+03 0. -1.
       11    1    1    2    0    0  0.40881769762E-01  0.13353081323E-01  0.18184093859E+00  0.18685826727E+00  0.51109989000E-03 0. -1.
     -623    1    1    2    0    0 -0.46047171060E-02 -0.63358054501E-01  0.84816248874E-02  0.17130001199E+03  0.17130000000E+03 0. -1.
      622    1    1    2    0    0 -0.36277052656E-01  0.50004973178E-01  0.38096774039E+01  0.38131297439E+01  0.15000000000E+00 0. -1.
</event>
<event>
 5   0  0.6780500E+06  0.9118800E+02  0.7818608E-02  0.1180000E+00
       11   -1    0    0    0    0  0.00000000000E+00  0.00000000000E+00  0.39999999673E+01  0.40000000000E+01  0.51109989000E-03 0. -1.
     -623   -1    0    0    0    0  0.00000000000E+00  0.00000000000E+00  0.12525980253E-10  0.17130000000E+03  0.17130000000E+03 0.  1.
       11    1    1    2    0    0  0.28885972767E-01 -0.65443574944E-02  0.43999521560E+00  0.44099124595E+00  0.51109989000E-03 0. -1.
     -623    1    1    2    0    0 -0.25443207708E-01 -0.11220158108E-01  0.42067474215E-02  0.17130000231E+03  0.17130000000E+03 0.  1.
      622    1    1    2    0    0 -0.34427650594E-02  0.17764515603E-01  0.35557980043E+01  0.35590064454E+01  0.15000000000E+00 0.  0.
</event>
<event>
 5   0  0.6780500E+06  0.9118800E+02  0.7818608E-02  0.1180000E+00
       11   -1    0    0    0    0  0.00000000000E+00  0.00000000000E+00  0.39999999673E+01  0.40000000000E+01  0.51109989000E-03 0. -1.
     -623   -1    0    0    0    0  0.00000000000E+00  0.00000000000E+00  0.12525980253E-10  0.17130000000E+03  0.17130000000E+03 0.  1.
       11    1    1    2    0    0 -0.29570295154E-02  0.63497694066E-03  0.36564197454E-02  0.47726143488E-02  0.51109989000E-03 0. -1.
     -623    1    1    2    0    0  0.71250354628E-02  0.57786164487E-03  0.39355691187E-02  0.17130000019E+03  0.17130000000E+03 0.  1.
      622    1    1    2    0    0 -0.41680059472E-02 -0.12128385855E-02  0.39924079784E+01  0.39952271912E+01  0.15000000000E+00 0. -1.
</event>
<event>
 5   0  0.6780500E+06  0.9118800E+02  0.7818608E-02  0.1180000E+00
       11   -1    0    0    0    0  0.00000000000E+00  0.00000000000E+00  0.39999999673E+01  0.40000000000E+01  0.51109989000E-03 0.  1.
     -623   -1    0    0    0    0  0.00000000000E+00  0.00000000000E+00  0.12525980253E-10  0.17130000000E+03  0.17130000000E+03 0. -1.
       11    1    1    2    0    0  0.35750206116E-02 -0.30940610432E-01  0.81760521588E+00  0.81819841872E+00  0.51109989000E-03 0.  1.
     -623    1    1    2    0    0 -0.60701474716E-02  0.59667396551E-02  0.42302332950E-02  0.17130000026E+03  0.17130000000E+03 0. -1.
      622    1    1    2    0    0  0.24951268600E-02  0.24973870777E-01  0.31781645182E+01  0.31818013176E+01  0.15000000000E+00 0.  1.
</event>
<event>
 5   0  0.6780500E+06  0.9118800E+02  0.7818608E-02  0.1180000E+00
       11   -1    0    0    0    0  0.00000000000E+00  0.00000000000E+00  0.39999999673E+01  0.40000000000E+01  0.51109989000E-03 0. -1.
     -623   -1    0    0    0    0  0.00000000000E+00  0.00000000000E+00  0.12525980253E-10  0.17130000000E+03  0.17130000000E+03 0.  1.
       11    1    1    2    0    0  0.37598533386E-02 -0.10157010488E-01  0.17771705639E-01  0.20818167633E-01  0.51109989000E-03 0. -1.
     -623    1    1    2    0    0 -0.94250821782E-02  0.51133210219E-02  0.58823201836E-02  0.17130000044E+03  0.17130000000E+03 0.  1.
      622    1    1    2    0    0  0.56652288398E-02  0.50436894660E-02  0.39763459416E+01  0.39791813959E+01  0.15000000000E+00 0. -1.
</event>
<event>
 5   0  0.6780500E+06  0.9118800E+02  0.7818608E-02  0.1180000E+00
       11   -1    0    0    0    0  0.00000000000E+00  0.00000000000E+00  0.39999999673E+01  0.40000000000E+01  0.51109989000E-03 0.  1.
     -623   -1    0    0    0    0  0.00000000000E+00  0.00000000000E+00  0.12525980253E-10  0.17130000000E+03  0.17130000000E+03 0. -1.
       11    1    1    2    0    0 -0.73019464196E-01 -0.11676360656E+00  0.88512908087E+00  0.89577861829E+00  0.51109989000E-03 0.  1.
     -623    1    1    2    0    0  0.10207792068E+00  0.50686750169E-01  0.15154722108E-01  0.17130003858E+03  0.17130000000E+03 0. -1.
      622    1    1    2    0    0 -0.29058456488E-01  0.66076856392E-01  0.30997161644E+01  0.31041827982E+01  0.15000000000E+00 0.  1.
</event>
<event>
 5   0  0.6780500E+06  0.9118800E+02  0.7818608E-02  0.1180000E+00
       11   -1    0    0    0    0  0.00000000000E+00  0.00000000000E+00  0.39999999673E+01  0.40000000000E+01  0.51109989000E-03 0. -1.
     -623   -1    0    0    0    0  0.00000000000E+00  0.00000000000E+00  0.12525980253E-10  0.17130000000E+03  0.17130000000E+03 0. -1.
       11    1    1    2    0    0  0.66997228149E-03  0.50294705683E-02  0.54046584908E-02  0.74307465005E-02  0.51109989000E-03 0. -1.
     -623    1    1    2    0    0  0.29837650507E-02 -0.44139448149E-03  0.48491911767E-02  0.17130000010E+03  0.17130000000E+03 0. -1.
      622    1    1    2    0    0 -0.36537373323E-02 -0.45880760868E-02  0.39897461178E+01  0.39925691584E+01  0.15000000000E+00 0. -1.
</event>
<event>
 5   0  0.6780500E+06  0.9118800E+02  0.7818608E-02  0.1180000E+00
       11   -1    0    0    0    0  0.00000000000E+00  0.00000000000E+00  0.39999999673E+01  0.40000000000E+01  0.51109989000E-03 0.  1.
     -623   -1    0    0    0    0  0.00000000000E+00  0.00000000000E+00  0.12525980253E-10  0.17130000000E+03  0.17130000000E+03 0.  1.
       11    1    1    2    0    0 -0.60249944123E-01  0.49675669822E-01  0.26884674107E+00  0.27995813856E+00  0.51109989000E-03 0.  1.
     -623    1    1    2    0    0  0.23991586255E-01  0.79553943545E-02  0.14762929853E-01  0.17130000250E+03  0.17130000000E+03 0.  1.
      622    1    1    2    0    0  0.36258357868E-01 -0.57631064176E-01  0.37163902964E+01  0.37200393605E+01  0.15000000000E+00 0.  1.
</event>
<event>
 5   0  0.6780500E+06  0.9118800E+02  0.7818608E-02  0.1180000E+00
       11   -1    0    0    0    0  0.00000000000E+00  0.00000000000E+00  0.39999999673E+01  0.40000000000E+01  0.51109989000E-03 0.  1.
     -623   -1    0    0    0    0  0.00000000000E+00  0.00000000000E+00  0.12525980253E-10  0.17130000000E+03  0.17130000000E+03 0. -1.
       11    1    1    2    0    0  0.21510244723E-01 -0.43010829011E-01  0.24568617796E+00  0.25034891912E+00  0.51109989000E-03 0.  1.
     -623    1    1    2    0    0  0.19331033976E-01  0.40245078339E-01  0.78938220610E-02  0.17130000600E+03  0.17130000000E+03 0. -1.
      622    1    1    2    0    0 -0.40841278698E-01  0.27657506716E-02  0.37464199673E+01  0.37496450807E+01  0.15000000000E+00 0.  1.
</event>
<event>
 5   0  0.6780500E+06  0.9118800E+02  0.7818608E-02  0.1180000E+00
       11   -1    0    0    0    0  0.00000000000E+00  0.00000000000E+00  0.39999999673E+01  0.40000000000E+01  0.51109989000E-03 0. -1.
     -623   -1    0    0    0    0  0.00000000000E+00  0.00000000000E+00  0.12525980253E-10  0.17130000000E+03  0.17130000000E+03 0. -1.
       11    1    1    2    0    0 -0.40930769190E-02 -0.15816146157E-01  0.51950044134E-01  0.54460738744E-01  0.51109989000E-03 0. -1.
     -623    1    1    2    0    0 -0.12685841340E-01  0.19410641546E-02  0.54236993638E-02  0.17130000057E+03  0.17130000000E+03 0. -1.
      622    1    1    2    0    0  0.16778918259E-01  0.13875082003E-01  0.39426262239E+01  0.39455386947E+01  0.15000000000E+00 0. -1.
</event>
<event>
 5   0  0.6780500E+06  0.9118800E+02  0.7818608E-02  0.1180000E+00
       11   -1    0    0    0    0  0.00000000000E+00  0.00000000000E+00  0.39999999673E+01  0.40000000000E+01  0.51109989000E-03 0.  1.
     -623   -1    0    0    0    0  0.00000000000E+00  0.00000000000E+00  0.12525980253E-10  0.17130000000E+03  0.17130000000E+03 0. -1.
       11    1    1    2    0    0 -0.12778943723E-02 -0.46053276893E-02  0.10497789012E-01  0.11545858669E-01  0.51109989000E-03 0.  1.
     -623    1    1    2    0    0  0.20206590352E-02  0.28254605451E-02  0.38702224127E-02  0.17130000008E+03  0.17130000000E+03 0. -1.
      622    1    1    2    0    0 -0.74276466296E-03  0.17798671441E-02  0.39856319559E+01  0.39884540624E+01  0.15000000000E+00 0.  1.
</event>
<event>
 5   0  0.6780500E+06  0.9118800E+02  0.7818608E-02  0.1180000E+00
       11   -1    0    0    0    0  0.00000000000E+00  0.00000000000E+00  0.39999999673E+01  0.40000000000E+01  0.51109989000E-03 0. -1.
     -623   -1    0    0    0    0  0.00000000000E+00  0.00000000000E+00  0.12525980253E-10  0.17130000000E+03  0.17130000000E+03 0. -1.
       11    1    1    2    0    0 -0.69089428227E-01 -0.20044619948E-01  0.30174581130E+00  0.31020304921E+00  0.51109989000E-03 0. -1.
     -623    1    1    2    0    0 -0.14559511344E-01  0.23354704666E-01  0.12460648956E-01  0.17130000266E+03  0.17130000000E+03 0. -1.
      622    1    1    2    0    0  0.83648939571E-01 -0.33100847186E-02  0.36857935071E+01  0.36897942868E+01  0.15000000000E+00 0. -1.
</event>
<event>
 5   0  0.6780500E+06  0.9118800E+02  0.7818608E-02  0.1180000E+00
       11   -1    0    0    0    0  0.00000000000E+00  0.00000000000E+00  0.39999999673E+01  0.40000000000E+01  0.51109989000E-03 0. -1.
     -623   -1    0    0    0    0  0.00000000000E+00  0.00000000000E+00  0.12525980253E-10  0.17130000000E+03  0.17130000000E+03 0. -1.
       11    1    1    2    0    0  0.24309482748E-01  0.83483740586E-01  0.37393898216E+00  0.38391549786E+00  0.51109989000E-03 0. -1.
     -623    1    1    2    0    0  0.23276233124E-01 -0.24168612772E-01  0.13893131976E-01  0.17130000385E+03  0.17130000000E+03 0. -1.
      622    1    1    2    0    0 -0.47585715872E-01 -0.59315127815E-01  0.36121678532E+01  0.36160806524E+01  0.15000000000E+00 0. -1.
</event>
<event>
 5   0  0.6780500E+06  0.9118800E+02  0.7818608E-02  0.1180000E+00
       11   -1    0    0    0    0  0.00000000000E+00  0.00000000000E+00  0.39999999673E+01  0.40000000000E+01  0.51109989000E-03 0.  1.
     -623   -1    0    0    0    0  0.00000000000E+00  0.00000000000E+00  0.12525980253E-10  0.17130000000E+03  0.17130000000E+03 0.  1.
       11    1    1    2    0    0  0.11445259996E-01  0.22661520096E-01  0.10002979130E+00  0.10320251373E+00  0.51109989000E-03 0.  1.
     -623    1    1    2    0    0  0.17298631340E-01 -0.18972140104E-01  0.61706223296E-02  0.17130000204E+03  0.17130000000E+03 0.  1.
      622    1    1    2    0    0 -0.28743891336E-01 -0.36893799920E-02  0.38937995537E+01  0.38967954511E+01  0.15000000000E+00 0.  1.
</event>
<event>
 5   0  0.6780500E+06  0.9118800E+02  0.7818608E-02  0.1180000E+00
       11   -1    0    0    0    0  0.00000000000E+00  0.00000000000E+00  0.39999999673E+01  0.40000000000E+01  0.51109989000E-03 0.  1.
     -623   -1    0    0    0    0  0.00000000000E+00  0.00000000000E+00  0.12525980253E-10  0.17130000000E+03  0.17130000000E+03 0. -1.
       11    1    1    2    0    0  0.35151450856E-01  0.42305040581E-01  0.29921359110E+00  0.30422750579E+00  0.51109989000E-03 0.  1.
     -623    1    1    2    0    0  0.35253165777E-02 -0.11282765112E-01  0.83926376693E-02  0.17130000061E+03  0.17130000000E+03 0. -1.
      622    1    1    2    0    0 -0.38676767434E-01 -0.31022275469E-01  0.36923937386E+01  0.36957718808E+01  0.15000000000E+00 0.  1.
</event>
<event>
 5   0  0.6780500E+06  0.9118800E+02  0.7818608E-02  0.1180000E+00
       11   -1    0    0    0    0  0.00000000000E+00  0.00000000000E+00  0.39999999673E+01  0.40000000000E+01  0.51109989000E-03 0.  1.
     -623   -1    0    0    0    0  0.00000000000E+00  0.00000000000E+00  0.12525980253E-10  0.17130000000E+03  0.17130000000E+03 0.  1.
       11    1    1    2    0    0  0.45929420829E-02  0.81245494312E-02  0.34434243098E-01  0.35680271037E-01  0.51109989000E-03 0.  1.
     -623    1    1    2    0    0  0.40541657336E-02 -0.75570208051E-02  0.40945671194E-02  0.17130000026E+03  0.17130000000E+03 0.  1.
      622    1    1    2    0    0 -0.86471078164E-02 -0.56752862622E-03  0.39614711571E+01  0.39643194653E+01  0.15000000000E+00 0.  1.
</event>
<event>
 5   0  0.6780500E+06  0.9118800E+02  0.7818608E-02  0.1180000E+00
       11   -1    0    0    0    0  0.00000000000E+00  0.00000000000E+00  0.39999999673E+01  0.40000000000E+01  0.51109989000E-03 0.  1.
     -623   -1    0    0    0    0  0.00000000000E+00  0.00000000000E+00  0.12525980253E-10  0.17130000000E+03  0.17130000000E+03 0. -1.
       11    1    1    2    0    0  0.97967710164E-01 -0.21495296066E-01  0.51775764952E+00  0.52738312909E+00  0.51109989000E-03 0.  1.
     -623    1    1    2    0    0 -0.63423772385E-03  0.52017741852E-01  0.14375039932E-01  0.17130000850E+03  0.17130000000E+03 0. -1.
      622    1    1    2    0    0 -0.97333472440E-01 -0.30522445786E-01  0.34678672779E+01  0.34726083686E+01  0.15000000000E+00 0.  1.
</event>
<event>
 5   0  0.6780500E+06  0.9118800E+02  0.7818608E-02  0.1180000E+00
       11   -1    0    0    0    0  0.00000000000E+00  0.00000000000E+00  0.39999999673E+01  0.40000000000E+01  0.51109989000E-03 0. -1.
     -623   -1    0    0    0    0  0.00000000000E+00  0.00000000000E+00  0.12525980253E-10  0.17130000000E+03  0.17130000000E+03 0.  1.
       11    1    1    2    0    0  0.26770678547E-01  0.17299003413E-01  0.10102676102E+00  0.10593673779E+00  0.51109989000E-03 0. -1.
     -623    1    1    2    0    0 -0.98858695504E-02 -0.27693860939E-01  0.78532541958E-02  0.17130000270E+03  0.17130000000E+03 0.  1.
      622    1    1    2    0    0 -0.16884808996E-01  0.10394857527E-01  0.38911199522E+01  0.38940605583E+01  0.15000000000E+00 0. -1.
</event>
<event>
 5   0  0.6780500E+06  0.9118800E+02  0.7818608E-02  0.1180000E+00
       11   -1    0    0    0    0  0.00000000000E+00  0.00000000000E+00  0.39999999673E+01  0.40000000000E+01  0.51109989000E-03 0. -1.
     -623   -1    0    0    0    0  0.00000000000E+00  0.00000000000E+00  0.12525980253E-10  0.17130000000E+03  0.17130000000E+03 0. -1.
       11    1    1    2    0    0  0.62670035689E-01  0.21149112268E-01  0.42560634834E+00  0.43071550157E+00  0.51109989000E-03 0. -1.
     -623    1    1    2    0    0  0.71421282020E-02 -0.34937151974E-01  0.89764193614E-02  0.17130000395E+03  0.17130000000E+03 0. -1.
      622    1    1    2    0    0 -0.69812163891E-01  0.13788039707E-01  0.35654171997E+01  0.35692805516E+01  0.15000000000E+00 0. -1.
</event>
<event>
 5   0  0.6780500E+06  0.9118800E+02  0.7818608E-02  0.1180000E+00
       11   -1    0    0    0    0  0.00000000000E+00  0.00000000000E+00  0.39999999673E+01  0.40000000000E+01  0.51109989000E-03 0. -1.
     -623   -1    0    0    0    0  0.00000000000E+00  0.00000000000E+00  0.12525980253E-10  0.17130000000E+03  0.17130000000E+03 0. -1.
       11    1    1    2    0    0 -0.42152653049E-01 -0.23914595595E-01  0.45878263054E+00  0.46133557997E+00  0.51109989000E-03 0. -1.
     -623    1    1    2    0    0  0.41568358120E-03 -0.21522052315E-01  0.62733445037E-02  0.17130000147E+03  0.17130000000E+03 0. -1.
      622    1    1    2    0    0  0.41736969468E-01  0.45436647910E-01  0.35349439923E+01  0.35386629526E+01  0.15000000000E+00 0.  0.
</event>
<event>
 5   0  0.6780500E+06  0.9118800E+02  0.7818608E-02  0.1180000E+00
       11   -1    0    0    0    0  0.00000000000E+00  0.00000000000E+00  0.39999999673E+01  0.40000000000E+01  0.51109989000E-03 0.  1.
     -623   -1    0    0    0    0  0.00000000000E+00  0.00000000000E+00  0.12525980253E-10  0.17130000000E+03  0.17130000000E+03 0.  1.
       11    1    1    2    0    0  0.82387442252E-02  0.17156224787E-01  0.50178288262E-01  0.53668750604E-01  0.51109989000E-03 0.  1.
     -623    1    1    2    0    0  0.36651066669E-02  0.56513451553E-03  0.64001544273E-02  0.17130000016E+03  0.17130000000E+03 0.  1.
      622    1    1    2    0    0 -0.11903850892E-01 -0.17721359303E-01  0.39434215246E+01  0.39463310897E+01  0.15000000000E+00 0.  1.
</event>
<event>
 5   0  0.6780500E+06  0.9118800E+02  0.7818608E-02  0.1180000E+00
       11   -1    0    0    0    0  0.00000000000E+00  0.00000000000E+00  0.39999999673E+01  0.40000000000E+01  0.51109989000E-03 0.  1.
     -623   -1    0    0    0    0  0.00000000000E+00  0.00000000000E+00  0.12525980253E-10  0.17130000000E+03  0.17130000000E+03 0.  1.
       11    1    1    2    0    0  0.63073921154E-02  0.28257382606E-02  0.90565493865E-02  0.11403959838E-01  0.51109989000E-03 0.  1.
     -623    1    1    2    0    0  0.28665092965E-05 -0.54372665340E-02  0.51749324450E-02  0.17130000016E+03  0.17130000000E+03 0.  1.
      622    1    1    2    0    0 -0.63102586247E-02  0.26115282735E-02  0.39857684855E+01  0.39885958757E+01  0.15000000000E+00 0.  1.
</event>
<event>
 5   0  0.6780500E+06  0.9118800E+02  0.7818608E-02  0.1180000E+00
       11   -1    0    0    0    0  0.00000000000E+00  0.00000000000E+00  0.39999999673E+01  0.40000000000E+01  0.51109989000E-03 0. -1.
     -623   -1    0    0    0    0  0.00000000000E+00  0.00000000000E+00  0.12525980253E-10  0.17130000000E+03  0.17130000000E+03 0.  1.
       11    1    1    2    0    0 -0.15626905321E-01  0.26498701227E-02  0.16826279985E+00  0.16900844067E+00  0.51109989000E-03 0. -1.
     -623    1    1    2    0    0 -0.18119457951E-02 -0.87294307003E-02  0.37281334809E-02  0.17130000027E+03  0.17130000000E+03 0.  1.
      622    1    1    2    0    0  0.17438851116E-01  0.60795605776E-02  0.38280090340E+01  0.38309912868E+01  0.15000000000E+00 0. -1.
</event>
<event>
 5   0  0.6780500E+06  0.9118800E+02  0.7818608E-02  0.1180000E+00
       11   -1    0    0    0    0  0.00000000000E+00  0.00000000000E+00  0.39999999673E+01  0.40000000000E+01  0.51109989000E-03 0.  1.
     -623   -1    0    0    0    0  0.00000000000E+00  0.00000000000E+00  0.12525980253E-10  0.17130000000E+03  0.17130000000E+03 0. -1.
       11    1    1    2    0    0  0.87630470981E-02  0.43852353128E-02  0.18070123461E-01  0.20562389652E-01  0.51109989000E-03 0.  1.
     -623    1    1    2    0    0 -0.46172722816E-02  0.62553670218E-02  0.53369279927E-02  0.17130000026E+03  0.17130000000E+03 0. -1.
      622    1    1    2    0    0 -0.41457748165E-02 -0.10640602335E-01  0.39765929159E+01  0.39794373508E+01  0.15000000000E+00 0.  1.
</event>
<event>
 5   0  0.6780500E+06  0.9118800E+02  0.7818608E-02  0.1180000E+00
       11   -1    0    0    0    0  0.00000000000E+00  0.00000000000E+00  0.39999999673E+01  0.40000000000E+01  0.51109989000E-03 0. -1.
     -623   -1    0    0    0    0  0.00000000000E+00  0.00000000000E+00  0.12525980253E-10  0.17130000000E+03  0.17130000000E+03 0. -1.
       11    1    1    2    0    0 -0.98072745371E-02 -0.15678008357E-01  0.10561773500E+00  0.10722569538E+00  0.51109989000E-03 0. -1.
     -623    1    1    2    0    0 -0.40110232914E-02 -0.48726115711E-02  0.45779786770E-02  0.17130000018E+03  0.17130000000E+03 0. -1.
      622    1    1    2    0    0  0.13818297828E-01  0.20550619928E-01  0.38898042536E+01  0.38927741271E+01  0.15000000000E+00 0.  0.
</event>
<event>
 5   0  0.6780500E+06  0.9118800E+02  0.7818608E-02  0.1180000E+00
       11   -1    0    0    0    0  0.00000000000E+00  0.00000000000E+00  0.39999999673E+01  0.40000000000E+01  0.51109989000E-03 0. -1.
     -623   -1    0    0    0    0  0.00000000000E+00  0.00000000000E+00  0.12525980253E-10  0.17130000000E+03  0.17130000000E+03 0. -1.
       11    1    1    2    0    0 -0.36322903158E-03 -0.22338491865E-02 -0.12424113590E-02  0.26318865097E-02  0.51109989000E-03 0. -1.
     -623    1    1    2    0    0 -0.20866070784E-01 -0.12430276131E-01  0.67747948909E-02  0.17130000186E+03  0.17130000000E+03 0. -1.
      622    1    1    2    0    0  0.21229299815E-01  0.14664125317E-01  0.39944675838E+01  0.39973662577E+01  0.15000000000E+00 0. -1.
</event>
<event>
 5   0  0.6780500E+06  0.9118800E+02  0.7818608E-02  0.1180000E+00
       11   -1    0    0    0    0  0.00000000000E+00  0.00000000000E+00  0.39999999673E+01  0.40000000000E+01  0.51109989000E-03 0. -1.
     -623   -1    0    0    0    0  0.00000000000E+00  0.00000000000E+00  0.12525980253E-10  0.17130000000E+03  0.17130000000E+03 0. -1.
       11    1    1    2    0    0 -0.91368321766E-01  0.10912624821E-01  0.99877005209E+00  0.10030000667E+01  0.51109989000E-03 0. -1.
     -623    1    1    2    0    0  0.19464589573E-01  0.69012743218E-01  0.99327539631E-02  0.17130001530E+03  0.17130000000E+03 0. -1.
      622    1    1    2    0    0  0.71903732193E-01 -0.79925368039E-01  0.29912971613E+01  0.29969846377E+01  0.15000000000E+00 0.  1.
</event>
<event>
 5   0  0.6780500E+06  0.9118800E+02  0.7818608E-02  0.1180000E+00
       11   -1    0    0    0    0  0.00000000000E+00  0.00000000000E+00  0.39999999673E+01  0.40000000000E+01  0.51109989000E-03 0.  1.
     -623   -1    0    0    0    0  0.00000000000E+00  0.00000000000E+00  0.12525980253E-10  0.17130000000E+03  0.17130000000E+03 0. -1.
       11    1    1    2    0    0 -0.21405301232E-01  0.56759135978E-02  0.43461861687E-01  0.48781118893E-01  0.51109989000E-03 0.  1.
     -623    1    1    2    0    0 -0.16432888992E-02 -0.12366578336E-01  0.82410692852E-02  0.17130000065E+03  0.17130000000E+03 0. -1.
      622    1    1    2    0    0  0.23048590131E-01  0.66906647381E-02  0.39482970364E+01  0.39512182286E+01  0.15000000000E+00 0.  1.
</event>
<event>
 5   0  0.6780500E+06  0.9118800E+02  0.7818608E-02  0.1180000E+00
       11   -1    0    0    0    0  0.00000000000E+00  0.00000000000E+00  0.39999999673E+01  0.40000000000E+01  0.51109989000E-03 0.  1.
     -623   -1    0    0    0    0  0.00000000000E+00  0.00000000000E+00  0.12525980253E-10  0.17130000000E+03  0.17130000000E+03 0. -1.
       11    1    1    2    0    0 -0.10484810930E-02  0.32760446819E-02  0.64742323586E+00  0.64743257513E+00  0.51109989000E-03 0.  1.
     -623    1    1    2    0    0 -0.11136338086E-01 -0.20790077898E-01  0.34362433148E-02  0.17130000166E+03  0.17130000000E+03 0. -1.
      622    1    1    2    0    0  0.12184819179E-01  0.17514033216E-01  0.33491404882E+01  0.33525657668E+01  0.15000000000E+00 0.  1.
</event>
<event>
 5   0  0.6780500E+06  0.9118800E+02  0.7818608E-02  0.1180000E+00
       11   -1    0    0    0    0  0.00000000000E+00  0.00000000000E+00  0.39999999673E+01  0.40000000000E+01  0.51109989000E-03 0.  1.
     -623   -1    0    0    0    0  0.00000000000E+00  0.00000000000E+00  0.12525980253E-10  0.17130000000E+03  0.17130000000E+03 0.  1.
       11    1    1    2    0    0 -0.10435454499E-01 -0.24662780847E-01  0.39858547648E+00  0.39948441115E+00  0.51109989000E-03 0.  1.
     -623    1    1    2    0    0  0.19856653335E-02  0.80945414013E-02  0.40731404801E-02  0.17130000025E+03  0.17130000000E+03 0.  1.
      622    1    1    2    0    0  0.84497891657E-02  0.16568239446E-01  0.35973413504E+01  0.36005153377E+01  0.15000000000E+00 0.  1.
</event>
<event>
 5   0  0.6780500E+06  0.9118800E+02  0.7818608E-02  0.1180000E+00
       11   -1    0    0    0    0  0.00000000000E+00  0.00000000000E+00  0.39999999673E+01  0.40000000000E+01  0.51109989000E-03 0.  1.
     -623   -1    0    0    0    0  0.00000000000E+00  0.00000000000E+00  0.12525980253E-10  0.17130000000E+03  0.17130000000E+03 0. -1.
       11    1    1    2    0    0 -0.66544873136E-01  0.21072298840E-01  0.10236956817E+01  0.10260727907E+01  0.51109989000E-03 0.  1.
     -623    1    1    2    0    0  0.53845020326E-03  0.21300371321E-01  0.71997113304E-02  0.17130000148E+03  0.17130000000E+03 0. -1.
      622    1    1    2    0    0  0.66006422933E-01 -0.42372670162E-01  0.29691045744E+01  0.29739257329E+01  0.15000000000E+00 0.  1.
</event>
<event>
 5   0  0.6780500E+06  0.9118800E+02  0.7818608E-02  0.1180000E+00
       11   -1    0    0    0    0  0.00000000000E+00  0.00000000000E+00  0.39999999673E+01  0.40000000000E+01  0.51109989000E-03 0. -1.
     -623   -1    0    0    0    0  0.00000000000E+00  0.00000000000E+00  0.12525980253E-10  0.17130000000E+03  0.17130000000E+03 0.  1.
       11    1    1    2    0    0  0.19785567545E-01  0.49125663824E-01  0.16784606184E+00  0.17600386708E+00  0.51109989000E-03 0. -1.
     -623    1    1    2    0    0  0.65153369977E-03 -0.43666027057E-02  0.11418108525E-01  0.17130000044E+03  0.17130000000E+03 0.  1.
      622    1    1    2    0    0 -0.20437101245E-01 -0.44759061118E-01  0.38207357970E+01  0.38239956955E+01  0.15000000000E+00 0. -1.
</event>
<event>
 5   0  0.6780500E+06  0.9118800E+02  0.7818608E-02  0.1180000E+00
       11   -1    0    0    0    0  0.00000000000E+00  0.00000000000E+00  0.39999999673E+01  0.40000000000E+01  0.51109989000E-03 0.  1.
     -623   -1    0    0    0    0  0.00000000000E+00  0.00000000000E+00  0.12525980253E-10  0.17130000000E+03  0.17130000000E+03 0. -1.
       11    1    1    2    0    0  0.81481657706E-02  0.10803924994E-01  0.11937587017E+00  0.12014148742E+00  0.51109989000E-03 0.  1.
     -623    1    1    2    0    0  0.17157182324E-01 -0.24284732392E-01  0.37749078027E-02  0.17130000262E+03  0.17130000000E+03 0. -1.
      622    1    1    2    0    0 -0.25305348095E-01  0.13480807398E-01  0.38768491894E+01  0.38798558904E+01  0.15000000000E+00 0.  1.
</event>
<event>
 5   0  0.6780500E+06  0.9118800E+02  0.7818608E-02  0.1180000E+00
       11   -1    0    0    0    0  0.00000000000E+00  0.00000000000E+00  0.39999999673E+01  0.40000000000E+01  0.51109989000E-03 0. -1.
     -623   -1    0    0    0    0  0.00000000000E+00  0.00000000000E+00  0.12525980253E-10  0.17130000000E+03  0.17130000000E+03 0.  1.
       11    1    1    2    0    0 -0.85719673171E-02  0.42431567829E-02  0.24341130460E-01  0.26157883293E-01  0.51109989000E-03 0. -1.
     -623    1    1    2    0    0  0.75300112081E-02 -0.11104277439E-01  0.46553957910E-02  0.17130000059E+03  0.17130000000E+03 0.  1.
      622    1    1    2    0    0  0.10419561089E-02  0.68611206559E-02  0.39710034412E+01  0.39738415281E+01  0.15000000000E+00 0. -1.
</event>
<event>
 5   0  0.6780500E+06  0.9118800E+02  0.7818608E-02  0.1180000E+00
       11   -1    0    0    0    0  0.00000000000E+00  0.00000000000E+00  0.39999999673E+01  0.40000000000E+01  0.51109989000E-03 0. -1.
     -623   -1    0    0    0    0  0.00000000000E+00  0.00000000000E+00  0.12525980253E-10  0.17130000000E+03  0.17130000000E+03 0. -1.
       11    1    1    2    0    0  0.70423181695E-01 -0.41659464242E-01  0.45065334755E+00  0.45802143658E+00  0.51109989000E-03 0. -1.
     -623    1    1    2    0    0  0.12619201275E-02 -0.19945269750E-01  0.11809750134E-01  0.17130000157E+03  0.17130000000E+03 0. -1.
      622    1    1    2    0    0 -0.71685101823E-01  0.61604733992E-01  0.35375368697E+01  0.35419769905E+01  0.15000000000E+00 0. -1.
</event>
<event>
 5   0  0.6780500E+06  0.9118800E+02  0.7818608E-02  0.1180000E+00
       11   -1    0    0    0    0  0.00000000000E+00  0.00000000000E+00  0.39999999673E+01  0.40000000000E+01  0.51109989000E-03 0. -1.
     -623   -1    0    0    0    0  0.00000000000E+00  0.00000000000E+00  0.12525980253E-10  0.17130000000E+03  0.17130000000E+03 0. -1.
       11    1    1    2    0    0  0.94837825279E-03  0.92420803382E-01  0.35225960691E+00  0.36418346503E+00  0.51109989000E-03 0. -1.
     -623    1    1    2    0    0 -0.29112179266E-01 -0.12916509024E+00  0.15366284316E-01  0.17130005186E+03  0.17130000000E+03 0. -1.
      622    1    1    2    0    0  0.28163801014E-01  0.36744286861E-01  0.36323740761E+01  0.36357646749E+01  0.15000000000E+00 0. -1.
</event>
<event>
 5   0  0.6780500E+06  0.9118800E+02  0.7818608E-02  0.1180000E+00
       11   -1    0    0    0    0  0.00000000000E+00  0.00000000000E+00  0.39999999673E+01  0.40000000000E+01  0.51109989000E-03 0. -1.
     -623   -1    0    0    0    0  0.00000000000E+00  0.00000000000E+00  0.12525980253E-10  0.17130000000E+03  0.17130000000E+03 0. -1.
       11    1    1    2    0    0  0.18589433155E-02 -0.42423636095E-02 -0.24278845626E-02  0.52544424816E-02  0.51109989000E-03 0. -1.
     -623    1    1    2    0    0 -0.10246204034E-01 -0.26141734112E-03  0.10511468454E-01  0.17130000063E+03  0.17130000000E+03 0. -1.
      622    1    1    2    0    0  0.83872607185E-02  0.45037809506E-02  0.39919163835E+01  0.39947449284E+01  0.15000000000E+00 0. -1.
</event>
<event>
 5   0  0.6780500E+06  0.9118800E+02  0.7818608E-02  0.1180000E+00
       11   -1    0    0    0    0  0.00000000000E+00  0.00000000000E+00  0.39999999673E+01  0.40000000000E+01  0.51109989000E-03 0.  1.
     -623   -1    0    0    0    0  0.00000000000E+00  0.00000000000E+00  0.12525980253E-10  0.17130000000E+03  0.17130000000E+03 0.  1.
       11    1    1    2    0    0 -0.22672007492E-01 -0.44218436293E-02  0.35489300928E+00  0.35564431935E+00  0.51109989000E-03 0.  1.
     -623    1    1    2    0    0  0.12371241432E-01 -0.29137417682E-01  0.40117468982E-02  0.17130000297E+03  0.17130000000E+03 0.  1.
      622    1    1    2    0    0  0.10300766060E-01  0.33559261311E-01  0.36410952112E+01  0.36443527088E+01  0.15000000000E+00 0.  1.
</event>
<event>
 5   0  0.6780500E+06  0.9118800E+02  0.7818608E-02  0.1180000E+00
       11   -1    0    0    0    0  0.00000000000E+00  0.00000000000E+00  0.39999999673E+01  0.40000000000E+01  0.51109989000E-03 0.  1.
     -623   -1    0    0    0    0  0.00000000000E+00  0.00000000000E+00  0.12525980253E-10  0.17130000000E+03  0.17130000000E+03 0. -1.
       11    1    1    2    0    0 -0.79997899082E-02 -0.34977787987E-02  0.98978418341E-01  0.99364076081E-01  0.51109989000E-03 0.  1.
     -623    1    1    2    0    0  0.29261597546E-02  0.62284505579E-02  0.32752655789E-02  0.17130000017E+03  0.17130000000E+03 0. -1.
      622    1    1    2    0    0  0.50736301536E-02 -0.27306717592E-02  0.38977462834E+01  0.39006357544E+01  0.15000000000E+00 0.  1.
</event>
<event>
 5   0  0.6780500E+06  0.9118800E+02  0.7818608E-02  0.1180000E+00
       11   -1    0    0    0    0  0.00000000000E+00  0.00000000000E+00  0.39999999673E+01  0.40000000000E+01  0.51109989000E-03 0.  1.
     -623   -1    0    0    0    0  0.00000000000E+00  0.00000000000E+00  0.12525980253E-10  0.17130000000E+03  0.17130000000E+03 0. -1.
       11    1    1    2    0    0 -0.47030166355E-03 -0.30911941970E-02  0.12820124263E-01  0.13205812065E-01  0.51109989000E-03 0.  1.
     -623    1    1    2    0    0  0.17573957558E-01  0.95014195588E-02  0.32515385444E-02  0.17130000120E+03  0.17130000000E+03 0. -1.
      622    1    1    2    0    0 -0.17103655895E-01 -0.64102253617E-02  0.39839283046E+01  0.39867929921E+01  0.15000000000E+00 0.  1.
</event>
<event>
 5   0  0.6780500E+06  0.9118800E+02  0.7818608E-02  0.1180000E+00
       11   -1    0    0    0    0  0.00000000000E+00  0.00000000000E+00  0.39999999673E+01  0.40000000000E+01  0.51109989000E-03 0.  1.
     -623   -1    0    0    0    0  0.00000000000E+00  0.00000000000E+00  0.12525980253E-10  0.17130000000E+03  0.17130000000E+03 0. -1.
       11    1    1    2    0    0  0.26619656121E-01 -0.11748740631E-01  0.13359179385E+00  0.13672478782E+00  0.51109989000E-03 0.  1.
     -623    1    1    2    0    0  0.93230079897E-02  0.72329845457E-02  0.62165867868E-02  0.17130000052E+03  0.17130000000E+03 0. -1.
      622    1    1    2    0    0 -0.35942664111E-01  0.45157560851E-02  0.38601915867E+01  0.38632746930E+01  0.15000000000E+00 0.  1.
</event>
<event>
 5   0  0.6780500E+06  0.9118800E+02  0.7818608E-02  0.1180000E+00
       11   -1    0    0    0    0  0.00000000000E+00  0.00000000000E+00  0.39999999673E+01  0.40000000000E+01  0.51109989000E-03 0. -1.
     -623   -1    0    0    0    0  0.00000000000E+00  0.00000000000E+00  0.12525980253E-10  0.17130000000E+03  0.17130000000E+03 0.  1.
       11    1    1    2    0    0  0.55001822751E-02  0.33593533454E-03  0.14793701459E-01  0.15794925880E-01  0.51109989000E-03 0. -1.
     -623    1    1    2    0    0  0.46526401307E-03  0.11040622643E-02  0.38306194913E-02  0.17130000005E+03  0.17130000000E+03 0.  1.
      622    1    1    2    0    0 -0.59654462882E-02 -0.14399975989E-02  0.39813756464E+01  0.39842050271E+01  0.15000000000E+00 0. -1.
</event>
<event>
 5   0  0.6780500E+06  0.9118800E+02  0.7818608E-02  0.1180000E+00
       11   -1    0    0    0    0  0.00000000000E+00  0.00000000000E+00  0.39999999673E+01  0.40000000000E+01  0.51109989000E-03 0.  1.
     -623   -1    0    0    0    0  0.00000000000E+00  0.00000000000E+00  0.12525980253E-10  0.17130000000E+03  0.17130000000E+03 0.  1.
       11    1    1    2    0    0 -0.45976627006E-02  0.33416347531E-02  0.12721483014E-02  0.58467606014E-02  0.51109989000E-03 0.  1.
     -623    1    1    2    0    0  0.13297752322E-01 -0.85059468187E-02  0.74059015517E-02  0.17130000089E+03  0.17130000000E+03 0.  1.
      622    1    1    2    0    0 -0.87000896218E-02  0.51643120656E-02  0.39913219175E+01  0.39941523520E+01  0.15000000000E+00 0.  1.
</event>
<event>
 5   0  0.6780500E+06  0.9118800E+02  0.7818608E-02  0.1180000E+00
       11   -1    0    0    0    0  0.00000000000E+00  0.00000000000E+00  0.39999999673E+01  0.40000000000E+01  0.51109989000E-03 0.  1.
     -623   -1    0    0    0    0  0.00000000000E+00  0.00000000000E+00  0.12525980253E-10  0.17130000000E+03  0.17130000000E+03 0.  1.
       11    1    1    2    0    0 -0.41927260996E-01  0.36324206272E-01  0.42038236635E+00  0.42402704906E+00  0.51109989000E-03 0.  1.
     -623    1    1    2    0    0 -0.28867997780E-01 -0.21077907263E-01  0.75299379548E-02  0.17130000389E+03  0.17130000000E+03 0.  1.
      622    1    1    2    0    0  0.70795258777E-01 -0.15246299008E-01  0.35720876631E+01  0.35759690563E+01  0.15000000000E+00 0.  1.
</event>
<event>
 5   0  0.6780500E+06  0.9118800E+02  0.7818608E-02  0.1180000E+00
       11   -1    0    0    0    0  0.00000000000E+00  0.00000000000E+00  0.39999999673E+01  0.40000000000E+01  0.51109989000E-03 0.  1.
     -623   -1    0    0    0    0  0.00000000000E+00  0.00000000000E+00  0.12525980253E-10  0.17130000000E+03  0.17130000000E+03 0. -1.
       11    1    1    2    0    0  0.12183299539E-01 -0.11669856988E-01  0.14596354268E+00  0.14693616085E+00  0.51109989000E-03 0.  1.
     -623    1    1    2    0    0 -0.13931562778E-01 -0.57324878772E-02  0.39338808910E-02  0.17130000071E+03  0.17130000000E+03 0. -1.
      622    1    1    2    0    0  0.17482632388E-02  0.17402344866E-01  0.38501025438E+01  0.38530631316E+01  0.15000000000E+00 0.  1.
</event>
<event>
 5   0  0.6780500E+06  0.9118800E+02  0.7818608E-02  0.1180000E+00
       11   -1    0    0    0    0  0.00000000000E+00  0.00000000000E+00  0.39999999673E+01  0.40000000000E+01  0.51109989000E-03 0.  1.
     -623   -1    0    0    0    0  0.00000000000E+00  0.00000000000E+00  0.12525980253E-10  0.17130000000E+03  0.17130000000E+03 0. -1.
       11    1    1    2    0    0  0.62055369655E-02  0.67914093505E-02  0.16889808099E-01  0.19239510667E-01  0.51109989000E-03 0.  1.
     -623    1    1    2    0    0  0.14008523507E-02 -0.70327824617E-02  0.51842752786E-02  0.17130000023E+03  0.17130000000E+03 0. -1.
      622    1    1    2    0    0 -0.76063893162E-02  0.24137311113E-03  0.39779258840E+01  0.39807602608E+01  0.15000000000E+00 0.  1.
</event>
<event>
 5   0  0.6780500E+06  0.9118800E+02  0.7818608E-02  0.1180000E+00
       11   -1    0    0    0    0  0.00000000000E+00  0.00000000000E+00  0.39999999673E+01  0.40000000000E+01  0.51109989000E-03 0.  1.
     -623   -1    0    0    0    0  0.00000000000E+00  0.00000000000E+00  0.12525980253E-10  0.17130000000E+03  0.17130000000E+03 0. -1.
       11    1    1    2    0    0 -0.40500496978E-02 -0.67220144134E-01  0.41748609622E+00  0.42288278806E+00  0.51109989000E-03 0.  1.
     -623    1    1    2    0    0 -0.91645359190E-02 -0.13281667615E-01  0.94752387400E-02  0.17130000102E+03  0.17130000000E+03 0. -1.
      622    1    1    2    0    0  0.13214585617E-01  0.80501811750E-01  0.35730386324E+01  0.35771161898E+01  0.15000000000E+00 0.  1.
</event>
<event>
 5   0  0.6780500E+06  0.9118800E+02  0.7818608E-02  0.1180000E+00
       11   -1    0    0    0    0  0.00000000000E+00  0.00000000000E+00  0.39999999673E+01  0.40000000000E+01  0.51109989000E-03 0.  1.
     -623   -1    0    0    0    0  0.00000000000E+00  0.00000000000E+00  0.12525980253E-10  0.17130000000E+03  0.17130000000E+03 0.  1.
       11    1    1    2    0    0  0.17233813829E-01 -0.56541186529E-02  0.63255765327E-02  0.19215814799E-01  0.51109989000E-03 0.  1.
     -623    1    1    2    0    0  0.60485834152E-02  0.27117876866E-01  0.15846316184E-01  0.17130000299E+03  0.17130000000E+03 0.  1.
      622    1    1    2    0    0 -0.23282397244E-01 -0.21463758213E-01  0.39778280746E+01  0.39807811990E+01  0.15000000000E+00 0.  1.
</event>
<event>
 5   0  0.6780500E+06  0.9118800E+02  0.7818608E-02  0.1180000E+00
       11   -1    0    0    0    0  0.00000000000E+00  0.00000000000E+00  0.39999999673E+01  0.40000000000E+01  0.51109989000E-03 0. -1.
     -623   -1    0    0    0    0  0.00000000000E+00  0.00000000000E+00  0.12525980253E-10  0.17130000000E+03  0.17130000000E+03 0. -1.
       11    1    1    2    0    0 -0.14615810510E-02  0.12593611811E-02  0.20795303292E-01  0.20890860965E-01  0.51109989000E-03 0. -1.
     -623    1    1    2    0    0  0.44650271703E-02  0.26931859294E-02  0.29269994124E-02  0.17130000010E+03  0.17130000000E+03 0. -1.
      622    1    1    2    0    0 -0.30034461193E-02 -0.39525471105E-02  0.39762776646E+01  0.39791090346E+01  0.15000000000E+00 0. -1.
</event>
<event>
 5   0  0.6780500E+06  0.9118800E+02  0.7818608E-02  0.1180000E+00
       11   -1    0    0    0    0  0.00000000000E+00  0.00000000000E+00  0.39999999673E+01  0.40000000000E+01  0.51109989000E-03 0. -1.
     -623   -1    0    0    0    0  0.00000000000E+00  0.00000000000E+00  0.12525980253E-10  0.17130000000E+03  0.17130000000E+03 0.  1.
       11    1    1    2    0    0  0.21848484769E-01  0.12097493013E+00  0.11587094245E+01  0.11652124621E+01  0.51109989000E-03 0. -1.
     -623    1    1    2    0    0 -0.66718269286E-01 -0.14611977760E-01  0.12843250808E-01  0.17130001410E+03  0.17130000000E+03 0.  1.
      622    1    1    2    0    0  0.44869784517E-01 -0.10636295237E+00  0.28284472920E+01  0.28347734405E+01  0.15000000000E+00 0. -1.
</event>
<event>
 5   0  0.6780500E+06  0.9118800E+02  0.7818608E-02  0.1180000E+00
       11   -1    0    0    0    0  0.00000000000E+00  0.00000000000E+00  0.39999999673E+01  0.40000000000E+01  0.51109989000E-03 0.  1.
     -623   -1    0    0    0    0  0.00000000000E+00  0.00000000000E+00  0.12525980253E-10  0.17130000000E+03  0.17130000000E+03 0.  1.
       11    1    1    2    0    0  0.90585324511E-02  0.17585608920E-02  0.11398727482E-01  0.14674527495E-01  0.51109989000E-03 0.  1.
     -623    1    1    2    0    0 -0.12866316816E-01 -0.30232208734E-02  0.61022640001E-02  0.17130000062E+03  0.17130000000E+03 0.  1.
      622    1    1    2    0    0  0.38077843653E-02  0.12646599814E-02  0.39824989759E+01  0.39853248539E+01  0.15000000000E+00 0.  1.
</event>
<event>
 5   0  0.6780500E+06  0.9118800E+02  0.7818608E-02  0.1180000E+00
       11   -1    0    0    0    0  0.00000000000E+00  0.00000000000E+00  0.39999999673E+01  0.40000000000E+01  0.51109989000E-03 0.  1.
     -623   -1    0    0    0    0  0.00000000000E+00  0.00000000000E+00  0.12525980253E-10  0.17130000000E+03  0.17130000000E+03 0. -1.
       11    1    1    2    0    0  0.26468751221E-01  0.24626979271E-01  0.36379009142E+00  0.36558251427E+00  0.51109989000E-03 0.  1.
     -623    1    1    2    0    0 -0.20419155408E-01 -0.14577289055E-01  0.49099708613E-02  0.17130000191E+03  0.17130000000E+03 0. -1.
      622    1    1    2    0    0 -0.60495958126E-02 -0.10049690216E-01  0.36312999051E+01  0.36344155781E+01  0.15000000000E+00 0.  1.
</event>
<event>
 5   0  0.6780500E+06  0.9118800E+02  0.7818608E-02  0.1180000E+00
       11   -1    0    0    0    0  0.00000000000E+00  0.00000000000E+00  0.39999999673E+01  0.40000000000E+01  0.51109989000E-03 0.  1.
     -623   -1    0    0    0    0  0.00000000000E+00  0.00000000000E+00  0.12525980253E-10  0.17130000000E+03  0.17130000000E+03 0.  1.
       11    1    1    2    0    0  0.45283910177E-02 -0.16786104032E-01  0.35916712828E-01  0.39906780092E-01  0.51109989000E-03 0.  1.
     -623    1    1    2    0    0  0.41775138284E-01  0.58883789500E-01  0.73421293951E-02  0.17130001537E+03  0.17130000000E+03 0.  1.
      622    1    1    2    0    0 -0.46303529301E-01 -0.42097685468E-01  0.39567411252E+01  0.39600778481E+01  0.15000000000E+00 0.  1.
</event>
<event>
 5   0  0.6780500E+06  0.9118800E+02  0.7818608E-02  0.1180000E+00
       11   -1    0    0    0    0  0.00000000000E+00  0.00000000000E+00  0.39999999673E+01  0.40000000000E+01  0.51109989000E-03 0. -1.
     -623   -1    0    0    0    0  0.00000000000E+00  0.00000000000E+00  0.12525980253E-10  0.17130000000E+03  0.17130000000E+03 0.  1.
       11    1    1    2    0    0  0.26374091624E-01 -0.17479258101E-01  0.47184921116E+00  0.47290914187E+00  0.51109989000E-03 0. -1.
     -623    1    1    2    0    0  0.35571788675E-01 -0.61597588234E-01  0.56978274360E-02  0.17130001486E+03  0.17130000000E+03 0.  1.
      622    1    1    2    0    0 -0.61945880299E-01  0.79076846335E-01  0.35224529288E+01  0.35270759951E+01  0.15000000000E+00 0.  0.
</event>
<event>
 5   0  0.6780500E+06  0.9118800E+02  0.7818608E-02  0.1180000E+00
       11   -1    0    0    0    0  0.00000000000E+00  0.00000000000E+00  0.39999999673E+01  0.40000000000E+01  0.51109989000E-03 0.  1.
     -623   -1    0    0    0    0  0.00000000000E+00  0.00000000000E+00  0.12525980253E-10  0.17130000000E+03  0.17130000000E+03 0. -1.
       11    1    1    2    0    0  0.45990207562E-02  0.23597477140E-02  0.14873440175E+00  0.14882507479E+00  0.51109989000E-03 0.  1.
     -623    1    1    2    0    0  0.23100852156E-02  0.40026950283E-02  0.30244865815E-02  0.17130000009E+03  0.17130000000E+03 0. -1.
      622    1    1    2    0    0 -0.69091059719E-02 -0.63624427423E-02  0.38482410790E+01  0.38511748362E+01  0.15000000000E+00 0.  1.
</event>
<event>
 5   0  0.6780500E+06  0.9118800E+02  0.7818608E-02  0.1180000E+00
       11   -1    0    0    0    0  0.00000000000E+00  0.00000000000E+00  0.39999999673E+01  0.40000000000E+01  0.51109989000E-03 0.  1.
     -623   -1    0    0    0    0  0.00000000000E+00  0.00000000000E+00  0.12525980253E-10  0.17130000000E+03  0.17130000000E+03 0. -1.
       11    1    1    2    0    0  0.22779476887E-01 -0.61395979643E-02  0.18548310171E+00  0.18697818448E+00  0.51109989000E-03 0.  1.
     -623    1    1    2    0    0 -0.31157639312E-01 -0.43660493207E-02  0.44732537805E-02  0.17130000295E+03  0.17130000000E+03 0. -1.
      622    1    1    2    0    0  0.83781624258E-02  0.10505647285E-01  0.38100436119E+01  0.38130188679E+01  0.15000000000E+00 0.  1.
</event>
<event>
 5   0  0.6780500E+06  0.9118800E+02  0.7818608E-02  0.1180000E+00
       11   -1    0    0    0    0  0.00000000000E+00  0.00000000000E+00  0.39999999673E+01  0.40000000000E+01  0.51109989000E-03 0. -1.
     -623   -1    0    0    0    0  0.00000000000E+00  0.00000000000E+00  0.12525980253E-10  0.17130000000E+03  0.17130000000E+03 0. -1.
       11    1    1    2    0    0  0.10452214700E-01  0.10427365910E+00  0.11391063602E+01  0.11439168702E+01  0.51109989000E-03 0. -1.
     -623    1    1    2    0    0 -0.65406601819E-02 -0.11431004449E-01  0.10267160871E-01  0.17130000081E+03  0.17130000000E+03 0. -1.
      622    1    1    2    0    0 -0.39115545184E-02 -0.92842654650E-01  0.28506264463E+01  0.28560823159E+01  0.15000000000E+00 0. -1.
</event>
<event>
 5   0  0.6780500E+06  0.9118800E+02  0.7818608E-02  0.1180000E+00
       11   -1    0    0    0    0  0.00000000000E+00  0.00000000000E+00  0.39999999673E+01  0.40000000000E+01  0.51109989000E-03 0. -1.
     -623   -1    0    0    0    0  0.00000000000E+00  0.00000000000E+00  0.12525980253E-10  0.17130000000E+03  0.17130000000E+03 0.  1.
       11    1    1    2    0    0 -0.26138694057E-01 -0.35879563931E-01  0.10519880214E+00  0.11418241384E+00  0.51109989000E-03 0. -1.
     -623    1    1    2    0    0 -0.43966001216E-01  0.86081029034E-01  0.12865080525E-01  0.17130002775E+03  0.17130000000E+03 0.  1.
      622    1    1    2    0    0  0.70104695273E-01 -0.50201465103E-01  0.38819360847E+01  0.38857898324E+01  0.15000000000E+00 0. -1.
</event>
<event>
 5   0  0.6780500E+06  0.9118800E+02  0.7818608E-02  0.1180000E+00
       11   -1    0    0    0    0  0.00000000000E+00  0.00000000000E+00  0.39999999673E+01  0.40000000000E+01  0.51109989000E-03 0.  1.
     -623   -1    0    0    0    0  0.00000000000E+00  0.00000000000E+00  0.12525980253E-10  0.17130000000E+03  0.17130000000E+03 0. -1.
       11    1    1    2    0    0  0.38782156816E-01  0.60828166542E-02  0.81371862423E+00  0.81466515636E+00  0.51109989000E-03 0.  1.
     -623    1    1    2    0    0 -0.24342921079E-01 -0.74247876332E-02  0.45152690033E-02  0.17130000195E+03  0.17130000000E+03 0. -1.
      622    1    1    2    0    0 -0.14439235737E-01  0.13419709791E-02  0.31817660742E+01  0.31853328936E+01  0.15000000000E+00 0.  1.
</event>
<event>
 5   0  0.6780500E+06  0.9118800E+02  0.7818608E-02  0.1180000E+00
       11   -1    0    0    0    0  0.00000000000E+00  0.00000000000E+00  0.39999999673E+01  0.40000000000E+01  0.51109989000E-03 0.  1.
     -623   -1    0    0    0    0  0.00000000000E+00  0.00000000000E+00  0.12525980253E-10  0.17130000000E+03  0.17130000000E+03 0. -1.
       11    1    1    2    0    0  0.27028459512E-02 -0.64372278372E-02  0.63409387877E-03  0.70289811928E-02  0.51109989000E-03 0.  1.
     -623    1    1    2    0    0 -0.17875769480E-02  0.28890476320E-02  0.92152646447E-02  0.17130000028E+03  0.17130000000E+03 0. -1.
      622    1    1    2    0    0 -0.91526900319E-03  0.35481802052E-02  0.39901506089E+01  0.39929707373E+01  0.15000000000E+00 0.  1.
</event>
<event>
 5   0  0.6780500E+06  0.9118800E+02  0.7818608E-02  0.1180000E+00
       11   -1    0    0    0    0  0.00000000000E+00  0.00000000000E+00  0.39999999673E+01  0.40000000000E+01  0.51109989000E-03 0. -1.
     -623   -1    0    0    0    0  0.00000000000E+00  0.00000000000E+00  0.12525980253E-10  0.17130000000E+03  0.17130000000E+03 0. -1.
       11    1    1    2    0    0  0.38437920138E-02 -0.15734483584E-01  0.35975990513E+00  0.36012469962E+00  0.51109989000E-03 0. -1.
     -623    1    1    2    0    0 -0.56475661069E-02 -0.56021949823E-02  0.35200995431E-02  0.17130000022E+03  0.17130000000E+03 0. -1.
      622    1    1    2    0    0  0.18037740929E-02  0.21336678566E-01  0.36367199626E+01  0.36398750794E+01  0.15000000000E+00 0. -1.
</event>
<event>
 5   0  0.6780500E+06  0.9118800E+02  0.7818608E-02  0.1180000E+00
       11   -1    0    0    0    0  0.00000000000E+00  0.00000000000E+00  0.39999999673E+01  0.40000000000E+01  0.51109989000E-03 0. -1.
     -623   -1    0    0    0    0  0.00000000000E+00  0.00000000000E+00  0.12525980253E-10  0.17130000000E+03  0.17130000000E+03 0. -1.
       11    1    1    2    0    0 -0.32939114035E-02  0.45128051633E-02  0.14881131750E-01  0.15903602272E-01  0.51109989000E-03 0. -1.
     -623    1    1    2    0    0  0.70683190445E-02  0.61120426874E-02  0.38634312373E-02  0.17130000030E+03  0.17130000000E+03 0. -1.
      622    1    1    2    0    0 -0.37744076409E-02 -0.10624847851E-01  0.39812554044E+01  0.39840960993E+01  0.15000000000E+00 0. -1.
</event>
<event>
 5   0  0.6780500E+06  0.9118800E+02  0.7818608E-02  0.1180000E+00
       11   -1    0    0    0    0  0.00000000000E+00  0.00000000000E+00  0.39999999673E+01  0.40000000000E+01  0.51109989000E-03 0.  1.
     -623   -1    0    0    0    0  0.00000000000E+00  0.00000000000E+00  0.12525980253E-10  0.17130000000E+03  0.17130000000E+03 0. -1.
       11    1    1    2    0    0  0.14917257404E+00  0.98634449272E-01  0.11573376390E+01  0.11710729624E+01  0.51109989000E-03 0.  1.
     -623    1    1    2    0    0 -0.39536391334E-01  0.19670468106E-02  0.21642332479E-01  0.17130000594E+03  0.17130000000E+03 0. -1.
      622    1    1    2    0    0 -0.10963618270E+00 -0.10060149608E+00  0.28210199959E+01  0.28289210966E+01  0.15000000000E+00 0.  0.
</event>
<event>
 5   0  0.6780500E+06  0.9118800E+02  0.7818608E-02  0.1180000E+00
       11   -1    0    0    0    0  0.00000000000E+00  0.00000000000E+00  0.39999999673E+01  0.40000000000E+01  0.51109989000E-03 0.  1.
     -623   -1    0    0    0    0  0.00000000000E+00  0.00000000000E+00  0.12525980253E-10  0.17130000000E+03  0.17130000000E+03 0.  1.
       11    1    1    2    0    0  0.68323089441E-01 -0.70913785560E-01  0.87120746460E+00  0.87675510671E+00  0.51109989000E-03 0.  1.
     -623    1    1    2    0    0 -0.35844996701E-01 -0.32550183309E-01  0.11044264666E-01  0.17130000720E+03  0.17130000000E+03 0.  1.
      622    1    1    2    0    0 -0.32478092740E-01  0.10346396887E+00  0.31177482381E+01  0.31232376944E+01  0.15000000000E+00 0.  1.
</event>
<event>
 5   0  0.6780500E+06  0.9118800E+02  0.7818608E-02  0.1180000E+00
       11   -1    0    0    0    0  0.00000000000E+00  0.00000000000E+00  0.39999999673E+01  0.40000000000E+01  0.51109989000E-03 0.  1.
     -623   -1    0    0    0    0  0.00000000000E+00  0.00000000000E+00  0.12525980253E-10  0.17130000000E+03  0.17130000000E+03 0.  1.
       11    1    1    2    0    0  0.37195605858E-01  0.16772352296E-01  0.55471316349E+00  0.55621199184E+00  0.51109989000E-03 0.  1.
     -623    1    1    2    0    0 -0.40769013277E-01 -0.90789626970E-03  0.48104562804E-02  0.17130000492E+03  0.17130000000E+03 0.  1.
      622    1    1    2    0    0  0.35734074184E-02 -0.15864456026E-01  0.34404763475E+01  0.34437830867E+01  0.15000000000E+00 0.  1.
</event>
<event>
 5   0  0.6780500E+06  0.9118800E+02  0.7818608E-02  0.1180000E+00
       11   -1    0    0    0    0  0.00000000000E+00  0.00000000000E+00  0.39999999673E+01  0.40000000000E+01  0.51109989000E-03 0. -1.
     -623   -1    0    0    0    0  0.00000000000E+00  0.00000000000E+00  0.12525980253E-10  0.17130000000E+03  0.17130000000E+03 0.  1.
       11    1    1    2    0    0  0.10792369903E-01 -0.86752861605E-03  0.55136870202E+00  0.55147523484E+00  0.51109989000E-03 0. -1.
     -623    1    1    2    0    0 -0.45407803850E-02 -0.12635608342E-01  0.34030034604E-02  0.17130000056E+03  0.17130000000E+03 0.  1.
      622    1    1    2    0    0 -0.62515895184E-02  0.13503136959E-01  0.34452282619E+01  0.34485242052E+01  0.15000000000E+00 0. -1.
</event>
<event>
 5   0  0.6780500E+06  0.9118800E+02  0.7818608E-02  0.1180000E+00
       11   -1    0    0    0    0  0.00000000000E+00  0.00000000000E+00  0.39999999673E+01  0.40000000000E+01  0.51109989000E-03 0. -1.
     -623   -1    0    0    0    0  0.00000000000E+00  0.00000000000E+00  0.12525980253E-10  0.17130000000E+03  0.17130000000E+03 0. -1.
       11    1    1    2    0    0 -0.14462567321E-01 -0.37930683570E-02  0.51147079063E-01  0.53290131739E-01  0.51109989000E-03 0. -1.
     -623    1    1    2    0    0  0.22453796597E-01  0.10748633455E-02  0.50051077617E-02  0.17130000155E+03  0.17130000000E+03 0. -1.
      622    1    1    2    0    0 -0.79912292774E-02  0.27182050115E-02  0.39438477807E+01  0.39467083203E+01  0.15000000000E+00 0. -1.
</event>
<event>
 5   0  0.6780500E+06  0.9118800E+02  0.7818608E-02  0.1180000E+00
       11   -1    0    0    0    0  0.00000000000E+00  0.00000000000E+00  0.39999999673E+01  0.40000000000E+01  0.51109989000E-03 0. -1.
     -623   -1    0    0    0    0  0.00000000000E+00  0.00000000000E+00  0.12525980253E-10  0.17130000000E+03  0.17130000000E+03 0.  1.
       11    1    1    2    0    0 -0.53759031356E-01  0.18916715661E-01  0.94039766579E-01  0.10996187751E+00  0.51109989000E-03 0. -1.
     -623    1    1    2    0    0 -0.24519427017E-01  0.30823755199E-01  0.19927427279E-01  0.17130000569E+03  0.17130000000E+03 0.  1.
      622    1    1    2    0    0  0.78278458373E-01 -0.49740470860E-01  0.38860327735E+01  0.38900324354E+01  0.15000000000E+00 0. -1.
</event>
<event>
 5   0  0.6780500E+06  0.9118800E+02  0.7818608E-02  0.1180000E+00
       11   -1    0    0    0    0  0.00000000000E+00  0.00000000000E+00  0.39999999673E+01  0.40000000000E+01  0.51109989000E-03 0.  1.
     -623   -1    0    0    0    0  0.00000000000E+00  0.00000000000E+00  0.12525980253E-10  0.17130000000E+03  0.17130000000E+03 0. -1.
       11    1    1    2    0    0  0.62172228398E-02 -0.25387960253E-02  0.42609134997E-02  0.79696894962E-02  0.51109989000E-03 0.  1.
     -623    1    1    2    0    0 -0.32927861359E-02  0.74804838859E-02  0.65323061190E-02  0.17130000032E+03  0.17130000000E+03 0. -1.
      622    1    1    2    0    0 -0.29244367039E-02 -0.49416878606E-02  0.39892067477E+01  0.39920299910E+01  0.15000000000E+00 0.  1.
</event>
<event>
 5   0  0.6780500E+06  0.9118800E+02  0.7818608E-02  0.1180000E+00
       11   -1    0    0    0    0  0.00000000000E+00  0.00000000000E+00  0.39999999673E+01  0.40000000000E+01  0.51109989000E-03 0.  1.
     -623   -1    0    0    0    0  0.00000000000E+00  0.00000000000E+00  0.12525980253E-10  0.17130000000E+03  0.17130000000E+03 0. -1.
       11    1    1    2    0    0  0.30283894957E-01  0.97668306038E-01  0.65790161389E+00  0.66580102664E+00  0.51109989000E-03 0.  1.
     -623    1    1    2    0    0  0.62662007557E-01 -0.34732131501E-01  0.13182673768E-01  0.17130001549E+03  0.17130000000E+03 0. -1.
      622    1    1    2    0    0 -0.92945902515E-01 -0.62936174537E-01  0.33289156797E+01  0.33341834841E+01  0.15000000000E+00 0.  1.
</event>
<event>
 5   0  0.6780500E+06  0.9118800E+02  0.7818608E-02  0.1180000E+00
       11   -1    0    0    0    0  0.00000000000E+00  0.00000000000E+00  0.39999999673E+01  0.40000000000E+01  0.51109989000E-03 0. -1.
     -623   -1    0    0    0    0  0.00000000000E+00  0.00000000000E+00  0.12525980253E-10  0.17130000000E+03  0.17130000000E+03 0.  1.
       11    1    1    2    0    0 -0.60278855742E-02  0.11885016982E-01  0.10957488918E-01  0.17260267021E-01  0.51109989000E-03 0. -1.
     -623    1    1    2    0    0  0.11962621010E-01  0.62057165207E-02  0.91747538492E-02  0.17130000078E+03  0.17130000000E+03 0.  1.
      622    1    1    2    0    0 -0.59347354359E-02 -0.18090733503E-01  0.39798677246E+01  0.39827389572E+01  0.15000000000E+00 0. -1.
</event>
<event>
 5   0  0.6780500E+06  0.9118800E+02  0.7818608E-02  0.1180000E+00
       11   -1    0    0    0    0  0.00000000000E+00  0.00000000000E+00  0.39999999673E+01  0.40000000000E+01  0.51109989000E-03 0. -1.
     -623   -1    0    0    0    0  0.00000000000E+00  0.00000000000E+00  0.12525980253E-10  0.17130000000E+03  0.17130000000E+03 0.  1.
       11    1    1    2    0    0 -0.52335491033E-01  0.29252326036E-01  0.11270692096E+01  0.11286629110E+01  0.51109989000E-03 0. -1.
     -623    1    1    2    0    0  0.79582050184E-02 -0.34908926862E-02  0.59738659142E-02  0.17130000032E+03  0.17130000000E+03 0.  1.
      622    1    1    2    0    0  0.44377286015E-01 -0.25761433350E-01  0.28669568918E+01  0.28713367644E+01  0.15000000000E+00 0.  0.
</event>
<event>
 5   0  0.6780500E+06  0.9118800E+02  0.7818608E-02  0.1180000E+00
       11   -1    0    0    0    0  0.00000000000E+00  0.00000000000E+00  0.39999999673E+01  0.40000000000E+01  0.51109989000E-03 0. -1.
     -623   -1    0    0    0    0  0.00000000000E+00  0.00000000000E+00  0.12525980253E-10  0.17130000000E+03  0.17130000000E+03 0. -1.
       11    1    1    2    0    0  0.17396222113E-01  0.16344877484E-01  0.11433059486E+00  0.11679695932E+00  0.51109989000E-03 0. -1.
     -623    1    1    2    0    0  0.80720508419E-02 -0.21202779600E-01  0.54527186424E-02  0.17130000159E+03  0.17130000000E+03 0. -1.
      622    1    1    2    0    0 -0.25468272955E-01  0.48579021153E-02  0.38802166539E+01  0.38832014515E+01  0.15000000000E+00 0. -1.
</event>
<event>
 5   0  0.6780500E+06  0.9118800E+02  0.7818608E-02  0.1180000E+00
       11   -1    0    0    0    0  0.00000000000E+00  0.00000000000E+00  0.39999999673E+01  0.40000000000E+01  0.51109989000E-03 0. -1.
     -623   -1    0    0    0    0  0.00000000000E+00  0.00000000000E+00  0.12525980253E-10  0.17130000000E+03  0.17130000000E+03 0. -1.
       11    1    1    2    0    0  0.32406847715E-01 -0.68300440674E-02  0.24592609179E+00  0.24814664440E+00  0.51109989000E-03 0. -1.
     -623    1    1    2    0    0 -0.23705490560E-01  0.26665447612E-01  0.52866114681E-02  0.17130000380E+03  0.17130000000E+03 0. -1.
      622    1    1    2    0    0 -0.87013571554E-02 -0.19835403544E-01  0.37487872641E+01  0.37518495583E+01  0.15000000000E+00 0. -1.
</event>
<event>
 5   0  0.6780500E+06  0.9118800E+02  0.7818608E-02  0.1180000E+00
       11   -1    0    0    0    0  0.00000000000E+00  0.00000000000E+00  0.39999999673E+01  0.40000000000E+01  0.51109989000E-03 0.  1.
     -623   -1    0    0    0    0  0.00000000000E+00  0.00000000000E+00  0.12525980253E-10  0.17130000000E+03  0.17130000000E+03 0.  1.
       11    1    1    2    0    0  0.38546193294E-01 -0.83108431054E-02  0.10726879814E+00  0.11428794953E+00  0.51109989000E-03 0.  1.
     -623    1    1    2    0    0 -0.16386854943E-01 -0.20027790420E-01  0.10084323571E-01  0.17130000225E+03  0.17130000000E+03 0.  1.
      622    1    1    2    0    0 -0.22159338351E-01  0.28338633525E-01  0.38826468456E+01  0.38857097991E+01  0.15000000000E+00 0.  1.
</event>
<event>
 5   0  0.6780500E+06  0.9118800E+02  0.7818608E-02  0.1180000E+00
       11   -1    0    0    0    0  0.00000000000E+00  0.00000000000E+00  0.39999999673E+01  0.40000000000E+01  0.51109989000E-03 0. -1.
     -623   -1    0    0    0    0  0.00000000000E+00  0.00000000000E+00  0.12525980253E-10  0.17130000000E+03  0.17130000000E+03 0. -1.
       11    1    1    2    0    0 -0.11386927860E-03  0.40926562197E-02  0.13441185371E-04  0.41260398578E-02  0.51109989000E-03 0. -1.
     -623    1    1    2    0    0  0.42477716644E-02  0.32213487207E-02  0.69380246279E-02  0.17130000022E+03  0.17130000000E+03 0. -1.
      622    1    1    2    0    0 -0.41339023859E-02 -0.73140049404E-02  0.39930485016E+01  0.39958737367E+01  0.15000000000E+00 0. -1.
</event>
<event>
 5   0  0.6780500E+06  0.9118800E+02  0.7818608E-02  0.1180000E+00
       11   -1    0    0    0    0  0.00000000000E+00  0.00000000000E+00  0.39999999673E+01  0.40000000000E+01  0.51109989000E-03 0. -1.
     -623   -1    0    0    0    0  0.00000000000E+00  0.00000000000E+00  0.12525980253E-10  0.17130000000E+03  0.17130000000E+03 0. -1.
       11    1    1    2    0    0  0.34324083780E-01  0.17959965318E-01  0.11097151238E+01  0.11103912015E+01  0.51109989000E-03 0. -1.
     -623    1    1    2    0    0  0.48812222928E-02 -0.10567798850E-01  0.48481996319E-02  0.17130000046E+03  0.17130000000E+03 0. -1.
      622    1    1    2    0    0 -0.39205306072E-01 -0.73921664683E-02  0.28854366439E+01  0.28896083344E+01  0.15000000000E+00 0. -1.
</event>
<event>
 5   0  0.6780500E+06  0.9118800E+02  0.7818608E-02  0.1180000E+00
       11   -1    0    0    0    0  0.00000000000E+00  0.00000000000E+00  0.39999999673E+01  0.40000000000E+01  0.51109989000E-03 0.  1.
     -623   -1    0    0    0    0  0.00000000000E+00  0.00000000000E+00  0.12525980253E-10  0.17130000000E+03  0.17130000000E+03 0.  1.
       11    1    1    2    0    0 -0.24403511520E-02  0.22734263594E-01  0.72631362745E-01  0.76147082230E-01  0.51109989000E-03 0.  1.
     -623    1    1    2    0    0 -0.98853895270E-02  0.41457047588E-02  0.64957853237E-02  0.17130000046E+03  0.17130000000E+03 0.  1.
      622    1    1    2    0    0  0.12325740679E-01 -0.26879968353E-01  0.39208728194E+01  0.39238524593E+01  0.15000000000E+00 0.  1.
</event>
<event>
 5   0  0.6780500E+06  0.9118800E+02  0.7818608E-02  0.1180000E+00
       11   -1    0    0    0    0  0.00000000000E+00  0.00000000000E+00  0.39999999673E+01  0.40000000000E+01  0.51109989000E-03 0. -1.
     -623   -1    0    0    0    0  0.00000000000E+00  0.00000000000E+00  0.12525980253E-10  0.17130000000E+03  0.17130000000E+03 0. -1.
       11    1    1    2    0    0 -0.88126661234E-02 -0.65095187573E-02  0.56834563958E-01  0.57883208281E-01  0.51109989000E-03 0. -1.
     -623    1    1    2    0    0  0.10014610663E-01  0.15068688085E-02  0.39071462188E-02  0.17130000034E+03  0.17130000000E+03 0. -1.
      622    1    1    2    0    0 -0.12019445397E-02  0.50026499488E-02  0.39392582572E+01  0.39421164478E+01  0.15000000000E+00 0. -1.
</event>
<event>
 5   0  0.6780500E+06  0.9118800E+02  0.7818608E-02  0.1180000E+00
       11   -1    0    0    0    0  0.00000000000E+00  0.00000000000E+00  0.39999999673E+01  0.40000000000E+01  0.51109989000E-03 0. -1.
     -623   -1    0    0    0    0  0.00000000000E+00  0.00000000000E+00  0.12525980253E-10  0.17130000000E+03  0.17130000000E+03 0. -1.
       11    1    1    2    0    0 -0.21079779746E-02  0.11703164907E-01  0.41292770017E-01  0.42973965564E-01  0.51109989000E-03 0. -1.
     -623    1    1    2    0    0  0.45268136842E-02 -0.26201752901E-02  0.45365411399E-02  0.17130000014E+03  0.17130000000E+03 0. -1.
      622    1    1    2    0    0 -0.24188357096E-02 -0.90829896171E-02  0.39541706562E+01  0.39570258945E+01  0.15000000000E+00 0. -1.
</event>
<event>
 5   0  0.6780500E+06  0.9118800E+02  0.7818608E-02  0.1180000E+00
       11   -1    0    0    0    0  0.00000000000E+00  0.00000000000E+00  0.39999999673E+01  0.40000000000E+01  0.51109989000E-03 0. -1.
     -623   -1    0    0    0    0  0.00000000000E+00  0.00000000000E+00  0.12525980253E-10  0.17130000000E+03  0.17130000000E+03 0.  1.
       11    1    1    2    0    0 -0.24076302575E-02  0.87549445850E-02  0.47635200368E+00  0.47643880863E+00  0.51109989000E-03 0. -1.
     -623    1    1    2    0    0  0.56120082661E-02 -0.20319084682E-01  0.33027949099E-02  0.17130000133E+03  0.17130000000E+03 0.  1.
      622    1    1    2    0    0 -0.32043780085E-02  0.11564140097E-01  0.35203451688E+01  0.35235598625E+01  0.15000000000E+00 0. -1.
</event>
<event>
 5   0  0.6780500E+06  0.9118800E+02  0.7818608E-02  0.1180000E+00
       11   -1    0    0    0    0  0.00000000000E+00  0.00000000000E+00  0.39999999673E+01  0.40000000000E+01  0.51109989000E-03 0.  1.
     -623   -1    0    0    0    0  0.00000000000E+00  0.00000000000E+00  0.12525980253E-10  0.17130000000E+03  0.17130000000E+03 0. -1.
       11    1    1    2    0    0  0.21153215430E-02 -0.10015501591E-01  0.87860480558E-01  0.88456261081E-01  0.51109989000E-03 0.  1.
     -623    1    1    2    0    0  0.66051982009E-02  0.47165186705E-02  0.34864562768E-02  0.17130000023E+03  0.17130000000E+03 0. -1.
      622    1    1    2    0    0 -0.87205197438E-02  0.52989829201E-02  0.39086530305E+01  0.39115435111E+01  0.15000000000E+00 0.  1.
</event>
<event>
 5   0  0.6780500E+06  0.9118800E+02  0.7818608E-02  0.1180000E+00
       11   -1    0    0    0    0  0.00000000000E+00  0.00000000000E+00  0.39999999673E+01  0.40000000000E+01  0.51109989000E-03 0.  1.
     -623   -1    0    0    0    0  0.00000000000E+00  0.00000000000E+00  0.12525980253E-10  0.17130000000E+03  0.17130000000E+03 0. -1.
       11    1    1    2    0    0  0.17576255275E-01  0.80909249695E-02  0.51812114581E-01  0.55309531330E-01  0.51109989000E-03 0.  1.
     -623    1    1    2    0    0 -0.14357582717E-01  0.10207105259E-01  0.63951606277E-02  0.17130000103E+03  0.17130000000E+03 0. -1.
      622    1    1    2    0    0 -0.32186725579E-02 -0.18298030228E-01  0.39417926922E+01  0.39446894435E+01  0.15000000000E+00 0.  1.
</event>
<event>
 5   0  0.6780500E+06  0.9118800E+02  0.7818608E-02  0.1180000E+00
       11   -1    0    0    0    0  0.00000000000E+00  0.00000000000E+00  0.39999999673E+01  0.40000000000E+01  0.51109989000E-03 0. -1.
     -623   -1    0    0    0    0  0.00000000000E+00  0.00000000000E+00  0.12525980253E-10  0.17130000000E+03  0.17130000000E+03 0.  1.
       11    1    1    2    0    0 -0.78881085595E-02  0.34809297162E-01  0.14974647452E+00  0.15394212315E+00  0.51109989000E-03 0. -1.
     -623    1    1    2    0    0  0.26927312768E-02 -0.40989905480E-01  0.71353615814E-02  0.17130000507E+03  0.17130000000E+03 0.  1.
      622    1    1    2    0    0  0.51953772827E-02  0.61806083185E-02  0.38431181314E+01  0.38460528030E+01  0.15000000000E+00 0. -1.
</event>
<event>
 5   0  0.6780500E+06  0.9118800E+02  0.7818608E-02  0.1180000E+00
       11   -1    0    0    0    0  0.00000000000E+00  0.00000000000E+00  0.39999999673E+01  0.40000000000E+01  0.51109989000E-03 0.  1.
     -623   -1    0    0    0    0  0.00000000000E+00  0.00000000000E+00  0.12525980253E-10  0.17130000000E+03  0.17130000000E+03 0. -1.
       11    1    1    2    0    0 -0.36507107160E-02  0.29532725743E-02  0.40516965232E-01  0.40791361829E-01  0.51109989000E-03 0.  1.
     -623    1    1    2    0    0  0.26990149501E-02 -0.76425222370E-02  0.31199749963E-02  0.17130000022E+03  0.17130000000E+03 0. -1.
      622    1    1    2    0    0  0.95169576592E-03  0.46892496628E-02  0.39563630271E+01  0.39592084180E+01  0.15000000000E+00 0.  1.
</event>
<event>
 5   0  0.6780500E+06  0.9118800E+02  0.7818608E-02  0.1180000E+00
       11   -1    0    0    0    0  0.00000000000E+00  0.00000000000E+00  0.39999999673E+01  0.40000000000E+01  0.51109989000E-03 0.  1.
     -623   -1    0    0    0    0  0.00000000000E+00  0.00000000000E+00  0.12525980253E-10  0.17130000000E+03  0.17130000000E+03 0. -1.
       11    1    1    2    0    0  0.35613223658E-01 -0.12114058548E-01  0.73230605060E-01  0.82328821530E-01  0.51109989000E-03 0.  1.
     -623    1    1    2    0    0 -0.93918819245E-02  0.65350347755E-01  0.12433840491E-01  0.17130001317E+03  0.17130000000E+03 0. -1.
      622    1    1    2    0    0 -0.26221341734E-01 -0.53236289207E-01  0.39143355218E+01  0.39176580043E+01  0.15000000000E+00 0.  1.
</event>
<event>
 5   0  0.6780500E+06  0.9118800E+02  0.7818608E-02  0.1180000E+00
       11   -1    0    0    0    0  0.00000000000E+00  0.00000000000E+00  0.39999999673E+01  0.40000000000E+01  0.51109989000E-03 0.  1.
     -623   -1    0    0    0    0  0.00000000000E+00  0.00000000000E+00  0.12525980253E-10  0.17130000000E+03  0.17130000000E+03 0. -1.
       11    1    1    2    0    0  0.19661980438E-02  0.26043189573E-02  0.10439000454E-01  0.10949080581E-01  0.51109989000E-03 0.  1.
     -623    1    1    2    0    0 -0.42015758361E-02 -0.58118567236E-04  0.33327888100E-02  0.17130000008E+03  0.17130000000E+03 0. -1.
      622    1    1    2    0    0  0.22353777923E-02 -0.25462003900E-02  0.39862281781E+01  0.39890508355E+01  0.15000000000E+00 0.  1.
</event>
<event>
 5   0  0.6780500E+06  0.9118800E+02  0.7818608E-02  0.1180000E+00
       11   -1    0    0    0    0  0.00000000000E+00  0.00000000000E+00  0.39999999673E+01  0.40000000000E+01  0.51109989000E-03 0. -1.
     -623   -1    0    0    0    0  0.00000000000E+00  0.00000000000E+00  0.12525980253E-10  0.17130000000E+03  0.17130000000E+03 0.  1.
       11    1    1    2    0    0  0.25106196513E-02 -0.11423485843E-01  0.10001793968E+00  0.10070078809E+00  0.51109989000E-03 0. -1.
     -623    1    1    2    0    0  0.36507876846E-02  0.91307957242E-02  0.35748835790E-02  0.17130000032E+03  0.17130000000E+03 0.  1.
      622    1    1    2    0    0 -0.61614073360E-02  0.22926901189E-02  0.38964071441E+01  0.38992988924E+01  0.15000000000E+00 0. -1.
</event>
<event>
 5   0  0.6780500E+06  0.9118800E+02  0.7818608E-02  0.1180000E+00
       11   -1    0    0    0    0  0.00000000000E+00  0.00000000000E+00  0.39999999673E+01  0.40000000000E+01  0.51109989000E-03 0.  1.
     -623   -1    0    0    0    0  0.00000000000E+00  0.00000000000E+00  0.12525980253E-10  0.17130000000E+03  0.17130000000E+03 0.  1.
       11    1    1    2    0    0  0.74278679366E-02  0.18425528131E-02  0.13321187695E-01  0.15371515464E-01  0.51109989000E-03 0.  1.
     -623    1    1    2    0    0 -0.14438991724E-01 -0.15326180838E-02  0.48815159475E-02  0.17130000068E+03  0.17130000000E+03 0.  1.
      622    1    1    2    0    0  0.70111237868E-02 -0.30993472934E-03  0.39817972637E+01  0.39846277995E+01  0.15000000000E+00 0.  1.
</event>
<event>
 5   0  0.6780500E+06  0.9118800E+02  0.7818608E-02  0.1180000E+00
       11   -1    0    0    0    0  0.00000000000E+00  0.00000000000E+00  0.39999999673E+01  0.40000000000E+01  0.51109989000E-03 0.  1.
     -623   -1    0    0    0    0  0.00000000000E+00  0.00000000000E+00  0.12525980253E-10  0.17130000000E+03  0.17130000000E+03 0.  1.
       11    1    1    2    0    0  0.87369743069E-02  0.13918861668E-01  0.18773150178E-01  0.24955196270E-01  0.51109989000E-03 0.  1.
     -623    1    1    2    0    0 -0.64793370595E-02  0.11834573729E-01  0.90980793071E-02  0.17130000077E+03  0.17130000000E+03 0.  1.
      622    1    1    2    0    0 -0.22576372473E-02 -0.25753435396E-01  0.39721287379E+01  0.39750440308E+01  0.15000000000E+00 0.  1.
</event>
<event>
 5   0  0.6780500E+06  0.9118800E+02  0.7818608E-02  0.1180000E+00
       11   -1    0    0    0    0  0.00000000000E+00  0.00000000000E+00  0.39999999673E+01  0.40000000000E+01  0.51109989000E-03 0. -1.
     -623   -1    0    0    0    0  0.00000000000E+00  0.00000000000E+00  0.12525980253E-10  0.17130000000E+03  0.17130000000E+03 0. -1.
       11    1    1    2    0    0 -0.13544831611E-02  0.40573425507E-02  0.68488672229E-01  0.68624019847E-01  0.51109989000E-03 0. -1.
     -623    1    1    2    0    0 -0.38043526009E-02  0.17839502097E-01  0.30633623542E-02  0.17130000100E+03  0.17130000000E+03 0. -1.
      622    1    1    2    0    0  0.51588357621E-02 -0.21896844648E-01  0.39284479328E+01  0.39313749816E+01  0.15000000000E+00 0. -1.
</event>
<event>
 5   0  0.6780500E+06  0.9118800E+02  0.7818608E-02  0.1180000E+00
       11   -1    0    0    0    0  0.00000000000E+00  0.00000000000E+00  0.39999999673E+01  0.40000000000E+01  0.51109989000E-03 0. -1.
     -623   -1    0    0    0    0  0.00000000000E+00  0.00000000000E+00  0.12525980253E-10  0.17130000000E+03  0.17130000000E+03 0. -1.
       11    1    1    2    0    0 -0.60358864850E-03  0.13786619886E-02  0.10056708551E-01  0.10181534124E-01  0.51109989000E-03 0. -1.
     -623    1    1    2    0    0  0.42092841625E-02  0.40332589502E-03  0.29475734212E-02  0.17130000008E+03  0.17130000000E+03 0. -1.
      622    1    1    2    0    0 -0.36056955140E-02 -0.17819878836E-02  0.39869956854E+01  0.39898183883E+01  0.15000000000E+00 0. -1.
</event>
<event>
 5   0  0.6780500E+06  0.9118800E+02  0.7818608E-02  0.1180000E+00
       11   -1    0    0    0    0  0.00000000000E+00  0.00000000000E+00  0.39999999673E+01  0.40000000000E+01  0.51109989000E-03 0. -1.
     -623   -1    0    0    0    0  0.00000000000E+00  0.00000000000E+00  0.12525980253E-10  0.17130000000E+03  0.17130000000E+03 0.  1.
       11    1    1    2    0    0  0.11427908425E-01  0.17488580912E-01  0.72083671452E+00  0.72113956886E+00  0.51109989000E-03 0. -1.
     -623    1    1    2    0    0 -0.35818273135E-02  0.29099268419E-02  0.38087099731E-02  0.17130000010E+03  0.17130000000E+03 0.  1.
      622    1    1    2    0    0 -0.78460811111E-02 -0.20398507754E-01  0.32753545429E+01  0.32788603266E+01  0.15000000000E+00 0. -1.
</event>
<event>
 5   0  0.6780500E+06  0.9118800E+02  0.7818608E-02  0.1180000E+00
       11   -1    0    0    0    0  0.00000000000E+00  0.00000000000E+00  0.39999999673E+01  0.40000000000E+01  0.51109989000E-03 0. -1.
     -623   -1    0    0    0    0  0.00000000000E+00  0.00000000000E+00  0.12525980253E-10  0.17130000000E+03  0.17130000000E+03 0. -1.
       11    1    1    2    0    0 -0.22368901979E-01  0.98024905064E-02  0.32190937077E-01  0.40410076081E-01  0.51109989000E-03 0. -1.
     -623    1    1    2    0    0 -0.11259171936E-01  0.12268405225E-01  0.11266973118E-01  0.17130000118E+03  0.17130000000E+03 0. -1.
      622    1    1    2    0    0  0.33628073915E-01 -0.22070895732E-01  0.39565420572E+01  0.39595887441E+01  0.15000000000E+00 0. -1.
</event>
<event>
 5   0  0.6780500E+06  0.9118800E+02  0.7818608E-02  0.1180000E+00
       11   -1    0    0    0    0  0.00000000000E+00  0.00000000000E+00  0.39999999673E+01  0.40000000000E+01  0.51109989000E-03 0.  1.
     -623   -1    0    0    0    0  0.00000000000E+00  0.00000000000E+00  0.12525980253E-10  0.17130000000E+03  0.17130000000E+03 0.  1.
       11    1    1    2    0    0  0.19178762785E-02  0.24623491955E-01  0.48690079772E+00  0.48752706863E+00  0.51109989000E-03 0.  1.
     -623    1    1    2    0    0 -0.36677111491E-01 -0.23753439030E-01  0.40084540649E-02  0.17130000562E+03  0.17130000000E+03 0.  1.
      622    1    1    2    0    0  0.34759235212E-01 -0.87005292421E-03  0.35090907156E+01  0.35124673111E+01  0.15000000000E+00 0.  1.
</event>
<event>
 5   0  0.6780500E+06  0.9118800E+02  0.7818608E-02  0.1180000E+00
       11   -1    0    0    0    0  0.00000000000E+00  0.00000000000E+00  0.39999999673E+01  0.40000000000E+01  0.51109989000E-03 0. -1.
     -623   -1    0    0    0    0  0.00000000000E+00  0.00000000000E+00  0.12525980253E-10  0.17130000000E+03  0.17130000000E+03 0.  1.
       11    1    1    2    0    0 -0.31589547912E-01  0.47679951969E-01  0.18445391976E+00  0.19311858298E+00  0.51109989000E-03 0. -1.
     -623    1    1    2    0    0  0.54557719303E-02 -0.21900460940E-01  0.11799979323E-01  0.17130000189E+03  0.17130000000E+03 0.  1.
      622    1    1    2    0    0  0.26133775982E-01 -0.25779491029E-01  0.38037460683E+01  0.38068795238E+01  0.15000000000E+00 0. -1.
</event>
<event>
 5   0  0.6780500E+06  0.9118800E+02  0.7818608E-02  0.1180000E+00
       11   -1    0    0    0    0  0.00000000000E+00  0.00000000000E+00  0.39999999673E+01  0.40000000000E+01  0.51109989000E-03 0.  1.
     -623   -1    0    0    0    0  0.00000000000E+00  0.00000000000E+00  0.12525980253E-10  0.17130000000E+03  0.17130000000E+03 0. -1.
       11    1    1    2    0    0  0.53499152607E-01 -0.32096508743E-02  0.45363224170E+00  0.45678762365E+00  0.51109989000E-03 0.  1.
     -623    1    1    2    0    0  0.13689989961E-02 -0.80773624441E-02  0.67754192816E-02  0.17130000033E+03  0.17130000000E+03 0. -1.
      622    1    1    2    0    0 -0.54868151604E-01  0.11287013318E-01  0.35395923064E+01  0.35432120464E+01  0.15000000000E+00 0.  1.
</event>
<event>
 5   0  0.6780500E+06  0.9118800E+02  0.7818608E-02  0.1180000E+00
       11   -1    0    0    0    0  0.00000000000E+00  0.00000000000E+00  0.39999999673E+01  0.40000000000E+01  0.51109989000E-03 0. -1.
     -623   -1    0    0    0    0  0.00000000000E+00  0.00000000000E+00  0.12525980253E-10  0.17130000000E+03  0.17130000000E+03 0.  1.
       11    1    1    2    0    0 -0.61870374016E-03  0.71834314351E-02 -0.44212728002E-03  0.72416283480E-02  0.51109989000E-03 0. -1.
     -623    1    1    2    0    0  0.12915986082E-01 -0.20310405865E-02  0.10525419152E-01  0.17130000082E+03  0.17130000000E+03 0.  1.
      622    1    1    2    0    0 -0.12297282342E-01 -0.51523908486E-02  0.39899166755E+01  0.39927575493E+01  0.15000000000E+00 0. -1.
</event>
<event>
 5   0  0.6780500E+06  0.9118800E+02  0.7818608E-02  0.1180000E+00
       11   -1    0    0    0    0  0.00000000000E+00  0.00000000000E+00  0.39999999673E+01  0.40000000000E+01  0.51109989000E-03 0.  1.
     -623   -1    0    0    0    0  0.00000000000E+00  0.00000000000E+00  0.12525980253E-10  0.17130000000E+03  0.17130000000E+03 0.  1.
       11    1    1    2    0    0 -0.47143002753E-02 -0.12390575867E-01  0.10275945374E+00  0.10361234266E+00  0.51109989000E-03 0.  1.
     -623    1    1    2    0    0 -0.21793196593E-02 -0.45065917811E-03  0.37685513224E-02  0.17130000006E+03  0.17130000000E+03 0.  1.
      622    1    1    2    0    0  0.68936199346E-02  0.12841235045E-01  0.38934719623E+01  0.38963876014E+01  0.15000000000E+00 0.  1.
</event>
<event>
 5   0  0.6780500E+06  0.9118800E+02  0.7818608E-02  0.1180000E+00
       11   -1    0    0    0    0  0.00000000000E+00  0.00000000000E+00  0.39999999673E+01  0.40000000000E+01  0.51109989000E-03 0.  1.
     -623   -1    0    0    0    0  0.00000000000E+00  0.00000000000E+00  0.12525980253E-10  0.17130000000E+03  0.17130000000E+03 0.  1.
       11    1    1    2    0    0 -0.50948336327E-01 -0.13961449189E-01  0.11504224762E+00  0.12659239708E+00  0.51109989000E-03 0.  1.
     -623    1    1    2    0    0  0.25157776841E-01  0.30972881020E-01  0.14584210144E-01  0.17130000527E+03  0.17130000000E+03 0.  1.
      622    1    1    2    0    0  0.25790559485E-01 -0.17011431831E-01  0.38703735096E+01  0.38734023346E+01  0.15000000000E+00 0.  1.
</event>
<event>
 5   0  0.6780500E+06  0.9118800E+02  0.7818608E-02  0.1180000E+00
       11   -1    0    0    0    0  0.00000000000E+00  0.00000000000E+00  0.39999999673E+01  0.40000000000E+01  0.51109989000E-03 0.  1.
     -623   -1    0    0    0    0  0.00000000000E+00  0.00000000000E+00  0.12525980253E-10  0.17130000000E+03  0.17130000000E+03 0. -1.
       11    1    1    2    0    0  0.10861098504E-01  0.17457826926E-02  0.12101168637E-01  0.16361867968E-01  0.51109989000E-03 0.  1.
     -623    1    1    2    0    0  0.15374097196E-02  0.78924880962E-02  0.71170330135E-02  0.17130000034E+03  0.17130000000E+03 0. -1.
      622    1    1    2    0    0 -0.12398508224E-01 -0.96382707889E-02  0.39807817658E+01  0.39836377955E+01  0.15000000000E+00 0.  1.
</event>
<event>
 5   0  0.6780500E+06  0.9118800E+02  0.7818608E-02  0.1180000E+00
       11   -1    0    0    0    0  0.00000000000E+00  0.00000000000E+00  0.39999999673E+01  0.40000000000E+01  0.51109989000E-03 0.  1.
     -623   -1    0    0    0    0  0.00000000000E+00  0.00000000000E+00  0.12525980253E-10  0.17130000000E+03  0.17130000000E+03 0.  1.
       11    1    1    2    0    0 -0.68249962667E-02 -0.10824236785E-01 -0.15129263985E-02  0.12895535871E-01  0.51109989000E-03 0.  1.
     -623    1    1    2    0    0 -0.22758349453E-01 -0.47645703658E-02  0.17373813213E-01  0.17130000246E+03  0.17130000000E+03 0.  1.
      622    1    1    2    0    0  0.29583345720E-01  0.15588807150E-01  0.39841390805E+01  0.39871020050E+01  0.15000000000E+00 0.  1.
</event>
<event>
 5   0  0.6780500E+06  0.9118800E+02  0.7818608E-02  0.1180000E+00
       11   -1    0    0    0    0  0.00000000000E+00  0.00000000000E+00  0.39999999673E+01  0.40000000000E+01  0.51109989000E-03 0.  1.
     -623   -1    0    0    0    0  0.00000000000E+00  0.00000000000E+00  0.12525980253E-10  0.17130000000E+03  0.17130000000E+03 0.  1.
       11    1    1    2    0    0 -0.18536986262E-02  0.21467231393E-02 -0.60306565655E-02  0.66839103481E-02  0.51109989000E-03 0.  1.
     -623    1    1    2    0    0  0.29107000984E-02 -0.13061064322E-01  0.15549031270E-01  0.17130000123E+03  0.17130000000E+03 0.  1.
      622    1    1    2    0    0 -0.10570014722E-02  0.10914341183E-01  0.39904815927E+01  0.39933148613E+01  0.15000000000E+00 0.  1.
</event>
<event>
 5   0  0.6780500E+06  0.9118800E+02  0.7818608E-02  0.1180000E+00
       11   -1    0    0    0    0  0.00000000000E+00  0.00000000000E+00  0.39999999673E+01  0.40000000000E+01  0.51109989000E-03 0. -1.
     -623   -1    0    0    0    0  0.00000000000E+00  0.00000000000E+00  0.12525980253E-10  0.17130000000E+03  0.17130000000E+03 0.  1.
       11    1    1    2    0    0 -0.10520633609E-02  0.30429060519E-02  0.54714144939E-02  0.63689647095E-02  0.51109989000E-03 0. -1.
     -623    1    1    2    0    0 -0.27663296984E-02 -0.44421511451E-02  0.37176894764E-02  0.17130000012E+03  0.17130000000E+03 0.  1.
      622    1    1    2    0    0  0.38183930592E-02  0.13992450932E-02  0.39908108634E+01  0.39936309150E+01  0.15000000000E+00 0. -1.
</event>
<event>
 5   0  0.6780500E+06  0.9118800E+02  0.7818608E-02  0.1180000E+00
       11   -1    0    0    0    0  0.00000000000E+00  0.00000000000E+00  0.39999999673E+01  0.40000000000E+01  0.51109989000E-03 0. -1.
     -623   -1    0    0    0    0  0.00000000000E+00  0.00000000000E+00  0.12525980253E-10  0.17130000000E+03  0.17130000000E+03 0.  1.
       11    1    1    2    0    0  0.28814468300E-01 -0.22962728929E-01  0.22408743500E+00  0.22709689617E+00  0.51109989000E-03 0. -1.
     -623    1    1    2    0    0 -0.20484679005E-01  0.10166043884E-02  0.60668143683E-02  0.17130000134E+03  0.17130000000E+03 0.  1.
      622    1    1    2    0    0 -0.83297892951E-02  0.21946124541E-01  0.37698457180E+01  0.37729017686E+01  0.15000000000E+00 0. -1.
</event>
<event>
 5   0  0.6780500E+06  0.9118800E+02  0.7818608E-02  0.1180000E+00
       11   -1    0    0    0    0  0.00000000000E+00  0.00000000000E+00  0.39999999673E+01  0.40000000000E+01  0.51109989000E-03 0.  1.
     -623   -1    0    0    0    0  0.00000000000E+00  0.00000000000E+00  0.12525980253E-10  0.17130000000E+03  0.17130000000E+03 0.  1.
       11    1    1    2    0    0 -0.35359243531E-01  0.10581243882E-01  0.15326675596E+00  0.15764897250E+00  0.51109989000E-03 0.  1.
     -623    1    1    2    0    0 -0.97686423620E-03 -0.14417462964E-01  0.74858309346E-02  0.17130000077E+03  0.17130000000E+03 0.  1.
      622    1    1    2    0    0  0.36336107767E-01  0.38362190821E-02  0.38392473805E+01  0.38423502544E+01  0.15000000000E+00 0.  1.
</event>
<event>
 5   0  0.6780500E+06  0.9118800E+02  0.7818608E-02  0.1180000E+00
       11   -1    0    0    0    0  0.00000000000E+00  0.00000000000E+00  0.39999999673E+01  0.40000000000E+01  0.51109989000E-03 0. -1.
     -623   -1    0    0    0    0  0.00000000000E+00  0.00000000000E+00  0.12525980253E-10  0.17130000000E+03  0.17130000000E+03 0.  1.
       11    1    1    2    0    0 -0.35006959576E-01 -0.52366898007E-01  0.25323879479E+00  0.26095579633E+00  0.51109989000E-03 0. -1.
     -623    1    1    2    0    0 -0.11401796306E-01  0.13109785887E-01  0.11222747470E-01  0.17130000125E+03  0.17130000000E+03 0.  1.
      622    1    1    2    0    0  0.46408755882E-01  0.39257112120E-01  0.37355384251E+01  0.37390429549E+01  0.15000000000E+00 0. -1.
</event>
<event>
 5   0  0.6780500E+06  0.9118800E+02  0.7818608E-02  0.1180000E+00
       11   -1    0    0    0    0  0.00000000000E+00  0.00000000000E+00  0.39999999673E+01  0.40000000000E+01  0.51109989000E-03 0.  1.
     -623   -1    0    0    0    0  0.00000000000E+00  0.00000000000E+00  0.12525980253E-10  0.17130000000E+03  0.17130000000E+03 0. -1.
       11    1    1    2    0    0 -0.26698766270E-01 -0.17336617714E-02  0.22502409679E+00  0.22660965351E+00  0.51109989000E-03 0.  1.
     -623    1    1    2    0    0  0.87757268289E-02  0.19957902645E-01  0.46562023510E-02  0.17130000145E+03  0.17130000000E+03 0. -1.
      622    1    1    2    0    0  0.17923039441E-01 -0.18224240874E-01  0.37703196683E+01  0.37733888959E+01  0.15000000000E+00 0.  1.
</event>
<event>
 5   0  0.6780500E+06  0.9118800E+02  0.7818608E-02  0.1180000E+00
       11   -1    0    0    0    0  0.00000000000E+00  0.00000000000E+00  0.39999999673E+01  0.40000000000E+01  0.51109989000E-03 0.  1.
     -623   -1    0    0    0    0  0.00000000000E+00  0.00000000000E+00  0.12525980253E-10  0.17130000000E+03  0.17130000000E+03 0. -1.
       11    1    1    2    0    0  0.15636198192E-01 -0.43098291958E-01  0.66255571859E+00  0.66414026750E+00  0.51109989000E-03 0.  1.
     -623    1    1    2    0    0  0.17215046397E-01  0.23281848809E-01  0.51820427925E-02  0.17130000253E+03  0.17130000000E+03 0. -1.
      622    1    1    2    0    0 -0.32851244590E-01  0.19816443149E-01  0.33322622060E+01  0.33358572069E+01  0.15000000000E+00 0.  1.
</event>
<event>
 5   0  0.6780500E+06  0.9118800E+02  0.7818608E-02  0.1180000E+00
       11   -1    0    0    0    0  0.00000000000E+00  0.00000000000E+00  0.39999999673E+01  0.40000000000E+01  0.51109989000E-03 0.  1.
     -623   -1    0    0    0    0  0.00000000000E+00  0.00000000000E+00  0.12525980253E-10  0.17130000000E+03  0.17130000000E+03 0. -1.
       11    1    1    2    0    0 -0.37583357075E-02 -0.19932193731E-01  0.58836585183E-01  0.62236825209E-01  0.51109989000E-03 0.  1.
     -623    1    1    2    0    0 -0.13141123852E-01 -0.29398370925E-02  0.63616081944E-02  0.17130000065E+03  0.17130000000E+03 0. -1.
      622    1    1    2    0    0  0.16899459559E-01  0.22872030823E-01  0.39348017740E+01  0.39377625274E+01  0.15000000000E+00 0.  1.
</event>
<event>
 5   0  0.6780500E+06  0.9118800E+02  0.7818608E-02  0.1180000E+00
       11   -1    0    0    0    0  0.00000000000E+00  0.00000000000E+00  0.39999999673E+01  0.40000000000E+01  0.51109989000E-03 0.  1.
     -623   -1    0    0    0    0  0.00000000000E+00  0.00000000000E+00  0.12525980253E-10  0.17130000000E+03  0.17130000000E+03 0.  1.
       11    1    1    2    0    0 -0.12695841730E-02  0.46057356748E-03 -0.74257411162E-03  0.16237645741E-02  0.51109989000E-03 0.  1.
     -623    1    1    2    0    0 -0.11535065345E-02  0.17460038750E-02  0.51823741641E-02  0.17130000009E+03  0.17130000000E+03 0.  1.
      622    1    1    2    0    0  0.24230907075E-02 -0.22065774426E-02  0.39955601674E+01  0.39983761443E+01  0.15000000000E+00 0.  1.
</event>
<event>
 5   0  0.6780500E+06  0.9118800E+02  0.7818608E-02  0.1180000E+00
       11   -1    0    0    0    0  0.00000000000E+00  0.00000000000E+00  0.39999999673E+01  0.40000000000E+01  0.51109989000E-03 0.  1.
     -623   -1    0    0    0    0  0.00000000000E+00  0.00000000000E+00  0.12525980253E-10  0.17130000000E+03  0.17130000000E+03 0. -1.
       11    1    1    2    0    0 -0.11638517737E-01 -0.32382075177E-02  0.57222933760E-01  0.58486463842E-01  0.51109989000E-03 0.  1.
     -623    1    1    2    0    0  0.61798672327E-03  0.19243881827E-02  0.41344641130E-02  0.17130000006E+03  0.17130000000E+03 0. -1.
      622    1    1    2    0    0  0.11020531013E-01  0.13138193350E-02  0.39386425695E+01  0.39415134743E+01  0.15000000000E+00 0.  1.
</event>
<event>
 5   0  0.6780500E+06  0.9118800E+02  0.7818608E-02  0.1180000E+00
       11   -1    0    0    0    0  0.00000000000E+00  0.00000000000E+00  0.39999999673E+01  0.40000000000E+01  0.51109989000E-03 0.  1.
     -623   -1    0    0    0    0  0.00000000000E+00  0.00000000000E+00  0.12525980253E-10  0.17130000000E+03  0.17130000000E+03 0.  1.
       11    1    1    2    0    0 -0.35434641645E-01 -0.17107446030E-01  0.11448398381E+01  0.11455159513E+01  0.51109989000E-03 0.  1.
     -623    1    1    2    0    0 -0.55787360858E-02  0.26365255236E-01  0.49322659457E-02  0.17130000219E+03  0.17130000000E+03 0.  1.
      622    1    1    2    0    0  0.41013377731E-01 -0.92578092056E-02  0.28502278633E+01  0.28544818579E+01  0.15000000000E+00 0.  1.
</event>
<event>
 5   0  0.6780500E+06  0.9118800E+02  0.7818608E-02  0.1180000E+00
       11   -1    0    0    0    0  0.00000000000E+00  0.00000000000E+00  0.39999999673E+01  0.40000000000E+01  0.51109989000E-03 0.  1.
     -623   -1    0    0    0    0  0.00000000000E+00  0.00000000000E+00  0.12525980253E-10  0.17130000000E+03  0.17130000000E+03 0. -1.
       11    1    1    2    0    0  0.56884283436E-02  0.54371901810E-03  0.25947819673E+00  0.25954161448E+00  0.51109989000E-03 0.  1.
     -623    1    1    2    0    0  0.15189395874E-01  0.11313927876E-01  0.31504488626E-02  0.17130000108E+03  0.17130000000E+03 0. -1.
      622    1    1    2    0    0 -0.20877824217E-01 -0.11857646894E-01  0.37373713218E+01  0.37404573095E+01  0.15000000000E+00 0.  1.
</event>
<event>
 5   0  0.6780500E+06  0.9118800E+02  0.7818608E-02  0.1180000E+00
       11   -1    0    0    0    0  0.00000000000E+00  0.00000000000E+00  0.39999999673E+01  0.40000000000E+01  0.51109989000E-03 0.  1.
     -623   -1    0    0    0    0  0.00000000000E+00  0.00000000000E+00  0.12525980253E-10  0.17130000000E+03  0.17130000000E+03 0.  1.
       11    1    1    2    0    0 -0.14204871385E-02  0.18488570190E-02 -0.17604863370E-02  0.29659047907E-02  0.51109989000E-03 0.  1.
     -623    1    1    2    0    0  0.59567635775E-04 -0.13526507375E-01  0.75599409863E-02  0.17130000070E+03  0.17130000000E+03 0.  1.
      622    1    1    2    0    0  0.13609195028E-02  0.11677650356E-01  0.39942005128E+01  0.39970333944E+01  0.15000000000E+00 0.  1.
</event>
<event>
 5   0  0.6780500E+06  0.9118800E+02  0.7818608E-02  0.1180000E+00
       11   -1    0    0    0    0  0.00000000000E+00  0.00000000000E+00  0.39999999673E+01  0.40000000000E+01  0.51109989000E-03 0.  1.
     -623   -1    0    0    0    0  0.00000000000E+00  0.00000000000E+00  0.12525980253E-10  0.17130000000E+03  0.17130000000E+03 0.  1.
       11    1    1    2    0    0  0.31165294670E-02 -0.79646343774E-02  0.10278107422E-01  0.13380914466E-01  0.51109989000E-03 0.  1.
     -623    1    1    2    0    0 -0.14924273602E-01  0.12232351054E-01  0.59466895773E-02  0.17130000119E+03  0.17130000000E+03 0.  1.
      622    1    1    2    0    0  0.11807744135E-01 -0.42677166765E-02  0.39837751703E+01  0.39866178954E+01  0.15000000000E+00 0.  1.
</event>
<event>
 5   0  0.6780500E+06  0.9118800E+02  0.7818608E-02  0.1180000E+00
       11   -1    0    0    0    0  0.00000000000E+00  0.00000000000E+00  0.39999999673E+01  0.40000000000E+01  0.51109989000E-03 0. -1.
     -623   -1    0    0    0    0  0.00000000000E+00  0.00000000000E+00  0.12525980253E-10  0.17130000000E+03  0.17130000000E+03 0. -1.
       11    1    1    2    0    0 -0.42313897618E-02 -0.40958930827E-02  0.37238765117E-01  0.37705010926E-01  0.51109989000E-03 0. -1.
     -623    1    1    2    0    0  0.73977925303E-03  0.46973597920E-02  0.33081780053E-02  0.17130000010E+03  0.17130000000E+03 0. -1.
      622    1    1    2    0    0  0.34916105088E-02 -0.60146670923E-03  0.39594530242E+01  0.39622948911E+01  0.15000000000E+00 0. -1.
</event>
<event>
 5   0  0.6780500E+06  0.9118800E+02  0.7818608E-02  0.1180000E+00
       11   -1    0    0    0    0  0.00000000000E+00  0.00000000000E+00  0.39999999673E+01  0.40000000000E+01  0.51109989000E-03 0. -1.
     -623   -1    0    0    0    0  0.00000000000E+00  0.00000000000E+00  0.12525980253E-10  0.17130000000E+03  0.17130000000E+03 0. -1.
       11    1    1    2    0    0  0.68501562855E-02  0.85537705549E-03  0.21184905022E+00  0.21196211363E+00  0.51109989000E-03 0. -1.
     -623    1    1    2    0    0 -0.89821239078E-02  0.10855360565E-01  0.31033957670E-02  0.17130000061E+03  0.17130000000E+03 0. -1.
      622    1    1    2    0    0  0.21319676226E-02 -0.11710737621E-01  0.37850475215E+01  0.37880372789E+01  0.15000000000E+00 0. -1.
</event>
<event>
 5   0  0.6780500E+06  0.9118800E+02  0.7818608E-02  0.1180000E+00
       11   -1    0    0    0    0  0.00000000000E+00  0.00000000000E+00  0.39999999673E+01  0.40000000000E+01  0.51109989000E-03 0. -1.
     -623   -1    0    0    0    0  0.00000000000E+00  0.00000000000E+00  0.12525980253E-10  0.17130000000E+03  0.17130000000E+03 0.  1.
       11    1    1    2    0    0  0.19439216848E-02  0.22319717115E-03  0.25831390119E-02  0.32806217011E-02  0.51109989000E-03 0. -1.
     -623    1    1    2    0    0 -0.42989060833E-02 -0.14689760572E-02  0.35142354848E-02  0.17130000010E+03  0.17130000000E+03 0.  1.
      622    1    1    2    0    0  0.23549843986E-02  0.12457788861E-02  0.39939025929E+01  0.39967192821E+01  0.15000000000E+00 0. -1.
</event>
<event>
 5   0  0.6780500E+06  0.9118800E+02  0.7818608E-02  0.1180000E+00
       11   -1    0    0    0    0  0.00000000000E+00  0.00000000000E+00  0.39999999673E+01  0.40000000000E+01  0.51109989000E-03 0. -1.
     -623   -1    0    0    0    0  0.00000000000E+00  0.00000000000E+00  0.12525980253E-10  0.17130000000E+03  0.17130000000E+03 0.  1.
       11    1    1    2    0    0  0.38065222729E-01 -0.29676506321E-02  0.30027087317E+00  0.30268899324E+00  0.51109989000E-03 0. -1.
     -623    1    1    2    0    0 -0.23995574634E-01 -0.13470152933E-01  0.55277568473E-02  0.17130000230E+03  0.17130000000E+03 0.  1.
      622    1    1    2    0    0 -0.14069648096E-01  0.16437803565E-01  0.36942013374E+01  0.36973087074E+01  0.15000000000E+00 0. -1.
</event>
<event>
 5   0  0.6780500E+06  0.9118800E+02  0.7818608E-02  0.1180000E+00
       11   -1    0    0    0    0  0.00000000000E+00  0.00000000000E+00  0.39999999673E+01  0.40000000000E+01  0.51109989000E-03 0.  1.
     -623   -1    0    0    0    0  0.00000000000E+00  0.00000000000E+00  0.12525980253E-10  0.17130000000E+03  0.17130000000E+03 0.  1.
       11    1    1    2    0    0 -0.16002569638E-02  0.59801893094E-04 -0.51694082986E-04  0.16817532496E-02  0.51109989000E-03 0.  1.
     -623    1    1    2    0    0 -0.14220614013E-01  0.11692143771E-01  0.45977460939E-02  0.17130000105E+03  0.17130000000E+03 0.  1.
      622    1    1    2    0    0  0.15820870977E-01 -0.11751945664E-01  0.39954539154E+01  0.39983171958E+01  0.15000000000E+00 0.  1.
</event>
<event>
 5   0  0.6780500E+06  0.9118800E+02  0.7818608E-02  0.1180000E+00
       11   -1    0    0    0    0  0.00000000000E+00  0.00000000000E+00  0.39999999673E+01  0.40000000000E+01  0.51109989000E-03 0. -1.
     -623   -1    0    0    0    0  0.00000000000E+00  0.00000000000E+00  0.12525980253E-10  0.17130000000E+03  0.17130000000E+03 0. -1.
       11    1    1    2    0    0  0.54964240968E-02  0.32143858762E-02  0.16379453703E-01  0.17580974976E-01  0.51109989000E-03 0. -1.
     -623    1    1    2    0    0 -0.84029543872E-03 -0.59852267707E-02  0.40312500850E-02  0.17130000015E+03  0.17130000000E+03 0. -1.
      622    1    1    2    0    0 -0.46561286580E-02  0.27708408945E-02  0.39795892636E+01  0.39824188710E+01  0.15000000000E+00 0. -1.
</event>
<event>
 5   0  0.6780500E+06  0.9118800E+02  0.7818608E-02  0.1180000E+00
       11   -1    0    0    0    0  0.00000000000E+00  0.00000000000E+00  0.39999999673E+01  0.40000000000E+01  0.51109989000E-03 0.  1.
     -623   -1    0    0    0    0  0.00000000000E+00  0.00000000000E+00  0.12525980253E-10  0.17130000000E+03  0.17130000000E+03 0. -1.
       11    1    1    2    0    0 -0.25324699809E-02  0.19834930358E-01  0.27036995143E+00  0.27110885217E+00  0.51109989000E-03 0.  1.
     -623    1    1    2    0    0  0.38393648160E-02  0.33300163613E-02  0.38294324105E-02  0.17130000012E+03  0.17130000000E+03 0. -1.
      622    1    1    2    0    0 -0.13068948350E-02 -0.23164946720E-01  0.37258005835E+01  0.37288910296E+01  0.15000000000E+00 0.  1.
</event>
<event>
 5   0  0.6780500E+06  0.9118800E+02  0.7818608E-02  0.1180000E+00
       11   -1    0    0    0    0  0.00000000000E+00  0.00000000000E+00  0.39999999673E+01  0.40000000000E+01  0.51109989000E-03 0. -1.
     -623   -1    0    0    0    0  0.00000000000E+00  0.00000000000E+00  0.12525980253E-10  0.17130000000E+03  0.17130000000E+03 0. -1.
       11    1    1    2    0    0  0.19589307040E-01 -0.11105364418E-02  0.99644606921E-01  0.10155925932E+00  0.51109989000E-03 0. -1.
     -623    1    1    2    0    0 -0.12891463613E-01 -0.91458692633E-03  0.48082975671E-02  0.17130000056E+03  0.17130000000E+03 0. -1.
      622    1    1    2    0    0 -0.66978434269E-02  0.20251233681E-02  0.38955470629E+01  0.38984401857E+01  0.15000000000E+00 0. -1.
</event>
<event>
 5   0  0.6780500E+06  0.9118800E+02  0.7818608E-02  0.1180000E+00
       11   -1    0    0    0    0  0.00000000000E+00  0.00000000000E+00  0.39999999673E+01  0.40000000000E+01  0.51109989000E-03 0. -1.
     -623   -1    0    0    0    0  0.00000000000E+00  0.00000000000E+00  0.12525980253E-10  0.17130000000E+03  0.17130000000E+03 0.  1.
       11    1    1    2    0    0 -0.30131537545E-02  0.57174106293E-02  0.31187681856E-01  0.31854365501E-01  0.51109989000E-03 0. -1.
     -623    1    1    2    0    0  0.99965667497E-02 -0.16370627303E-01  0.35243127638E-02  0.17130000111E+03  0.17130000000E+03 0.  1.
      622    1    1    2    0    0 -0.69834129953E-02  0.10653216674E-01  0.39652879727E+01  0.39681445243E+01  0.15000000000E+00 0. -1.
</event>
<event>
 5   0  0.6780500E+06  0.9118800E+02  0.7818608E-02  0.1180000E+00
       11   -1    0    0    0    0  0.00000000000E+00  0.00000000000E+00  0.39999999673E+01  0.40000000000E+01  0.51109989000E-03 0. -1.
     -623   -1    0    0    0    0  0.00000000000E+00  0.00000000000E+00  0.12525980253E-10  0.17130000000E+03  0.17130000000E+03 0. -1.
       11    1    1    2    0    0 -0.58263253451E-02 -0.41609197591E-02  0.10134049877E+00  0.10159437600E+00  0.51109989000E-03 0. -1.
     -623    1    1    2    0    0  0.35411047506E-01  0.29835608257E-01  0.33439596304E-02  0.17130000629E+03  0.17130000000E+03 0. -1.
      622    1    1    2    0    0 -0.29584722162E-01 -0.25674688499E-01  0.38953155091E+01  0.38983993331E+01  0.15000000000E+00 0. -1.
</event>
<event>
 5   0  0.6780500E+06  0.9118800E+02  0.7818608E-02  0.1180000E+00
       11   -1    0    0    0    0  0.00000000000E+00  0.00000000000E+00  0.39999999673E+01  0.40000000000E+01  0.51109989000E-03 0. -1.
     -623   -1    0    0    0    0  0.00000000000E+00  0.00000000000E+00  0.12525980253E-10  0.17130000000E+03  0.17130000000E+03 0. -1.
       11    1    1    2    0    0 -0.59685690739E-02  0.98082915951E-03  0.21585847818E+00  0.21594381137E+00  0.51109989000E-03 0. -1.
     -623    1    1    2    0    0  0.66863917297E-02 -0.22560064707E-03  0.30597712658E-02  0.17130000016E+03  0.17130000000E+03 0. -1.
      622    1    1    2    0    0 -0.71782265566E-03 -0.75522851245E-03  0.37810817179E+01  0.37840560306E+01  0.15000000000E+00 0. -1.
</event>
<event>
 5   0  0.6780500E+06  0.9118800E+02  0.7818608E-02  0.1180000E+00
       11   -1    0    0    0    0  0.00000000000E+00  0.00000000000E+00  0.39999999673E+01  0.40000000000E+01  0.51109989000E-03 0. -1.
     -623   -1    0    0    0    0  0.00000000000E+00  0.00000000000E+00  0.12525980253E-10  0.17130000000E+03  0.17130000000E+03 0.  1.
       11    1    1    2    0    0 -0.32735378241E-02  0.61112699595E-02  0.89435876867E-01  0.89705635076E-01  0.51109989000E-03 0. -1.
     -623    1    1    2    0    0  0.47507638826E-02 -0.39387275386E-02  0.31488294095E-02  0.17130000014E+03  0.17130000000E+03 0.  1.
      622    1    1    2    0    0 -0.14772260585E-02 -0.21725424209E-02  0.39074152611E+01  0.39102942249E+01  0.15000000000E+00 0. -1.
</event>
<event>
 5   0  0.6780500E+06  0.9118800E+02  0.7818608E-02  0.1180000E+00
       11   -1    0    0    0    0  0.00000000000E+00  0.00000000000E+00  0.39999999673E+01  0.40000000000E+01  0.51109989000E-03 0.  1.
     -623   -1    0    0    0    0  0.00000000000E+00  0.00000000000E+00  0.12525980253E-10  0.17130000000E+03  0.17130000000E+03 0. -1.
       11    1    1    2    0    0  0.13745496423E-01  0.51672511693E-02  0.10924432801E+00  0.11022805261E+00  0.51109989000E-03 0.  1.
     -623    1    1    2    0    0  0.48241944794E-02  0.93335602162E-03  0.39262304880E-02  0.17130000012E+03  0.17130000000E+03 0. -1.
      622    1    1    2    0    0 -0.18569690903E-01 -0.61006071910E-02  0.38868294089E+01  0.38897718320E+01  0.15000000000E+00 0.  0.
</event>
<event>
 5   0  0.6780500E+06  0.9118800E+02  0.7818608E-02  0.1180000E+00
       11   -1    0    0    0    0  0.00000000000E+00  0.00000000000E+00  0.39999999673E+01  0.40000000000E+01  0.51109989000E-03 0.  1.
     -623   -1    0    0    0    0  0.00000000000E+00  0.00000000000E+00  0.12525980253E-10  0.17130000000E+03  0.17130000000E+03 0.  1.
       11    1    1    2    0    0  0.64824626920E-02  0.55354905394E-02  0.40669536891E-02  0.94586105466E-02  0.51109989000E-03 0.  1.
     -623    1    1    2    0    0 -0.40225586192E-02 -0.61996948605E-03  0.82158209504E-02  0.17130000025E+03  0.17130000000E+03 0.  1.
      622    1    1    2    0    0 -0.24599040728E-02 -0.49155210533E-02  0.39877171927E+01  0.39905411441E+01  0.15000000000E+00 0.  1.
</event>
<event>
 5   0  0.6780500E+06  0.9118800E+02  0.7818608E-02  0.1180000E+00
       11   -1    0    0    0    0  0.00000000000E+00  0.00000000000E+00  0.39999999673E+01  0.40000000000E+01  0.51109989000E-03 0.  1.
     -623   -1    0    0    0    0  0.00000000000E+00  0.00000000000E+00  0.12525980253E-10  0.17130000000E+03  0.17130000000E+03 0.  1.
       11    1    1    2    0    0  0.14844771851E-01  0.10640828753E-01  0.22193163726E-01  0.28747038580E-01  0.51109989000E-03 0.  1.
     -623    1    1    2    0    0  0.14394010896E-02 -0.19038818654E-01  0.94313337976E-02  0.17130000132E+03  0.17130000000E+03 0.  1.
      622    1    1    2    0    0 -0.16284172940E-01  0.83979899018E-02  0.39683754698E+01  0.39712516377E+01  0.15000000000E+00 0.  1.
</event>
<event>
 5   0  0.6780500E+06  0.9118800E+02  0.7818608E-02  0.1180000E+00
       11   -1    0    0    0    0  0.00000000000E+00  0.00000000000E+00  0.39999999673E+01  0.40000000000E+01  0.51109989000E-03 0.  1.
     -623   -1    0    0    0    0  0.00000000000E+00  0.00000000000E+00  0.12525980253E-10  0.17130000000E+03  0.17130000000E+03 0. -1.
       11    1    1    2    0    0  0.22715118803E-01  0.12189048797E-01  0.81246734593E+00  0.81287637372E+00  0.51109989000E-03 0.  1.
     -623    1    1    2    0    0 -0.16494800455E-01 -0.11561850202E-01  0.39481504073E-02  0.17130000123E+03  0.17130000000E+03 0. -1.
      622    1    1    2    0    0 -0.62203183482E-02 -0.62719859521E-03  0.31835844711E+01  0.31871223965E+01  0.15000000000E+00 0.  1.
</event>
<event>
 5   0  0.6780500E+06  0.9118800E+02  0.7818608E-02  0.1180000E+00
       11   -1    0    0    0    0  0.00000000000E+00  0.00000000000E+00  0.39999999673E+01  0.40000000000E+01  0.51109989000E-03 0. -1.
     -623   -1    0    0    0    0  0.00000000000E+00  0.00000000000E+00  0.12525980253E-10  0.17130000000E+03  0.17130000000E+03 0.  1.
       11    1    1    2    0    0  0.25222881147E-02 -0.32776378873E-01  0.24053620953E+00  0.24277269671E+00  0.51109989000E-03 0. -1.
     -623    1    1    2    0    0 -0.78414631299E-02  0.55110897040E-02  0.53350067235E-02  0.17130000035E+03  0.17130000000E+03 0.  1.
      622    1    1    2    0    0  0.53191750152E-02  0.27265289169E-01  0.37541287511E+01  0.37572269521E+01  0.15000000000E+00 0. -1.
</event>
<event>
 5   0  0.6780500E+06  0.9118800E+02  0.7818608E-02  0.1180000E+00
       11   -1    0    0    0    0  0.00000000000E+00  0.00000000000E+00  0.39999999673E+01  0.40000000000E+01  0.51109989000E-03 0.  1.
     -623   -1    0    0    0    0  0.00000000000E+00  0.00000000000E+00  0.12525980253E-10  0.17130000000E+03  0.17130000000E+03 0.  1.
       11    1    1    2    0    0 -0.93748965620E-02  0.96432608021E-02  0.16231933381E-01  0.21085968055E-01  0.51109989000E-03 0.  1.
     -623    1    1    2    0    0  0.38773661319E-03 -0.15047315575E-01  0.76970761278E-02  0.17130000083E+03  0.17130000000E+03 0.  1.
      622    1    1    2    0    0  0.89871599489E-02  0.54040547727E-02  0.39760709578E+01  0.39789131977E+01  0.15000000000E+00 0.  1.
</event>
<event>
 5   0  0.6780500E+06  0.9118800E+02  0.7818608E-02  0.1180000E+00
       11   -1    0    0    0    0  0.00000000000E+00  0.00000000000E+00  0.39999999673E+01  0.40000000000E+01  0.51109989000E-03 0.  1.
     -623   -1    0    0    0    0  0.00000000000E+00  0.00000000000E+00  0.12525980253E-10  0.17130000000E+03  0.17130000000E+03 0.  1.
       11    1    1    2    0    0 -0.68624949276E-02 -0.45064102660E-02  0.71806536510E-01  0.72276147358E-01  0.51109989000E-03 0.  1.
     -623    1    1    2    0    0  0.17714611731E-02  0.54900041155E-03  0.33402172618E-02  0.17130000004E+03  0.17130000000E+03 0.  1.
      622    1    1    2    0    0  0.50910337545E-02  0.39574098544E-02  0.39248532136E+01  0.39277238100E+01  0.15000000000E+00 0.  1.
</event>
<event>
 5   0  0.6780500E+06  0.9118800E+02  0.7818608E-02  0.1180000E+00
       11   -1    0    0    0    0  0.00000000000E+00  0.00000000000E+00  0.39999999673E+01  0.40000000000E+01  0.51109989000E-03 0.  1.
     -623   -1    0    0    0    0  0.00000000000E+00  0.00000000000E+00  0.12525980253E-10  0.17130000000E+03  0.17130000000E+03 0.  1.
       11    1    1    2    0    0 -0.66361412499E-02  0.12765947874E-01  0.19625502937E+00  0.19678238126E+00  0.51109989000E-03 0.  1.
     -623    1    1    2    0    0  0.15638516698E-01 -0.97238822753E-02  0.34993988666E-02  0.17130000103E+03  0.17130000000E+03 0.  1.
      622    1    1    2    0    0 -0.90023754478E-02 -0.30420655985E-02  0.38002455391E+01  0.38032165932E+01  0.15000000000E+00 0.  1.
</event>
<event>
 5   0  0.6780500E+06  0.9118800E+02  0.7818608E-02  0.1180000E+00
       11   -1    0    0    0    0  0.00000000000E+00  0.00000000000E+00  0.39999999673E+01  0.40000000000E+01  0.51109989000E-03 0.  1.
     -623   -1    0    0    0    0  0.00000000000E+00  0.00000000000E+00  0.12525980253E-10  0.17130000000E+03  0.17130000000E+03 0.  1.
       11    1    1    2    0    0 -0.48313883492E-02 -0.16098912337E-02  0.81336387534E-02  0.96099617915E-02  0.51109989000E-03 0.  1.
     -623    1    1    2    0    0  0.14096497715E-02 -0.51729374059E-02  0.43039352607E-02  0.17130000014E+03  0.17130000000E+03 0.  1.
      622    1    1    2    0    0  0.34217385777E-02  0.67828286396E-02  0.39875623933E+01  0.39903899002E+01  0.15000000000E+00 0.  1.
</event>
<event>
 5   0  0.6780500E+06  0.9118800E+02  0.7818608E-02  0.1180000E+00
       11   -1    0    0    0    0  0.00000000000E+00  0.00000000000E+00  0.39999999673E+01  0.40000000000E+01  0.51109989000E-03 0. -1.
     -623   -1    0    0    0    0  0.00000000000E+00  0.00000000000E+00  0.12525980253E-10  0.17130000000E+03  0.17130000000E+03 0. -1.
       11    1    1    2    0    0  0.33617434275E-01 -0.35483078394E-01  0.79598762718E+00  0.79748714384E+00  0.51109989000E-03 0. -1.
     -623    1    1    2    0    0 -0.28739492452E-01 -0.14956180038E-01  0.54188198440E-02  0.17130000315E+03  0.17130000000E+03 0. -1.
      622    1    1    2    0    0 -0.48779418227E-02  0.50439258432E-01  0.31985935204E+01  0.32025097067E+01  0.15000000000E+00 0. -1.
</event>
<event>
 5   0  0.6780500E+06  0.9118800E+02  0.7818608E-02  0.1180000E+00
       11   -1    0    0    0    0  0.00000000000E+00  0.00000000000E+00  0.39999999673E+01  0.40000000000E+01  0.51109989000E-03 0. -1.
     -623   -1    0    0    0    0  0.00000000000E+00  0.00000000000E+00  0.12525980253E-10  0.17130000000E+03  0.17130000000E+03 0.  1.
       11    1    1    2    0    0  0.79217605052E-01  0.24889500710E-01  0.10621675309E+01  0.10654083917E+01  0.51109989000E-03 0. -1.
     -623    1    1    2    0    0 -0.46013839472E-01 -0.75255420088E-02  0.73229671228E-02  0.17130000650E+03  0.17130000000E+03 0.  1.
      622    1    1    2    0    0 -0.33203765580E-01 -0.17363958701E-01  0.29305094693E+01  0.29345851064E+01  0.15000000000E+00 0. -1.
</event>
<event>
 5   0  0.6780500E+06  0.9118800E+02  0.7818608E-02  0.1180000E+00
       11   -1    0    0    0    0  0.00000000000E+00  0.00000000000E+00  0.39999999673E+01  0.40000000000E+01  0.51109989000E-03 0. -1.
     -623   -1    0    0    0    0  0.00000000000E+00  0.00000000000E+00  0.12525980253E-10  0.17130000000E+03  0.17130000000E+03 0. -1.
       11    1    1    2    0    0  0.29504317510E-02  0.74465715622E-02  0.14265633421E+00  0.14288193514E+00  0.51109989000E-03 0. -1.
     -623    1    1    2    0    0  0.24533777675E-01  0.14868388061E-01  0.33083907163E-02  0.17130000243E+03  0.17130000000E+03 0. -1.
      622    1    1    2    0    0 -0.27484209426E-01 -0.22314959623E-01  0.38540352424E+01  0.38571156308E+01  0.15000000000E+00 0.  0.
</event>
<event>
 5   0  0.6780500E+06  0.9118800E+02  0.7818608E-02  0.1180000E+00
       11   -1    0    0    0    0  0.00000000000E+00  0.00000000000E+00  0.39999999673E+01  0.40000000000E+01  0.51109989000E-03 0. -1.
     -623   -1    0    0    0    0  0.00000000000E+00  0.00000000000E+00  0.12525980253E-10  0.17130000000E+03  0.17130000000E+03 0.  1.
       11    1    1    2    0    0  0.24484308082E-02  0.43091277185E-02  0.10197550496E+00  0.10209715093E+00  0.51109989000E-03 0. -1.
     -623    1    1    2    0    0  0.15221617907E-01 -0.23153945403E-02  0.30501609108E-02  0.17130000072E+03  0.17130000000E+03 0.  1.
      622    1    1    2    0    0 -0.17670048715E-01 -0.19937331783E-02  0.38949743015E+01  0.38979021300E+01  0.15000000000E+00 0. -1.
</event>
<event>
 5   0  0.6780500E+06  0.9118800E+02  0.7818608E-02  0.1180000E+00
       11   -1    0    0    0    0  0.00000000000E+00  0.00000000000E+00  0.39999999673E+01  0.40000000000E+01  0.51109989000E-03 0.  1.
     -623   -1    0    0    0    0  0.00000000000E+00  0.00000000000E+00  0.12525980253E-10  0.17130000000E+03  0.17130000000E+03 0. -1.
       11    1    1    2    0    0 -0.11536168275E+00 -0.98111338753E-01  0.66095262502E+00  0.67808022120E+00  0.51109989000E-03 0.  1.
     -623    1    1    2    0    0  0.15203398972E-01  0.54344529396E-01  0.22327218524E-01  0.17130001075E+03  0.17130000000E+03 0. -1.
      622    1    1    2    0    0  0.10015828378E+00  0.43766809356E-01  0.33167201238E+01  0.33219090287E+01  0.15000000000E+00 0.  1.
</event>
<event>
 5   0  0.6780500E+06  0.9118800E+02  0.7818608E-02  0.1180000E+00
       11   -1    0    0    0    0  0.00000000000E+00  0.00000000000E+00  0.39999999673E+01  0.40000000000E+01  0.51109989000E-03 0. -1.
     -623   -1    0    0    0    0  0.00000000000E+00  0.00000000000E+00  0.12525980253E-10  0.17130000000E+03  0.17130000000E+03 0. -1.
       11    1    1    2    0    0  0.33009266349E-02 -0.18111679004E-02 -0.65708275291E-03  0.38560895547E-02  0.51109989000E-03 0. -1.
     -623    1    1    2    0    0 -0.12512278020E-02  0.31217692769E-02  0.73302770222E-02  0.17130000019E+03  0.17130000000E+03 0. -1.
      622    1    1    2    0    0 -0.20496988329E-02 -0.13106013766E-02  0.39933267732E+01  0.39961437207E+01  0.15000000000E+00 0. -1.
</event>
<event>
 5   0  0.6780500E+06  0.9118800E+02  0.7818608E-02  0.1180000E+00
       11   -1    0    0    0    0  0.00000000000E+00  0.00000000000E+00  0.39999999673E+01  0.40000000000E+01  0.51109989000E-03 0.  1.
     -623   -1    0    0    0    0  0.00000000000E+00  0.00000000000E+00  0.12525980253E-10  0.17130000000E+03  0.17130000000E+03 0.  1.
       11    1    1    2    0    0  0.54859201163E-02  0.16006456462E-02  0.22203051845E-01  0.22932381472E-01  0.51109989000E-03 0.  1.
     -623    1    1    2    0    0 -0.73220276799E-02 -0.45621684709E-02  0.35608029855E-02  0.17130000025E+03  0.17130000000E+03 0.  1.
      622    1    1    2    0    0  0.18361075636E-02  0.29615228247E-02  0.39742361125E+01  0.39770673643E+01  0.15000000000E+00 0.  1.
</event>
<event>
 5   0  0.6780500E+06  0.9118800E+02  0.7818608E-02  0.1180000E+00
       11   -1    0    0    0    0  0.00000000000E+00  0.00000000000E+00  0.39999999673E+01  0.40000000000E+01  0.51109989000E-03 0.  1.
     -623   -1    0    0    0    0  0.00000000000E+00  0.00000000000E+00  0.12525980253E-10  0.17130000000E+03  0.17130000000E+03 0.  1.
       11    1    1    2    0    0  0.60854421347E-01 -0.11170783831E-01  0.49868478715E+00  0.50250853243E+00  0.51109989000E-03 0.  1.
     -623    1    1    2    0    0  0.15544632011E-01  0.36748555631E-01  0.79755570187E-02  0.17130000483E+03  0.17130000000E+03 0.  1.
      622    1    1    2    0    0 -0.76399053358E-01 -0.25577771800E-01  0.34933396232E+01  0.34974866348E+01  0.15000000000E+00 0.  1.
</event>
<event>
 5   0  0.6780500E+06  0.9118800E+02  0.7818608E-02  0.1180000E+00
       11   -1    0    0    0    0  0.00000000000E+00  0.00000000000E+00  0.39999999673E+01  0.40000000000E+01  0.51109989000E-03 0.  1.
     -623   -1    0    0    0    0  0.00000000000E+00  0.00000000000E+00  0.12525980253E-10  0.17130000000E+03  0.17130000000E+03 0. -1.
       11    1    1    2    0    0  0.19938400465E-01  0.41167111950E-02  0.62736716156E-01  0.65959411014E-01  0.51109989000E-03 0.  1.
     -623    1    1    2    0    0 -0.15951417670E-02 -0.21157117613E-01  0.61645124279E-02  0.17130000142E+03  0.17130000000E+03 0. -1.
      622    1    1    2    0    0 -0.18343258698E-01  0.17040406418E-01  0.39310987388E+01  0.39340391641E+01  0.15000000000E+00 0.  1.
</event>
<event>
 5   0  0.6780500E+06  0.9118800E+02  0.7818608E-02  0.1180000E+00
       11   -1    0    0    0    0  0.00000000000E+00  0.00000000000E+00  0.39999999673E+01  0.40000000000E+01  0.51109989000E-03 0. -1.
     -623   -1    0    0    0    0  0.00000000000E+00  0.00000000000E+00  0.12525980253E-10  0.17130000000E+03  0.17130000000E+03 0.  1.
       11    1    1    2    0    0  0.40428472853E-02  0.15491230636E-03 -0.84575887394E-03  0.41647500723E-02  0.51109989000E-03 0. -1.
     -623    1    1    2    0    0 -0.62510880549E-02  0.16910001483E-02  0.78282390255E-02  0.17130000030E+03  0.17130000000E+03 0.  1.
      622    1    1    2    0    0  0.22082407697E-02 -0.18459124546E-02  0.39930174872E+01  0.39958349486E+01  0.15000000000E+00 0. -1.
</event>
<event>
 5   0  0.6780500E+06  0.9118800E+02  0.7818608E-02  0.1180000E+00
       11   -1    0    0    0    0  0.00000000000E+00  0.00000000000E+00  0.39999999673E+01  0.40000000000E+01  0.51109989000E-03 0. -1.
     -623   -1    0    0    0    0  0.00000000000E+00  0.00000000000E+00  0.12525980253E-10  0.17130000000E+03  0.17130000000E+03 0.  1.
       11    1    1    2    0    0  0.12110098763E-02 -0.20911624949E-01  0.86805873797E-01  0.89298844053E-01  0.51109989000E-03 0. -1.
     -623    1    1    2    0    0 -0.18069477993E-01  0.18000240362E-01  0.54101527791E-02  0.17130000198E+03  0.17130000000E+03 0.  1.
      622    1    1    2    0    0  0.16858468116E-01  0.29113845873E-02  0.39077839408E+01  0.39106991718E+01  0.15000000000E+00 0. -1.
</event>
<event>
 5   0  0.6780500E+06  0.9118800E+02  0.7818608E-02  0.1180000E+00
       11   -1    0    0    0    0  0.00000000000E+00  0.00000000000E+00  0.39999999673E+01  0.40000000000E+01  0.51109989000E-03 0.  1.
     -623   -1    0    0    0    0  0.00000000000E+00  0.00000000000E+00  0.12525980253E-10  0.17130000000E+03  0.17130000000E+03 0.  1.
       11    1    1    2    0    0 -0.63634306900E-02 -0.74979655503E-03  0.27042506430E-01  0.27795931733E-01  0.51109989000E-03 0.  1.
     -623    1    1    2    0    0  0.88197420719E-02  0.10716376298E-01  0.36004567791E-02  0.17130000060E+03  0.17130000000E+03 0.  1.
      622    1    1    2    0    0 -0.24563113819E-02 -0.99665797426E-02  0.39693570042E+01  0.39722034682E+01  0.15000000000E+00 0.  1.
</event>
<event>
 5   0  0.6780500E+06  0.9118800E+02  0.7818608E-02  0.1180000E+00
       11   -1    0    0    0    0  0.00000000000E+00  0.00000000000E+00  0.39999999673E+01  0.40000000000E+01  0.51109989000E-03 0. -1.
     -623   -1    0    0    0    0  0.00000000000E+00  0.00000000000E+00  0.12525980253E-10  0.17130000000E+03  0.17130000000E+03 0. -1.
       11    1    1    2    0    0  0.65393690449E-02  0.95801517768E-02  0.48279151821E+00  0.48293110681E+00  0.51109989000E-03 0. -1.
     -623    1    1    2    0    0 -0.12054840702E-01 -0.23313545553E-01  0.33729099898E-02  0.17130000204E+03  0.17130000000E+03 0. -1.
      622    1    1    2    0    0  0.55154716570E-02  0.13733393777E-01  0.35138355392E+01  0.35170668494E+01  0.15000000000E+00 0. -1.
</event>
<event>
 5   0  0.6780500E+06  0.9118800E+02  0.7818608E-02  0.1180000E+00
       11   -1    0    0    0    0  0.00000000000E+00  0.00000000000E+00  0.39999999673E+01  0.40000000000E+01  0.51109989000E-03 0.  1.
     -623   -1    0    0    0    0  0.00000000000E+00  0.00000000000E+00  0.12525980253E-10  0.17130000000E+03  0.17130000000E+03 0. -1.
       11    1    1    2    0    0  0.84882269994E-02  0.20080485065E-02 -0.75506414276E-04  0.87378018239E-02  0.51109989000E-03 0.  1.
     -623    1    1    2    0    0  0.52180916841E-02 -0.52042965419E-02  0.11658316166E-01  0.17130000056E+03  0.17130000000E+03 0. -1.
      622    1    1    2    0    0 -0.13706318684E-01  0.31962480354E-02  0.39884171576E+01  0.39912616429E+01  0.15000000000E+00 0.  1.
</event>
<event>
 5   0  0.6780500E+06  0.9118800E+02  0.7818608E-02  0.1180000E+00
       11   -1    0    0    0    0  0.00000000000E+00  0.00000000000E+00  0.39999999673E+01  0.40000000000E+01  0.51109989000E-03 0.  1.
     -623   -1    0    0    0    0  0.00000000000E+00  0.00000000000E+00  0.12525980253E-10  0.17130000000E+03  0.17130000000E+03 0.  1.
       11    1    1    2    0    0  0.78386294948E-03  0.56147506290E-02  0.19528066784E-04  0.56922288287E-02  0.51109989000E-03 0.  1.
     -623    1    1    2    0    0 -0.82029865489E-02 -0.64377396392E-02  0.84976783446E-02  0.17130000053E+03  0.17130000000E+03 0.  1.
      622    1    1    2    0    0  0.74191235994E-02  0.82298901026E-03  0.39914827609E+01  0.39943072430E+01  0.15000000000E+00 0.  1.
</event>
<event>
 5   0  0.6780500E+06  0.9118800E+02  0.7818608E-02  0.1180000E+00
       11   -1    0    0    0    0  0.00000000000E+00  0.00000000000E+00  0.39999999673E+01  0.40000000000E+01  0.51109989000E-03 0.  1.
     -623   -1    0    0    0    0  0.00000000000E+00  0.00000000000E+00  0.12525980253E-10  0.17130000000E+03  0.17130000000E+03 0.  1.
       11    1    1    2    0    0 -0.66384959031E-02 -0.14908380530E-01  0.32735856934E+00  0.32776550090E+00  0.51109989000E-03 0.  1.
     -623    1    1    2    0    0 -0.20066724963E-02  0.28742669896E-01  0.35104342836E-02  0.17130000246E+03  0.17130000000E+03 0.  1.
      622    1    1    2    0    0  0.86451683995E-02 -0.13834289366E-01  0.36691309637E+01  0.36722320400E+01  0.15000000000E+00 0.  1.
</event>
<event>
 5   0  0.6780500E+06  0.9118800E+02  0.7818608E-02  0.1180000E+00
       11   -1    0    0    0    0  0.00000000000E+00  0.00000000000E+00  0.39999999673E+01  0.40000000000E+01  0.51109989000E-03 0. -1.
     -623   -1    0    0    0    0  0.00000000000E+00  0.00000000000E+00  0.12525980253E-10  0.17130000000E+03  0.17130000000E+03 0.  1.
       11    1    1    2    0    0  0.31241495651E-02  0.64806983554E-03  0.82472940669E-02  0.88577303831E-02  0.51109989000E-03 0. -1.
     -623    1    1    2    0    0 -0.14632469494E-01 -0.15703241404E-03  0.34474357593E-02  0.17130000066E+03  0.17130000000E+03 0.  1.
      622    1    1    2    0    0  0.11508319929E-01 -0.49103742150E-03  0.39883052375E+01  0.39911416099E+01  0.15000000000E+00 0. -1.
</event>
<event>
 5   0  0.6780500E+06  0.9118800E+02  0.7818608E-02  0.1180000E+00
       11   -1    0    0    0    0  0.00000000000E+00  0.00000000000E+00  0.39999999673E+01  0.40000000000E+01  0.51109989000E-03 0. -1.
     -623   -1    0    0    0    0  0.00000000000E+00  0.00000000000E+00  0.12525980253E-10  0.17130000000E+03  0.17130000000E+03 0.  1.
       11    1    1    2    0    0 -0.11088493722E-01  0.15982581031E-02  0.81775316057E-02  0.13879566528E-01  0.51109989000E-03 0. -1.
     -623    1    1    2    0    0  0.95815440814E-02 -0.10321164903E-01  0.85359234006E-02  0.17130000079E+03  0.17130000000E+03 0.  1.
      622    1    1    2    0    0  0.15069496404E-02  0.87229068003E-02  0.39832865124E+01  0.39861196419E+01  0.15000000000E+00 0. -1.
</event>
<event>
 5   0  0.6780500E+06  0.9118800E+02  0.7818608E-02  0.1180000E+00
       11   -1    0    0    0    0  0.00000000000E+00  0.00000000000E+00  0.39999999673E+01  0.40000000000E+01  0.51109989000E-03 0. -1.
     -623   -1    0    0    0    0  0.00000000000E+00  0.00000000000E+00  0.12525980253E-10  0.17130000000E+03  0.17130000000E+03 0.  1.
       11    1    1    2    0    0  0.39824054201E-04 -0.50138458514E-03 -0.88492865542E-03  0.11389882705E-02  0.51109989000E-03 0. -1.
     -623    1    1    2    0    0 -0.14732566172E-01 -0.87586269657E-02  0.48768437464E-02  0.17130000093E+03  0.17130000000E+03 0.  1.
      622    1    1    2    0    0  0.14692742117E-01  0.92600115508E-02  0.39960080523E+01  0.39988600849E+01  0.15000000000E+00 0. -1.
</event>
<event>
 5   0  0.6780500E+06  0.9118800E+02  0.7818608E-02  0.1180000E+00
       11   -1    0    0    0    0  0.00000000000E+00  0.00000000000E+00  0.39999999673E+01  0.40000000000E+01  0.51109989000E-03 0. -1.
     -623   -1    0    0    0    0  0.00000000000E+00  0.00000000000E+00  0.12525980253E-10  0.17130000000E+03  0.17130000000E+03 0.  1.
       11    1    1    2    0    0 -0.10887221810E-01  0.47801966813E-02  0.42947872350E-01  0.44566386902E-01  0.51109989000E-03 0. -1.
     -623    1    1    2    0    0  0.42046550478E-02 -0.41754942311E-03  0.44718612605E-02  0.17130000011E+03  0.17130000000E+03 0.  1.
      622    1    1    2    0    0  0.66825667622E-02 -0.43626472582E-02  0.39525802338E+01  0.39554335026E+01  0.15000000000E+00 0. -1.
</event>
<event>
 5   0  0.6780500E+06  0.9118800E+02  0.7818608E-02  0.1180000E+00
       11   -1    0    0    0    0  0.00000000000E+00  0.00000000000E+00  0.39999999673E+01  0.40000000000E+01  0.51109989000E-03 0. -1.
     -623   -1    0    0    0    0  0.00000000000E+00  0.00000000000E+00  0.12525980253E-10  0.17130000000E+03  0.17130000000E+03 0. -1.
       11    1    1    2    0    0 -0.13671916046E-01 -0.22009776608E-02  0.63943407747E-01  0.65427717429E-01  0.51109989000E-03 0. -1.
     -623    1    1    2    0    0 -0.11508502737E-01  0.23819242513E-01  0.44867576321E-02  0.17130000210E+03  0.17130000000E+03 0. -1.
      622    1    1    2    0    0  0.25180418783E-01 -0.21618264852E-01  0.39315698020E+01  0.39345701812E+01  0.15000000000E+00 0. -1.
</event>
<event>
 5   0  0.6780500E+06  0.9118800E+02  0.7818608E-02  0.1180000E+00
       11   -1    0    0    0    0  0.00000000000E+00  0.00000000000E+00  0.39999999673E+01  0.40000000000E+01  0.51109989000E-03 0. -1.
     -623   -1    0    0    0    0  0.00000000000E+00  0.00000000000E+00  0.12525980253E-10  0.17130000000E+03  0.17130000000E+03 0. -1.
       11    1    1    2    0    0 -0.93907806765E-02 -0.10390846877E-01  0.18219128790E+00  0.18272953529E+00  0.51109989000E-03 0. -1.
     -623    1    1    2    0    0 -0.46355808015E-02  0.19671318525E-02  0.35216869204E-02  0.17130000011E+03  0.17130000000E+03 0. -1.
      622    1    1    2    0    0  0.14026361478E-01  0.84237150249E-02  0.38142869925E+01  0.38172703545E+01  0.15000000000E+00 0. -1.
</event>
<event>
 5   0  0.6780500E+06  0.9118800E+02  0.7818608E-02  0.1180000E+00
       11   -1    0    0    0    0  0.00000000000E+00  0.00000000000E+00  0.39999999673E+01  0.40000000000E+01  0.51109989000E-03 0. -1.
     -623   -1    0    0    0    0  0.00000000000E+00  0.00000000000E+00  0.12525980253E-10  0.17130000000E+03  0.17130000000E+03 0.  1.
       11    1    1    2    0    0 -0.49091222761E-01 -0.55482337178E-01  0.61771457750E+00  0.62214130097E+00  0.51109989000E-03 0. -1.
     -623    1    1    2    0    0  0.16242451096E-01 -0.92303470764E-02  0.85405422508E-02  0.17130000123E+03  0.17130000000E+03 0.  1.
      622    1    1    2    0    0  0.32848771664E-01  0.64712684254E-01  0.33737448476E+01  0.33778574674E+01  0.15000000000E+00 0. -1.
</event>
<event>
 5   0  0.6780500E+06  0.9118800E+02  0.7818608E-02  0.1180000E+00
       11   -1    0    0    0    0  0.00000000000E+00  0.00000000000E+00  0.39999999673E+01  0.40000000000E+01  0.51109989000E-03 0.  1.
     -623   -1    0    0    0    0  0.00000000000E+00  0.00000000000E+00  0.12525980253E-10  0.17130000000E+03  0.17130000000E+03 0.  1.
       11    1    1    2    0    0  0.47802206052E-02 -0.11255776684E-02  0.43232715603E-02  0.65627230224E-02  0.51109989000E-03 0.  1.
     -623    1    1    2    0    0 -0.65872930076E-02  0.56384245098E-02  0.50607904472E-02  0.17130000029E+03  0.17130000000E+03 0.  1.
      622    1    1    2    0    0  0.18070724024E-02 -0.45128468414E-02  0.39906159054E+01  0.39934369828E+01  0.15000000000E+00 0.  1.
</event>
<event>
 5   0  0.6780500E+06  0.9118800E+02  0.7818608E-02  0.1180000E+00
       11   -1    0    0    0    0  0.00000000000E+00  0.00000000000E+00  0.39999999673E+01  0.40000000000E+01  0.51109989000E-03 0. -1.
     -623   -1    0    0    0    0  0.00000000000E+00  0.00000000000E+00  0.12525980253E-10  0.17130000000E+03  0.17130000000E+03 0. -1.
       11    1    1    2    0    0 -0.97196539223E-02 -0.24943746568E-02  0.47738519366E-02  0.11124048845E-01  0.51109989000E-03 0. -1.
     -623    1    1    2    0    0  0.26254512902E-01 -0.12512193214E-01  0.92367687395E-02  0.17130000272E+03  0.17130000000E+03 0. -1.
      622    1    1    2    0    0 -0.16534858980E-01  0.15006567871E-01  0.39859893467E+01  0.39888732332E+01  0.15000000000E+00 0. -1.
</event>
<event>
 5   0  0.6780500E+06  0.9118800E+02  0.7818608E-02  0.1180000E+00
       11   -1    0    0    0    0  0.00000000000E+00  0.00000000000E+00  0.39999999673E+01  0.40000000000E+01  0.51109989000E-03 0.  1.
     -623   -1    0    0    0    0  0.00000000000E+00  0.00000000000E+00  0.12525980253E-10  0.17130000000E+03  0.17130000000E+03 0.  1.
       11    1    1    2    0    0 -0.10949949906E-02 -0.23863010287E-02  0.15561062211E-01  0.15789278858E-01  0.51109989000E-03 0.  1.
     -623    1    1    2    0    0  0.27121812794E-02  0.85017879783E-02  0.30581162470E-02  0.17130000026E+03  0.17130000000E+03 0.  1.
      622    1    1    2    0    0 -0.16171862888E-02 -0.61154869495E-02  0.39813807889E+01  0.39842104614E+01  0.15000000000E+00 0.  1.
</event>
<event>
 5   0  0.6780500E+06  0.9118800E+02  0.7818608E-02  0.1180000E+00
       11   -1    0    0    0    0  0.00000000000E+00  0.00000000000E+00  0.39999999673E+01  0.40000000000E+01  0.51109989000E-03 0. -1.
     -623   -1    0    0    0    0  0.00000000000E+00  0.00000000000E+00  0.12525980253E-10  0.17130000000E+03  0.17130000000E+03 0.  1.
       11    1    1    2    0    0 -0.21453084920E-01 -0.20322434989E-01  0.15189815687E-01  0.33229925371E-01  0.51109989000E-03 0. -1.
     -623    1    1    2    0    0 -0.47231131952E-02  0.39901220982E-01  0.21017941128E-01  0.17130000600E+03  0.17130000000E+03 0.  1.
      622    1    1    2    0    0  0.26176198115E-01 -0.19578785992E-01  0.39637922105E+01  0.39667640730E+01  0.15000000000E+00 0. -1.
</event>
<event>
 5   0  0.6780500E+06  0.9118800E+02  0.7818608E-02  0.1180000E+00
       11   -1    0    0    0    0  0.00000000000E+00  0.00000000000E+00  0.39999999673E+01  0.40000000000E+01  0.51109989000E-03 0.  1.
     -623   -1    0    0    0    0  0.00000000000E+00  0.00000000000E+00  0.12525980253E-10  0.17130000000E+03  0.17130000000E+03 0.  1.
       11    1    1    2    0    0 -0.92516804368E-02 -0.12494731319E-02  0.36371031249E-01  0.37553533938E-01  0.51109989000E-03 0.  1.
     -623    1    1    2    0    0  0.65880872279E-02 -0.59135311346E-02  0.40302942751E-02  0.17130000028E+03  0.17130000000E+03 0.  1.
      622    1    1    2    0    0  0.26635932088E-02  0.71630042665E-02  0.39595986419E+01  0.39624461899E+01  0.15000000000E+00 0.  1.
</event>
<event>
 5   0  0.6780500E+06  0.9118800E+02  0.7818608E-02  0.1180000E+00
       11   -1    0    0    0    0  0.00000000000E+00  0.00000000000E+00  0.39999999673E+01  0.40000000000E+01  0.51109989000E-03 0.  1.
     -623   -1    0    0    0    0  0.00000000000E+00  0.00000000000E+00  0.12525980253E-10  0.17130000000E+03  0.17130000000E+03 0.  1.
       11    1    1    2    0    0 -0.81686677468E-03  0.20920594154E-02  0.15169484693E-01  0.15343352726E-01  0.51109989000E-03 0.  1.
     -623    1    1    2    0    0  0.10933766250E-01 -0.98049875216E-02  0.30191452718E-02  0.17130000066E+03  0.17130000000E+03 0.  1.
      622    1    1    2    0    0 -0.10116899475E-01  0.77129281059E-02  0.39818113373E+01  0.39846559910E+01  0.15000000000E+00 0.  1.
</event>
<event>
 5   0  0.6780500E+06  0.9118800E+02  0.7818608E-02  0.1180000E+00
       11   -1    0    0    0    0  0.00000000000E+00  0.00000000000E+00  0.39999999673E+01  0.40000000000E+01  0.51109989000E-03 0. -1.
     -623   -1    0    0    0    0  0.00000000000E+00  0.00000000000E+00  0.12525980253E-10  0.17130000000E+03  0.17130000000E+03 0. -1.
       11    1    1    2    0    0 -0.11111656268E+00  0.42843262714E-01  0.71399336155E+00  0.72385718013E+00  0.51109989000E-03 0. -1.
     -623    1    1    2    0    0 -0.57106209315E-02 -0.22881623175E-01  0.15448623313E-01  0.17130000232E+03  0.17130000000E+03 0. -1.
      622    1    1    2    0    0  0.11682718361E+00 -0.19961639539E-01  0.32705579825E+01  0.32761404999E+01  0.15000000000E+00 0. -1.
</event>
<event>
 5   0  0.6780500E+06  0.9118800E+02  0.7818608E-02  0.1180000E+00
       11   -1    0    0    0    0  0.00000000000E+00  0.00000000000E+00  0.39999999673E+01  0.40000000000E+01  0.51109989000E-03 0. -1.
     -623   -1    0    0    0    0  0.00000000000E+00  0.00000000000E+00  0.12525980253E-10  0.17130000000E+03  0.17130000000E+03 0. -1.
       11    1    1    2    0    0  0.47104031501E-01  0.21196074126E-01  0.99092273719E+00  0.99226820752E+00  0.51109989000E-03 0. -1.
     -623    1    1    2    0    0 -0.57614128129E-01  0.19972384908E-01  0.53995788661E-02  0.17130001094E+03  0.17130000000E+03 0. -1.
      622    1    1    2    0    0  0.10510096629E-01 -0.41168459035E-01  0.30036776514E+01  0.30077208543E+01  0.15000000000E+00 0. -1.
</event>
<event>
 5   0  0.6780500E+06  0.9118800E+02  0.7818608E-02  0.1180000E+00
       11   -1    0    0    0    0  0.00000000000E+00  0.00000000000E+00  0.39999999673E+01  0.40000000000E+01  0.51109989000E-03 0.  1.
     -623   -1    0    0    0    0  0.00000000000E+00  0.00000000000E+00  0.12525980253E-10  0.17130000000E+03  0.17130000000E+03 0. -1.
       11    1    1    2    0    0 -0.61808847664E-02  0.25426472302E-01  0.94951018144E+00  0.94987080948E+00  0.51109989000E-03 0.  1.
     -623    1    1    2    0    0  0.54265819664E-02 -0.81591502635E-02  0.41005559706E-02  0.17130000033E+03  0.17130000000E+03 0. -1.
      622    1    1    2    0    0  0.75430280000E-03 -0.17267322038E-01  0.30463892299E+01  0.30501288612E+01  0.15000000000E+00 0.  1.
</event>
<event>
 5   0  0.6780500E+06  0.9118800E+02  0.7818608E-02  0.1180000E+00
       11   -1    0    0    0    0  0.00000000000E+00  0.00000000000E+00  0.39999999673E+01  0.40000000000E+01  0.51109989000E-03 0.  1.
     -623   -1    0    0    0    0  0.00000000000E+00  0.00000000000E+00  0.12525980253E-10  0.17130000000E+03  0.17130000000E+03 0.  1.
       11    1    1    2    0    0 -0.19031604026E-02  0.28801890135E-02  0.70235920889E-02  0.78428041669E-02  0.51109989000E-03 0.  1.
     -623    1    1    2    0    0  0.47520424870E-02 -0.27039037256E-02  0.36393471788E-02  0.17130000013E+03  0.17130000000E+03 0.  1.
      622    1    1    2    0    0 -0.28488820845E-02 -0.17628528778E-03  0.39893370282E+01  0.39921570700E+01  0.15000000000E+00 0.  1.
</event>
<event>
 5   0  0.6780500E+06  0.9118800E+02  0.7818608E-02  0.1180000E+00
       11   -1    0    0    0    0  0.00000000000E+00  0.00000000000E+00  0.39999999673E+01  0.40000000000E+01  0.51109989000E-03 0.  1.
     -623   -1    0    0    0    0  0.00000000000E+00  0.00000000000E+00  0.12525980253E-10  0.17130000000E+03  0.17130000000E+03 0.  1.
       11    1    1    2    0    0 -0.41905508352E-02  0.34992527358E-02  0.10763394411E-01  0.12079626127E-01  0.51109989000E-03 0.  1.
     -623    1    1    2    0    0  0.86744458158E-02  0.26797245611E-02  0.41458206309E-02  0.17130000029E+03  0.17130000000E+03 0.  1.
      622    1    1    2    0    0 -0.44838949806E-02 -0.61789772969E-02  0.39850907523E+01  0.39879200831E+01  0.15000000000E+00 0.  1.
</event>
<event>
 5   0  0.6780500E+06  0.9118800E+02  0.7818608E-02  0.1180000E+00
       11   -1    0    0    0    0  0.00000000000E+00  0.00000000000E+00  0.39999999673E+01  0.40000000000E+01  0.51109989000E-03 0.  1.
     -623   -1    0    0    0    0  0.00000000000E+00  0.00000000000E+00  0.12525980253E-10  0.17130000000E+03  0.17130000000E+03 0.  1.
       11    1    1    2    0    0  0.19503476501E-01 -0.20107423201E-02  0.29484697671E+00  0.29549861180E+00  0.51109989000E-03 0.  1.
     -623    1    1    2    0    0 -0.24947158882E-01  0.12213358638E-03  0.36960369864E-02  0.17130000186E+03  0.17130000000E+03 0.  1.
      622    1    1    2    0    0  0.54436823820E-02  0.18886087338E-02  0.37014569537E+01  0.37044995318E+01  0.15000000000E+00 0.  1.
</event>
<event>
 5   0  0.6780500E+06  0.9118800E+02  0.7818608E-02  0.1180000E+00
       11   -1    0    0    0    0  0.00000000000E+00  0.00000000000E+00  0.39999999673E+01  0.40000000000E+01  0.51109989000E-03 0. -1.
     -623   -1    0    0    0    0  0.00000000000E+00  0.00000000000E+00  0.12525980253E-10  0.17130000000E+03  0.17130000000E+03 0. -1.
       11    1    1    2    0    0  0.34640981850E-01  0.60689338053E-02  0.15241039557E+00  0.15641617398E+00  0.51109989000E-03 0. -1.
     -623    1    1    2    0    0 -0.10031116347E-01  0.23714411551E-01  0.71302349796E-02  0.17130000208E+03  0.17130000000E+03 0. -1.
      622    1    1    2    0    0 -0.24609865504E-01 -0.29783345356E-01  0.38404593368E+01  0.38435817424E+01  0.15000000000E+00 0. -1.
</event>
<event>
 5   0  0.6780500E+06  0.9118800E+02  0.7818608E-02  0.1180000E+00
       11   -1    0    0    0    0  0.00000000000E+00  0.00000000000E+00  0.39999999673E+01  0.40000000000E+01  0.51109989000E-03 0. -1.
     -623   -1    0    0    0    0  0.00000000000E+00  0.00000000000E+00  0.12525980253E-10  0.17130000000E+03  0.17130000000E+03 0.  1.
       11    1    1    2    0    0  0.53340223550E-01 -0.39387097196E-01  0.52672932536E+00  0.53088658515E+00  0.51109989000E-03 0. -1.
     -623    1    1    2    0    0  0.11425264312E+00  0.32542832452E-01  0.11504447178E-01  0.17130004158E+03  0.17130000000E+03 0.  1.
      622    1    1    2    0    0 -0.16759286667E+00  0.68442647439E-02  0.34617661948E+01  0.34690718356E+01  0.15000000000E+00 0.  0.
</event>
<event>
 5   0  0.6780500E+06  0.9118800E+02  0.7818608E-02  0.1180000E+00
       11   -1    0    0    0    0  0.00000000000E+00  0.00000000000E+00  0.39999999673E+01  0.40000000000E+01  0.51109989000E-03 0. -1.
     -623   -1    0    0    0    0  0.00000000000E+00  0.00000000000E+00  0.12525980253E-10  0.17130000000E+03  0.17130000000E+03 0.  1.
       11    1    1    2    0    0 -0.32754680457E-02  0.22421954114E-02  0.21741871960E+00  0.21745555175E+00  0.51109989000E-03 0. -1.
     -623    1    1    2    0    0  0.13904899877E-01 -0.76070162200E-02  0.30316731646E-02  0.17130000076E+03  0.17130000000E+03 0.  1.
      622    1    1    2    0    0 -0.10629431831E-01  0.53648208085E-02  0.37795495746E+01  0.37825436882E+01  0.15000000000E+00 0. -1.
</event>
<event>
 5   0  0.6780500E+06  0.9118800E+02  0.7818608E-02  0.1180000E+00
       11   -1    0    0    0    0  0.00000000000E+00  0.00000000000E+00  0.39999999673E+01  0.40000000000E+01  0.51109989000E-03 0.  1.
     -623   -1    0    0    0    0  0.00000000000E+00  0.00000000000E+00  0.12525980253E-10  0.17130000000E+03  0.17130000000E+03 0.  1.
       11    1    1    2    0    0  0.19929051684E-01 -0.25411973744E-01  0.43341326446E+00  0.43461506480E+00  0.51109989000E-03 0.  1.
     -623    1    1    2    0    0 -0.17041319194E-01 -0.15285565291E-01  0.45937550134E-02  0.17130000159E+03  0.17130000000E+03 0.  1.
      622    1    1    2    0    0 -0.28877324902E-02  0.40697539035E-01  0.35619929480E+01  0.35653833441E+01  0.15000000000E+00 0.  1.
</event>
<event>
 5   0  0.6780500E+06  0.9118800E+02  0.7818608E-02  0.1180000E+00
       11   -1    0    0    0    0  0.00000000000E+00  0.00000000000E+00  0.39999999673E+01  0.40000000000E+01  0.51109989000E-03 0. -1.
     -623   -1    0    0    0    0  0.00000000000E+00  0.00000000000E+00  0.12525980253E-10  0.17130000000E+03  0.17130000000E+03 0.  1.
       11    1    1    2    0    0 -0.35145445771E-02 -0.86574835033E-02  0.20979495709E-01  0.22971819856E-01  0.51109989000E-03 0. -1.
     -623    1    1    2    0    0  0.19398472002E-02  0.64422654166E-02  0.48231731036E-02  0.17130000020E+03  0.17130000000E+03 0.  1.
      622    1    1    2    0    0  0.15746973770E-02  0.22152180868E-02  0.39741972985E+01  0.39770279801E+01  0.15000000000E+00 0. -1.
</event>
<event>
 5   0  0.6780500E+06  0.9118800E+02  0.7818608E-02  0.1180000E+00
       11   -1    0    0    0    0  0.00000000000E+00  0.00000000000E+00  0.39999999673E+01  0.40000000000E+01  0.51109989000E-03 0. -1.
     -623   -1    0    0    0    0  0.00000000000E+00  0.00000000000E+00  0.12525980253E-10  0.17130000000E+03  0.17130000000E+03 0. -1.
       11    1    1    2    0    0  0.41521841359E-02 -0.98870983264E-02  0.36374919319E-01  0.37926129844E-01  0.51109989000E-03 0. -1.
     -623    1    1    2    0    0 -0.82244824259E-02  0.13126240964E-01  0.43957947270E-02  0.17130000076E+03  0.17130000000E+03 0. -1.
      622    1    1    2    0    0  0.40722982902E-02 -0.32391426375E-02  0.39592292534E+01  0.39620731135E+01  0.15000000000E+00 0. -1.
</event>
<event>
 5   0  0.6780500E+06  0.9118800E+02  0.7818608E-02  0.1180000E+00
       11   -1    0    0    0    0  0.00000000000E+00  0.00000000000E+00  0.39999999673E+01  0.40000000000E+01  0.51109989000E-03 0. -1.
     -623   -1    0    0    0    0  0.00000000000E+00  0.00000000000E+00  0.12525980253E-10  0.17130000000E+03  0.17130000000E+03 0.  1.
       11    1    1    2    0    0  0.13917277156E-01 -0.14527868692E-02  0.39219944708E-01  0.41644525193E-01  0.51109989000E-03 0. -1.
     -623    1    1    2    0    0 -0.83308750203E-02  0.19938931643E-02  0.52719356439E-02  0.17130000030E+03  0.17130000000E+03 0.  1.
      622    1    1    2    0    0 -0.55864021359E-02 -0.54110629507E-03  0.39555080870E+01  0.39583551795E+01  0.15000000000E+00 0. -1.
</event>
<event>
 5   0  0.6780500E+06  0.9118800E+02  0.7818608E-02  0.1180000E+00
       11   -1    0    0    0    0  0.00000000000E+00  0.00000000000E+00  0.39999999673E+01  0.40000000000E+01  0.51109989000E-03 0. -1.
     -623   -1    0    0    0    0  0.00000000000E+00  0.00000000000E+00  0.12525980253E-10  0.17130000000E+03  0.17130000000E+03 0.  1.
       11    1    1    2    0    0 -0.17593109471E-01 -0.11912391897E-01  0.43488192711E+00  0.43540093515E+00  0.51109989000E-03 0. -1.
     -623    1    1    2    0    0 -0.39493629367E-02  0.29881602536E-02  0.37528568355E-02  0.17130000011E+03  0.17130000000E+03 0.  1.
      622    1    1    2    0    0  0.21542472407E-01  0.89242316432E-02  0.35613651835E+01  0.35645989522E+01  0.15000000000E+00 0. -1.
</event>
<event>
 5   0  0.6780500E+06  0.9118800E+02  0.7818608E-02  0.1180000E+00
       11   -1    0    0    0    0  0.00000000000E+00  0.00000000000E+00  0.39999999673E+01  0.40000000000E+01  0.51109989000E-03 0. -1.
     -623   -1    0    0    0    0  0.00000000000E+00  0.00000000000E+00  0.12525980253E-10  0.17130000000E+03  0.17130000000E+03 0.  1.
       11    1    1    2    0    0 -0.33010540886E-01  0.12184895410E-02  0.34932289712E+00  0.35088164415E+00  0.51109989000E-03 0. -1.
     -623    1    1    2    0    0 -0.17749274828E-01  0.39712443421E-01  0.52316948400E-02  0.17130000560E+03  0.17130000000E+03 0.  1.
      622    1    1    2    0    0  0.50759815715E-01 -0.40930932963E-01  0.36454453755E+01  0.36491127532E+01  0.15000000000E+00 0. -1.
</event>
<event>
 5   0  0.6780500E+06  0.9118800E+02  0.7818608E-02  0.1180000E+00
       11   -1    0    0    0    0  0.00000000000E+00  0.00000000000E+00  0.39999999673E+01  0.40000000000E+01  0.51109989000E-03 0.  1.
     -623   -1    0    0    0    0  0.00000000000E+00  0.00000000000E+00  0.12525980253E-10  0.17130000000E+03  0.17130000000E+03 0. -1.
       11    1    1    2    0    0 -0.63891437101E-01  0.88257861781E-02  0.41290665802E+00  0.41791408171E+00  0.51109989000E-03 0.  1.
     -623    1    1    2    0    0  0.32011383019E-01 -0.15183828849E-01  0.83009050190E-02  0.17130000387E+03  0.17130000000E+03 0. -1.
      622    1    1    2    0    0  0.31880054082E-01  0.63580426707E-02  0.35787924043E+01  0.35820820532E+01  0.15000000000E+00 0.  1.
</event>
<event>
 5   0  0.6780500E+06  0.9118800E+02  0.7818608E-02  0.1180000E+00
       11   -1    0    0    0    0  0.00000000000E+00  0.00000000000E+00  0.39999999673E+01  0.40000000000E+01  0.51109989000E-03 0.  1.
     -623   -1    0    0    0    0  0.00000000000E+00  0.00000000000E+00  0.12525980253E-10  0.17130000000E+03  0.17130000000E+03 0. -1.
       11    1    1    2    0    0 -0.48648675763E-02  0.15645354369E-01  0.13068737920E+00  0.13171141315E+00  0.51109989000E-03 0.  1.
     -623    1    1    2    0    0 -0.35136611856E-02 -0.54007338934E-02  0.39561817948E-02  0.17130000017E+03  0.17130000000E+03 0. -1.
      622    1    1    2    0    0  0.83785287620E-02 -0.10244620476E-01  0.38653564065E+01  0.38682884201E+01  0.15000000000E+00 0.  1.
</event>
<event>
 5   0  0.6780500E+06  0.9118800E+02  0.7818608E-02  0.1180000E+00
       11   -1    0    0    0    0  0.00000000000E+00  0.00000000000E+00  0.39999999673E+01  0.40000000000E+01  0.51109989000E-03 0.  1.
     -623   -1    0    0    0    0  0.00000000000E+00  0.00000000000E+00  0.12525980253E-10  0.17130000000E+03  0.17130000000E+03 0. -1.
       11    1    1    2    0    0 -0.21658812917E-01 -0.73448565647E-02  0.50056922667E-01  0.55036422712E-01  0.51109989000E-03 0.  1.
     -623    1    1    2    0    0 -0.17414027575E-02 -0.63051467160E-02  0.79256295286E-02  0.17130000031E+03  0.17130000000E+03 0. -1.
      622    1    1    2    0    0  0.23400215674E-01  0.13650003281E-01  0.39420174152E+01  0.39449632691E+01  0.15000000000E+00 0.  1.
</event>
<event>
 5   0  0.6780500E+06  0.9118800E+02  0.7818608E-02  0.1180000E+00
       11   -1    0    0    0    0  0.00000000000E+00  0.00000000000E+00  0.39999999673E+01  0.40000000000E+01  0.51109989000E-03 0.  1.
     -623   -1    0    0    0    0  0.00000000000E+00  0.00000000000E+00  0.12525980253E-10  0.17130000000E+03  0.17130000000E+03 0.  1.
       11    1    1    2    0    0 -0.74040081568E-01 -0.10987816548E-01  0.34950012958E+00  0.35742589105E+00  0.51109989000E-03 0.  1.
     -623    1    1    2    0    0 -0.35511950908E-02  0.50407603445E-01  0.12064127284E-01  0.17130000788E+03  0.17130000000E+03 0.  1.
      622    1    1    2    0    0  0.77591276659E-01 -0.39419786897E-01  0.36384357105E+01  0.36425662307E+01  0.15000000000E+00 0.  1.
</event>
<event>
 5   0  0.6780500E+06  0.9118800E+02  0.7818608E-02  0.1180000E+00
       11   -1    0    0    0    0  0.00000000000E+00  0.00000000000E+00  0.39999999673E+01  0.40000000000E+01  0.51109989000E-03 0. -1.
     -623   -1    0    0    0    0  0.00000000000E+00  0.00000000000E+00  0.12525980253E-10  0.17130000000E+03  0.17130000000E+03 0. -1.
       11    1    1    2    0    0  0.17880641841E-02  0.40260644573E-02  0.14748180822E-02  0.46736151862E-02  0.51109989000E-03 0. -1.
     -623    1    1    2    0    0 -0.72769178327E-02 -0.29803650519E-02  0.60197438005E-02  0.17130000029E+03  0.17130000000E+03 0. -1.
      622    1    1    2    0    0  0.54888536486E-02 -0.10456994054E-02  0.39925054055E+01  0.39953260986E+01  0.15000000000E+00 0. -1.
</event>
<event>
 5   0  0.6780500E+06  0.9118800E+02  0.7818608E-02  0.1180000E+00
       11   -1    0    0    0    0  0.00000000000E+00  0.00000000000E+00  0.39999999673E+01  0.40000000000E+01  0.51109989000E-03 0. -1.
     -623   -1    0    0    0    0  0.00000000000E+00  0.00000000000E+00  0.12525980253E-10  0.17130000000E+03  0.17130000000E+03 0.  1.
       11    1    1    2    0    0  0.31434118370E-02  0.13144391319E-01  0.60448682601E-01  0.61943203913E-01  0.51109989000E-03 0. -1.
     -623    1    1    2    0    0  0.78758032409E-02 -0.35346808518E-03  0.43887180096E-02  0.17130000024E+03  0.17130000000E+03 0.  1.
      622    1    1    2    0    0 -0.11019215078E-01 -0.12790923234E-01  0.39351625667E+01  0.39380565585E+01  0.15000000000E+00 0. -1.
</event>
<event>
 5   0  0.6780500E+06  0.9118800E+02  0.7818608E-02  0.1180000E+00
       11   -1    0    0    0    0  0.00000000000E+00  0.00000000000E+00  0.39999999673E+01  0.40000000000E+01  0.51109989000E-03 0. -1.
     -623   -1    0    0    0    0  0.00000000000E+00  0.00000000000E+00  0.12525980253E-10  0.17130000000E+03  0.17130000000E+03 0.  1.
       11    1    1    2    0    0 -0.25347898724E-01 -0.45392790829E-01  0.48314323702E+00  0.48593278355E+00  0.51109989000E-03 0. -1.
     -623    1    1    2    0    0 -0.38259724362E-01  0.57585232903E-03  0.68591643265E-02  0.17130000441E+03  0.17130000000E+03 0.  1.
      622    1    1    2    0    0  0.63607623085E-01  0.44816938500E-01  0.35099975660E+01  0.35140628055E+01  0.15000000000E+00 0. -1.
</event>
<event>
 5   0  0.6780500E+06  0.9118800E+02  0.7818608E-02  0.1180000E+00
       11   -1    0    0    0    0  0.00000000000E+00  0.00000000000E+00  0.39999999673E+01  0.40000000000E+01  0.51109989000E-03 0. -1.
     -623   -1    0    0    0    0  0.00000000000E+00  0.00000000000E+00  0.12525980253E-10  0.17130000000E+03  0.17130000000E+03 0. -1.
       11    1    1    2    0    0 -0.10821578976E-02  0.42135777702E-02  0.32469160761E-01  0.32763286266E-01  0.51109989000E-03 0. -1.
     -623    1    1    2    0    0 -0.19108837812E-02  0.70523357197E-03  0.31350561621E-02  0.17130000004E+03  0.17130000000E+03 0. -1.
      622    1    1    2    0    0  0.29930416787E-02 -0.49188113421E-02  0.39643957503E+01  0.39672366728E+01  0.15000000000E+00 0. -1.
</event>
<event>
 5   0  0.6780500E+06  0.9118800E+02  0.7818608E-02  0.1180000E+00
       11   -1    0    0    0    0  0.00000000000E+00  0.00000000000E+00  0.39999999673E+01  0.40000000000E+01  0.51109989000E-03 0.  1.
     -623   -1    0    0    0    0  0.00000000000E+00  0.00000000000E+00  0.12525980253E-10  0.17130000000E+03  0.17130000000E+03 0.  1.
       11    1    1    2    0    0  0.69201923691E-02 -0.37961331322E-02  0.18761018169E-01  0.20360174729E-01  0.51109989000E-03 0.  1.
     -623    1    1    2    0    0  0.32167342044E-02  0.45501167075E-02  0.44401569819E-02  0.17130000015E+03  0.17130000000E+03 0.  1.
      622    1    1    2    0    0 -0.10136926574E-01 -0.75398357542E-03  0.39767987923E+01  0.39796396772E+01  0.15000000000E+00 0.  1.
</event>
<event>
 5   0  0.6780500E+06  0.9118800E+02  0.7818608E-02  0.1180000E+00
       11   -1    0    0    0    0  0.00000000000E+00  0.00000000000E+00  0.39999999673E+01  0.40000000000E+01  0.51109989000E-03 0.  1.
     -623   -1    0    0    0    0  0.00000000000E+00  0.00000000000E+00  0.12525980253E-10  0.17130000000E+03  0.17130000000E+03 0. -1.
       11    1    1    2    0    0 -0.88031247338E-03  0.36599449246E-02  0.11673881106E-01  0.12276435511E-01  0.51109989000E-03 0.  1.
     -623    1    1    2    0    0 -0.30520238812E-02 -0.90718396479E-02  0.34305959991E-02  0.17130000030E+03  0.17130000000E+03 0. -1.
      622    1    1    2    0    0  0.39323363546E-02  0.54118947233E-02  0.39848954903E+01  0.39877232627E+01  0.15000000000E+00 0.  1.
</event>
<event>
 5   0  0.6780500E+06  0.9118800E+02  0.7818608E-02  0.1180000E+00
       11   -1    0    0    0    0  0.00000000000E+00  0.00000000000E+00  0.39999999673E+01  0.40000000000E+01  0.51109989000E-03 0. -1.
     -623   -1    0    0    0    0  0.00000000000E+00  0.00000000000E+00  0.12525980253E-10  0.17130000000E+03  0.17130000000E+03 0.  1.
       11    1    1    2    0    0 -0.86914501518E-02 -0.73392719616E-01  0.28695768240E+00  0.29632246845E+00  0.51109989000E-03 0. -1.
     -623    1    1    2    0    0 -0.17900205464E-01  0.32976263635E-01  0.12724364584E-01  0.17130000458E+03  0.17130000000E+03 0.  1.
      622    1    1    2    0    0  0.26591655616E-01  0.40416455982E-01  0.37003179204E+01  0.37036729496E+01  0.15000000000E+00 0. -1.
</event>
<event>
 5   0  0.6780500E+06  0.9118800E+02  0.7818608E-02  0.1180000E+00
       11   -1    0    0    0    0  0.00000000000E+00  0.00000000000E+00  0.39999999673E+01  0.40000000000E+01  0.51109989000E-03 0.  1.
     -623   -1    0    0    0    0  0.00000000000E+00  0.00000000000E+00  0.12525980253E-10  0.17130000000E+03  0.17130000000E+03 0.  1.
       11    1    1    2    0    0  0.15929590914E-02  0.42020124746E-02  0.71528752172E-01  0.71671598545E-01  0.51109989000E-03 0.  1.
     -623    1    1    2    0    0 -0.69686314350E-03 -0.16837784212E-02  0.30086180583E-02  0.17130000004E+03  0.17130000000E+03 0.  1.
      622    1    1    2    0    0 -0.89609594784E-03 -0.25182340533E-02  0.39254625973E+01  0.39283283655E+01  0.15000000000E+00 0.  1.
</event>
<event>
 5   0  0.6780500E+06  0.9118800E+02  0.7818608E-02  0.1180000E+00
       11   -1    0    0    0    0  0.00000000000E+00  0.00000000000E+00  0.39999999673E+01  0.40000000000E+01  0.51109989000E-03 0.  1.
     -623   -1    0    0    0    0  0.00000000000E+00  0.00000000000E+00  0.12525980253E-10  0.17130000000E+03  0.17130000000E+03 0. -1.
       11    1    1    2    0    0 -0.23228743375E-02 -0.29586663338E-02  0.33133239477E-02  0.50387288710E-02  0.51109989000E-03 0.  1.
     -623    1    1    2    0    0  0.43588182616E-02  0.51874438550E-02  0.45437485301E-02  0.17130000019E+03  0.17130000000E+03 0. -1.
      622    1    1    2    0    0 -0.20359439241E-02 -0.22287775212E-02  0.39921428949E+01  0.39949610769E+01  0.15000000000E+00 0.  1.
</event>
<event>
 5   0  0.6780500E+06  0.9118800E+02  0.7818608E-02  0.1180000E+00
       11   -1    0    0    0    0  0.00000000000E+00  0.00000000000E+00  0.39999999673E+01  0.40000000000E+01  0.51109989000E-03 0. -1.
     -623   -1    0    0    0    0  0.00000000000E+00  0.00000000000E+00  0.12525980253E-10  0.17130000000E+03  0.17130000000E+03 0. -1.
       11    1    1    2    0    0  0.18572004819E-01 -0.68334934829E-02  0.46533300956E+00  0.46575389102E+00  0.51109989000E-03 0. -1.
     -623    1    1    2    0    0  0.17068585811E-02 -0.33652695674E-02  0.36784646429E-02  0.17130000008E+03  0.17130000000E+03 0. -1.
      622    1    1    2    0    0 -0.20278863400E-01  0.10198763050E-01  0.35309884932E+01  0.35342460279E+01  0.15000000000E+00 0. -1.
</event>
<event>
 5   0  0.6780500E+06  0.9118800E+02  0.7818608E-02  0.1180000E+00
       11   -1    0    0    0    0  0.00000000000E+00  0.00000000000E+00  0.39999999673E+01  0.40000000000E+01  0.51109989000E-03 0. -1.
     -623   -1    0    0    0    0  0.00000000000E+00  0.00000000000E+00  0.12525980253E-10  0.17130000000E+03  0.17130000000E+03 0.  1.
       11    1    1    2    0    0  0.10877716673E-01 -0.65928513818E-02  0.93425179887E-01  0.94288471562E-01  0.51109989000E-03 0. -1.
     -623    1    1    2    0    0 -0.12390378328E-01  0.38145625423E-02  0.37465329648E-02  0.17130000053E+03  0.17130000000E+03 0.  1.
      622    1    1    2    0    0  0.15126616551E-02  0.27782888396E-02  0.39028282545E+01  0.39057109969E+01  0.15000000000E+00 0. -1.
</event>
<event>
 5   0  0.6780500E+06  0.9118800E+02  0.7818608E-02  0.1180000E+00
       11   -1    0    0    0    0  0.00000000000E+00  0.00000000000E+00  0.39999999673E+01  0.40000000000E+01  0.51109989000E-03 0.  1.
     -623   -1    0    0    0    0  0.00000000000E+00  0.00000000000E+00  0.12525980253E-10  0.17130000000E+03  0.17130000000E+03 0. -1.
       11    1    1    2    0    0  0.17953568899E-02 -0.40246976810E-02  0.11999801526E-01  0.12793668581E-01  0.51109989000E-03 0.  1.
     -623    1    1    2    0    0  0.40243898864E-02 -0.34650134503E-03  0.36230919156E-02  0.17130000009E+03  0.17130000000E+03 0. -1.
      622    1    1    2    0    0 -0.58197467763E-02  0.43711990260E-02  0.39843770739E+01  0.39872062455E+01  0.15000000000E+00 0.  1.
</event>
<event>
 5   0  0.6780500E+06  0.9118800E+02  0.7818608E-02  0.1180000E+00
       11   -1    0    0    0    0  0.00000000000E+00  0.00000000000E+00  0.39999999673E+01  0.40000000000E+01  0.51109989000E-03 0. -1.
     -623   -1    0    0    0    0  0.00000000000E+00  0.00000000000E+00  0.12525980253E-10  0.17130000000E+03  0.17130000000E+03 0.  1.
       11    1    1    2    0    0  0.15512667678E-01 -0.10738174976E-01  0.21202438278E+00  0.21286275244E+00  0.51109989000E-03 0. -1.
     -623    1    1    2    0    0 -0.10768458056E-01  0.34394542670E-03  0.38277156239E-02  0.17130000038E+03  0.17130000000E+03 0.  1.
      622    1    1    2    0    0 -0.47442096218E-02  0.10394229550E-01  0.37841478689E+01  0.37871368660E+01  0.15000000000E+00 0. -1.
</event>
<event>
 5   0  0.6780500E+06  0.9118800E+02  0.7818608E-02  0.1180000E+00
       11   -1    0    0    0    0  0.00000000000E+00  0.00000000000E+00  0.39999999673E+01  0.40000000000E+01  0.51109989000E-03 0.  1.
     -623   -1    0    0    0    0  0.00000000000E+00  0.00000000000E+00  0.12525980253E-10  0.17130000000E+03  0.17130000000E+03 0.  1.
       11    1    1    2    0    0 -0.11186334833E-01 -0.44018689589E-01  0.32457598626E-01  0.55825944228E-01  0.51109989000E-03 0.  1.
     -623    1    1    2    0    0 -0.32871929674E-01  0.15978752459E-01  0.26573630517E-01  0.17130000596E+03  0.17130000000E+03 0.  1.
      622    1    1    2    0    0  0.44058264507E-01  0.28039937129E-01  0.39409687382E+01  0.39441680953E+01  0.15000000000E+00 0.  1.
</event>
<event>
 5   0  0.6780500E+06  0.9118800E+02  0.7818608E-02  0.1180000E+00
       11   -1    0    0    0    0  0.00000000000E+00  0.00000000000E+00  0.39999999673E+01  0.40000000000E+01  0.51109989000E-03 0. -1.
     -623   -1    0    0    0    0  0.00000000000E+00  0.00000000000E+00  0.12525980253E-10  0.17130000000E+03  0.17130000000E+03 0.  1.
       11    1    1    2    0    0 -0.34554186889E-02 -0.26398530468E-02  0.13644965550E-01  0.14330214596E-01  0.51109989000E-03 0. -1.
     -623    1    1    2    0    0  0.35799774625E-02  0.53020296537E-03  0.35094636508E-02  0.17130000007E+03  0.17130000000E+03 0.  1.
      622    1    1    2    0    0 -0.12455877353E-03  0.21096500814E-02  0.39828455381E+01  0.39856697112E+01  0.15000000000E+00 0. -1.
</event>
<event>
 5   0  0.6780500E+06  0.9118800E+02  0.7818608E-02  0.1180000E+00
       11   -1    0    0    0    0  0.00000000000E+00  0.00000000000E+00  0.39999999673E+01  0.40000000000E+01  0.51109989000E-03 0. -1.
     -623   -1    0    0    0    0  0.00000000000E+00  0.00000000000E+00  0.12525980253E-10  0.17130000000E+03  0.17130000000E+03 0.  1.
       11    1    1    2    0    0  0.33003615630E-02  0.83132064122E-02  0.33869153261E-01  0.35034019938E-01  0.51109989000E-03 0. -1.
     -623    1    1    2    0    0 -0.11463628905E-02 -0.17479889678E-01  0.40153337810E-02  0.17130000094E+03  0.17130000000E+03 0.  1.
      622    1    1    2    0    0 -0.21539986725E-02  0.91666832666E-02  0.39621154804E+01  0.39649650374E+01  0.15000000000E+00 0. -1.
</event>
<event>
 5   0  0.6780500E+06  0.9118800E+02  0.7818608E-02  0.1180000E+00
       11   -1    0    0    0    0  0.00000000000E+00  0.00000000000E+00  0.39999999673E+01  0.40000000000E+01  0.51109989000E-03 0. -1.
     -623   -1    0    0    0    0  0.00000000000E+00  0.00000000000E+00  0.12525980253E-10  0.17130000000E+03  0.17130000000E+03 0.  1.
       11    1    1    2    0    0  0.39869447870E-02 -0.20182566927E-02 -0.10664257414E-03  0.44990759661E-02  0.51109989000E-03 0. -1.
     -623    1    1    2    0    0 -0.12907413594E-02  0.94537942790E-04  0.74238853527E-02  0.17130000017E+03  0.17130000000E+03 0.  1.
      622    1    1    2    0    0 -0.26962034276E-02  0.19237187499E-02  0.39926827247E+01  0.39955007584E+01  0.15000000000E+00 0. -1.
</event>
<event>
 5   0  0.6780500E+06  0.9118800E+02  0.7818608E-02  0.1180000E+00
       11   -1    0    0    0    0  0.00000000000E+00  0.00000000000E+00  0.39999999673E+01  0.40000000000E+01  0.51109989000E-03 0. -1.
     -623   -1    0    0    0    0  0.00000000000E+00  0.00000000000E+00  0.12525980253E-10  0.17130000000E+03  0.17130000000E+03 0. -1.
       11    1    1    2    0    0  0.29854529608E-01 -0.41549680444E-02  0.52640708936E-01  0.60661867412E-01  0.51109989000E-03 0. -1.
     -623    1    1    2    0    0 -0.39308421152E-01  0.57875799466E-03  0.10895809302E-01  0.17130000486E+03  0.17130000000E+03 0. -1.
      622    1    1    2    0    0  0.94538915442E-02  0.35762100498E-02  0.39364634491E+01  0.39393332750E+01  0.15000000000E+00 0. -1.
</event>
<event>
 5   0  0.6780500E+06  0.9118800E+02  0.7818608E-02  0.1180000E+00
       11   -1    0    0    0    0  0.00000000000E+00  0.00000000000E+00  0.39999999673E+01  0.40000000000E+01  0.51109989000E-03 0.  1.
     -623   -1    0    0    0    0  0.00000000000E+00  0.00000000000E+00  0.12525980253E-10  0.17130000000E+03  0.17130000000E+03 0. -1.
       11    1    1    2    0    0  0.13012217122E-01 -0.33115969899E-01  0.10872432750E+00  0.11439941376E+00  0.51109989000E-03 0.  1.
     -623    1    1    2    0    0  0.91904103351E-02  0.37352569219E-01  0.86417718742E-02  0.17130000454E+03  0.17130000000E+03 0. -1.
      622    1    1    2    0    0 -0.22202627457E-01 -0.42365993199E-02  0.38826338680E+01  0.38855960493E+01  0.15000000000E+00 0.  1.
</event>
<event>
 5   0  0.6780500E+06  0.9118800E+02  0.7818608E-02  0.1180000E+00
       11   -1    0    0    0    0  0.00000000000E+00  0.00000000000E+00  0.39999999673E+01  0.40000000000E+01  0.51109989000E-03 0.  1.
     -623   -1    0    0    0    0  0.00000000000E+00  0.00000000000E+00  0.12525980253E-10  0.17130000000E+03  0.17130000000E+03 0. -1.
       11    1    1    2    0    0  0.23422352202E-01  0.21789513745E-01  0.90786542887E-01  0.96259270122E-01  0.51109989000E-03 0.  1.
     -623    1    1    2    0    0  0.10205659385E-01 -0.60433104119E-02  0.85329665457E-02  0.17130000062E+03  0.17130000000E+03 0. -1.
      622    1    1    2    0    0 -0.33628011587E-01 -0.15746203333E-01  0.39006804580E+01  0.39037401068E+01  0.15000000000E+00 0.  1.
</event>
<event>
 5   0  0.6780500E+06  0.9118800E+02  0.7818608E-02  0.1180000E+00
       11   -1    0    0    0    0  0.00000000000E+00  0.00000000000E+00  0.39999999673E+01  0.40000000000E+01  0.51109989000E-03 0. -1.
     -623   -1    0    0    0    0  0.00000000000E+00  0.00000000000E+00  0.12525980253E-10  0.17130000000E+03  0.17130000000E+03 0. -1.
       11    1    1    2    0    0 -0.53944450997E-01 -0.36607416767E-01  0.11311817733E+00  0.13056067563E+00  0.51109989000E-03 0. -1.
     -623    1    1    2    0    0  0.69796561928E-01 -0.23466732759E-01  0.20867282174E-01  0.17130001710E+03  0.17130000000E+03 0. -1.
      622    1    1    2    0    0 -0.15852110930E-01  0.60074149526E-01  0.38660145078E+01  0.38694222266E+01  0.15000000000E+00 0. -1.
</event>
<event>
 5   0  0.6780500E+06  0.9118800E+02  0.7818608E-02  0.1180000E+00
       11   -1    0    0    0    0  0.00000000000E+00  0.00000000000E+00  0.39999999673E+01  0.40000000000E+01  0.51109989000E-03 0.  1.
     -623   -1    0    0    0    0  0.00000000000E+00  0.00000000000E+00  0.12525980253E-10  0.17130000000E+03  0.17130000000E+03 0.  1.
       11    1    1    2    0    0  0.53605027555E-02  0.69926073456E-03  0.20746070094E+00  0.20753175085E+00  0.51109989000E-03 0.  1.
     -623    1    1    2    0    0 -0.50816084117E-02  0.12544679649E-01  0.30623001763E-02  0.17130000056E+03  0.17130000000E+03 0.  1.
      622    1    1    2    0    0 -0.27889434380E-03 -0.13243940383E-01  0.37894769662E+01  0.37924676871E+01  0.15000000000E+00 0.  1.
</event>
<event>
 5   0  0.6780500E+06  0.9118800E+02  0.7818608E-02  0.1180000E+00
       11   -1    0    0    0    0  0.00000000000E+00  0.00000000000E+00  0.39999999673E+01  0.40000000000E+01  0.51109989000E-03 0. -1.
     -623   -1    0    0    0    0  0.00000000000E+00  0.00000000000E+00  0.12525980253E-10  0.17130000000E+03  0.17130000000E+03 0. -1.
       11    1    1    2    0    0 -0.82964466063E-02  0.17193883918E-02  0.76607038608E-01  0.77075851667E-01  0.51109989000E-03 0. -1.
     -623    1    1    2    0    0 -0.10491227433E-02  0.45788641411E-02  0.33538851991E-02  0.17130000010E+03  0.17130000000E+03 0. -1.
      622    1    1    2    0    0  0.93455693495E-02 -0.62982525328E-02  0.39200390435E+01  0.39229240511E+01  0.15000000000E+00 0. -1.
</event>
<event>
 5   0  0.6780500E+06  0.9118800E+02  0.7818608E-02  0.1180000E+00
       11   -1    0    0    0    0  0.00000000000E+00  0.00000000000E+00  0.39999999673E+01  0.40000000000E+01  0.51109989000E-03 0.  1.
     -623   -1    0    0    0    0  0.00000000000E+00  0.00000000000E+00  0.12525980253E-10  0.17130000000E+03  0.17130000000E+03 0. -1.
       11    1    1    2    0    0 -0.30479274709E-01 -0.18078514609E-02  0.45758007915E+00  0.45859791165E+00  0.51109989000E-03 0.  1.
     -623    1    1    2    0    0  0.88334965058E-02  0.10143903618E-01  0.42725475800E-02  0.17130000058E+03  0.17130000000E+03 0. -1.
      622    1    1    2    0    0  0.21645778204E-01 -0.83360521577E-02  0.35381473407E+01  0.35414015070E+01  0.15000000000E+00 0.  1.
</event>
<event>
 5   0  0.6780500E+06  0.9118800E+02  0.7818608E-02  0.1180000E+00
       11   -1    0    0    0    0  0.00000000000E+00  0.00000000000E+00  0.39999999673E+01  0.40000000000E+01  0.51109989000E-03 0. -1.
     -623   -1    0    0    0    0  0.00000000000E+00  0.00000000000E+00  0.12525980253E-10  0.17130000000E+03  0.17130000000E+03 0.  1.
       11    1    1    2    0    0 -0.56962479662E-02  0.38874403859E-02  0.30766724390E+00  0.30774494898E+00  0.51109989000E-03 0. -1.
     -623    1    1    2    0    0 -0.91127967025E-02  0.14388651989E-01  0.32017194090E-02  0.17130000088E+03  0.17130000000E+03 0.  1.
      622    1    1    2    0    0  0.14809044669E-01 -0.18276092375E-01  0.36891310040E+01  0.36922541744E+01  0.15000000000E+00 0. -1.
</event>
<event>
 5   0  0.6780500E+06  0.9118800E+02  0.7818608E-02  0.1180000E+00
       11   -1    0    0    0    0  0.00000000000E+00  0.00000000000E+00  0.39999999673E+01  0.40000000000E+01  0.51109989000E-03 0. -1.
     -623   -1    0    0    0    0  0.00000000000E+00  0.00000000000E+00  0.12525980253E-10  0.17130000000E+03  0.17130000000E+03 0. -1.
       11    1    1    2    0    0  0.22383883885E-01 -0.57596094132E-01  0.67130139495E+00  0.67413957932E+00  0.51109989000E-03 0. -1.
     -623    1    1    2    0    0  0.59097503877E-03 -0.11290372228E-01  0.70166323538E-02  0.17130000052E+03  0.17130000000E+03 0. -1.
      622    1    1    2    0    0 -0.22974858924E-01  0.68886466359E-01  0.33216819401E+01  0.33258599039E+01  0.15000000000E+00 0.  0.
</event>
<event>
 5   0  0.6780500E+06  0.9118800E+02  0.7818608E-02  0.1180000E+00
       11   -1    0    0    0    0  0.00000000000E+00  0.00000000000E+00  0.39999999673E+01  0.40000000000E+01  0.51109989000E-03 0. -1.
     -623   -1    0    0    0    0  0.00000000000E+00  0.00000000000E+00  0.12525980253E-10  0.17130000000E+03  0.17130000000E+03 0.  1.
       11    1    1    2    0    0  0.54902050945E-02 -0.30616904774E-02  0.39632557683E-01  0.40131249057E-01  0.51109989000E-03 0. -1.
     -623    1    1    2    0    0 -0.12977517243E-01  0.90496152643E-02  0.33530600240E-02  0.17130000076E+03  0.17130000000E+03 0.  1.
      622    1    1    2    0    0  0.74873121484E-02 -0.59879247869E-02  0.39570143497E+01  0.39598679875E+01  0.15000000000E+00 0. -1.
</event>
<event>
 5   0  0.6780500E+06  0.9118800E+02  0.7818608E-02  0.1180000E+00
       11   -1    0    0    0    0  0.00000000000E+00  0.00000000000E+00  0.39999999673E+01  0.40000000000E+01  0.51109989000E-03 0. -1.
     -623   -1    0    0    0    0  0.00000000000E+00  0.00000000000E+00  0.12525980253E-10  0.17130000000E+03  0.17130000000E+03 0.  1.
       11    1    1    2    0    0  0.67990008893E-02  0.99286939834E-02 -0.16691779205E-02  0.12159471785E-01  0.51109989000E-03 0. -1.
     -623    1    1    2    0    0  0.24009937981E-02 -0.12922143596E-01  0.16663751062E-01  0.17130000131E+03  0.17130000000E+03 0.  1.
      622    1    1    2    0    0 -0.91999946874E-02  0.29934496121E-02  0.39850053942E+01  0.39878392135E+01  0.15000000000E+00 0. -1.
</event>
<event>
 5   0  0.6780500E+06  0.9118800E+02  0.7818608E-02  0.1180000E+00
       11   -1    0    0    0    0  0.00000000000E+00  0.00000000000E+00  0.39999999673E+01  0.40000000000E+01  0.51109989000E-03 0. -1.
     -623   -1    0    0    0    0  0.00000000000E+00  0.00000000000E+00  0.12525980253E-10  0.17130000000E+03  0.17130000000E+03 0.  1.
       11    1    1    2    0    0 -0.28898182184E-01  0.20282662626E-01  0.64772506416E+00  0.64868675900E+00  0.51109989000E-03 0. -1.
     -623    1    1    2    0    0 -0.46476586423E-02 -0.15419573705E-01  0.44926526387E-02  0.17130000082E+03  0.17130000000E+03 0.  1.
      622    1    1    2    0    0  0.33545840826E-01 -0.48630889208E-02  0.33477822506E+01  0.33513124250E+01  0.15000000000E+00 0. -1.
</event>
<event>
 5   0  0.6780500E+06  0.9118800E+02  0.7818608E-02  0.1180000E+00
       11   -1    0    0    0    0  0.00000000000E+00  0.00000000000E+00  0.39999999673E+01  0.40000000000E+01  0.51109989000E-03 0. -1.
     -623   -1    0    0    0    0  0.00000000000E+00  0.00000000000E+00  0.12525980253E-10  0.17130000000E+03  0.17130000000E+03 0. -1.
       11    1    1    2    0    0  0.39485806270E-02  0.90384439308E-03  0.24614707535E-01  0.24951017476E-01  0.51109989000E-03 0. -1.
     -623    1    1    2    0    0 -0.26792601421E-01 -0.13974104708E-01  0.32573292098E-02  0.17130000270E+03  0.17130000000E+03 0. -1.
      622    1    1    2    0    0  0.22844020794E-01  0.13070260315E-01  0.39721279306E+01  0.39750462863E+01  0.15000000000E+00 0. -1.
</event>
<event>
 5   0  0.6780500E+06  0.9118800E+02  0.7818608E-02  0.1180000E+00
       11   -1    0    0    0    0  0.00000000000E+00  0.00000000000E+00  0.39999999673E+01  0.40000000000E+01  0.51109989000E-03 0.  1.
     -623   -1    0    0    0    0  0.00000000000E+00  0.00000000000E+00  0.12525980253E-10  0.17130000000E+03  0.17130000000E+03 0. -1.
       11    1    1    2    0    0  0.75766404733E-02  0.21772351307E-01  0.10070785349E-01  0.25161929634E-01  0.51109989000E-03 0.  1.
     -623    1    1    2    0    0  0.18014793404E-01  0.17604690448E-02  0.18076492644E-01  0.17130000191E+03  0.17130000000E+03 0. -1.
      622    1    1    2    0    0 -0.25591433877E-01 -0.23532820351E-01  0.39718526894E+01  0.39748361603E+01  0.15000000000E+00 0.  1.
</event>
<event>
 5   0  0.6780500E+06  0.9118800E+02  0.7818608E-02  0.1180000E+00
       11   -1    0    0    0    0  0.00000000000E+00  0.00000000000E+00  0.39999999673E+01  0.40000000000E+01  0.51109989000E-03 0.  1.
     -623   -1    0    0    0    0  0.00000000000E+00  0.00000000000E+00  0.12525980253E-10  0.17130000000E+03  0.17130000000E+03 0. -1.
       11    1    1    2    0    0  0.12780208931E-01  0.29340311505E-01  0.13401925525E+00  0.13778827824E+00  0.51109989000E-03 0.  1.
     -623    1    1    2    0    0 -0.10512785607E-01 -0.38139134806E-01  0.66983275406E-02  0.17130000470E+03  0.17130000000E+03 0. -1.
      622    1    1    2    0    0 -0.22674233231E-02  0.87988233026E-02  0.38592823846E+01  0.38622070225E+01  0.15000000000E+00 0.  1.
</event>
<event>
 5   0  0.6780500E+06  0.9118800E+02  0.7818608E-02  0.1180000E+00
       11   -1    0    0    0    0  0.00000000000E+00  0.00000000000E+00  0.39999999673E+01  0.40000000000E+01  0.51109989000E-03 0.  1.
     -623   -1    0    0    0    0  0.00000000000E+00  0.00000000000E+00  0.12525980253E-10  0.17130000000E+03  0.17130000000E+03 0.  1.
       11    1    1    2    0    0 -0.55105323376E-03  0.12269509017E-02  0.10247556467E-02  0.17664697605E-02  0.51109989000E-03 0.  1.
     -623    1    1    2    0    0 -0.71120237752E-03 -0.17574359392E-02  0.35566969048E-02  0.17130000005E+03  0.17130000000E+03 0.  1.
      622    1    1    2    0    0  0.12622556113E-02  0.53048503749E-03  0.39954185148E+01  0.39982334828E+01  0.15000000000E+00 0.  1.
</event>
<event>
 5   0  0.6780500E+06  0.9118800E+02  0.7818608E-02  0.1180000E+00
       11   -1    0    0    0    0  0.00000000000E+00  0.00000000000E+00  0.39999999673E+01  0.40000000000E+01  0.51109989000E-03 0. -1.
     -623   -1    0    0    0    0  0.00000000000E+00  0.00000000000E+00  0.12525980253E-10  0.17130000000E+03  0.17130000000E+03 0.  1.
       11    1    1    2    0    0 -0.24621582956E-01  0.28203669392E-01  0.30220609333E+00  0.30451675386E+00  0.51109989000E-03 0. -1.
     -623    1    1    2    0    0  0.42273481881E-01 -0.64601289422E-01  0.55952354143E-02  0.17130001749E+03  0.17130000000E+03 0.  1.
      622    1    1    2    0    0 -0.17651898924E-01  0.36397620029E-01  0.36921986385E+01  0.36954657572E+01  0.15000000000E+00 0. -1.
</event>
<event>
 5   0  0.6780500E+06  0.9118800E+02  0.7818608E-02  0.1180000E+00
       11   -1    0    0    0    0  0.00000000000E+00  0.00000000000E+00  0.39999999673E+01  0.40000000000E+01  0.51109989000E-03 0. -1.
     -623   -1    0    0    0    0  0.00000000000E+00  0.00000000000E+00  0.12525980253E-10  0.17130000000E+03  0.17130000000E+03 0. -1.
       11    1    1    2    0    0  0.11961406741E-01  0.39701526955E-02  0.33963339246E-01  0.36229918568E-01  0.51109989000E-03 0. -1.
     -623    1    1    2    0    0 -0.84009306994E-02  0.29841201078E-02  0.51137842161E-02  0.17130000031E+03  0.17130000000E+03 0. -1.
      622    1    1    2    0    0 -0.35604760411E-02 -0.69542728033E-02  0.39609228439E+01  0.39637697731E+01  0.15000000000E+00 0. -1.
</event>
<event>
 5   0  0.6780500E+06  0.9118800E+02  0.7818608E-02  0.1180000E+00
       11   -1    0    0    0    0  0.00000000000E+00  0.00000000000E+00  0.39999999673E+01  0.40000000000E+01  0.51109989000E-03 0.  1.
     -623   -1    0    0    0    0  0.00000000000E+00  0.00000000000E+00  0.12525980253E-10  0.17130000000E+03  0.17130000000E+03 0. -1.
       11    1    1    2    0    0  0.89611273298E-03 -0.76723223868E-02  0.17442016829E-01  0.19082785996E-01  0.51109989000E-03 0.  1.
     -623    1    1    2    0    0  0.25563461633E-02  0.11118588916E-01  0.44711516855E-02  0.17130000044E+03  0.17130000000E+03 0. -1.
      622    1    1    2    0    0 -0.34524588963E-02 -0.34462665296E-02  0.39780867988E+01  0.39809167757E+01  0.15000000000E+00 0.  1.
</event>
<event>
 5   0  0.6780500E+06  0.9118800E+02  0.7818608E-02  0.1180000E+00
       11   -1    0    0    0    0  0.00000000000E+00  0.00000000000E+00  0.39999999673E+01  0.40000000000E+01  0.51109989000E-03 0. -1.
     -623   -1    0    0    0    0  0.00000000000E+00  0.00000000000E+00  0.12525980253E-10  0.17130000000E+03  0.17130000000E+03 0.  1.
       11    1    1    2    0    0  0.96849382659E-02  0.27401325557E-01  0.42469450086E-01  0.51464027099E-01  0.51109989000E-03 0. -1.
     -623    1    1    2    0    0  0.46231455690E-02  0.89173800096E-02  0.12038546250E-01  0.17130000072E+03  0.17130000000E+03 0.  1.
      622    1    1    2    0    0 -0.14308083835E-01 -0.36318705567E-01  0.39454919710E+01  0.39485352554E+01  0.15000000000E+00 0. -1.
</event>
<event>
 5   0  0.6780500E+06  0.9118800E+02  0.7818608E-02  0.1180000E+00
       11   -1    0    0    0    0  0.00000000000E+00  0.00000000000E+00  0.39999999673E+01  0.40000000000E+01  0.51109989000E-03 0.  1.
     -623   -1    0    0    0    0  0.00000000000E+00  0.00000000000E+00  0.12525980253E-10  0.17130000000E+03  0.17130000000E+03 0.  1.
       11    1    1    2    0    0  0.47251474389E-02  0.28027356841E-03  0.49634884417E-02  0.68777185317E-02  0.51109989000E-03 0.  1.
     -623    1    1    2    0    0 -0.76592530427E-02  0.42272591217E-02  0.47364499825E-02  0.17130000029E+03  0.17130000000E+03 0.  1.
      622    1    1    2    0    0  0.29341056039E-02 -0.45075326902E-02  0.39903000290E+01  0.39931219926E+01  0.15000000000E+00 0.  1.
</event>
<event>
 5   0  0.6780500E+06  0.9118800E+02  0.7818608E-02  0.1180000E+00
       11   -1    0    0    0    0  0.00000000000E+00  0.00000000000E+00  0.39999999673E+01  0.40000000000E+01  0.51109989000E-03 0.  1.
     -623   -1    0    0    0    0  0.00000000000E+00  0.00000000000E+00  0.12525980253E-10  0.17130000000E+03  0.17130000000E+03 0. -1.
       11    1    1    2    0    0  0.57187367871E-02 -0.72136245652E-02  0.80552174171E+00  0.80557450179E+00  0.51109989000E-03 0.  1.
     -623    1    1    2    0    0 -0.43559364748E-01  0.87453295820E-02  0.38069914652E-02  0.17130000580E+03  0.17130000000E+03 0. -1.
      622    1    1    2    0    0  0.37840627961E-01 -0.15317050167E-02  0.31906712342E+01  0.31944196944E+01  0.15000000000E+00 0.  1.
</event>
<event>
 5   0  0.6780500E+06  0.9118800E+02  0.7818608E-02  0.1180000E+00
       11   -1    0    0    0    0  0.00000000000E+00  0.00000000000E+00  0.39999999673E+01  0.40000000000E+01  0.51109989000E-03 0.  1.
     -623   -1    0    0    0    0  0.00000000000E+00  0.00000000000E+00  0.12525980253E-10  0.17130000000E+03  0.17130000000E+03 0. -1.
       11    1    1    2    0    0 -0.14421998812E-01 -0.96959017917E-02  0.29759047460E-01  0.34465441969E-01  0.51109989000E-03 0.  1.
     -623    1    1    2    0    0  0.13421137983E-01  0.21693203244E-01  0.75646770974E-02  0.17130000207E+03  0.17130000000E+03 0. -1.
      622    1    1    2    0    0  0.10008608287E-02 -0.11997301452E-01  0.39626762428E+01  0.39655324917E+01  0.15000000000E+00 0.  1.
</event>
<event>
 5   0  0.6780500E+06  0.9118800E+02  0.7818608E-02  0.1180000E+00
       11   -1    0    0    0    0  0.00000000000E+00  0.00000000000E+00  0.39999999673E+01  0.40000000000E+01  0.51109989000E-03 0.  1.
     -623   -1    0    0    0    0  0.00000000000E+00  0.00000000000E+00  0.12525980253E-10  0.17130000000E+03  0.17130000000E+03 0. -1.
       11    1    1    2    0    0  0.37819382101E-01 -0.39229570608E-01  0.99651057319E+00  0.99799942313E+00  0.51109989000E-03 0.  1.
     -623    1    1    2    0    0  0.80300211302E-01 -0.97855940289E-02  0.79866081539E-02  0.17130001929E+03  0.17130000000E+03 0. -1.
      622    1    1    2    0    0 -0.11811959340E+00  0.49015164637E-01  0.29955027861E+01  0.30019812901E+01  0.15000000000E+00 0.  1.
</event>
<event>
 5   0  0.6780500E+06  0.9118800E+02  0.7818608E-02  0.1180000E+00
       11   -1    0    0    0    0  0.00000000000E+00  0.00000000000E+00  0.39999999673E+01  0.40000000000E+01  0.51109989000E-03 0. -1.
     -623   -1    0    0    0    0  0.00000000000E+00  0.00000000000E+00  0.12525980253E-10  0.17130000000E+03  0.17130000000E+03 0.  1.
       11    1    1    2    0    0  0.11067182451E-01 -0.15105879981E-01  0.46636105051E-01  0.50257911349E-01  0.51109989000E-03 0. -1.
     -623    1    1    2    0    0  0.16238386009E-01  0.31776697680E-01  0.66045982432E-02  0.17130000384E+03  0.17130000000E+03 0.  1.
      622    1    1    2    0    0 -0.27305568460E-01 -0.16670817699E-01  0.39467592641E+01  0.39497382443E+01  0.15000000000E+00 0. -1.
</event>
<event>
 5   0  0.6780500E+06  0.9118800E+02  0.7818608E-02  0.1180000E+00
       11   -1    0    0    0    0  0.00000000000E+00  0.00000000000E+00  0.39999999673E+01  0.40000000000E+01  0.51109989000E-03 0. -1.
     -623   -1    0    0    0    0  0.00000000000E+00  0.00000000000E+00  0.12525980253E-10  0.17130000000E+03  0.17130000000E+03 0.  1.
       11    1    1    2    0    0  0.39337485303E-03 -0.24251701804E-02  0.10961260201E+00  0.10964132402E+00  0.51109989000E-03 0. -1.
     -623    1    1    2    0    0 -0.76210270362E-02 -0.15728656567E-02  0.29305058816E-02  0.17130000020E+03  0.17130000000E+03 0.  1.
      622    1    1    2    0    0  0.72276521832E-02  0.39980358371E-02  0.38874568595E+01  0.38903584742E+01  0.15000000000E+00 0. -1.
</event>
<event>
 5   0  0.6780500E+06  0.9118800E+02  0.7818608E-02  0.1180000E+00
       11   -1    0    0    0    0  0.00000000000E+00  0.00000000000E+00  0.39999999673E+01  0.40000000000E+01  0.51109989000E-03 0.  1.
     -623   -1    0    0    0    0  0.00000000000E+00  0.00000000000E+00  0.12525980253E-10  0.17130000000E+03  0.17130000000E+03 0. -1.
       11    1    1    2    0    0 -0.47582061321E-01 -0.86237832679E-01  0.21288738829E+00  0.23456836458E+00  0.51109989000E-03 0.  1.
     -623    1    1    2    0    0 -0.24098967729E-01  0.59943446669E-01  0.25458708887E-01  0.17130001408E+03  0.17130000000E+03 0. -1.
      622    1    1    2    0    0  0.71681029050E-01  0.26294386010E-01  0.37616538702E+01  0.37654175603E+01  0.15000000000E+00 0.  1.
</event>
<event>
 5   0  0.6780500E+06  0.9118800E+02  0.7818608E-02  0.1180000E+00
       11   -1    0    0    0    0  0.00000000000E+00  0.00000000000E+00  0.39999999673E+01  0.40000000000E+01  0.51109989000E-03 0. -1.
     -623   -1    0    0    0    0  0.00000000000E+00  0.00000000000E+00  0.12525980253E-10  0.17130000000E+03  0.17130000000E+03 0. -1.
       11    1    1    2    0    0  0.61650614549E-02  0.41688951377E-04  0.52630224384E-01  0.52992560445E-01  0.51109989000E-03 0. -1.
     -623    1    1    2    0    0 -0.68213324376E-02 -0.70251755898E-03  0.32138714343E-02  0.17130000017E+03  0.17130000000E+03 0. -1.
      622    1    1    2    0    0  0.65627098268E-03  0.66082860760E-03  0.39441558715E+01  0.39470072721E+01  0.15000000000E+00 0. -1.
</event>
<event>
 5   0  0.6780500E+06  0.9118800E+02  0.7818608E-02  0.1180000E+00
       11   -1    0    0    0    0  0.00000000000E+00  0.00000000000E+00  0.39999999673E+01  0.40000000000E+01  0.51109989000E-03 0.  1.
     -623   -1    0    0    0    0  0.00000000000E+00  0.00000000000E+00  0.12525980253E-10  0.17130000000E+03  0.17130000000E+03 0. -1.
       11    1    1    2    0    0 -0.83329904946E-02 -0.10291683945E-01  0.59824130570E-01  0.61274344627E-01  0.51109989000E-03 0.  1.
     -623    1    1    2    0    0  0.11902267273E-01  0.23606456574E-02  0.43175653150E-02  0.17130000048E+03  0.17130000000E+03 0. -1.
      622    1    1    2    0    0 -0.35692767782E-02  0.79310382877E-02  0.39358582715E+01  0.39387251712E+01  0.15000000000E+00 0.  1.
</event>
<event>
 5   0  0.6780500E+06  0.9118800E+02  0.7818608E-02  0.1180000E+00
       11   -1    0    0    0    0  0.00000000000E+00  0.00000000000E+00  0.39999999673E+01  0.40000000000E+01  0.51109989000E-03 0. -1.
     -623   -1    0    0    0    0  0.00000000000E+00  0.00000000000E+00  0.12525980253E-10  0.17130000000E+03  0.17130000000E+03 0. -1.
       11    1    1    2    0    0  0.11851389831E-01 -0.98578750230E-02  0.14683353922E-01  0.21295427774E-01  0.51109989000E-03 0. -1.
     -623    1    1    2    0    0 -0.82554494662E-02  0.12128922914E-01  0.94437641956E-02  0.17130000089E+03  0.17130000000E+03 0. -1.
      622    1    1    2    0    0 -0.35959403652E-02 -0.22710478915E-02  0.39758728492E+01  0.39787036836E+01  0.15000000000E+00 0. -1.
</event>
<event>
 5   0  0.6780500E+06  0.9118800E+02  0.7818608E-02  0.1180000E+00
       11   -1    0    0    0    0  0.00000000000E+00  0.00000000000E+00  0.39999999673E+01  0.40000000000E+01  0.51109989000E-03 0. -1.
     -623   -1    0    0    0    0  0.00000000000E+00  0.00000000000E+00  0.12525980253E-10  0.17130000000E+03  0.17130000000E+03 0. -1.
       11    1    1    2    0    0  0.17909040568E-01  0.21806410974E-01  0.17526399838E+00  0.17752178358E+00  0.51109989000E-03 0. -1.
     -623    1    1    2    0    0 -0.10393021995E-01 -0.86176633142E-02  0.52327810075E-02  0.17130000061E+03  0.17130000000E+03 0. -1.
      622    1    1    2    0    0 -0.75160185728E-02 -0.13188747660E-01  0.38195031880E+01  0.38224776045E+01  0.15000000000E+00 0. -1.
</event>
<event>
 5   0  0.6780500E+06  0.9118800E+02  0.7818608E-02  0.1180000E+00
       11   -1    0    0    0    0  0.00000000000E+00  0.00000000000E+00  0.39999999673E+01  0.40000000000E+01  0.51109989000E-03 0.  1.
     -623   -1    0    0    0    0  0.00000000000E+00  0.00000000000E+00  0.12525980253E-10  0.17130000000E+03  0.17130000000E+03 0.  1.
       11    1    1    2    0    0  0.10162820907E-02 -0.75175193789E-02  0.12669719792E-01  0.14775958446E-01  0.51109989000E-03 0.  1.
     -623    1    1    2    0    0  0.18462953794E-01  0.12742284343E-01  0.49827442537E-02  0.17130000154E+03  0.17130000000E+03 0.  1.
      622    1    1    2    0    0 -0.19479235885E-01 -0.52247649645E-02  0.39823475033E+01  0.39852225002E+01  0.15000000000E+00 0.  1.
</event>
<event>
 5   0  0.6780500E+06  0.9118800E+02  0.7818608E-02  0.1180000E+00
       11   -1    0    0    0    0  0.00000000000E+00  0.00000000000E+00  0.39999999673E+01  0.40000000000E+01  0.51109989000E-03 0.  1.
     -623   -1    0    0    0    0  0.00000000000E+00  0.00000000000E+00  0.12525980253E-10  0.17130000000E+03  0.17130000000E+03 0. -1.
       11    1    1    2    0    0 -0.61464079109E-02  0.20147692186E-01  0.12582209253E+00  0.12757416674E+00  0.51109989000E-03 0.  1.
     -623    1    1    2    0    0 -0.13251129448E-02 -0.33439136477E-01  0.46916643531E-02  0.17130000333E+03  0.17130000000E+03 0. -1.
      622    1    1    2    0    0  0.74715208557E-02  0.13291444291E-01  0.38694862105E+01  0.38724225001E+01  0.15000000000E+00 0.  1.
</event>
<event>
 5   0  0.6780500E+06  0.9118800E+02  0.7818608E-02  0.1180000E+00
       11   -1    0    0    0    0  0.00000000000E+00  0.00000000000E+00  0.39999999673E+01  0.40000000000E+01  0.51109989000E-03 0.  1.
     -623   -1    0    0    0    0  0.00000000000E+00  0.00000000000E+00  0.12525980253E-10  0.17130000000E+03  0.17130000000E+03 0. -1.
       11    1    1    2    0    0 -0.23967768707E-02 -0.64182730373E-02  0.41516487241E-01  0.42081096754E-01  0.51109989000E-03 0.  1.
     -623    1    1    2    0    0  0.46450175061E-04  0.58356266586E-03  0.34130383038E-02  0.17130000004E+03  0.17130000000E+03 0. -1.
      622    1    1    2    0    0  0.23503266957E-02  0.58347103715E-02  0.39550704419E+01  0.39579188683E+01  0.15000000000E+00 0.  1.
</event>
<event>
 5   0  0.6780500E+06  0.9118800E+02  0.7818608E-02  0.1180000E+00
       11   -1    0    0    0    0  0.00000000000E+00  0.00000000000E+00  0.39999999673E+01  0.40000000000E+01  0.51109989000E-03 0. -1.
     -623   -1    0    0    0    0  0.00000000000E+00  0.00000000000E+00  0.12525980253E-10  0.17130000000E+03  0.17130000000E+03 0.  1.
       11    1    1    2    0    0  0.12370521746E-01  0.26767674159E-03  0.23434908855E+00  0.23467607033E+00  0.51109989000E-03 0. -1.
     -623    1    1    2    0    0  0.29549929798E-02 -0.53171798038E-02  0.33506693264E-02  0.17130000014E+03  0.17130000000E+03 0.  1.
      622    1    1    2    0    0 -0.15325514725E-01  0.50495030621E-02  0.37623002094E+01  0.37653237888E+01  0.15000000000E+00 0. -1.
</event>
<event>
 5   0  0.6780500E+06  0.9118800E+02  0.7818608E-02  0.1180000E+00
       11   -1    0    0    0    0  0.00000000000E+00  0.00000000000E+00  0.39999999673E+01  0.40000000000E+01  0.51109989000E-03 0. -1.
     -623   -1    0    0    0    0  0.00000000000E+00  0.00000000000E+00  0.12525980253E-10  0.17130000000E+03  0.17130000000E+03 0. -1.
       11    1    1    2    0    0 -0.33613435321E-02 -0.81989412752E-02  0.57424907022E+00  0.57431766222E+00  0.51109989000E-03 0. -1.
     -623    1    1    2    0    0 -0.67124871926E-03  0.19976364073E-01  0.33779933897E-02  0.17130000120E+03  0.17130000000E+03 0. -1.
      622    1    1    2    0    0  0.40325922514E-02 -0.11777422798E-01  0.34223729037E+01  0.34256811384E+01  0.15000000000E+00 0. -1.
</event>
<event>
 5   0  0.6780500E+06  0.9118800E+02  0.7818608E-02  0.1180000E+00
       11   -1    0    0    0    0  0.00000000000E+00  0.00000000000E+00  0.39999999673E+01  0.40000000000E+01  0.51109989000E-03 0.  1.
     -623   -1    0    0    0    0  0.00000000000E+00  0.00000000000E+00  0.12525980253E-10  0.17130000000E+03  0.17130000000E+03 0.  1.
       11    1    1    2    0    0  0.55853828655E-02 -0.14218434289E-01  0.80701750792E-02  0.17284366471E-01  0.51109989000E-03 0.  1.
     -623    1    1    2    0    0  0.90335846815E-03 -0.12559534794E-01  0.12136136409E-01  0.17130000089E+03  0.17130000000E+03 0.  1.
      622    1    1    2    0    0 -0.64887413337E-02  0.26777969083E-01  0.39797936559E+01  0.39827147408E+01  0.15000000000E+00 0.  1.
</event>
<event>
 5   0  0.6780500E+06  0.9118800E+02  0.7818608E-02  0.1180000E+00
       11   -1    0    0    0    0  0.00000000000E+00  0.00000000000E+00  0.39999999673E+01  0.40000000000E+01  0.51109989000E-03 0. -1.
     -623   -1    0    0    0    0  0.00000000000E+00  0.00000000000E+00  0.12525980253E-10  0.17130000000E+03  0.17130000000E+03 0. -1.
       11    1    1    2    0    0 -0.25783134135E-02  0.10323041932E-01  0.34716757428E+00  0.34733096428E+00  0.51109989000E-03 0. -1.
     -623    1    1    2    0    0 -0.10012512795E-01  0.24424064029E-01  0.34338008322E-02  0.17130000207E+03  0.17130000000E+03 0. -1.
      622    1    1    2    0    0  0.12590826208E-01 -0.34747105962E-01  0.36493985922E+01  0.36526669675E+01  0.15000000000E+00 0. -1.
</event>
<event>
 5   0  0.6780500E+06  0.9118800E+02  0.7818608E-02  0.1180000E+00
       11   -1    0    0    0    0  0.00000000000E+00  0.00000000000E+00  0.39999999673E+01  0.40000000000E+01  0.51109989000E-03 0. -1.
     -623   -1    0    0    0    0  0.00000000000E+00  0.00000000000E+00  0.12525980253E-10  0.17130000000E+03  0.17130000000E+03 0. -1.
       11    1    1    2    0    0 -0.15256884129E+00 -0.21400941945E-01  0.98693853676E+00  0.99889097915E+00  0.51109989000E-03 0. -1.
     -623    1    1    2    0    0  0.22053210063E-01  0.39622406780E-01  0.18608740815E-01  0.17130000701E+03  0.17130000000E+03 0. -1.
      622    1    1    2    0    0  0.13051563122E+00 -0.18221464835E-01  0.29944526898E+01  0.30011020081E+01  0.15000000000E+00 0. -1.
</event>
<event>
 5   0  0.6780500E+06  0.9118800E+02  0.7818608E-02  0.1180000E+00
       11   -1    0    0    0    0  0.00000000000E+00  0.00000000000E+00  0.39999999673E+01  0.40000000000E+01  0.51109989000E-03 0.  1.
     -623   -1    0    0    0    0  0.00000000000E+00  0.00000000000E+00  0.12525980253E-10  0.17130000000E+03  0.17130000000E+03 0.  1.
       11    1    1    2    0    0 -0.86314927156E-02 -0.27230980789E-01  0.16103759575E+00  0.16355243027E+00  0.51109989000E-03 0.  1.
     -623    1    1    2    0    0  0.89263391275E-02  0.16370170806E-01  0.54648228846E-02  0.17130000110E+03  0.17130000000E+03 0.  1.
      622    1    1    2    0    0 -0.29484641186E-03  0.10860809983E-01  0.38334975487E+01  0.38364464678E+01  0.15000000000E+00 0.  0.
</event>
<event>
 5   0  0.6780500E+06  0.9118800E+02  0.7818608E-02  0.1180000E+00
       11   -1    0    0    0    0  0.00000000000E+00  0.00000000000E+00  0.39999999673E+01  0.40000000000E+01  0.51109989000E-03 0. -1.
     -623   -1    0    0    0    0  0.00000000000E+00  0.00000000000E+00  0.12525980253E-10  0.17130000000E+03  0.17130000000E+03 0. -1.
       11    1    1    2    0    0  0.71846917776E-01  0.22195094675E-01  0.16179864306E+00  0.17841990904E+00  0.51109989000E-03 0. -1.
     -623    1    1    2    0    0 -0.83186252412E-01 -0.69357243934E-01  0.19909690014E-01  0.17130003540E+03  0.17130000000E+03 0. -1.
      622    1    1    2    0    0  0.11339334635E-01  0.47162149259E-01  0.38182916343E+01  0.38215446947E+01  0.15000000000E+00 0. -1.
</event>
<event>
 5   0  0.6780500E+06  0.9118800E+02  0.7818608E-02  0.1180000E+00
       11   -1    0    0    0    0  0.00000000000E+00  0.00000000000E+00  0.39999999673E+01  0.40000000000E+01  0.51109989000E-03 0. -1.
     -623   -1    0    0    0    0  0.00000000000E+00  0.00000000000E+00  0.12525980253E-10  0.17130000000E+03  0.17130000000E+03 0.  1.
       11    1    1    2    0    0 -0.21102527303E-02  0.11090657219E-01  0.67411883861E-01  0.68352608964E-01  0.51109989000E-03 0. -1.
     -623    1    1    2    0    0 -0.28283594687E-02 -0.50312427844E-02  0.38110469260E-02  0.17130000014E+03  0.17130000000E+03 0.  1.
      622    1    1    2    0    0  0.49386121989E-02 -0.60594144345E-02  0.39287770366E+01  0.39316472514E+01  0.15000000000E+00 0. -1.
</event>
<event>
 5   0  0.6780500E+06  0.9118800E+02  0.7818608E-02  0.1180000E+00
       11   -1    0    0    0    0  0.00000000000E+00  0.00000000000E+00  0.39999999673E+01  0.40000000000E+01  0.51109989000E-03 0.  1.
     -623   -1    0    0    0    0  0.00000000000E+00  0.00000000000E+00  0.12525980253E-10  0.17130000000E+03  0.17130000000E+03 0. -1.
       11    1    1    2    0    0 -0.49328289837E-03  0.77327515331E-02  0.16156142896E-01  0.17925427489E-01  0.51109989000E-03 0.  1.
     -623    1    1    2    0    0 -0.22709708176E-02  0.42604246818E-02  0.46145791428E-02  0.17130000013E+03  0.17130000000E+03 0. -1.
      622    1    1    2    0    0  0.27642537160E-02 -0.11993176215E-01  0.39792292454E+01  0.39820744424E+01  0.15000000000E+00 0.  1.
</event>
<event>
 5   0  0.6780500E+06  0.9118800E+02  0.7818608E-02  0.1180000E+00
       11   -1    0    0    0    0  0.00000000000E+00  0.00000000000E+00  0.39999999673E+01  0.40000000000E+01  0.51109989000E-03 0.  1.
     -623   -1    0    0    0    0  0.00000000000E+00  0.00000000000E+00  0.12525980253E-10  0.17130000000E+03  0.17130000000E+03 0.  1.
       11    1    1    2    0    0  0.13319818844E+00 -0.35160094860E-01  0.10079196564E+01  0.10172906589E+01  0.51109989000E-03 0.  1.
     -623    1    1    2    0    0 -0.54524903965E-02 -0.27892621688E-01  0.16556564155E-01  0.17130000316E+03  0.17130000000E+03 0.  1.
      622    1    1    2    0    0 -0.12774569805E+00  0.63052716549E-01  0.29755237468E+01  0.29827061833E+01  0.15000000000E+00 0.  1.
</event>
<event>
 5   0  0.6780500E+06  0.9118800E+02  0.7818608E-02  0.1180000E+00
       11   -1    0    0    0    0  0.00000000000E+00  0.00000000000E+00  0.39999999673E+01  0.40000000000E+01  0.51109989000E-03 0.  1.
     -623   -1    0    0    0    0  0.00000000000E+00  0.00000000000E+00  0.12525980253E-10  0.17130000000E+03  0.17130000000E+03 0.  1.
       11    1    1    2    0    0 -0.13236958845E+00 -0.85462230668E-01  0.20962061431E+00  0.26223379641E+00  0.51109989000E-03 0.  1.
     -623    1    1    2    0    0 -0.50684353727E-01 -0.81002492129E-01  0.63867751637E-01  0.17130003856E+03  0.17130000000E+03 0.  1.
      622    1    1    2    0    0  0.18305394217E+00  0.16646472280E+00  0.37265116014E+01  0.37377276473E+01  0.15000000000E+00 0.  1.
</event>
<event>
 5   0  0.6780500E+06  0.9118800E+02  0.7818608E-02  0.1180000E+00
       11   -1    0    0    0    0  0.00000000000E+00  0.00000000000E+00  0.39999999673E+01  0.40000000000E+01  0.51109989000E-03 0. -1.
     -623   -1    0    0    0    0  0.00000000000E+00  0.00000000000E+00  0.12525980253E-10  0.17130000000E+03  0.17130000000E+03 0. -1.
       11    1    1    2    0    0 -0.17160321844E-01 -0.39836910650E-02  0.25815187441E+00  0.25875277375E+00  0.51109989000E-03 0. -1.
     -623    1    1    2    0    0 -0.13904286263E-02 -0.32528768042E-02  0.36622035902E-02  0.17130000008E+03  0.17130000000E+03 0. -1.
      622    1    1    2    0    0  0.18550750470E-01  0.72365678691E-02  0.37381858894E+01  0.37412471506E+01  0.15000000000E+00 0. -1.
</event>
<event>
 5   0  0.6780500E+06  0.9118800E+02  0.7818608E-02  0.1180000E+00
       11   -1    0    0    0    0  0.00000000000E+00  0.00000000000E+00  0.39999999673E+01  0.40000000000E+01  0.51109989000E-03 0.  1.
     -623   -1    0    0    0    0  0.00000000000E+00  0.00000000000E+00  0.12525980253E-10  0.17130000000E+03  0.17130000000E+03 0.  1.
       11    1    1    2    0    0  0.90141358561E-01 -0.58215199533E-02  0.74044116158E+00  0.74593078070E+00  0.51109989000E-03 0.  1.
     -623    1    1    2    0    0 -0.37408357812E-01  0.64335745568E-01  0.99196380491E-02  0.17130001645E+03  0.17130000000E+03 0.  1.
      622    1    1    2    0    0 -0.52733000749E-01 -0.58514225615E-01  0.32496391677E+01  0.32540527661E+01  0.15000000000E+00 0.  1.
</event>
<event>
 5   0  0.6780500E+06  0.9118800E+02  0.7818608E-02  0.1180000E+00
       11   -1    0    0    0    0  0.00000000000E+00  0.00000000000E+00  0.39999999673E+01  0.40000000000E+01  0.51109989000E-03 0. -1.
     -623   -1    0    0    0    0  0.00000000000E+00  0.00000000000E+00  0.12525980253E-10  0.17130000000E+03  0.17130000000E+03 0. -1.
       11    1    1    2    0    0 -0.18802374582E-01 -0.11990847484E-01  0.90465651814E-01  0.93175131309E-01  0.51109989000E-03 0. -1.
     -623    1    1    2    0    0  0.25598746059E-01  0.17018385063E-01  0.56020900417E-02  0.17130000285E+03  0.17130000000E+03 0. -1.
      622    1    1    2    0    0 -0.67963714770E-02 -0.50275375795E-02  0.39039322256E+01  0.39068220191E+01  0.15000000000E+00 0. -1.
</event>
<event>
 5   0  0.6780500E+06  0.9118800E+02  0.7818608E-02  0.1180000E+00
       11   -1    0    0    0    0  0.00000000000E+00  0.00000000000E+00  0.39999999673E+01  0.40000000000E+01  0.51109989000E-03 0.  1.
     -623   -1    0    0    0    0  0.00000000000E+00  0.00000000000E+00  0.12525980253E-10  0.17130000000E+03  0.17130000000E+03 0.  1.
       11    1    1    2    0    0 -0.86017637166E-02 -0.94983391027E-02  0.54960138716E-01  0.56436573741E-01  0.51109989000E-03 0.  1.
     -623    1    1    2    0    0  0.20298537625E-01  0.15868072416E-02  0.43567521175E-02  0.17130000127E+03  0.17130000000E+03 0.  1.
      622    1    1    2    0    0 -0.11696773908E-01  0.79115318611E-02  0.39406830765E+01  0.39435621609E+01  0.15000000000E+00 0.  1.
</event>
<event>
 5   0  0.6780500E+06  0.9118800E+02  0.7818608E-02  0.1180000E+00
       11   -1    0    0    0    0  0.00000000000E+00  0.00000000000E+00  0.39999999673E+01  0.40000000000E+01  0.51109989000E-03 0.  1.
     -623   -1    0    0    0    0  0.00000000000E+00  0.00000000000E+00  0.12525980253E-10  0.17130000000E+03  0.17130000000E+03 0.  1.
       11    1    1    2    0    0  0.20523181393E-01 -0.10511394243E-01  0.90303595810E+00  0.90333044520E+00  0.51109989000E-03 0.  1.
     -623    1    1    2    0    0  0.13869720931E-01  0.14891494812E-01  0.41251061404E-02  0.17130000126E+03  0.17130000000E+03 0.  1.
      622    1    1    2    0    0 -0.34392902324E-01 -0.43801005694E-02  0.30928389031E+01  0.30966682964E+01  0.15000000000E+00 0.  1.
</event>
<event>
 5   0  0.6780500E+06  0.9118800E+02  0.7818608E-02  0.1180000E+00
       11   -1    0    0    0    0  0.00000000000E+00  0.00000000000E+00  0.39999999673E+01  0.40000000000E+01  0.51109989000E-03 0. -1.
     -623   -1    0    0    0    0  0.00000000000E+00  0.00000000000E+00  0.12525980253E-10  0.17130000000E+03  0.17130000000E+03 0.  1.
       11    1    1    2    0    0  0.41736924725E-01  0.12520924110E-01  0.35140784526E+00  0.35409953312E+00  0.51109989000E-03 0. -1.
     -623    1    1    2    0    0 -0.67894405864E-02  0.46221458760E-02  0.59868999852E-02  0.17130000030E+03  0.17130000000E+03 0.  1.
      622    1    1    2    0    0 -0.34947484138E-01 -0.17143069986E-01  0.36426052222E+01  0.36459001654E+01  0.15000000000E+00 0. -1.
</event>
<event>
 5   0  0.6780500E+06  0.9118800E+02  0.7818608E-02  0.1180000E+00
       11   -1    0    0    0    0  0.00000000000E+00  0.00000000000E+00  0.39999999673E+01  0.40000000000E+01  0.51109989000E-03 0.  1.
     -623   -1    0    0    0    0  0.00000000000E+00  0.00000000000E+00  0.12525980253E-10  0.17130000000E+03  0.17130000000E+03 0. -1.
       11    1    1    2    0    0 -0.82828066707E-02  0.65585138442E-02  0.16768297482E-01  0.19825640310E-01  0.51109989000E-03 0.  1.
     -623    1    1    2    0    0  0.53320113881E-02  0.12010282429E-01  0.59298713039E-02  0.17130000061E+03  0.17130000000E+03 0. -1.
      622    1    1    2    0    0  0.29507952826E-02 -0.18568796273E-01  0.39773017986E+01  0.39801737530E+01  0.15000000000E+00 0.  1.
</event>
<event>
 5   0  0.6780500E+06  0.9118800E+02  0.7818608E-02  0.1180000E+00
       11   -1    0    0    0    0  0.00000000000E+00  0.00000000000E+00  0.39999999673E+01  0.40000000000E+01  0.51109989000E-03 0.  1.
     -623   -1    0    0    0    0  0.00000000000E+00  0.00000000000E+00  0.12525980253E-10  0.17130000000E+03  0.17130000000E+03 0. -1.
       11    1    1    2    0    0 -0.13053552620E-01  0.15517682013E-01  0.31999265139E+00  0.32063491989E+00  0.51109989000E-03 0.  1.
     -623    1    1    2    0    0 -0.11052029493E-01 -0.11942401531E-01  0.37826850927E-02  0.17130000081E+03  0.17130000000E+03 0. -1.
      622    1    1    2    0    0  0.24105582113E-01 -0.35752804822E-02  0.36762246309E+01  0.36793642655E+01  0.15000000000E+00 0.  1.
</event>
<event>
 5   0  0.6780500E+06  0.9118800E+02  0.7818608E-02  0.1180000E+00
       11   -1    0    0    0    0  0.00000000000E+00  0.00000000000E+00  0.39999999673E+01  0.40000000000E+01  0.51109989000E-03 0.  1.
     -623   -1    0    0    0    0  0.00000000000E+00  0.00000000000E+00  0.12525980253E-10  0.17130000000E+03  0.17130000000E+03 0.  1.
       11    1    1    2    0    0  0.20124475310E-02 -0.15142336196E-01  0.16175118113E+00  0.16247167787E+00  0.51109989000E-03 0.  1.
     -623    1    1    2    0    0  0.61403313789E-02  0.86574838159E-02  0.36676778284E-02  0.17130000037E+03  0.17130000000E+03 0.  1.
      622    1    1    2    0    0 -0.81527789098E-02  0.64848523801E-02  0.38345811084E+01  0.38375279540E+01  0.15000000000E+00 0.  1.
</event>
<event>
 5   0  0.6780500E+06  0.9118800E+02  0.7818608E-02  0.1180000E+00
       11   -1    0    0    0    0  0.00000000000E+00  0.00000000000E+00  0.39999999673E+01  0.40000000000E+01  0.51109989000E-03 0.  1.
     -623   -1    0    0    0    0  0.00000000000E+00  0.00000000000E+00  0.12525980253E-10  0.17130000000E+03  0.17130000000E+03 0. -1.
       11    1    1    2    0    0 -0.70149613125E-03 -0.53837438233E-02  0.11974923954E-01  0.13158146570E-01  0.51109989000E-03 0.  1.
     -623    1    1    2    0    0 -0.74806422157E-03  0.78659424975E-02  0.40072378574E-02  0.17130000023E+03  0.17130000000E+03 0. -1.
      622    1    1    2    0    0  0.14495603528E-02 -0.24821986744E-02  0.39840178056E+01  0.39868416244E+01  0.15000000000E+00 0.  1.
</event>
<event>
 5   0  0.6780500E+06  0.9118800E+02  0.7818608E-02  0.1180000E+00
       11   -1    0    0    0    0  0.00000000000E+00  0.00000000000E+00  0.39999999673E+01  0.40000000000E+01  0.51109989000E-03 0. -1.
     -623   -1    0    0    0    0  0.00000000000E+00  0.00000000000E+00  0.12525980253E-10  0.17130000000E+03  0.17130000000E+03 0. -1.
       11    1    1    2    0    0 -0.51515743866E-01 -0.46649912448E-01  0.67025453580E+00  0.67384826940E+00  0.51109989000E-03 0. -1.
     -623    1    1    2    0    0  0.12464606737E-01  0.17758441670E-01  0.73343429291E-02  0.17130000153E+03  0.17130000000E+03 0. -1.
      622    1    1    2    0    0  0.39051137129E-01  0.28891470779E-01  0.33224110886E+01  0.33261501996E+01  0.15000000000E+00 0.  0.
</event>
<event>
 5   0  0.6780500E+06  0.9118800E+02  0.7818608E-02  0.1180000E+00
       11   -1    0    0    0    0  0.00000000000E+00  0.00000000000E+00  0.39999999673E+01  0.40000000000E+01  0.51109989000E-03 0.  1.
     -623   -1    0    0    0    0  0.00000000000E+00  0.00000000000E+00  0.12525980253E-10  0.17130000000E+03  0.17130000000E+03 0.  1.
       11    1    1    2    0    0 -0.16710006431E-02 -0.80417685510E-02  0.10187292254E+00  0.10220477413E+00  0.51109989000E-03 0.  1.
     -623    1    1    2    0    0 -0.16544463105E-01 -0.14026717453E-01  0.33256577331E-02  0.17130000141E+03  0.17130000000E+03 0.  1.
      622    1    1    2    0    0  0.18215463749E-01  0.22068486004E-01  0.38948013872E+01  0.38977938205E+01  0.15000000000E+00 0.  1.
</event>
<event>
 5   0  0.6780500E+06  0.9118800E+02  0.7818608E-02  0.1180000E+00
       11   -1    0    0    0    0  0.00000000000E+00  0.00000000000E+00  0.39999999673E+01  0.40000000000E+01  0.51109989000E-03 0.  1.
     -623   -1    0    0    0    0  0.00000000000E+00  0.00000000000E+00  0.12525980253E-10  0.17130000000E+03  0.17130000000E+03 0.  1.
       11    1    1    2    0    0  0.47828218683E-01  0.55319533941E-01  0.58680447032E+00  0.59134383987E+00  0.51109989000E-03 0.  1.
     -623    1    1    2    0    0  0.64287735512E-02  0.97395997098E-03  0.87393468911E-02  0.17130000035E+03  0.17130000000E+03 0.  1.
      622    1    1    2    0    0 -0.54256992235E-01 -0.56293493912E-01  0.34044561501E+01  0.34086558138E+01  0.15000000000E+00 0.  1.
</event>
<event>
 5   0  0.6780500E+06  0.9118800E+02  0.7818608E-02  0.1180000E+00
       11   -1    0    0    0    0  0.00000000000E+00  0.00000000000E+00  0.39999999673E+01  0.40000000000E+01  0.51109989000E-03 0.  1.
     -623   -1    0    0    0    0  0.00000000000E+00  0.00000000000E+00  0.12525980253E-10  0.17130000000E+03  0.17130000000E+03 0.  1.
       11    1    1    2    0    0  0.14173834205E-02  0.41928926458E-04  0.15727727689E-02  0.21784328006E-02  0.51109989000E-03 0.  1.
     -623    1    1    2    0    0 -0.64705648368E-02  0.10413061632E-02  0.34241534084E-02  0.17130000016E+03  0.17130000000E+03 0.  1.
      622    1    1    2    0    0  0.50531814163E-02 -0.10832350897E-02  0.39950030412E+01  0.39978214076E+01  0.15000000000E+00 0.  1.
</event>
<event>
 5   0  0.6780500E+06  0.9118800E+02  0.7818608E-02  0.1180000E+00
       11   -1    0    0    0    0  0.00000000000E+00  0.00000000000E+00  0.39999999673E+01  0.40000000000E+01  0.51109989000E-03 0. -1.
     -623   -1    0    0    0    0  0.00000000000E+00  0.00000000000E+00  0.12525980253E-10  0.17130000000E+03  0.17130000000E+03 0.  1.
       11    1    1    2    0    0  0.37000708564E-02 -0.16791298389E-01  0.36414348015E-01  0.40272871616E-01  0.51109989000E-03 0. -1.
     -623    1    1    2    0    0  0.11245334579E-01  0.24948726619E-01  0.67395696196E-02  0.17130000232E+03  0.17130000000E+03 0.  1.
      622    1    1    2    0    0 -0.14945405435E-01 -0.81574282305E-02  0.39568460497E+01  0.39597248099E+01  0.15000000000E+00 0. -1.
</event>
<event>
 5   0  0.6780500E+06  0.9118800E+02  0.7818608E-02  0.1180000E+00
       11   -1    0    0    0    0  0.00000000000E+00  0.00000000000E+00  0.39999999673E+01  0.40000000000E+01  0.51109989000E-03 0. -1.
     -623   -1    0    0    0    0  0.00000000000E+00  0.00000000000E+00  0.12525980253E-10  0.17130000000E+03  0.17130000000E+03 0. -1.
       11    1    1    2    0    0 -0.96396277030E-03  0.63182659022E-03 -0.44002322584E-03  0.13353923017E-02  0.51109989000E-03 0. -1.
     -623    1    1    2    0    0 -0.13585789939E-02 -0.16940936574E-02  0.45907041105E-02  0.17130000008E+03  0.17130000000E+03 0. -1.
      622    1    1    2    0    0  0.23225417642E-02  0.10622670672E-02  0.39958492865E+01  0.39986645325E+01  0.15000000000E+00 0. -1.
</event>
<event>
 5   0  0.6780500E+06  0.9118800E+02  0.7818608E-02  0.1180000E+00
       11   -1    0    0    0    0  0.00000000000E+00  0.00000000000E+00  0.39999999673E+01  0.40000000000E+01  0.51109989000E-03 0.  1.
     -623   -1    0    0    0    0  0.00000000000E+00  0.00000000000E+00  0.12525980253E-10  0.17130000000E+03  0.17130000000E+03 0. -1.
       11    1    1    2    0    0 -0.43922365526E-01 -0.43276896672E-01  0.26805056551E+00  0.27505168763E+00  0.51109989000E-03 0.  1.
     -623    1    1    2    0    0 -0.47077726985E-02  0.92662906554E-02  0.10496248397E-01  0.17130000064E+03  0.17130000000E+03 0. -1.
      622    1    1    2    0    0  0.48630138225E-01  0.34010606016E-01  0.37214531535E+01  0.37249476755E+01  0.15000000000E+00 0.  1.
</event>
<event>
 5   0  0.6780500E+06  0.9118800E+02  0.7818608E-02  0.1180000E+00
       11   -1    0    0    0    0  0.00000000000E+00  0.00000000000E+00  0.39999999673E+01  0.40000000000E+01  0.51109989000E-03 0. -1.
     -623   -1    0    0    0    0  0.00000000000E+00  0.00000000000E+00  0.12525980253E-10  0.17130000000E+03  0.17130000000E+03 0. -1.
       11    1    1    2    0    0 -0.16359471035E-02 -0.10725390648E-01  0.45321748084E-02  0.11769118873E-01  0.51109989000E-03 0. -1.
     -623    1    1    2    0    0 -0.61051446350E-02  0.49245822145E-02  0.10070924796E-01  0.17130000048E+03  0.17130000000E+03 0. -1.
      622    1    1    2    0    0  0.77410917384E-02  0.58008084330E-02  0.39853968677E+01  0.39882304055E+01  0.15000000000E+00 0. -1.
</event>
<event>
 5   0  0.6780500E+06  0.9118800E+02  0.7818608E-02  0.1180000E+00
       11   -1    0    0    0    0  0.00000000000E+00  0.00000000000E+00  0.39999999673E+01  0.40000000000E+01  0.51109989000E-03 0. -1.
     -623   -1    0    0    0    0  0.00000000000E+00  0.00000000000E+00  0.12525980253E-10  0.17130000000E+03  0.17130000000E+03 0.  1.
       11    1    1    2    0    0 -0.65055344823E-02  0.94297952564E-02  0.92662793683E-01  0.93369682295E-01  0.51109989000E-03 0. -1.
     -623    1    1    2    0    0 -0.50230639427E-02 -0.16506955115E-02  0.36125316128E-02  0.17130000012E+03  0.17130000000E+03 0.  1.
      622    1    1    2    0    0  0.11528598425E-01 -0.77790997449E-02  0.39037246421E+01  0.39066301980E+01  0.15000000000E+00 0. -1.
</event>
<event>
 5   0  0.6780500E+06  0.9118800E+02  0.7818608E-02  0.1180000E+00
       11   -1    0    0    0    0  0.00000000000E+00  0.00000000000E+00  0.39999999673E+01  0.40000000000E+01  0.51109989000E-03 0. -1.
     -623   -1    0    0    0    0  0.00000000000E+00  0.00000000000E+00  0.12525980253E-10  0.17130000000E+03  0.17130000000E+03 0. -1.
       11    1    1    2    0    0 -0.25847204888E-02  0.22791575919E-02  0.19337766663E-02  0.39844767068E-02  0.51109989000E-03 0. -1.
     -623    1    1    2    0    0 -0.22177244703E-02  0.25295538417E-02  0.48728498554E-02  0.17130000010E+03  0.17130000000E+03 0. -1.
      622    1    1    2    0    0  0.48024449591E-02 -0.48087114337E-02  0.39931933409E+01  0.39960154210E+01  0.15000000000E+00 0. -1.
</event>
<event>
 5   0  0.6780500E+06  0.9118800E+02  0.7818608E-02  0.1180000E+00
       11   -1    0    0    0    0  0.00000000000E+00  0.00000000000E+00  0.39999999673E+01  0.40000000000E+01  0.51109989000E-03 0. -1.
     -623   -1    0    0    0    0  0.00000000000E+00  0.00000000000E+00  0.12525980253E-10  0.17130000000E+03  0.17130000000E+03 0.  1.
       11    1    1    2    0    0 -0.40017117566E-01 -0.13308792916E-01  0.55402850956E-01  0.69629237999E-01  0.51109989000E-03 0. -1.
     -623    1    1    2    0    0  0.46335149168E-01 -0.98785558406E-03  0.17127956585E-01  0.17130000713E+03  0.17130000000E+03 0.  1.
      622    1    1    2    0    0 -0.63180316025E-02  0.14296648500E-01  0.39274691598E+01  0.39303636363E+01  0.15000000000E+00 0. -1.
</event>
<event>
 5   0  0.6780500E+06  0.9118800E+02  0.7818608E-02  0.1180000E+00
       11   -1    0    0    0    0  0.00000000000E+00  0.00000000000E+00  0.39999999673E+01  0.40000000000E+01  0.51109989000E-03 0. -1.
     -623   -1    0    0    0    0  0.00000000000E+00  0.00000000000E+00  0.12525980253E-10  0.17130000000E+03  0.17130000000E+03 0.  1.
       11    1    1    2    0    0  0.13252684993E-01  0.90183581306E-02  0.57312185150E+00  0.57334621507E+00  0.51109989000E-03 0. -1.
     -623    1    1    2    0    0  0.15846695536E-01 -0.14513360234E-02  0.36418112386E-02  0.17130000078E+03  0.17130000000E+03 0.  1.
      622    1    1    2    0    0 -0.29099380529E-01 -0.75670221073E-02  0.34232363046E+01  0.34266530071E+01  0.15000000000E+00 0.  0.
</event>
<event>
 5   0  0.6780500E+06  0.9118800E+02  0.7818608E-02  0.1180000E+00
       11   -1    0    0    0    0  0.00000000000E+00  0.00000000000E+00  0.39999999673E+01  0.40000000000E+01  0.51109989000E-03 0.  1.
     -623   -1    0    0    0    0  0.00000000000E+00  0.00000000000E+00  0.12525980253E-10  0.17130000000E+03  0.17130000000E+03 0.  1.
       11    1    1    2    0    0 -0.11097737822E-02 -0.19926038671E-01  0.12908733705E+00  0.13062189872E+00  0.51109989000E-03 0.  1.
     -623    1    1    2    0    0 -0.57173711703E-03  0.11539167689E-01  0.44529757135E-02  0.17130000045E+03  0.17130000000E+03 0.  1.
      622    1    1    2    0    0  0.16815108992E-02  0.83868709823E-02  0.38664596546E+01  0.38693776538E+01  0.15000000000E+00 0.  1.
</event>
<event>
 5   0  0.6780500E+06  0.9118800E+02  0.7818608E-02  0.1180000E+00
       11   -1    0    0    0    0  0.00000000000E+00  0.00000000000E+00  0.39999999673E+01  0.40000000000E+01  0.51109989000E-03 0.  1.
     -623   -1    0    0    0    0  0.00000000000E+00  0.00000000000E+00  0.12525980253E-10  0.17130000000E+03  0.17130000000E+03 0.  1.
       11    1    1    2    0    0  0.36168435909E-01  0.14557377646E-01  0.96985958696E+00  0.97064306140E+00  0.51109989000E-03 0.  1.
     -623    1    1    2    0    0  0.17569094146E-01 -0.20226341032E-01  0.49841085154E-02  0.17130000217E+03  0.17130000000E+03 0.  1.
      622    1    1    2    0    0 -0.53737530055E-01  0.56689633862E-02  0.30251562719E+01  0.30293547710E+01  0.15000000000E+00 0.  1.
</event>
<event>
 5   0  0.6780500E+06  0.9118800E+02  0.7818608E-02  0.1180000E+00
       11   -1    0    0    0    0  0.00000000000E+00  0.00000000000E+00  0.39999999673E+01  0.40000000000E+01  0.51109989000E-03 0. -1.
     -623   -1    0    0    0    0  0.00000000000E+00  0.00000000000E+00  0.12525980253E-10  0.17130000000E+03  0.17130000000E+03 0.  1.
       11    1    1    2    0    0 -0.89945450199E-02 -0.40854893067E-01  0.41113462796E+00  0.41325774967E+00  0.51109989000E-03 0. -1.
     -623    1    1    2    0    0 -0.81755081441E-02  0.16532012166E-02  0.55168644444E-02  0.17130000029E+03  0.17130000000E+03 0.  1.
      622    1    1    2    0    0  0.17170053164E-01  0.39201691850E-01  0.35833484750E+01  0.35867419584E+01  0.15000000000E+00 0. -1.
</event>
<event>
 5   0  0.6780500E+06  0.9118800E+02  0.7818608E-02  0.1180000E+00
       11   -1    0    0    0    0  0.00000000000E+00  0.00000000000E+00  0.39999999673E+01  0.40000000000E+01  0.51109989000E-03 0.  1.
     -623   -1    0    0    0    0  0.00000000000E+00  0.00000000000E+00  0.12525980253E-10  0.17130000000E+03  0.17130000000E+03 0. -1.
       11    1    1    2    0    0  0.78942975296E-02  0.29189356330E-01  0.18371676149E+00  0.18618928039E+00  0.51109989000E-03 0.  1.
     -623    1    1    2    0    0  0.12514954882E-01 -0.78683215249E-02  0.55384581088E-02  0.17130000073E+03  0.17130000000E+03 0. -1.
      622    1    1    2    0    0 -0.20409252412E-01 -0.21321034805E-01  0.38107447478E+01  0.38138099922E+01  0.15000000000E+00 0.  1.
</event>
<event>
 5   0  0.6780500E+06  0.9118800E+02  0.7818608E-02  0.1180000E+00
       11   -1    0    0    0    0  0.00000000000E+00  0.00000000000E+00  0.39999999673E+01  0.40000000000E+01  0.51109989000E-03 0. -1.
     -623   -1    0    0    0    0  0.00000000000E+00  0.00000000000E+00  0.12525980253E-10  0.17130000000E+03  0.17130000000E+03 0. -1.
       11    1    1    2    0    0  0.25795138923E-01 -0.60960722913E-02  0.15603130370E+00  0.15826743268E+00  0.51109989000E-03 0. -1.
     -623    1    1    2    0    0 -0.28659878831E-01  0.41315385288E-02  0.51696783940E-02  0.17130000253E+03  0.17130000000E+03 0. -1.
      622    1    1    2    0    0  0.28647399077E-02  0.19645337625E-02  0.38387989853E+01  0.38417300420E+01  0.15000000000E+00 0. -1.
</event>
<event>
 5   0  0.6780500E+06  0.9118800E+02  0.7818608E-02  0.1180000E+00
       11   -1    0    0    0    0  0.00000000000E+00  0.00000000000E+00  0.39999999673E+01  0.40000000000E+01  0.51109989000E-03 0.  1.
     -623   -1    0    0    0    0  0.00000000000E+00  0.00000000000E+00  0.12525980253E-10  0.17130000000E+03  0.17130000000E+03 0. -1.
       11    1    1    2    0    0 -0.51152245691E-02 -0.11322225723E-02  0.17225881040E-01  0.18012208353E-01  0.51109989000E-03 0.  1.
     -623    1    1    2    0    0  0.18359485607E-02 -0.75214496993E-02  0.36234942326E-02  0.17130000021E+03  0.17130000000E+03 0. -1.
      622    1    1    2    0    0  0.32792760084E-02  0.86536722716E-02  0.39791505921E+01  0.39819875784E+01  0.15000000000E+00 0.  1.
</event>
<event>
 5   0  0.6780500E+06  0.9118800E+02  0.7818608E-02  0.1180000E+00
       11   -1    0    0    0    0  0.00000000000E+00  0.00000000000E+00  0.39999999673E+01  0.40000000000E+01  0.51109989000E-03 0. -1.
     -623   -1    0    0    0    0  0.00000000000E+00  0.00000000000E+00  0.12525980253E-10  0.17130000000E+03  0.17130000000E+03 0. -1.
       11    1    1    2    0    0  0.50306510113E-02 -0.88023388973E-02  0.92808212420E-01  0.93361738070E-01  0.51109989000E-03 0. -1.
     -623    1    1    2    0    0 -0.60237302176E-02 -0.98057782711E-03  0.34467968865E-02  0.17130000014E+03  0.17130000000E+03 0. -1.
      622    1    1    2    0    0  0.99307920642E-03  0.97829167245E-02  0.39037449582E+01  0.39066381187E+01  0.15000000000E+00 0. -1.
</event>
<event>
 5   0  0.6780500E+06  0.9118800E+02  0.7818608E-02  0.1180000E+00
       11   -1    0    0    0    0  0.00000000000E+00  0.00000000000E+00  0.39999999673E+01  0.40000000000E+01  0.51109989000E-03 0.  1.
     -623   -1    0    0    0    0  0.00000000000E+00  0.00000000000E+00  0.12525980253E-10  0.17130000000E+03  0.17130000000E+03 0. -1.
       11    1    1    2    0    0 -0.13415570493E-02  0.14296057453E-02  0.41481218457E-02  0.46164579352E-02  0.51109989000E-03 0.  1.
     -623    1    1    2    0    0 -0.38438525789E-03 -0.57674752368E-02  0.32879047878E-02  0.17130000013E+03  0.17130000000E+03 0. -1.
      622    1    1    2    0    0  0.17259423072E-02  0.43378694915E-02  0.39925639407E+01  0.39953834130E+01  0.15000000000E+00 0.  1.
</event>
<event>
 5   0  0.6780500E+06  0.9118800E+02  0.7818608E-02  0.1180000E+00
       11   -1    0    0    0    0  0.00000000000E+00  0.00000000000E+00  0.39999999673E+01  0.40000000000E+01  0.51109989000E-03 0. -1.
     -623   -1    0    0    0    0  0.00000000000E+00  0.00000000000E+00  0.12525980253E-10  0.17130000000E+03  0.17130000000E+03 0. -1.
       11    1    1    2    0    0  0.18343564449E-03 -0.11718023419E-02  0.96601311263E+00  0.96601397597E+00  0.51109989000E-03 0. -1.
     -623    1    1    2    0    0 -0.35218937096E-02 -0.12027461639E-01  0.37421784231E-02  0.17130000050E+03  0.17130000000E+03 0. -1.
      622    1    1    2    0    0  0.33384580651E-02  0.13199263981E-01  0.30302446763E+01  0.30339855247E+01  0.15000000000E+00 0. -1.
</event>
<event>
 5   0  0.6780500E+06  0.9118800E+02  0.7818608E-02  0.1180000E+00
       11   -1    0    0    0    0  0.00000000000E+00  0.00000000000E+00  0.39999999673E+01  0.40000000000E+01  0.51109989000E-03 0. -1.
     -623   -1    0    0    0    0  0.00000000000E+00  0.00000000000E+00  0.12525980253E-10  0.17130000000E+03  0.17130000000E+03 0. -1.
       11    1    1    2    0    0 -0.62584929443E-02 -0.61647323576E-02  0.96246821572E-01  0.96648251630E-01  0.51109989000E-03 0. -1.
     -623    1    1    2    0    0  0.24295382737E-01  0.98179846035E-02  0.33300537974E-02  0.17130000204E+03  0.17130000000E+03 0. -1.
      622    1    1    2    0    0 -0.18036889793E-01 -0.36532522459E-02  0.39004230920E+01  0.39033497117E+01  0.15000000000E+00 0. -1.
</event>
<event>
 5   0  0.6780500E+06  0.9118800E+02  0.7818608E-02  0.1180000E+00
       11   -1    0    0    0    0  0.00000000000E+00  0.00000000000E+00  0.39999999673E+01  0.40000000000E+01  0.51109989000E-03 0. -1.
     -623   -1    0    0    0    0  0.00000000000E+00  0.00000000000E+00  0.12525980253E-10  0.17130000000E+03  0.17130000000E+03 0. -1.
       11    1    1    2    0    0 -0.35431081236E-01  0.29811479188E-01  0.50689633664E+00  0.50900711500E+00  0.51109989000E-03 0. -1.
     -623    1    1    2    0    0  0.10422520166E-01  0.13730242457E-01  0.56972454212E-02  0.17130000096E+03  0.17130000000E+03 0. -1.
      622    1    1    2    0    0  0.25008561070E-01 -0.43541721645E-01  0.34874063853E+01  0.34909919229E+01  0.15000000000E+00 0. -1.
</event>
<event>
 5   0  0.6780500E+06  0.9118800E+02  0.7818608E-02  0.1180000E+00
       11   -1    0    0    0    0  0.00000000000E+00  0.00000000000E+00  0.39999999673E+01  0.40000000000E+01  0.51109989000E-03 0.  1.
     -623   -1    0    0    0    0  0.00000000000E+00  0.00000000000E+00  0.12525980253E-10  0.17130000000E+03  0.17130000000E+03 0.  1.
       11    1    1    2    0    0 -0.23996249212E-01  0.13917793614E-02  0.30559645836E+00  0.30654072096E+00  0.51109989000E-03 0.  1.
     -623    1    1    2    0    0  0.16017534629E-01  0.88727627616E-02  0.40153385899E-02  0.17130000103E+03  0.17130000000E+03 0.  1.
      622    1    1    2    0    0  0.79787145829E-02 -0.10264542123E-01  0.36903881704E+01  0.36934582533E+01  0.15000000000E+00 0.  1.
</event>
<event>
 5   0  0.6780500E+06  0.9118800E+02  0.7818608E-02  0.1180000E+00
       11   -1    0    0    0    0  0.00000000000E+00  0.00000000000E+00  0.39999999673E+01  0.40000000000E+01  0.51109989000E-03 0. -1.
     -623   -1    0    0    0    0  0.00000000000E+00  0.00000000000E+00  0.12525980253E-10  0.17130000000E+03  0.17130000000E+03 0.  1.
       11    1    1    2    0    0  0.32846338345E-01  0.47254711997E-01  0.39879340574E+00  0.40292472179E+00  0.51109989000E-03 0. -1.
     -623    1    1    2    0    0 -0.46447949559E-01  0.16359303175E-01  0.78562319562E-02  0.17130000726E+03  0.17130000000E+03 0.  1.
      622    1    1    2    0    0  0.13601611214E-01 -0.63614015172E-01  0.35933503297E+01  0.35970680197E+01  0.15000000000E+00 0. -1.
</event>
<event>
 5   0  0.6780500E+06  0.9118800E+02  0.7818608E-02  0.1180000E+00
       11   -1    0    0    0    0  0.00000000000E+00  0.00000000000E+00  0.39999999673E+01  0.40000000000E+01  0.51109989000E-03 0.  1.
     -623   -1    0    0    0    0  0.00000000000E+00  0.00000000000E+00  0.12525980253E-10  0.17130000000E+03  0.17130000000E+03 0. -1.
       11    1    1    2    0    0 -0.68595865772E-02  0.17411097567E-01  0.20249692753E-01  0.27577373446E-01  0.51109989000E-03 0.  1.
     -623    1    1    2    0    0  0.10281929446E-01 -0.14249970901E-01  0.10164620879E-01  0.17130000120E+03  0.17130000000E+03 0. -1.
      622    1    1    2    0    0 -0.34223428685E-02 -0.31611266655E-02  0.39695856538E+01  0.39724214237E+01  0.15000000000E+00 0.  1.
</event>
<event>
 5   0  0.6780500E+06  0.9118800E+02  0.7818608E-02  0.1180000E+00
       11   -1    0    0    0    0  0.00000000000E+00  0.00000000000E+00  0.39999999673E+01  0.40000000000E+01  0.51109989000E-03 0. -1.
     -623   -1    0    0    0    0  0.00000000000E+00  0.00000000000E+00  0.12525980253E-10  0.17130000000E+03  0.17130000000E+03 0.  1.
       11    1    1    2    0    0  0.70056573686E-02 -0.23899149051E-03  0.74941310436E-01  0.75270163976E-01  0.51109989000E-03 0. -1.
     -623    1    1    2    0    0 -0.11428836119E-01 -0.67384389179E-02  0.32055530564E-02  0.17130000054E+03  0.17130000000E+03 0.  1.
      622    1    1    2    0    0  0.44231787505E-02  0.69774304082E-02  0.39218531037E+01  0.39247292921E+01  0.15000000000E+00 0. -1.
</event>
<event>
 5   0  0.6780500E+06  0.9118800E+02  0.7818608E-02  0.1180000E+00
       11   -1    0    0    0    0  0.00000000000E+00  0.00000000000E+00  0.39999999673E+01  0.40000000000E+01  0.51109989000E-03 0.  1.
     -623   -1    0    0    0    0  0.00000000000E+00  0.00000000000E+00  0.12525980253E-10  0.17130000000E+03  0.17130000000E+03 0.  1.
       11    1    1    2    0    0  0.39418595281E-01  0.68195225134E-01  0.45347941939E+00  0.46026976809E+00  0.51109989000E-03 0.  1.
     -623    1    1    2    0    0  0.86073529725E-02 -0.78592628747E-02  0.10811570697E-01  0.17130000074E+03  0.17130000000E+03 0.  1.
      622    1    1    2    0    0 -0.48025948253E-01 -0.60335962259E-01  0.35357089773E+01  0.35397294942E+01  0.15000000000E+00 0.  1.
</event>
<event>
 5   0  0.6780500E+06  0.9118800E+02  0.7818608E-02  0.1180000E+00
       11   -1    0    0    0    0  0.00000000000E+00  0.00000000000E+00  0.39999999673E+01  0.40000000000E+01  0.51109989000E-03 0. -1.
     -623   -1    0    0    0    0  0.00000000000E+00  0.00000000000E+00  0.12525980253E-10  0.17130000000E+03  0.17130000000E+03 0. -1.
       11    1    1    2    0    0 -0.70659494255E-01  0.18004893135E-01  0.45250552292E+00  0.45834315726E+00  0.51109989000E-03 0. -1.
     -623    1    1    2    0    0 -0.17564403787E-01  0.84138378182E-02  0.10215576933E-01  0.17130000141E+03  0.17130000000E+03 0. -1.
      622    1    1    2    0    0  0.88223898042E-01 -0.26418730953E-01  0.35372788675E+01  0.35416554310E+01  0.15000000000E+00 0.  0.
</event>
<event>
 5   0  0.6780500E+06  0.9118800E+02  0.7818608E-02  0.1180000E+00
       11   -1    0    0    0    0  0.00000000000E+00  0.00000000000E+00  0.39999999673E+01  0.40000000000E+01  0.51109989000E-03 0. -1.
     -623   -1    0    0    0    0  0.00000000000E+00  0.00000000000E+00  0.12525980253E-10  0.17130000000E+03  0.17130000000E+03 0.  1.
       11    1    1    2    0    0 -0.22083886565E-02  0.24790844988E-02 -0.50918227206E-02  0.61000591904E-02  0.51109989000E-03 0. -1.
     -623    1    1    2    0    0 -0.16722128046E-03 -0.13752734031E-01  0.14027395665E-01  0.17130000113E+03  0.17130000000E+03 0.  1.
      622    1    1    2    0    0  0.23756099370E-02  0.11273649533E-01  0.39910643944E+01  0.39938988143E+01  0.15000000000E+00 0. -1.
</event>
<event>
 5   0  0.6780500E+06  0.9118800E+02  0.7818608E-02  0.1180000E+00
       11   -1    0    0    0    0  0.00000000000E+00  0.00000000000E+00  0.39999999673E+01  0.40000000000E+01  0.51109989000E-03 0.  1.
     -623   -1    0    0    0    0  0.00000000000E+00  0.00000000000E+00  0.12525980253E-10  0.17130000000E+03  0.17130000000E+03 0. -1.
       11    1    1    2    0    0  0.10616793151E-01  0.11560939432E-01  0.11310936014E+00  0.11419439650E+00  0.51109989000E-03 0.  1.
     -623    1    1    2    0    0 -0.20137475595E-01 -0.23455579072E-02  0.40050907484E-02  0.17130000125E+03  0.17130000000E+03 0. -1.
      622    1    1    2    0    0  0.95206824446E-02 -0.92153815251E-02  0.38828855164E+01  0.38858043569E+01  0.15000000000E+00 0.  1.
</event>
<event>
 5   0  0.6780500E+06  0.9118800E+02  0.7818608E-02  0.1180000E+00
       11   -1    0    0    0    0  0.00000000000E+00  0.00000000000E+00  0.39999999673E+01  0.40000000000E+01  0.51109989000E-03 0. -1.
     -623   -1    0    0    0    0  0.00000000000E+00  0.00000000000E+00  0.12525980253E-10  0.17130000000E+03  0.17130000000E+03 0.  1.
       11    1    1    2    0    0  0.28766253148E-01 -0.20384249325E-01  0.23311161089E+00  0.23576322719E+00  0.51109989000E-03 0. -1.
     -623    1    1    2    0    0  0.70884126593E-02  0.28573802805E-01  0.58238708338E-02  0.17130000263E+03  0.17130000000E+03 0.  1.
      622    1    1    2    0    0 -0.35854665807E-01 -0.81895534806E-02  0.37610644857E+01  0.37642341441E+01  0.15000000000E+00 0. -1.
</event>
<event>
 5   0  0.6780500E+06  0.9118800E+02  0.7818608E-02  0.1180000E+00
       11   -1    0    0    0    0  0.00000000000E+00  0.00000000000E+00  0.39999999673E+01  0.40000000000E+01  0.51109989000E-03 0. -1.
     -623   -1    0    0    0    0  0.00000000000E+00  0.00000000000E+00  0.12525980253E-10  0.17130000000E+03  0.17130000000E+03 0. -1.
       11    1    1    2    0    0  0.65513947998E-01  0.36656035600E-01  0.54938190194E+00  0.55448758122E+00  0.51109989000E-03 0. -1.
     -623    1    1    2    0    0 -0.10906704528E-01  0.50352007735E-02  0.90586565822E-02  0.17130000066E+03  0.17130000000E+03 0. -1.
      622    1    1    2    0    0 -0.54607243470E-01 -0.41691236374E-01  0.34415594089E+01  0.34455117581E+01  0.15000000000E+00 0. -1.
</event>
<event>
 5   0  0.6780500E+06  0.9118800E+02  0.7818608E-02  0.1180000E+00
       11   -1    0    0    0    0  0.00000000000E+00  0.00000000000E+00  0.39999999673E+01  0.40000000000E+01  0.51109989000E-03 0. -1.
     -623   -1    0    0    0    0  0.00000000000E+00  0.00000000000E+00  0.12525980253E-10  0.17130000000E+03  0.17130000000E+03 0. -1.
       11    1    1    2    0    0 -0.11201736547E-01  0.66779901855E-02  0.51013144882E-01  0.52656211679E-01  0.51109989000E-03 0. -1.
     -623    1    1    2    0    0  0.63455649951E-02 -0.11833648496E-02  0.45010786971E-02  0.17130000018E+03  0.17130000000E+03 0. -1.
      622    1    1    2    0    0  0.48561715514E-02 -0.54946253359E-02  0.39444857439E+01  0.39473436077E+01  0.15000000000E+00 0. -1.
</event>
<event>
 5   0  0.6780500E+06  0.9118800E+02  0.7818608E-02  0.1180000E+00
       11   -1    0    0    0    0  0.00000000000E+00  0.00000000000E+00  0.39999999673E+01  0.40000000000E+01  0.51109989000E-03 0.  1.
     -623   -1    0    0    0    0  0.00000000000E+00  0.00000000000E+00  0.12525980253E-10  0.17130000000E+03  0.17130000000E+03 0. -1.
       11    1    1    2    0    0  0.68019292403E-02 -0.43468240368E-02 -0.24222668711E-02  0.84433240190E-02  0.51109989000E-03 0.  1.
     -623    1    1    2    0    0 -0.43154347071E-03  0.28066354216E-02  0.13690958752E-01  0.17130000057E+03  0.17130000000E+03 0. -1.
      622    1    1    2    0    0 -0.63703857696E-02  0.15401886153E-02  0.39887312755E+01  0.39915561053E+01  0.15000000000E+00 0.  1.
</event>
<event>
 5   0  0.6780500E+06  0.9118800E+02  0.7818608E-02  0.1180000E+00
       11   -1    0    0    0    0  0.00000000000E+00  0.00000000000E+00  0.39999999673E+01  0.40000000000E+01  0.51109989000E-03 0.  1.
     -623   -1    0    0    0    0  0.00000000000E+00  0.00000000000E+00  0.12525980253E-10  0.17130000000E+03  0.17130000000E+03 0. -1.
       11    1    1    2    0    0 -0.12521371846E-01  0.77411926952E-02  0.49279737297E+00  0.49301746708E+00  0.51109989000E-03 0.  1.
     -623    1    1    2    0    0  0.96783108247E-02 -0.24638299271E-03  0.34388937382E-02  0.17130000031E+03  0.17130000000E+03 0. -1.
      622    1    1    2    0    0  0.28430610213E-02 -0.74948097025E-02  0.35037637006E+01  0.35069822248E+01  0.15000000000E+00 0.  1.
</event>
<event>
 5   0  0.6780500E+06  0.9118800E+02  0.7818608E-02  0.1180000E+00
       11   -1    0    0    0    0  0.00000000000E+00  0.00000000000E+00  0.39999999673E+01  0.40000000000E+01  0.51109989000E-03 0. -1.
     -623   -1    0    0    0    0  0.00000000000E+00  0.00000000000E+00  0.12525980253E-10  0.17130000000E+03  0.17130000000E+03 0.  1.
       11    1    1    2    0    0  0.33519077236E-02 -0.69582603961E-02  0.15669226026E-01  0.17476799980E-01  0.51109989000E-03 0. -1.
     -623    1    1    2    0    0 -0.70266252737E-02  0.12591200363E-02  0.46393751837E-02  0.17130000021E+03  0.17130000000E+03 0.  1.
      622    1    1    2    0    0  0.36747175501E-02  0.56991403598E-02  0.39796913662E+01  0.39825229885E+01  0.15000000000E+00 0. -1.
</event>
<event>
 5   0  0.6780500E+06  0.9118800E+02  0.7818608E-02  0.1180000E+00
       11   -1    0    0    0    0  0.00000000000E+00  0.00000000000E+00  0.39999999673E+01  0.40000000000E+01  0.51109989000E-03 0.  1.
     -623   -1    0    0    0    0  0.00000000000E+00  0.00000000000E+00  0.12525980253E-10  0.17130000000E+03  0.17130000000E+03 0.  1.
       11    1    1    2    0    0 -0.98321367767E-03 -0.50620561821E-02  0.49711805552E+00  0.49714506280E+00  0.51109989000E-03 0.  1.
     -623    1    1    2    0    0 -0.13327355416E-01 -0.10437652943E-01  0.33045667090E-02  0.17130000087E+03  0.17130000000E+03 0.  1.
      622    1    1    2    0    0  0.14310569094E-01  0.15499709125E-01  0.34995773451E+01  0.35028540689E+01  0.15000000000E+00 0.  1.
</event>
<event>
 5   0  0.6780500E+06  0.9118800E+02  0.7818608E-02  0.1180000E+00
       11   -1    0    0    0    0  0.00000000000E+00  0.00000000000E+00  0.39999999673E+01  0.40000000000E+01  0.51109989000E-03 0. -1.
     -623   -1    0    0    0    0  0.00000000000E+00  0.00000000000E+00  0.12525980253E-10  0.17130000000E+03  0.17130000000E+03 0. -1.
       11    1    1    2    0    0  0.11335831950E-02 -0.11301148321E-02  0.32173526373E-02  0.36297038680E-02  0.51109989000E-03 0. -1.
     -623    1    1    2    0    0 -0.27578787557E-02 -0.20967514011E-02  0.32300647502E-02  0.17130000007E+03  0.17130000000E+03 0. -1.
      622    1    1    2    0    0  0.16242955607E-02  0.32268662331E-02  0.39935525500E+01  0.39963702306E+01  0.15000000000E+00 0. -1.
</event>
<event>
 5   0  0.6780500E+06  0.9118800E+02  0.7818608E-02  0.1180000E+00
       11   -1    0    0    0    0  0.00000000000E+00  0.00000000000E+00  0.39999999673E+01  0.40000000000E+01  0.51109989000E-03 0. -1.
     -623   -1    0    0    0    0  0.00000000000E+00  0.00000000000E+00  0.12525980253E-10  0.17130000000E+03  0.17130000000E+03 0.  1.
       11    1    1    2    0    0  0.61064602621E-02 -0.36354603989E-02  0.50176029970E-01  0.50679390642E-01  0.51109989000E-03 0. -1.
     -623    1    1    2    0    0 -0.39228735362E-02  0.19442340608E-01  0.33863899411E-02  0.17130000118E+03  0.17130000000E+03 0.  1.
      622    1    1    2    0    0 -0.21835867258E-02 -0.15806880210E-01  0.39464375475E+01  0.39493194277E+01  0.15000000000E+00 0. -1.
</event>
<event>
 5   0  0.6780500E+06  0.9118800E+02  0.7818608E-02  0.1180000E+00
       11   -1    0    0    0    0  0.00000000000E+00  0.00000000000E+00  0.39999999673E+01  0.40000000000E+01  0.51109989000E-03 0. -1.
     -623   -1    0    0    0    0  0.00000000000E+00  0.00000000000E+00  0.12525980253E-10  0.17130000000E+03  0.17130000000E+03 0. -1.
       11    1    1    2    0    0 -0.32911953300E-03 -0.17900343590E-01  0.61907948242E+00  0.61933851600E+00  0.51109989000E-03 0. -1.
     -623    1    1    2    0    0  0.29964661593E-01  0.52687492181E-02  0.37447858782E-02  0.17130000274E+03  0.17130000000E+03 0. -1.
      622    1    1    2    0    0 -0.29635542060E-01  0.12631594372E-01  0.33771756991E+01  0.33806587413E+01  0.15000000000E+00 0. -1.
</event>
<event>
 5   0  0.6780500E+06  0.9118800E+02  0.7818608E-02  0.1180000E+00
       11   -1    0    0    0    0  0.00000000000E+00  0.00000000000E+00  0.39999999673E+01  0.40000000000E+01  0.51109989000E-03 0.  1.
     -623   -1    0    0    0    0  0.00000000000E+00  0.00000000000E+00  0.12525980253E-10  0.17130000000E+03  0.17130000000E+03 0. -1.
       11    1    1    2    0    0  0.26442461142E-02  0.10344829257E-02  0.35541365014E-03  0.29068426852E-02  0.51109989000E-03 0.  1.
     -623    1    1    2    0    0 -0.72331089407E-02 -0.34286897125E-02  0.53705583184E-02  0.17130000027E+03  0.17130000000E+03 0. -1.
      622    1    1    2    0    0  0.45888628267E-02  0.23942067869E-02  0.39942739955E+01  0.39970928862E+01  0.15000000000E+00 0.  1.
</event>
<event>
 5   0  0.6780500E+06  0.9118800E+02  0.7818608E-02  0.1180000E+00
       11   -1    0    0    0    0  0.00000000000E+00  0.00000000000E+00  0.39999999673E+01  0.40000000000E+01  0.51109989000E-03 0.  1.
     -623   -1    0    0    0    0  0.00000000000E+00  0.00000000000E+00  0.12525980253E-10  0.17130000000E+03  0.17130000000E+03 0.  1.
       11    1    1    2    0    0 -0.64845934976E-02  0.70208083987E-01  0.13347074535E+00  0.15095007816E+00  0.51109989000E-03 0.  1.
     -623    1    1    2    0    0 -0.36770197321E-01  0.20550980842E-01  0.21724071943E-01  0.17130000656E+03  0.17130000000E+03 0.  1.
      622    1    1    2    0    0  0.43254790819E-01 -0.90759064829E-01  0.38448051501E+01  0.38490433651E+01  0.15000000000E+00 0.  1.
</event>
<event>
 5   0  0.6780500E+06  0.9118800E+02  0.7818608E-02  0.1180000E+00
       11   -1    0    0    0    0  0.00000000000E+00  0.00000000000E+00  0.39999999673E+01  0.40000000000E+01  0.51109989000E-03 0.  1.
     -623   -1    0    0    0    0  0.00000000000E+00  0.00000000000E+00  0.12525980253E-10  0.17130000000E+03  0.17130000000E+03 0. -1.
       11    1    1    2    0    0 -0.20722338350E-01 -0.39995229777E-01  0.93947134403E+00  0.94055074354E+00  0.51109989000E-03 0.  1.
     -623    1    1    2    0    0  0.22896616318E-01 -0.27344940579E-02  0.50598799251E-02  0.17130000163E+03  0.17130000000E+03 0. -1.
      622    1    1    2    0    0 -0.21742779683E-02  0.42729723834E-01  0.30554687435E+01  0.30594476297E+01  0.15000000000E+00 0.  1.
</event>
<event>
 5   0  0.6780500E+06  0.9118800E+02  0.7818608E-02  0.1180000E+00
       11   -1    0    0    0    0  0.00000000000E+00  0.00000000000E+00  0.39999999673E+01  0.40000000000E+01  0.51109989000E-03 0. -1.
     -623   -1    0    0    0    0  0.00000000000E+00  0.00000000000E+00  0.12525980253E-10  0.17130000000E+03  0.17130000000E+03 0. -1.
       11    1    1    2    0    0 -0.84911593596E-02  0.38585167505E-03  0.12346987827E+00  0.12376316387E+00  0.51109989000E-03 0. -1.
     -623    1    1    2    0    0  0.23809619946E-02  0.13789319052E-02  0.32019132857E-02  0.17130000005E+03  0.17130000000E+03 0. -1.
      622    1    1    2    0    0  0.61101973649E-02 -0.17647835803E-02  0.38733281760E+01  0.38762367843E+01  0.15000000000E+00 0. -1.
</event>
<event>
 5   0  0.6780500E+06  0.9118800E+02  0.7818608E-02  0.1180000E+00
       11   -1    0    0    0    0  0.00000000000E+00  0.00000000000E+00  0.39999999673E+01  0.40000000000E+01  0.51109989000E-03 0. -1.
     -623   -1    0    0    0    0  0.00000000000E+00  0.00000000000E+00  0.12525980253E-10  0.17130000000E+03  0.17130000000E+03 0.  1.
       11    1    1    2    0    0  0.30108705681E-02  0.62446252086E-01  0.25950329244E+00  0.26692849183E+00  0.51109989000E-03 0. -1.
     -623    1    1    2    0    0 -0.93681828940E-02  0.17923842795E-01  0.11312928478E-01  0.17130000157E+03  0.17130000000E+03 0.  1.
      622    1    1    2    0    0  0.63573123259E-02 -0.80370094881E-01  0.37291837464E+01  0.37330699407E+01  0.15000000000E+00 0. -1.
</event>
<event>
 5   0  0.6780500E+06  0.9118800E+02  0.7818608E-02  0.1180000E+00
       11   -1    0    0    0    0  0.00000000000E+00  0.00000000000E+00  0.39999999673E+01  0.40000000000E+01  0.51109989000E-03 0.  1.
     -623   -1    0    0    0    0  0.00000000000E+00  0.00000000000E+00  0.12525980253E-10  0.17130000000E+03  0.17130000000E+03 0.  1.
       11    1    1    2    0    0 -0.90309450139E-02 -0.44429816956E-01  0.14871424468E+00  0.15547268054E+00  0.51109989000E-03 0.  1.
     -623    1    1    2    0    0 -0.96735590872E-02  0.43137787857E-01  0.97374944146E-02  0.17130000598E+03  0.17130000000E+03 0.  1.
      622    1    1    2    0    0  0.18704504101E-01  0.12920290992E-02  0.38415482283E+01  0.38445213380E+01  0.15000000000E+00 0.  1.
</event>
<event>
 5   0  0.6780500E+06  0.9118800E+02  0.7818608E-02  0.1180000E+00
       11   -1    0    0    0    0  0.00000000000E+00  0.00000000000E+00  0.39999999673E+01  0.40000000000E+01  0.51109989000E-03 0. -1.
     -623   -1    0    0    0    0  0.00000000000E+00  0.00000000000E+00  0.12525980253E-10  0.17130000000E+03  0.17130000000E+03 0. -1.
       11    1    1    2    0    0  0.12319932182E-01  0.31133931346E-01  0.29377161206E-01  0.44546394171E-01  0.51109989000E-03 0. -1.
     -623    1    1    2    0    0 -0.22569602274E-01 -0.33001282512E-01  0.18033747616E-01  0.17130000561E+03  0.17130000000E+03 0. -1.
      622    1    1    2    0    0  0.10249670092E-01  0.18673511659E-02  0.39525890585E+01  0.39554479909E+01  0.15000000000E+00 0. -1.
</event>
<event>
 5   0  0.6780500E+06  0.9118800E+02  0.7818608E-02  0.1180000E+00
       11   -1    0    0    0    0  0.00000000000E+00  0.00000000000E+00  0.39999999673E+01  0.40000000000E+01  0.51109989000E-03 0. -1.
     -623   -1    0    0    0    0  0.00000000000E+00  0.00000000000E+00  0.12525980253E-10  0.17130000000E+03  0.17130000000E+03 0.  1.
       11    1    1    2    0    0 -0.18927997356E-02 -0.77789956520E-02  0.32898096912E+00  0.32907876675E+00  0.51109989000E-03 0. -1.
     -623    1    1    2    0    0 -0.19674576672E-01 -0.72524299545E-02  0.32591975995E-02  0.17130000131E+03  0.17130000000E+03 0.  1.
      622    1    1    2    0    0  0.21567376408E-01  0.15031425606E-01  0.36677598006E+01  0.36709199189E+01  0.15000000000E+00 0. -1.
</event>
<event>
 5   0  0.6780500E+06  0.9118800E+02  0.7818608E-02  0.1180000E+00
       11   -1    0    0    0    0  0.00000000000E+00  0.00000000000E+00  0.39999999673E+01  0.40000000000E+01  0.51109989000E-03 0. -1.
     -623   -1    0    0    0    0  0.00000000000E+00  0.00000000000E+00  0.12525980253E-10  0.17130000000E+03  0.17130000000E+03 0. -1.
       11    1    1    2    0    0  0.96648189307E-02  0.74350471323E-02  0.26065959503E-01  0.28781662890E-01  0.51109989000E-03 0. -1.
     -623    1    1    2    0    0 -0.10977747319E-01  0.29768046412E-01  0.57272101078E-02  0.17130000303E+03  0.17130000000E+03 0. -1.
      622    1    1    2    0    0  0.13129283888E-02 -0.37203093545E-01  0.39682067978E+01  0.39712153032E+01  0.15000000000E+00 0. -1.
</event>
<event>
 5   0  0.6780500E+06  0.9118800E+02  0.7818608E-02  0.1180000E+00
       11   -1    0    0    0    0  0.00000000000E+00  0.00000000000E+00  0.39999999673E+01  0.40000000000E+01  0.51109989000E-03 0.  1.
     -623   -1    0    0    0    0  0.00000000000E+00  0.00000000000E+00  0.12525980253E-10  0.17130000000E+03  0.17130000000E+03 0.  1.
       11    1    1    2    0    0 -0.18466765145E-01  0.11659300221E-01  0.39098213742E-01  0.44787188315E-01  0.51109989000E-03 0.  1.
     -623    1    1    2    0    0  0.24090961238E-01 -0.24675994223E-01  0.85634372669E-02  0.17130000369E+03  0.17130000000E+03 0.  1.
      622    1    1    2    0    0 -0.56241960935E-02  0.13016694002E-01  0.39523383164E+01  0.39552091263E+01  0.15000000000E+00 0.  1.
</event>
<event>
 5   0  0.6780500E+06  0.9118800E+02  0.7818608E-02  0.1180000E+00
       11   -1    0    0    0    0  0.00000000000E+00  0.00000000000E+00  0.39999999673E+01  0.40000000000E+01  0.51109989000E-03 0.  1.
     -623   -1    0    0    0    0  0.00000000000E+00  0.00000000000E+00  0.12525980253E-10  0.17130000000E+03  0.17130000000E+03 0. -1.
       11    1    1    2    0    0  0.39197824599E-01 -0.13671721692E-02  0.12559205429E+00  0.13157493659E+00  0.51109989000E-03 0.  1.
     -623    1    1    2    0    0 -0.26700939700E-01 -0.12208935525E-01  0.89388965462E-02  0.17130000275E+03  0.17130000000E+03 0. -1.
      622    1    1    2    0    0 -0.12496884900E-01  0.13576107694E-01  0.38654690165E+01  0.38684223141E+01  0.15000000000E+00 0.  1.
</event>
<event>
 5   0  0.6780500E+06  0.9118800E+02  0.7818608E-02  0.1180000E+00
       11   -1    0    0    0    0  0.00000000000E+00  0.00000000000E+00  0.39999999673E+01  0.40000000000E+01  0.51109989000E-03 0. -1.
     -623   -1    0    0    0    0  0.00000000000E+00  0.00000000000E+00  0.12525980253E-10  0.17130000000E+03  0.17130000000E+03 0. -1.
       11    1    1    2    0    0 -0.82597181237E-02  0.19944238775E-01  0.91094751113E-01  0.93618964464E-01  0.51109989000E-03 0. -1.
     -623    1    1    2    0    0  0.28777870180E-01 -0.20080105488E-01  0.54627585488E-02  0.17130000368E+03  0.17130000000E+03 0. -1.
      622    1    1    2    0    0 -0.20518152057E-01  0.13586671315E-03  0.39034424578E+01  0.39063773543E+01  0.15000000000E+00 0. -1.
</event>
<event>
 5   0  0.6780500E+06  0.9118800E+02  0.7818608E-02  0.1180000E+00
       11   -1    0    0    0    0  0.00000000000E+00  0.00000000000E+00  0.39999999673E+01  0.40000000000E+01  0.51109989000E-03 0. -1.
     -623   -1    0    0    0    0  0.00000000000E+00  0.00000000000E+00  0.12525980253E-10  0.17130000000E+03  0.17130000000E+03 0.  1.
       11    1    1    2    0    0 -0.13402132283E-01 -0.22659636574E-02  0.23265902007E-01  0.26950234885E-01  0.51109989000E-03 0. -1.
     -623    1    1    2    0    0  0.10849754737E-01  0.52029957143E-02  0.65193417667E-02  0.17130000055E+03  0.17130000000E+03 0.  1.
      622    1    1    2    0    0  0.25523775459E-02 -0.29370320569E-02  0.39702147236E+01  0.39730492185E+01  0.15000000000E+00 0. -1.
</event>
<event>
 5   0  0.6780500E+06  0.9118800E+02  0.7818608E-02  0.1180000E+00
       11   -1    0    0    0    0  0.00000000000E+00  0.00000000000E+00  0.39999999673E+01  0.40000000000E+01  0.51109989000E-03 0. -1.
     -623   -1    0    0    0    0  0.00000000000E+00  0.00000000000E+00  0.12525980253E-10  0.17130000000E+03  0.17130000000E+03 0. -1.
       11    1    1    2    0    0  0.18195875748E-02  0.35566073636E-02  0.24273719714E+00  0.24277060870E+00  0.51109989000E-03 0. -1.
     -623    1    1    2    0    0  0.42937552841E-02  0.18471952967E-01  0.30994853776E-02  0.17130000108E+03  0.17130000000E+03 0. -1.
      622    1    1    2    0    0 -0.61133428589E-02 -0.22028560330E-01  0.37541632848E+01  0.37572283135E+01  0.15000000000E+00 0. -1.
</event>
<event>
 5   0  0.6780500E+06  0.9118800E+02  0.7818608E-02  0.1180000E+00
       11   -1    0    0    0    0  0.00000000000E+00  0.00000000000E+00  0.39999999673E+01  0.40000000000E+01  0.51109989000E-03 0. -1.
     -623   -1    0    0    0    0  0.00000000000E+00  0.00000000000E+00  0.12525980253E-10  0.17130000000E+03  0.17130000000E+03 0. -1.
       11    1    1    2    0    0 -0.54998184858E-01 -0.55274023810E-01  0.11663319743E+01  0.11689356499E+01  0.51109989000E-03 0. -1.
     -623    1    1    2    0    0  0.14951693865E-01  0.33517294803E-01  0.69516616876E-02  0.17130000407E+03  0.17130000000E+03 0. -1.
      622    1    1    2    0    0  0.40046490993E-01  0.21756729007E-01  0.28267163314E+01  0.28310602775E+01  0.15000000000E+00 0. -1.
</event>
<event>
 5   0  0.6780500E+06  0.9118800E+02  0.7818608E-02  0.1180000E+00
       11   -1    0    0    0    0  0.00000000000E+00  0.00000000000E+00  0.39999999673E+01  0.40000000000E+01  0.51109989000E-03 0.  1.
     -623   -1    0    0    0    0  0.00000000000E+00  0.00000000000E+00  0.12525980253E-10  0.17130000000E+03  0.17130000000E+03 0.  1.
       11    1    1    2    0    0  0.38731711035E-02  0.36976006926E-04 -0.10384006767E-02  0.40425636278E-02  0.51109989000E-03 0.  1.
     -623    1    1    2    0    0 -0.72237052452E-02  0.12717278555E-03  0.78990131997E-02  0.17130000033E+03  0.17130000000E+03 0.  1.
      622    1    1    2    0    0  0.33505341417E-02 -0.16414879247E-03  0.39931393548E+01  0.39959571019E+01  0.15000000000E+00 0.  1.
</event>
<event>
 5   0  0.6780500E+06  0.9118800E+02  0.7818608E-02  0.1180000E+00
       11   -1    0    0    0    0  0.00000000000E+00  0.00000000000E+00  0.39999999673E+01  0.40000000000E+01  0.51109989000E-03 0. -1.
     -623   -1    0    0    0    0  0.00000000000E+00  0.00000000000E+00  0.12525980253E-10  0.17130000000E+03  0.17130000000E+03 0. -1.
       11    1    1    2    0    0  0.20091038127E-01  0.73004117208E-02  0.83428761099E-01  0.86125287958E-01  0.51109989000E-03 0. -1.
     -623    1    1    2    0    0  0.19700832156E-01 -0.16851811381E-01  0.57880982894E-02  0.17130000206E+03  0.17130000000E+03 0. -1.
      622    1    1    2    0    0 -0.39791870283E-01  0.95513996600E-02  0.39107831080E+01  0.39138726525E+01  0.15000000000E+00 0. -1.
</event>
<event>
 5   0  0.6780500E+06  0.9118800E+02  0.7818608E-02  0.1180000E+00
       11   -1    0    0    0    0  0.00000000000E+00  0.00000000000E+00  0.39999999673E+01  0.40000000000E+01  0.51109989000E-03 0.  1.
     -623   -1    0    0    0    0  0.00000000000E+00  0.00000000000E+00  0.12525980253E-10  0.17130000000E+03  0.17130000000E+03 0.  1.
       11    1    1    2    0    0  0.80783438416E-02 -0.81951883611E-02  0.21124934474E+00  0.21156315280E+00  0.51109989000E-03 0.  1.
     -623    1    1    2    0    0  0.74195262807E-02 -0.15646119758E-02  0.33290092706E-02  0.17130000020E+03  0.17130000000E+03 0.  1.
      622    1    1    2    0    0 -0.15497870122E-01  0.97598003370E-02  0.37854216134E+01  0.37884366470E+01  0.15000000000E+00 0.  1.
</event>
<event>
 5   0  0.6780500E+06  0.9118800E+02  0.7818608E-02  0.1180000E+00
       11   -1    0    0    0    0  0.00000000000E+00  0.00000000000E+00  0.39999999673E+01  0.40000000000E+01  0.51109989000E-03 0. -1.
     -623   -1    0    0    0    0  0.00000000000E+00  0.00000000000E+00  0.12525980253E-10  0.17130000000E+03  0.17130000000E+03 0.  1.
       11    1    1    2    0    0  0.10802352069E-01  0.17102848763E-01  0.50190274240E+00  0.50231048397E+00  0.51109989000E-03 0. -1.
     -623    1    1    2    0    0 -0.41055296859E-02 -0.12748550041E-02  0.36679545734E-02  0.17130000009E+03  0.17130000000E+03 0.  1.
      622    1    1    2    0    0 -0.66968223830E-02 -0.15827993759E-01  0.34944292705E+01  0.34976894229E+01  0.15000000000E+00 0. -1.
</event>
<event>
 5   0  0.6780500E+06  0.9118800E+02  0.7818608E-02  0.1180000E+00
       11   -1    0    0    0    0  0.00000000000E+00  0.00000000000E+00  0.39999999673E+01  0.40000000000E+01  0.51109989000E-03 0. -1.
     -623   -1    0    0    0    0  0.00000000000E+00  0.00000000000E+00  0.12525980253E-10  0.17130000000E+03  0.17130000000E+03 0.  1.
       11    1    1    2    0    0 -0.57053831960E-02  0.41968916247E-02  0.18792423571E-01  0.20089343033E-01  0.51109989000E-03 0. -1.
     -623    1    1    2    0    0  0.28615454197E-02 -0.44567352010E-02  0.41257448679E-02  0.17130000013E+03  0.17130000000E+03 0.  1.
      622    1    1    2    0    0  0.28438377763E-02  0.25984357619E-03  0.39770817989E+01  0.39799105254E+01  0.15000000000E+00 0. -1.
</event>
<event>
 5   0  0.6780500E+06  0.9118800E+02  0.7818608E-02  0.1180000E+00
       11   -1    0    0    0    0  0.00000000000E+00  0.00000000000E+00  0.39999999673E+01  0.40000000000E+01  0.51109989000E-03 0. -1.
     -623   -1    0    0    0    0  0.00000000000E+00  0.00000000000E+00  0.12525980253E-10  0.17130000000E+03  0.17130000000E+03 0.  1.
       11    1    1    2    0    0  0.62353990333E-02  0.73946164535E-02  0.99544314240E-02  0.13889293779E-01  0.51109989000E-03 0. -1.
     -623    1    1    2    0    0  0.79127879290E-02 -0.98290174207E-02  0.67845993953E-02  0.17130000060E+03  0.17130000000E+03 0.  1.
      622    1    1    2    0    0 -0.14148186962E-01  0.24344009671E-02  0.39832609365E+01  0.39861101071E+01  0.15000000000E+00 0. -1.
</event>
<event>
 5   0  0.6780500E+06  0.9118800E+02  0.7818608E-02  0.1180000E+00
       11   -1    0    0    0    0  0.00000000000E+00  0.00000000000E+00  0.39999999673E+01  0.40000000000E+01  0.51109989000E-03 0.  1.
     -623   -1    0    0    0    0  0.00000000000E+00  0.00000000000E+00  0.12525980253E-10  0.17130000000E+03  0.17130000000E+03 0.  1.
       11    1    1    2    0    0 -0.79408809817E-02  0.84625271272E-02  0.25278615647E+00  0.25305290767E+00  0.51109989000E-03 0.  1.
     -623    1    1    2    0    0  0.37282171229E-02 -0.17573246067E-01  0.32847963481E-02  0.17130000097E+03  0.17130000000E+03 0.  1.
      622    1    1    2    0    0  0.42126638588E-02  0.91107189400E-02  0.37439290146E+01  0.37469461189E+01  0.15000000000E+00 0.  1.
</event>
<event>
 5   0  0.6780500E+06  0.9118800E+02  0.7818608E-02  0.1180000E+00
       11   -1    0    0    0    0  0.00000000000E+00  0.00000000000E+00  0.39999999673E+01  0.40000000000E+01  0.51109989000E-03 0. -1.
     -623   -1    0    0    0    0  0.00000000000E+00  0.00000000000E+00  0.12525980253E-10  0.17130000000E+03  0.17130000000E+03 0.  1.
       11    1    1    2    0    0 -0.35523024801E-01 -0.25439032592E-01  0.17991300538E+00  0.18514313489E+00  0.51109989000E-03 0. -1.
     -623    1    1    2    0    0  0.12630147975E-01 -0.88779764940E-02  0.84043572086E-02  0.17130000090E+03  0.17130000000E+03 0.  1.
      622    1    1    2    0    0  0.22892876826E-01  0.34317009086E-01  0.38116826048E+01  0.38148559633E+01  0.15000000000E+00 0. -1.
</event>
<event>
 5   0  0.6780500E+06  0.9118800E+02  0.7818608E-02  0.1180000E+00
       11   -1    0    0    0    0  0.00000000000E+00  0.00000000000E+00  0.39999999673E+01  0.40000000000E+01  0.51109989000E-03 0.  1.
     -623   -1    0    0    0    0  0.00000000000E+00  0.00000000000E+00  0.12525980253E-10  0.17130000000E+03  0.17130000000E+03 0. -1.
       11    1    1    2    0    0 -0.76062837788E-02 -0.12868108614E-01  0.98127571647E-02  0.17888409613E-01  0.51109989000E-03 0.  1.
     -623    1    1    2    0    0  0.18723778376E-01  0.18972460875E-01  0.10924393436E-01  0.17130000242E+03  0.17130000000E+03 0. -1.
      622    1    1    2    0    0 -0.11117494597E-01 -0.61043522616E-02  0.39792628168E+01  0.39821091681E+01  0.15000000000E+00 0.  1.
</event>
<event>
 5   0  0.6780500E+06  0.9118800E+02  0.7818608E-02  0.1180000E+00
       11   -1    0    0    0    0  0.00000000000E+00  0.00000000000E+00  0.39999999673E+01  0.40000000000E+01  0.51109989000E-03 0. -1.
     -623   -1    0    0    0    0  0.00000000000E+00  0.00000000000E+00  0.12525980253E-10  0.17130000000E+03  0.17130000000E+03 0.  1.
       11    1    1    2    0    0 -0.68181289345E-02  0.48088671741E-02  0.20304380452E-01  0.21957713269E-01  0.51109989000E-03 0. -1.
     -623    1    1    2    0    0  0.17737425716E-01  0.10309896700E-01  0.45273670329E-02  0.17130000129E+03  0.17130000000E+03 0.  1.
      622    1    1    2    0    0 -0.10919296782E-01 -0.15118763874E-01  0.39751682199E+01  0.39780409983E+01  0.15000000000E+00 0. -1.
</event>
<event>
 5   0  0.6780500E+06  0.9118800E+02  0.7818608E-02  0.1180000E+00
       11   -1    0    0    0    0  0.00000000000E+00  0.00000000000E+00  0.39999999673E+01  0.40000000000E+01  0.51109989000E-03 0. -1.
     -623   -1    0    0    0    0  0.00000000000E+00  0.00000000000E+00  0.12525980253E-10  0.17130000000E+03  0.17130000000E+03 0.  1.
       11    1    1    2    0    0 -0.36206283175E-02  0.36560412655E-01  0.13439412006E+00  0.13932628414E+00  0.51109989000E-03 0. -1.
     -623    1    1    2    0    0  0.45184565182E-02  0.63678031966E-02  0.80865596334E-02  0.17130000037E+03  0.17130000000E+03 0.  1.
      622    1    1    2    0    0 -0.89782820068E-03 -0.42928215852E-01  0.38575192877E+01  0.38606733470E+01  0.15000000000E+00 0. -1.
</event>
<event>
 5   0  0.6780500E+06  0.9118800E+02  0.7818608E-02  0.1180000E+00
       11   -1    0    0    0    0  0.00000000000E+00  0.00000000000E+00  0.39999999673E+01  0.40000000000E+01  0.51109989000E-03 0. -1.
     -623   -1    0    0    0    0  0.00000000000E+00  0.00000000000E+00  0.12525980253E-10  0.17130000000E+03  0.17130000000E+03 0.  1.
       11    1    1    2    0    0  0.55070171580E-01 -0.96188001301E-02  0.94107707598E+00  0.94273621405E+00  0.51109989000E-03 0. -1.
     -623    1    1    2    0    0 -0.50291744626E-02  0.13905271373E-01  0.57548828541E-02  0.17130000073E+03  0.17130000000E+03 0.  1.
      622    1    1    2    0    0 -0.50040997117E-01 -0.42864712427E-02  0.30531680085E+01  0.30572630511E+01  0.15000000000E+00 0.  0.
</event>
<event>
 5   0  0.6780500E+06  0.9118800E+02  0.7818608E-02  0.1180000E+00
       11   -1    0    0    0    0  0.00000000000E+00  0.00000000000E+00  0.39999999673E+01  0.40000000000E+01  0.51109989000E-03 0. -1.
     -623   -1    0    0    0    0  0.00000000000E+00  0.00000000000E+00  0.12525980253E-10  0.17130000000E+03  0.17130000000E+03 0. -1.
       11    1    1    2    0    0  0.24630387657E-01  0.11626832917E-01  0.38606369753E+00  0.38702361558E+00  0.51109989000E-03 0. -1.
     -623    1    1    2    0    0  0.40058203292E-02 -0.32813115745E-02  0.41983656344E-02  0.17130000013E+03  0.17130000000E+03 0. -1.
      622    1    1    2    0    0 -0.28636207986E-01 -0.83455213421E-02  0.36097379042E+01  0.36129762547E+01  0.15000000000E+00 0. -1.
</event>
<event>
 5   0  0.6780500E+06  0.9118800E+02  0.7818608E-02  0.1180000E+00
       11   -1    0    0    0    0  0.00000000000E+00  0.00000000000E+00  0.39999999673E+01  0.40000000000E+01  0.51109989000E-03 0.  1.
     -623   -1    0    0    0    0  0.00000000000E+00  0.00000000000E+00  0.12525980253E-10  0.17130000000E+03  0.17130000000E+03 0. -1.
       11    1    1    2    0    0 -0.12168558741E-02 -0.17588113686E-01  0.51277124238E-01  0.54225705818E-01  0.51109989000E-03 0.  1.
     -623    1    1    2    0    0 -0.63359775805E-03  0.30858302352E-01  0.58263781725E-02  0.17130000288E+03  0.17130000000E+03 0. -1.
      622    1    1    2    0    0  0.18504536321E-02 -0.13270188665E-01  0.39428964649E+01  0.39457714145E+01  0.15000000000E+00 0.  1.
</event>
<event>
 5   0  0.6780500E+06  0.9118800E+02  0.7818608E-02  0.1180000E+00
       11   -1    0    0    0    0  0.00000000000E+00  0.00000000000E+00  0.39999999673E+01  0.40000000000E+01  0.51109989000E-03 0. -1.
     -623   -1    0    0    0    0  0.00000000000E+00  0.00000000000E+00  0.12525980253E-10  0.17130000000E+03  0.17130000000E+03 0.  1.
       11    1    1    2    0    0  0.12577879497E-01  0.46676184943E-02  0.18390459293E-01  0.22769715219E-01  0.51109989000E-03 0. -1.
     -623    1    1    2    0    0 -0.14660276927E-01 -0.64714378592E-02  0.72106883202E-02  0.17130000090E+03  0.17130000000E+03 0.  1.
      622    1    1    2    0    0  0.20823974300E-02  0.18038193649E-02  0.39743988197E+01  0.39772293834E+01  0.15000000000E+00 0. -1.
</event>
<event>
 5   0  0.6780500E+06  0.9118800E+02  0.7818608E-02  0.1180000E+00
       11   -1    0    0    0    0  0.00000000000E+00  0.00000000000E+00  0.39999999673E+01  0.40000000000E+01  0.51109989000E-03 0. -1.
     -623   -1    0    0    0    0  0.00000000000E+00  0.00000000000E+00  0.12525980253E-10  0.17130000000E+03  0.17130000000E+03 0. -1.
       11    1    1    2    0    0 -0.48064906356E-02  0.37821164405E-02  0.68192693753E-02  0.91744435750E-02  0.51109989000E-03 0. -1.
     -623    1    1    2    0    0  0.12566476380E-01  0.85151775387E-02  0.52023652703E-02  0.17130000075E+03  0.17130000000E+03 0. -1.
      622    1    1    2    0    0 -0.77599857447E-02 -0.12297293979E-01  0.39879783327E+01  0.39908248049E+01  0.15000000000E+00 0. -1.
</event>
<event>
 5   0  0.6780500E+06  0.9118800E+02  0.7818608E-02  0.1180000E+00
       11   -1    0    0    0    0  0.00000000000E+00  0.00000000000E+00  0.39999999673E+01  0.40000000000E+01  0.51109989000E-03 0.  1.
     -623   -1    0    0    0    0  0.00000000000E+00  0.00000000000E+00  0.12525980253E-10  0.17130000000E+03  0.17130000000E+03 0. -1.
       11    1    1    2    0    0 -0.82471045062E-01  0.22769397277E-01  0.31046486233E+00  0.32203821309E+00  0.51109989000E-03 0.  1.
     -623    1    1    2    0    0 -0.62021238527E-02  0.81170932065E-02  0.15834195045E-01  0.17130000104E+03  0.17130000000E+03 0. -1.
      622    1    1    2    0    0  0.88673168915E-01 -0.30886490484E-01  0.36737009100E+01  0.36779607505E+01  0.15000000000E+00 0.  1.
</event>
<event>
 5   0  0.6780500E+06  0.9118800E+02  0.7818608E-02  0.1180000E+00
       11   -1    0    0    0    0  0.00000000000E+00  0.00000000000E+00  0.39999999673E+01  0.40000000000E+01  0.51109989000E-03 0. -1.
     -623   -1    0    0    0    0  0.00000000000E+00  0.00000000000E+00  0.12525980253E-10  0.17130000000E+03  0.17130000000E+03 0.  1.
       11    1    1    2    0    0  0.23603733170E-02 -0.21035343987E-01  0.67592607926E+00  0.67625763057E+00  0.51109989000E-03 0. -1.
     -623    1    1    2    0    0  0.71747532268E-03  0.46542395190E-02  0.37599240289E-02  0.17130000011E+03  0.17130000000E+03 0.  1.
      622    1    1    2    0    0 -0.30778486397E-02  0.16381104468E-01  0.33203139642E+01  0.33237422636E+01  0.15000000000E+00 0. -1.
</event>
<event>
 5   0  0.6780500E+06  0.9118800E+02  0.7818608E-02  0.1180000E+00
       11   -1    0    0    0    0  0.00000000000E+00  0.00000000000E+00  0.39999999673E+01  0.40000000000E+01  0.51109989000E-03 0.  1.
     -623   -1    0    0    0    0  0.00000000000E+00  0.00000000000E+00  0.12525980253E-10  0.17130000000E+03  0.17130000000E+03 0. -1.
       11    1    1    2    0    0 -0.28353716776E-02  0.28576554340E-02  0.26061280113E+00  0.26064439158E+00  0.51109989000E-03 0.  1.
     -623    1    1    2    0    0 -0.83900517527E-03  0.45554039715E-02  0.30505593046E-02  0.17130000009E+03  0.17130000000E+03 0. -1.
      622    1    1    2    0    0  0.36743768529E-02 -0.74130594055E-02  0.37363366069E+01  0.37393555186E+01  0.15000000000E+00 0.  1.
</event>
<event>
 5   0  0.6780500E+06  0.9118800E+02  0.7818608E-02  0.1180000E+00
       11   -1    0    0    0    0  0.00000000000E+00  0.00000000000E+00  0.39999999673E+01  0.40000000000E+01  0.51109989000E-03 0.  1.
     -623   -1    0    0    0    0  0.00000000000E+00  0.00000000000E+00  0.12525980253E-10  0.17130000000E+03  0.17130000000E+03 0. -1.
       11    1    1    2    0    0  0.39499526883E-01 -0.88713770676E-02  0.22191090035E+00  0.22557398536E+00  0.51109989000E-03 0.  1.
     -623    1    1    2    0    0 -0.29269928147E-01 -0.15391799357E-01  0.67400649417E-02  0.17130000332E+03  0.17130000000E+03 0. -1.
      622    1    1    2    0    0 -0.10229598736E-01  0.24263176425E-01  0.37713490021E+01  0.37744226899E+01  0.15000000000E+00 0.  1.
</event>
<event>
 5   0  0.6780500E+06  0.9118800E+02  0.7818608E-02  0.1180000E+00
       11   -1    0    0    0    0  0.00000000000E+00  0.00000000000E+00  0.39999999673E+01  0.40000000000E+01  0.51109989000E-03 0.  1.
     -623   -1    0    0    0    0  0.00000000000E+00  0.00000000000E+00  0.12525980253E-10  0.17130000000E+03  0.17130000000E+03 0.  1.
       11    1    1    2    0    0 -0.43787547651E-01 -0.17117644179E-01  0.29566728614E+00  0.29938231141E+00  0.51109989000E-03 0.  1.
     -623    1    1    2    0    0  0.22421764743E-01 -0.17083911532E-01  0.69786521684E-02  0.17130000246E+03  0.17130000000E+03 0.  1.
      622    1    1    2    0    0  0.21365782908E-01  0.34201555711E-01  0.36973540290E+01  0.37006152271E+01  0.15000000000E+00 0.  1.
</event>
<event>
 5   0  0.6780500E+06  0.9118800E+02  0.7818608E-02  0.1180000E+00
       11   -1    0    0    0    0  0.00000000000E+00  0.00000000000E+00  0.39999999673E+01  0.40000000000E+01  0.51109989000E-03 0. -1.
     -623   -1    0    0    0    0  0.00000000000E+00  0.00000000000E+00  0.12525980253E-10  0.17130000000E+03  0.17130000000E+03 0.  1.
       11    1    1    2    0    0  0.24517303382E-02 -0.55960626884E-02  0.87214135687E-02  0.10660730538E-01  0.51109989000E-03 0. -1.
     -623    1    1    2    0    0  0.27445869671E-02  0.89162591130E-02  0.47653874105E-02  0.17130000032E+03  0.17130000000E+03 0.  1.
      622    1    1    2    0    0 -0.51963173053E-02 -0.33201964245E-02  0.39865131664E+01  0.39893389491E+01  0.15000000000E+00 0. -1.
</event>
<event>
 5   0  0.6780500E+06  0.9118800E+02  0.7818608E-02  0.1180000E+00
       11   -1    0    0    0    0  0.00000000000E+00  0.00000000000E+00  0.39999999673E+01  0.40000000000E+01  0.51109989000E-03 0. -1.
     -623   -1    0    0    0    0  0.00000000000E+00  0.00000000000E+00  0.12525980253E-10  0.17130000000E+03  0.17130000000E+03 0. -1.
       11    1    1    2    0    0  0.32378003773E-02 -0.32832551198E-02  0.72907707480E-03  0.46963700816E-02  0.51109989000E-03 0. -1.
     -623    1    1    2    0    0 -0.21805331723E-01 -0.11040549594E-01  0.68548120087E-02  0.17130000188E+03  0.17130000000E+03 0. -1.
      622    1    1    2    0    0  0.18567531346E-01  0.14323804714E-01  0.39924160783E+01  0.39953017491E+01  0.15000000000E+00 0. -1.
</event>
<event>
 5   0  0.6780500E+06  0.9118800E+02  0.7818608E-02  0.1180000E+00
       11   -1    0    0    0    0  0.00000000000E+00  0.00000000000E+00  0.39999999673E+01  0.40000000000E+01  0.51109989000E-03 0. -1.
     -623   -1    0    0    0    0  0.00000000000E+00  0.00000000000E+00  0.12525980253E-10  0.17130000000E+03  0.17130000000E+03 0.  1.
       11    1    1    2    0    0 -0.13800762358E-01  0.15022484592E-01  0.17163899962E+00  0.17284774658E+00  0.51109989000E-03 0. -1.
     -623    1    1    2    0    0  0.13829749439E-01 -0.63754964867E-02  0.41598705473E-02  0.17130000073E+03  0.17130000000E+03 0.  1.
      622    1    1    2    0    0 -0.28987080331E-04 -0.86469881055E-02  0.38242010972E+01  0.38271515260E+01  0.15000000000E+00 0. -1.
</event>
<event>
 5   0  0.6780500E+06  0.9118800E+02  0.7818608E-02  0.1180000E+00
       11   -1    0    0    0    0  0.00000000000E+00  0.00000000000E+00  0.39999999673E+01  0.40000000000E+01  0.51109989000E-03 0.  1.
     -623   -1    0    0    0    0  0.00000000000E+00  0.00000000000E+00  0.12525980253E-10  0.17130000000E+03  0.17130000000E+03 0.  1.
       11    1    1    2    0    0  0.11037616571E-01 -0.30294999037E-02  0.27701453647E-01  0.29977301505E-01  0.51109989000E-03 0.  1.
     -623    1    1    2    0    0 -0.27052962440E-01  0.30947821039E-02  0.51451345285E-02  0.17130000224E+03  0.17130000000E+03 0.  1.
      622    1    1    2    0    0  0.16015345869E-01 -0.65282200167E-04  0.39671533792E+01  0.39700204571E+01  0.15000000000E+00 0.  1.
</event>
<event>
 5   0  0.6780500E+06  0.9118800E+02  0.7818608E-02  0.1180000E+00
       11   -1    0    0    0    0  0.00000000000E+00  0.00000000000E+00  0.39999999673E+01  0.40000000000E+01  0.51109989000E-03 0.  1.
     -623   -1    0    0    0    0  0.00000000000E+00  0.00000000000E+00  0.12525980253E-10  0.17130000000E+03  0.17130000000E+03 0.  1.
       11    1    1    2    0    0  0.42407945006E-02  0.22299873161E-02  0.56736166875E+00  0.56738213011E+00  0.51109989000E-03 0.  1.
     -623    1    1    2    0    0  0.15970148356E-01  0.78763594394E-02  0.33747861212E-02  0.17130000096E+03  0.17130000000E+03 0.  1.
      622    1    1    2    0    0 -0.20210942857E-01 -0.10106346755E-01  0.34292635124E+01  0.34326169110E+01  0.15000000000E+00 0.  1.
</event>
<event>
 5   0  0.6780500E+06  0.9118800E+02  0.7818608E-02  0.1180000E+00
       11   -1    0    0    0    0  0.00000000000E+00  0.00000000000E+00  0.39999999673E+01  0.40000000000E+01  0.51109989000E-03 0.  1.
     -623   -1    0    0    0    0  0.00000000000E+00  0.00000000000E+00  0.12525980253E-10  0.17130000000E+03  0.17130000000E+03 0. -1.
       11    1    1    2    0    0 -0.14575997397E-01 -0.87504045732E-02 -0.30311571353E-02  0.17276527920E-01  0.51109989000E-03 0.  1.
     -623    1    1    2    0    0 -0.13699946997E-01  0.19912005602E-01  0.23252739766E-01  0.17130000328E+03  0.17130000000E+03 0. -1.
      622    1    1    2    0    0  0.28275944394E-01 -0.11161601029E-01  0.39797783847E+01  0.39827201887E+01  0.15000000000E+00 0.  1.
</event>
<event>
 5   0  0.6780500E+06  0.9118800E+02  0.7818608E-02  0.1180000E+00
       11   -1    0    0    0    0  0.00000000000E+00  0.00000000000E+00  0.39999999673E+01  0.40000000000E+01  0.51109989000E-03 0. -1.
     -623   -1    0    0    0    0  0.00000000000E+00  0.00000000000E+00  0.12525980253E-10  0.17130000000E+03  0.17130000000E+03 0.  1.
       11    1    1    2    0    0 -0.37342229495E-02 -0.85720647957E-02  0.23324543634E-01  0.25134046128E-01  0.51109989000E-03 0. -1.
     -623    1    1    2    0    0  0.78251552179E-02  0.47151896967E-02  0.46450483857E-02  0.17130000031E+03  0.17130000000E+03 0.  1.
      622    1    1    2    0    0 -0.40909322686E-02  0.38568750989E-02  0.39720303754E+01  0.39748656473E+01  0.15000000000E+00 0. -1.
</event>
<event>
 5   0  0.6780500E+06  0.9118800E+02  0.7818608E-02  0.1180000E+00
       11   -1    0    0    0    0  0.00000000000E+00  0.00000000000E+00  0.39999999673E+01  0.40000000000E+01  0.51109989000E-03 0. -1.
     -623   -1    0    0    0    0  0.00000000000E+00  0.00000000000E+00  0.12525980253E-10  0.17130000000E+03  0.17130000000E+03 0.  1.
       11    1    1    2    0    0 -0.24882912289E-01 -0.43465729588E-01  0.92382465886E+00  0.92518143654E+00  0.51109989000E-03 0. -1.
     -623    1    1    2    0    0  0.12897279396E-01  0.40221673405E-02  0.52949837742E-02  0.17130000061E+03  0.17130000000E+03 0.  1.
      622    1    1    2    0    0  0.11985632892E-01  0.39443562248E-01  0.30708803247E+01  0.30748179489E+01  0.15000000000E+00 0.  0.
</event>
<event>
 5   0  0.6780500E+06  0.9118800E+02  0.7818608E-02  0.1180000E+00
       11   -1    0    0    0    0  0.00000000000E+00  0.00000000000E+00  0.39999999673E+01  0.40000000000E+01  0.51109989000E-03 0. -1.
     -623   -1    0    0    0    0  0.00000000000E+00  0.00000000000E+00  0.12525980253E-10  0.17130000000E+03  0.17130000000E+03 0. -1.
       11    1    1    2    0    0 -0.21743989150E-01 -0.17650576542E+00  0.58748236803E+00  0.61381013372E+00  0.51109989000E-03 0. -1.
     -623    1    1    2    0    0 -0.29808778199E-01  0.54138363171E-01  0.32272896629E-01  0.17130001419E+03  0.17130000000E+03 0. -1.
      622    1    1    2    0    0  0.51552767349E-01  0.12236740225E+00  0.33802447027E+01  0.33861756775E+01  0.15000000000E+00 0. -1.
</event>
<event>
 5   0  0.6780500E+06  0.9118800E+02  0.7818608E-02  0.1180000E+00
       11   -1    0    0    0    0  0.00000000000E+00  0.00000000000E+00  0.39999999673E+01  0.40000000000E+01  0.51109989000E-03 0. -1.
     -623   -1    0    0    0    0  0.00000000000E+00  0.00000000000E+00  0.12525980253E-10  0.17130000000E+03  0.17130000000E+03 0.  1.
       11    1    1    2    0    0  0.10830721537E-02  0.60627174826E-02  0.56372696281E-01  0.56710419657E-01  0.51109989000E-03 0. -1.
     -623    1    1    2    0    0  0.46809430448E-03  0.59898819135E-02  0.32105450293E-02  0.17130000014E+03  0.17130000000E+03 0.  1.
      622    1    1    2    0    0 -0.15511664581E-02 -0.12052599396E-01  0.39404167260E+01  0.39432894449E+01  0.15000000000E+00 0.  0.
</event>
<event>
 5   0  0.6780500E+06  0.9118800E+02  0.7818608E-02  0.1180000E+00
       11   -1    0    0    0    0  0.00000000000E+00  0.00000000000E+00  0.39999999673E+01  0.40000000000E+01  0.51109989000E-03 0.  1.
     -623   -1    0    0    0    0  0.00000000000E+00  0.00000000000E+00  0.12525980253E-10  0.17130000000E+03  0.17130000000E+03 0.  1.
       11    1    1    2    0    0 -0.19945901210E-02 -0.11563084185E-01  0.61092624459E-01  0.62211359830E-01  0.51109989000E-03 0.  1.
     -623    1    1    2    0    0  0.52588703563E-02  0.90501226830E-02  0.39791959560E-02  0.17130000037E+03  0.17130000000E+03 0.  1.
      622    1    1    2    0    0 -0.32642802354E-02  0.25129615014E-02  0.39349281470E+01  0.39377882742E+01  0.15000000000E+00 0.  1.
</event>
<event>
 5   0  0.6780500E+06  0.9118800E+02  0.7818608E-02  0.1180000E+00
       11   -1    0    0    0    0  0.00000000000E+00  0.00000000000E+00  0.39999999673E+01  0.40000000000E+01  0.51109989000E-03 0. -1.
     -623   -1    0    0    0    0  0.00000000000E+00  0.00000000000E+00  0.12525980253E-10  0.17130000000E+03  0.17130000000E+03 0.  1.
       11    1    1    2    0    0 -0.33281675253E-02  0.88097081417E-02  0.13158281760E+00  0.13192038040E+00  0.51109989000E-03 0. -1.
     -623    1    1    2    0    0  0.57816721181E-02  0.11383641623E-01  0.33010809425E-02  0.17130000051E+03  0.17130000000E+03 0.  1.
      622    1    1    2    0    0 -0.24535045928E-02 -0.20193349764E-01  0.38651160688E+01  0.38680791120E+01  0.15000000000E+00 0. -1.
</event>
<event>
 5   0  0.6780500E+06  0.9118800E+02  0.7818608E-02  0.1180000E+00
       11   -1    0    0    0    0  0.00000000000E+00  0.00000000000E+00  0.39999999673E+01  0.40000000000E+01  0.51109989000E-03 0. -1.
     -623   -1    0    0    0    0  0.00000000000E+00  0.00000000000E+00  0.12525980253E-10  0.17130000000E+03  0.17130000000E+03 0. -1.
       11    1    1    2    0    0  0.10520609125E-01 -0.15402969584E-01  0.49499519380E+00  0.49534678539E+00  0.51109989000E-03 0. -1.
     -623    1    1    2    0    0 -0.13469577083E-02  0.72730230247E-02  0.35847015722E-02  0.17130000020E+03  0.17130000000E+03 0. -1.
      622    1    1    2    0    0 -0.91736514169E-02  0.81299465587E-02  0.35014200721E+01  0.35046530175E+01  0.15000000000E+00 0. -1.
</event>
<event>
 5   0  0.6780500E+06  0.9118800E+02  0.7818608E-02  0.1180000E+00
       11   -1    0    0    0    0  0.00000000000E+00  0.00000000000E+00  0.39999999673E+01  0.40000000000E+01  0.51109989000E-03 0. -1.
     -623   -1    0    0    0    0  0.00000000000E+00  0.00000000000E+00  0.12525980253E-10  0.17130000000E+03  0.17130000000E+03 0. -1.
       11    1    1    2    0    0  0.39544345961E-02  0.28525592306E-02  0.64818907101E-02  0.81271629376E-02  0.51109989000E-03 0. -1.
     -623    1    1    2    0    0  0.35678854725E-03  0.87522499604E-02  0.44839539014E-02  0.17130000028E+03  0.17130000000E+03 0. -1.
      622    1    1    2    0    0 -0.43112231433E-02 -0.11604809191E-01  0.39890341228E+01  0.39918725545E+01  0.15000000000E+00 0. -1.
</event>
<event>
 5   0  0.6780500E+06  0.9118800E+02  0.7818608E-02  0.1180000E+00
       11   -1    0    0    0    0  0.00000000000E+00  0.00000000000E+00  0.39999999673E+01  0.40000000000E+01  0.51109989000E-03 0. -1.
     -623   -1    0    0    0    0  0.00000000000E+00  0.00000000000E+00  0.12525980253E-10  0.17130000000E+03  0.17130000000E+03 0. -1.
       11    1    1    2    0    0  0.91678473140E-01  0.86086181756E-02  0.97977080373E+00  0.98408848170E+00  0.51109989000E-03 0. -1.
     -623    1    1    2    0    0 -0.96870852116E-02 -0.51100213083E-02  0.91689074472E-02  0.17130000060E+03  0.17130000000E+03 0. -1.
      622    1    1    2    0    0 -0.81991387929E-01 -0.34985968673E-02  0.30110602562E+01  0.30159109228E+01  0.15000000000E+00 0.  0.
</event>
<event>
 5   0  0.6780500E+06  0.9118800E+02  0.7818608E-02  0.1180000E+00
       11   -1    0    0    0    0  0.00000000000E+00  0.00000000000E+00  0.39999999673E+01  0.40000000000E+01  0.51109989000E-03 0.  1.
     -623   -1    0    0    0    0  0.00000000000E+00  0.00000000000E+00  0.12525980253E-10  0.17130000000E+03  0.17130000000E+03 0.  1.
       11    1    1    2    0    0 -0.19888311741E-01 -0.33848430613E-01  0.11297556652E+00  0.11960351605E+00  0.51109989000E-03 0.  1.
     -623    1    1    2    0    0  0.22006654354E-01 -0.74069962973E-02  0.97500994492E-02  0.17130000185E+03  0.17130000000E+03 0.  1.
      622    1    1    2    0    0 -0.21183426124E-02  0.41255426910E-01  0.38772743014E+01  0.38803946327E+01  0.15000000000E+00 0.  1.
</event>
<event>
 5   0  0.6780500E+06  0.9118800E+02  0.7818608E-02  0.1180000E+00
       11   -1    0    0    0    0  0.00000000000E+00  0.00000000000E+00  0.39999999673E+01  0.40000000000E+01  0.51109989000E-03 0.  1.
     -623   -1    0    0    0    0  0.00000000000E+00  0.00000000000E+00  0.12525980253E-10  0.17130000000E+03  0.17130000000E+03 0.  1.
       11    1    1    2    0    0 -0.22707022140E-02 -0.18817760329E-03  0.56921825415E-02  0.61525330477E-02  0.51109989000E-03 0.  1.
     -623    1    1    2    0    0  0.28422517581E-02 -0.67252722819E-02  0.32843606250E-02  0.17130000019E+03  0.17130000000E+03 0.  1.
      622    1    1    2    0    0 -0.57154954407E-03  0.69134498852E-02  0.39910234242E+01  0.39938472799E+01  0.15000000000E+00 0.  1.
</event>
<event>
 5   0  0.6780500E+06  0.9118800E+02  0.7818608E-02  0.1180000E+00
       11   -1    0    0    0    0  0.00000000000E+00  0.00000000000E+00  0.39999999673E+01  0.40000000000E+01  0.51109989000E-03 0. -1.
     -623   -1    0    0    0    0  0.00000000000E+00  0.00000000000E+00  0.12525980253E-10  0.17130000000E+03  0.17130000000E+03 0.  1.
       11    1    1    2    0    0  0.27487839370E-02  0.26592789888E-02  0.44684182933E-02  0.59038600097E-02  0.51109989000E-03 0. -1.
     -623    1    1    2    0    0  0.45529782827E-03 -0.10125179651E-02  0.42547424927E-02  0.17130000006E+03  0.17130000000E+03 0.  1.
      622    1    1    2    0    0 -0.32040817653E-02 -0.16467610237E-02  0.39912768066E+01  0.39940960836E+01  0.15000000000E+00 0. -1.
</event>
<event>
 5   0  0.6780500E+06  0.9118800E+02  0.7818608E-02  0.1180000E+00
       11   -1    0    0    0    0  0.00000000000E+00  0.00000000000E+00  0.39999999673E+01  0.40000000000E+01  0.51109989000E-03 0. -1.
     -623   -1    0    0    0    0  0.00000000000E+00  0.00000000000E+00  0.12525980253E-10  0.17130000000E+03  0.17130000000E+03 0.  1.
       11    1    1    2    0    0 -0.55721305974E-02 -0.64350242113E-01  0.34178586856E+00  0.34783594332E+00  0.51109989000E-03 0. -1.
     -623    1    1    2    0    0  0.21019852774E-01  0.21657511016E-01  0.94170799887E-02  0.17130000292E+03  0.17130000000E+03 0.  1.
      622    1    1    2    0    0 -0.15447722177E-01  0.42692731097E-01  0.36487970188E+01  0.36521611391E+01  0.15000000000E+00 0. -1.
</event>
<event>
 5   0  0.6780500E+06  0.9118800E+02  0.7818608E-02  0.1180000E+00
       11   -1    0    0    0    0  0.00000000000E+00  0.00000000000E+00  0.39999999673E+01  0.40000000000E+01  0.51109989000E-03 0. -1.
     -623   -1    0    0    0    0  0.00000000000E+00  0.00000000000E+00  0.12525980253E-10  0.17130000000E+03  0.17130000000E+03 0.  1.
       11    1    1    2    0    0 -0.83010254780E-01  0.63794741216E-01  0.80057573643E+00  0.80739224816E+00  0.51109989000E-03 0. -1.
     -623    1    1    2    0    0 -0.12388801551E-01 -0.33695015421E-01  0.11915702825E-01  0.17130000418E+03  0.17130000000E+03 0.  1.
      622    1    1    2    0    0  0.95399056331E-01 -0.30099725795E-01  0.31875085281E+01  0.31926035755E+01  0.15000000000E+00 0. -1.
</event>
<event>
 5   0  0.6780500E+06  0.9118800E+02  0.7818608E-02  0.1180000E+00
       11   -1    0    0    0    0  0.00000000000E+00  0.00000000000E+00  0.39999999673E+01  0.40000000000E+01  0.51109989000E-03 0. -1.
     -623   -1    0    0    0    0  0.00000000000E+00  0.00000000000E+00  0.12525980253E-10  0.17130000000E+03  0.17130000000E+03 0.  1.
       11    1    1    2    0    0 -0.42138732302E-03  0.37625134419E-03 -0.66365271572E-03  0.10103417118E-02  0.51109989000E-03 0. -1.
     -623    1    1    2    0    0  0.31950200189E-02  0.31255143649E-02  0.44907766498E-02  0.17130000012E+03  0.17130000000E+03 0.  1.
      622    1    1    2    0    0 -0.27736326960E-02 -0.35017657091E-02  0.39961728435E+01  0.39989895412E+01  0.15000000000E+00 0. -1.
</event>
<event>
 5   0  0.6780500E+06  0.9118800E+02  0.7818608E-02  0.1180000E+00
       11   -1    0    0    0    0  0.00000000000E+00  0.00000000000E+00  0.39999999673E+01  0.40000000000E+01  0.51109989000E-03 0. -1.
     -623   -1    0    0    0    0  0.00000000000E+00  0.00000000000E+00  0.12525980253E-10  0.17130000000E+03  0.17130000000E+03 0. -1.
       11    1    1    2    0    0 -0.66624065251E-02  0.36826809269E-01  0.11358144198E+01  0.11364309301E+01  0.51109989000E-03 0. -1.
     -623    1    1    2    0    0 -0.41512733720E-01 -0.49318616100E-01  0.49931714850E-02  0.17130001220E+03  0.17130000000E+03 0. -1.
      622    1    1    2    0    0  0.48175140245E-01  0.12491806832E-01  0.28591923761E+01  0.28635568674E+01  0.15000000000E+00 0. -1.
</event>
<event>
 5   0  0.6780500E+06  0.9118800E+02  0.7818608E-02  0.1180000E+00
       11   -1    0    0    0    0  0.00000000000E+00  0.00000000000E+00  0.39999999673E+01  0.40000000000E+01  0.51109989000E-03 0.  1.
     -623   -1    0    0    0    0  0.00000000000E+00  0.00000000000E+00  0.12525980253E-10  0.17130000000E+03  0.17130000000E+03 0. -1.
       11    1    1    2    0    0  0.58026540877E-02 -0.56075695266E-02 -0.79241100022E-03  0.81243318955E-02  0.51109989000E-03 0.  1.
     -623    1    1    2    0    0  0.25998040348E-02  0.15847893705E-01  0.11759080496E-01  0.17130000116E+03  0.17130000000E+03 0. -1.
      622    1    1    2    0    0 -0.84024581225E-02 -0.10240324178E-01  0.39890332979E+01  0.39918745117E+01  0.15000000000E+00 0.  1.
</event>
</LesHouchesEvents>
