<LesHouchesEvents version="1.0">
<header>
<!--
#*********************************************************************
#                                                                    *
#                       MadGraph/MadEvent                            *
#                                                                    *
#                      The new web generation                        *
#                                                                    *
#                   http://madgraph.hep.uiuc.edu                     *
#                   http://madgraph.phys.ucl.ac.be                   *
#                   http://madgraph.roma2.infn.it                    *
#                                                                    *
#            CP3 team                      Tim Stelzer               *
#      Universite de Louvain          University of Illinois         *
#                                                                    *
#....................................................................*
#                                                                    *
# This file contains all the information necessary to reproduce      *
# the events generated:                                              *
#                                                                    *
# 1. software version                                                *
# 2. proc_card.dat      : code generation info including model       *
# 3. param_card.dat     : model primary parameters in the LH format  *
# 4. run_card.dat       : running parameters (collider and cuts)     *
# 5. pythia_card.dat    : present only in the pythia event file      *
# 6. pgs_card.dat       : present only in the pgs event file         *
#                                                                    *
#                                                                    *
#*********************************************************************
-->
<MGVersion>
# MG/ME version    : 4.4.17
# madgraph version : 4.4.2
# template version : 2.4.8
# helas version    : 3.5
# model version    : usrmod_1.0.4
</MGVersion>
<MGProcCard>
#*********************************************************************
#                        MadGraph/MadEvent                           *
#                   http://madgraph.hep.uiuc.edu                     *
#                                                                    *
#                          proc_card.dat                             *
#                                                                    *
# This file is used to generate the code for a specific process.     *
# Some notation/conventions:                                         *
#                                                                    *
# 0. Do not modify the TAGS and their order.                         *
# 1. hash/pound is a comment.                                        *
# 2. The number after the @ is used as an identifier for the class   *
#    of processes. It can be any positive integer.                   *
# 3. The number of lines for the max couplings depends on how many   *
#    different classes of couplings are present in the model         *
#    In the SM these are just two: QED (which include EW) and QCD    *
# 4. Write "end_coup" after  the couplings list,                     *
#    to tell MG that the couplings input is over.                    *
# 5. Write "done" after the proc list to                             *
#    to tell MG that the proc input is over.                         *
# 6. Some model names available at present are:                      *
#    sm     =  Standard Model                                        *
#    smckm =  Standard Model with Cabibbo matrix                     *
#    mssm   =  Minimal Supersymmetric Standard Model                 *
#    2hdm   =  Generic Two Higgs Doublet model                       *
#    heft   =  Higgs EFT (+Standard Model)                           *
#    usrmod =  User Model                                            *
# 7. Don't leave spaces between the particles name in the            *
#    definition of the multiparticles.                               *
#*********************************************************************
#*********************************************************************
# Process(es) requested : mg2 input                                  *
#*********************************************************************
# Begin PROCESS # This is TAG. Do not modify this line
e- N+ > e- N+ x      # Radiative
QCD=0             # Max QCD couplings
QED=1             # Max QED couplings
QFD=0 
QND=1
QWD=9
QDS=2
end_coup           # End the couplings input
done               # this tells MG there are no more procs
# End PROCESS  # This is TAG. Do not modify this line
#*********************************************************************
# Model information                                                  *
#*********************************************************************
# Begin MODEL  # This is TAG. Do not modify this line
fixedAP2     
# End   MODEL  # This is TAG. Do not modify this line
#*********************************************************************
# Start multiparticle definitions                                    *
#*********************************************************************
# Begin MULTIPARTICLES # This is TAG. Do not modify this line
P uu~cc~dd~ss~gf+f-
J uu~cc~dd~ss~gf+f-
L+ e+mu+
L- e-mu-
vl vevm
vl~ ve~vm~
# End  MULTIPARTICLES # This is TAG. Do not modify this line
</MGProcCard>
<slha>
#*********************************************************************
#                        MadGraph/MadEvent                           *
#                   http://madgraph.hep.uiuc.edu                     *
#                                                                    *
#                         param_card.dat                             *
#                                                                    *
#   Les Houches friendly file for the SM parameters of MadGraph      *
#        Spectrum and decay widths produced by SMCalc                *
#                                                                    *
#  Please note the following IMPORTANT issues:                       *
#                                                                    *
# 0. REFRAIN from editing this file by hand! Some of the parame-     *
#    ters are not independent                                        *
#    (such as G_Fermi, alpha_em, sin(theta_W),MZ,MW) and serious     *
#    problems might be encountered (such as violation of unitarity   *
#    or gauge invariance).  Always use a calculator.                 *
#                                                                    *
# 1. alpha_S(MZ) has been used in the calculation of the parameters  *
#    but, for consistency, it will be reset by madgraph to the       *
#    value expected IF the pdfs for collisions with hadrons are      *
#    used. This value is KEPT by madgraph when no pdf are used       *
#    lpp(i)=0 .                                                      *
#                                                                    *
#  2. Values of the charm and bottom kinematic (pole) masses are     *
#     those used in the matrix elements and phase space UNLESS they  *
#     are set to ZERO from the start in the model (particles.dat)    *
#     This happens, for example,  when using 5-flavor QCD where      *
#     charm and bottom are treated as partons in the initial state   *
#     and a zero mass might be hardwired in the model definition.    *
#                                                                    *
##********************************************************************
Block MODSEL # Select Model
     0   1   #  0 1 = SM
Block SMINPUTS      # Standard Model inputs
     1         1.27900000E+02   # alpha_em(MZ)(-1) SM MSbar
     2         1.16600000E-05   # G_Fermi
     3         1.18000000E-01   # alpha_s(MZ) SM MSbar
     4         9.15445065E+01   # Z mass (as input parameter)
Block MGYUKAWA     # Yukawa masses m/v=y/sqrt(2)
#    PDG          YMASS
     5         4.20000000E+00   # mbottom for the Yukawa  y_b
     4         1.25000000E+00   # mcharm  for the Yukawa  y_c
     6         1.74300000E+02   # mtop    for the Yukawa  y_t
    15         1.77700000E+00   # mtau    for the Yukawa  y_ta
Block MGCKM     # CKM elements for MadGraph
     1   1     9.75000000E-01   # Vud for Cabibbo matrix
#===========================================================
# QUANTUM NUMBERS OF NEW STATE(S) (NON SM PDG CODE) IF ANY
# (see below for masses and decay tables)
# These blocks are automatically created by the MadGraph
# qnumbers.pl script from the particles.dat model file
#===========================================================
BLOCK QNUMBERS 611 # f-
         1  -3 # 3 times electric charge
         2  2 # number of spin states (2S+1)
         3  1 # colour rep (1: singlet, 3: triplet, 8: octet)
         4  1 # Particle/Antiparticle distinction (0=own anti)
BLOCK QNUMBERS 622 # x
         1  0 # 3 times electric charge
         2  3 # number of spin states (2S+1)
         3  1 # colour rep (1: singlet, 3: triplet, 8: octet)
         4  0 # Particle/Antiparticle distinction (0=own anti)
BLOCK QNUMBERS 623 # N-
         1  0 # 3 times electric charge
         2  2 # number of spin states (2S+1)
         3  1 # colour rep (1: singlet, 3: triplet, 8: octet)
         4  1 # Particle/Antiparticle distinction (0=own anti)
# END of QNUMBERS blocks
#===========================================================
Block MASS      #  Mass spectrum (kinematic masses)
#       PDG       Mass
         4     1.40000000E+00   # charm    pole mass
         5     4.20000000E+00   # bottom   pole mass
         6     1.74300000E+02   # top      pole mass
        11     0.51109989E-03   # electron mass
        13     0.10565837E+00   # muon     mass
        15     1.77700000E+00   # tau      mass
        23     9.15445065E+01   # Z        mass
        24     8.02673592E+01   # W        mass
        25     1.20000000E+02   # H        mass
       611 0.9 # FMASS
       622 2.7 # APMASS
       623     1.71300000e+02   # HPMASS (tungsten)
#            PDG       Width
DECAY       611     0.00000000e+00   # ELWIDTH
DECAY 622 0.081989159175 # APWIDTH
DECAY       623     0.00000000e+00   # HPWIDTH
DECAY         6     1.51013490E+00   # top width
DECAY        23     2.44639985E+00   # Z   width
DECAY        24     2.03535570E+00   # W   width
DECAY        25     6.79485838E-03   # H   width
#        BR           NDA        ID1       ID2
     7.00588389E-02    2           4        -4   # BR( H -> c  cbar  )
     7.61074375E-01    2           5        -5   # BR( H -> b  bbar  )
     0.00000000E+00    2           6        -6   # BR( H -> t  tbar  )
     3.65529942E-02    2          15       -15   # BR( H -> tau- tau+)
     5.84716539E-03    2          23        23   # BR( H -> Z   Z^(*))
     6.31545979E-02    2          24       -24   # BR( H -> W   W^(*))
     2.55499652E-02    2          21        21   # BR( H -> g   g    )
     1.20906932E-03    2          22        22   # BR( H -> A   A    )
BLOCK MGUSER
         1     1.00000000e-00   # epsilon ,mixing coefficient
         2     74.0000000e+00   # Znuc    ,nuclear charge
</slha>
<MGRunCard>
#*********************************************************************
#                       MadGraph/MadEvent                            *
#                  http://madgraph.hep.uiuc.edu                      *
#                                                                    *
#                        run_card.dat                                *
#                                                                    *
#  This file is used to set the parameters of the run.               *
#                                                                    *
#  Some notation/conventions:                                        *
#                                                                    *
#   Lines starting with a '# ' are info or comments                  *
#                                                                    *
#   mind the format:   value    = variable     ! comment             *
#*********************************************************************
#
#*******************                                                 
# Running parameters
#*******************                                                 
#                                                                    
#*********************************************************************
# Tag name for the run (one word)                                    *
#*********************************************************************
  'HPS'     = run_tag ! name of the run 
#*********************************************************************
# Run to generate the grid pack                                      *
#*********************************************************************
  .false.     = gridpack  !True = setting up the grid pack
#*********************************************************************
# Number of events and rnd seed                                      *
#*********************************************************************
   1000      = nevents ! Number of unweighted events requested 
188727 = iseed ! rnd seed (0=assigned automatically=default))
#*********************************************************************
# Collider type and energy                                           *
#*********************************************************************
        0     = lpp1  ! beam 1 type (0=NO PDF)
        0     = lpp2  ! beam 2 type (0=NO PDF)
4 = ebeam1  ! beam 1 energy in GeV
    171.3    = ebeam2  ! beam 2 energy in GeV
    0.000511  = mbeam1  ! beam 1 energy in GeV
    171.3    = mbeam2  ! beam 2 energy in GeV
#*********************************************************************
# Beam polarization from -100 (left-handed) to 100 (right-handed)    *
#*********************************************************************
        0     = polbeam1 ! beam polarization for beam 1
        0     = polbeam2 ! beam polarization for beam 2
#*********************************************************************
# PDF CHOICE: this automatically fixes also alpha_s and its evol.    *
#*********************************************************************
 'cteq6l1'    = pdlabel     ! PDF set                                     
#*********************************************************************
# Renormalization and factorization scales                           *
#*********************************************************************
 F        = fixed_ren_scale  ! if .true. use fixed ren scale
 F        = fixed_fac_scale  ! if .true. use fixed fac scale
 91.1880  = scale            ! fixed ren scale
 91.1880  = dsqrt_q2fact1    ! fixed fact scale for pdf1
 91.1880  = dsqrt_q2fact2    ! fixed fact scale for pdf2
 1        = scalefact        ! scale factor for event-by-event scales
 F        = fixed_couplings  ! if .false. calc. coupl. for every event
#*********************************************************************
# Matching - Warning! ickkw > 0 is still beta
#*********************************************************************
 0        = ickkw            ! 0 no matching, 1 MLM, 2 CKKW matching
#*********************************************************************
#                                                                    
#**********************************
32.9311829414 = bwcutoff*Gamma)
#**********************************
32.9311829414 = bwcutoff
#*******************                                                 
# Fixed-Target Cuts
#*******************                                                 
#
 0.0 = ef        ! minimum E for all f's
 100.0 = efmax     ! maximum E for all f's
 0.0 = thetafmin ! min angle for both f's
 100.0 = thetafmax ! max angle for both f's
 0.0 = thetaxfmin ! min angle (x direction) for both f's
 100.0 = thetaxfmax ! max angle (x direction) for both f's 
 0.0 = thetayfmin ! min angle (y direction) for both f's
 100.0 = thetayfmax ! max angle (y direction) for both f's 
 0.0 = xthetaxfmin ! min angle (x direction) for >=1 f's
 100.0 = xthetaxfmax ! max angle (x direction) for >=1 f's 
 0.0 = xthetayfmin ! min angle (y direction) for >=1 f's
 100.0 = xthetayfmax ! max angle (y direction) for >=1 f's 
 0.0 = mmff      ! min invariant mass of f+f- lepton pair
 100.0 = mmffmax  ! max invariant mass of f+f- lepton pair
 0.0 = xef       ! min. energy for at least one f
 0.0 = xthetaf   ! minimum angle for at least one f
 0.0 = eftot     ! minimum energy for the two f's
 0d0 = efrat     ! min. ratio Emin/Emax for the two f's
 0.0  = el     !!! 0.2 = el  !!! was 0.05 with normal cuts! minimum E for the charged leptons 
 0.0  = drll  !!! was 0.1  ! min distance between leptons 
 0.0  = mmll    ! min invariant mass of l+l- (same flavour) lepton pair
#
#*******************                                                 
# Standard Cuts
#*******************                                                 
#                                                                    
#*********************************************************************
# Minimum and maximum pt's                                           *
#*********************************************************************
  0  = ptj       ! minimum pt for the jets 
  0  = ptb       ! minimum pt for the b 
  0  = pta       ! minimum pt for the photons 
  0  = ptl       ! minimum pt for the charged leptons 
  0  = misset    ! minimum missing Et (sum of neutrino's momenta)
  0  = ptheavy   ! minimum pt for one heavy final state
 1.0 = ptonium   ! minimum pt for the quarkonium states
 1d5 = ptjmax    ! maximum pt for the jets
 1d5 = ptbmax    ! maximum pt for the b
 1d5 = ptamax    ! maximum pt for the photons
 1d9 = ptlmax    ! maximum pt for the charged leptons
 1d9 = missetmax ! maximum missing Et (sum of neutrino's momenta)
#*********************************************************************
# Minimum and maximum E's (in the lab frame)                         *
#*********************************************************************
  0  = ej     ! minimum E for the jets 
  0  = eb     ! minimum E for the b 
  0  = ea     ! minimum E for the photons 
 1d5  = ejmax ! maximum E for the jets
 1d5  = ebmax ! maximum E for the b
 1d5  = eamax ! maximum E for the photons
 1.2  = elmax ! maximum E for the charged leptons
#*********************************************************************
# Maximum and minimum rapidity                                       *
#*********************************************************************
 1d5  = etaj    ! max rap for the jets 
 1d5  = etab    ! max rap for the b 
 1d5  = etaa    ! max rap for the photons 
 1d5  = etal     !!! 1(2) wth cuts ! max rap for the charged leptons 
 1d5  = etafl     !!! 0(1) wth cuts ! max rap for the charged leptons 
 0.0  = etaonium ! max rap for the quarkonium states
 0d0  = etajmin ! min rap for the jets
 0d0  = etabmin ! min rap for the b
 0d0  = etaamin ! min rap for the photons
 0d0  = etalmin ! main rap for the charged lepton
#*********************************************************************
# Minimum and maximum DeltaR distance                                *
#*********************************************************************
 0   = drjj    ! min distance between jets 
 0   = drbb    ! min distance between b's 
 0   = draa    ! min distance between gammas 
 0   = drbj    ! min distance between b and jet 
 0   = draj    ! min distance between gamma and jet 
 0   = drjl    ! min distance between jet and lepton 
 0   = drab    ! min distance between gamma and b 
 0   = drbl    ! min distance between b and lepton 
 0   = dral    ! min distance between gamma and lepton 
 1d2 = drjjmax ! max distance between jets
 1d2 = drbbmax ! max distance between b's
 1d9 = drllmax ! max distance between leptons
 1d2 = draamax ! max distance between gammas
 1d2 = drbjmax ! max distance between b and jet
 1d2 = drajmax ! max distance between gamma and jet
 1d2 = drjlmax ! max distance between jet and lepton
 1d2 = drabmax ! max distance between gamma and b
 1d2 = drblmax ! max distance between b and lepton
 1d2 = dralmax ! maxdistance between gamma and lepton
#*********************************************************************
# Minimum and maximum invariant mass for pairs                       *
#*********************************************************************
 0   = mmjj    ! min invariant mass of a jet pair 
 0   = mmbb    ! min invariant mass of a b pair 
 0   = mmaa    ! min invariant mass of gamma gamma pair
 1d5 = mmjjmax ! max invariant mass of a jet pair
 1d5 = mmbbmax ! max invariant mass of a b pair
 1d5 = mmaamax ! max invariant mass of gamma gamma pair
 1d5 = mmllmax ! max invariant mass of l+l- (same flavour) lepton pair
#*********************************************************************
# Minimum and maximum invariant mass for all letpons                 *
#*********************************************************************
 0   = mmnl    ! min invariant mass for all letpons (l+- and vl) 
 1d9 = mmnlmax ! max invariant mass for all letpons (l+- and vl) 
#*********************************************************************
# Inclusive cuts                                                     *
#*********************************************************************
 0  = xptj ! minimum pt for at least one jet  
 0  = xptb ! minimum pt for at least one b 
 0  = xpta ! minimum pt for at least one photon 
 0  = xptl ! minimum pt for at least one charged lepton 
#*********************************************************************
# Control the pt's of the jets sorted by pt                          *
#*********************************************************************
 0   = ptj1min ! minimum pt for the leading jet in pt
 0   = ptj2min ! minimum pt for the second jet in pt
 0   = ptj3min ! minimum pt for the third jet in pt
 0   = ptj4min ! minimum pt for the fourth jet in pt
 1d5 = ptj1max ! maximum pt for the leading jet in pt 
 1d5 = ptj2max ! maximum pt for the second jet in pt
 1d5 = ptj3max ! maximum pt for the third jet in pt
 1d5 = ptj4max ! maximum pt for the fourth jet in pt
 0   = cutuse  ! reject event if fails any (0) / all (1) jet pt cuts
#*********************************************************************
# Control the Ht(k)=Sum of k leading jets                            *
#*********************************************************************
 0   = htjmin ! minimum jet HT=Sum(jet pt)
 1d5 = htjmax ! maximum jet HT=Sum(jet pt)
 0   = ht2min ! minimum Ht for the two leading jets
 0   = ht3min ! minimum Ht for the three leading jets
 0   = ht4min ! minimum Ht for the four leading jets
 1d5 = ht2max ! maximum Ht for the two leading jets
 1d5 = ht3max ! maximum Ht for the three leading jets
 1d5 = ht4max ! maximum Ht for the four leading jets
#*********************************************************************
# WBF cuts                                                           *
#*********************************************************************
 0   = xetamin ! minimum rapidity for two jets in the WBF case  
 0   = deltaeta ! minimum rapidity for two jets in the WBF case 
#*********************************************************************
# maximal pdg code for quark to be considered as a jet               *
# otherwise b cuts are applied                                       *
#*********************************************************************
 4 = maxjetflavor
#*********************************************************************
# Jet measure cuts                                                   *
#*********************************************************************
 0   = xqcut   ! minimum kt jet measure between partons
#*********************************************************************
</MGRunCard>
<MGGenerationInfo>
#  Number of Events        :        1000
#  Integrated weight (pb)  :  .65805E-01
#  Truncated wgt (pb)      :  .87430E-05
#  Unit wgt                :  .65805E-04
</MGGenerationInfo>
</header>
<init>
       11     -623  0.40000000000E+01  0.17130000000E+03 0 0     0     0 3  1
  0.65804440080E-01  0.75596356762E-03  0.65805000000E-04   0
</init>
<event>
 5   0  0.6580500E-04  0.9118800E+02  0.7818608E-02  0.1180000E+00
       11   -1    0    0    0    0  0.00000000000E+00  0.00000000000E+00  0.39999999673E+01  0.40000000000E+01  0.51109989000E-03 0.  1.
     -623   -1    0    0    0    0  0.00000000000E+00  0.00000000000E+00  0.12525980253E-10  0.17130000000E+03  0.17130000000E+03 0. -1.
       11    1    1    2    0    0 -0.23110103789E+00 -0.64792378127E-01 -0.78471840010E+00  0.82060280931E+00  0.51109989000E-03 0.  1.
     -623    1    1    2    0    0  0.66444880292E+00  0.62151199663E+00  0.33355048159E+01  0.17133488659E+03  0.17130000000E+03 0. -1.
      622    1    1    2    0    0 -0.43334776504E+00 -0.55671961850E+00  0.14492135516E+01  0.31445106038E+01  0.27000000000E+01 0.  1.
</event>
<event>
 5   0  0.6580500E-04  0.9118800E+02  0.7818608E-02  0.1180000E+00
       11   -1    0    0    0    0  0.00000000000E+00  0.00000000000E+00  0.39999999673E+01  0.40000000000E+01  0.51109989000E-03 0.  1.
     -623   -1    0    0    0    0  0.00000000000E+00  0.00000000000E+00  0.12525980253E-10  0.17130000000E+03  0.17130000000E+03 0. -1.
       11    1    1    2    0    0  0.43046376112E-01 -0.80876134996E+00 -0.27146299764E-01  0.81036108896E+00  0.51109989000E-03 0.  1.
     -623    1    1    2    0    0 -0.94638444523E-01  0.85510803314E+00  0.23654092548E+01  0.17131849091E+03  0.17130000000E+03 0. -1.
      622    1    1    2    0    0  0.51592068411E-01 -0.46346683176E-01  0.16617370123E+01  0.31711480027E+01  0.27000000000E+01 0.  1.
</event>
<event>
 5   0  0.6580500E-04  0.9118800E+02  0.7818608E-02  0.1180000E+00
       11   -1    0    0    0    0  0.00000000000E+00  0.00000000000E+00  0.39999999673E+01  0.40000000000E+01  0.51109989000E-03 0.  1.
     -623   -1    0    0    0    0  0.00000000000E+00  0.00000000000E+00  0.12525980253E-10  0.17130000000E+03  0.17130000000E+03 0. -1.
       11    1    1    2    0    0 -0.95718552765E-01  0.12114227375E+00  0.20766034672E+00  0.25876741034E+00  0.51109989000E-03 0.  1.
     -623    1    1    2    0    0  0.12902835359E+00 -0.31092926759E+00  0.12165060453E+01  0.17130465029E+03  0.17130000000E+03 0. -1.
      622    1    1    2    0    0 -0.33309800822E-01  0.18978699384E+00  0.25758335753E+01  0.37365822959E+01  0.27000000000E+01 0.  1.
</event>
<event>
 5   0  0.6580500E-04  0.9118800E+02  0.7818608E-02  0.1180000E+00
       11   -1    0    0    0    0  0.00000000000E+00  0.00000000000E+00  0.39999999673E+01  0.40000000000E+01  0.51109989000E-03 0. -1.
     -623   -1    0    0    0    0  0.00000000000E+00  0.00000000000E+00  0.12525980253E-10  0.17130000000E+03  0.17130000000E+03 0. -1.
       11    1    1    2    0    0 -0.18480873658E+00  0.15974278535E+00 -0.13334854891E+00  0.27830580897E+00  0.51109989000E-03 0. -1.
     -623    1    1    2    0    0 -0.19916782255E+00 -0.27666708751E+00  0.16152633477E+01  0.17130795454E+03  0.17130000000E+03 0. -1.
      622    1    1    2    0    0  0.38397655913E+00  0.11692430216E+00  0.25180851685E+01  0.37137396525E+01  0.27000000000E+01 0. -1.
</event>
<event>
 5   0  0.6580500E-04  0.9118800E+02  0.7818608E-02  0.1180000E+00
       11   -1    0    0    0    0  0.00000000000E+00  0.00000000000E+00  0.39999999673E+01  0.40000000000E+01  0.51109989000E-03 0. -1.
     -623   -1    0    0    0    0  0.00000000000E+00  0.00000000000E+00  0.12525980253E-10  0.17130000000E+03  0.17130000000E+03 0. -1.
       11    1    1    2    0    0  0.18202855757E+00  0.38147340120E-02 -0.12162187346E+00  0.21895453705E+00  0.51109989000E-03 0. -1.
     -623    1    1    2    0    0 -0.55627398059E+00  0.18284850002E+00  0.15191313729E+01  0.17130773665E+03  0.17130000000E+03 0. -1.
      622    1    1    2    0    0  0.37424542301E+00 -0.18666323404E+00  0.26024904680E+01  0.37733088179E+01  0.27000000000E+01 0. -1.
</event>
<event>
 5   0  0.6580500E-04  0.9118800E+02  0.7818608E-02  0.1180000E+00
       11   -1    0    0    0    0  0.00000000000E+00  0.00000000000E+00  0.39999999673E+01  0.40000000000E+01  0.51109989000E-03 0. -1.
     -623   -1    0    0    0    0  0.00000000000E+00  0.00000000000E+00  0.12525980253E-10  0.17130000000E+03  0.17130000000E+03 0. -1.
       11    1    1    2    0    0 -0.59607490198E+00 -0.30153214554E-02  0.53848787840E+00  0.80329561019E+00  0.51109989000E-03 0. -1.
     -623    1    1    2    0    0  0.15852814938E+01 -0.39090382531E+00  0.21739780650E+01  0.17132157513E+03  0.17130000000E+03 0.  1.
      622    1    1    2    0    0 -0.98920659186E+00  0.39391914677E+00  0.12875340240E+01  0.31751292633E+01  0.27000000000E+01 0. -1.
</event>
<event>
 5   0  0.6580500E-04  0.9118800E+02  0.7818608E-02  0.1180000E+00
       11   -1    0    0    0    0  0.00000000000E+00  0.00000000000E+00  0.39999999673E+01  0.40000000000E+01  0.51109989000E-03 0.  1.
     -623   -1    0    0    0    0  0.00000000000E+00  0.00000000000E+00  0.12525980253E-10  0.17130000000E+03  0.17130000000E+03 0. -1.
       11    1    1    2    0    0  0.92313746398E-01 -0.23905681812E+00 -0.10142320863E+00  0.27560282752E+00  0.51109989000E-03 0.  1.
     -623    1    1    2    0    0  0.12823943434E+00  0.21846523475E+00  0.15562178470E+01  0.17130725608E+03  0.17130000000E+03 0. -1.
      622    1    1    2    0    0 -0.22055318073E+00  0.20591583370E-01  0.25452053290E+01  0.37171410903E+01  0.27000000000E+01 0.  1.
</event>
<event>
 5   0  0.6580500E-04  0.9118800E+02  0.7818608E-02  0.1180000E+00
       11   -1    0    0    0    0  0.00000000000E+00  0.00000000000E+00  0.39999999673E+01  0.40000000000E+01  0.51109989000E-03 0.  1.
     -623   -1    0    0    0    0  0.00000000000E+00  0.00000000000E+00  0.12525980253E-10  0.17130000000E+03  0.17130000000E+03 0.  1.
       11    1    1    2    0    0 -0.17374357000E+00 -0.11102570313E+00  0.11871443992E+00  0.23792207619E+00  0.51109989000E-03 0.  1.
     -623    1    1    2    0    0  0.41672440735E+00 -0.10977972989E+00  0.12899845343E+01  0.17130539913E+03  0.17130000000E+03 0.  1.
      622    1    1    2    0    0 -0.24298083735E+00  0.22080543302E+00  0.25913009931E+01  0.37566787943E+01  0.27000000000E+01 0.  1.
</event>
<event>
 5   0  0.6580500E-04  0.9118800E+02  0.7818608E-02  0.1180000E+00
       11   -1    0    0    0    0  0.00000000000E+00  0.00000000000E+00  0.39999999673E+01  0.40000000000E+01  0.51109989000E-03 0.  1.
     -623   -1    0    0    0    0  0.00000000000E+00  0.00000000000E+00  0.12525980253E-10  0.17130000000E+03  0.17130000000E+03 0. -1.
       11    1    1    2    0    0 -0.11047796894E+00 -0.16770416799E+00  0.14871371052E-01  0.20137400150E+00  0.51109989000E-03 0.  1.
     -623    1    1    2    0    0 -0.40379846467E+00 -0.40510543127E+00  0.14367987901E+01  0.17130698046E+03  0.17130000000E+03 0. -1.
      622    1    1    2    0    0  0.51427643361E+00  0.57280959926E+00  0.25483298062E+01  0.37916455383E+01  0.27000000000E+01 0.  1.
</event>
<event>
 5   0  0.6580500E-04  0.9118800E+02  0.7818608E-02  0.1180000E+00
       11   -1    0    0    0    0  0.00000000000E+00  0.00000000000E+00  0.39999999673E+01  0.40000000000E+01  0.51109989000E-03 0. -1.
     -623   -1    0    0    0    0  0.00000000000E+00  0.00000000000E+00  0.12525980253E-10  0.17130000000E+03  0.17130000000E+03 0. -1.
       11    1    1    2    0    0  0.19081043561E+00  0.19425853622E+00  0.22536335173E+00  0.35345990261E+00  0.51109989000E-03 0. -1.
     -623    1    1    2    0    0 -0.17247651298E+00 -0.55855931241E+00  0.13606021303E+01  0.17130640086E+03  0.17130000000E+03 0. -1.
      622    1    1    2    0    0 -0.18333922629E-01  0.36430077619E+00  0.24140344853E+01  0.36401392397E+01  0.27000000000E+01 0. -1.
</event>
<event>
 5   0  0.6580500E-04  0.9118800E+02  0.7818608E-02  0.1180000E+00
       11   -1    0    0    0    0  0.00000000000E+00  0.00000000000E+00  0.39999999673E+01  0.40000000000E+01  0.51109989000E-03 0. -1.
     -623   -1    0    0    0    0  0.00000000000E+00  0.00000000000E+00  0.12525980253E-10  0.17130000000E+03  0.17130000000E+03 0. -1.
       11    1    1    2    0    0  0.94709495296E-01  0.15633816795E+00  0.50974014167E+00  0.54152265374E+00  0.51109989000E-03 0. -1.
     -623    1    1    2    0    0 -0.92536959862E+00 -0.18044514260E+00  0.15112399029E+01  0.17130926045E+03  0.17130000000E+03 0. -1.
      622    1    1    2    0    0  0.83066010332E+00  0.24106974644E-01  0.19790199228E+01  0.34492168978E+01  0.27000000000E+01 0.  0.
</event>
<event>
 5   0  0.6580500E-04  0.9118800E+02  0.7818608E-02  0.1180000E+00
       11   -1    0    0    0    0  0.00000000000E+00  0.00000000000E+00  0.39999999673E+01  0.40000000000E+01  0.51109989000E-03 0.  1.
     -623   -1    0    0    0    0  0.00000000000E+00  0.00000000000E+00  0.12525980253E-10  0.17130000000E+03  0.17130000000E+03 0. -1.
       11    1    1    2    0    0  0.38101062434E-01 -0.27817312024E-01 -0.26738764763E-01  0.54228374225E-01  0.51109989000E-03 0.  1.
     -623    1    1    2    0    0 -0.46980095467E+00 -0.55441315940E+00  0.12508441031E+01  0.17130610817E+03  0.17130000000E+03 0. -1.
      622    1    1    2    0    0  0.43169989224E+00  0.58223047143E+00  0.27758946290E+01  0.39396634514E+01  0.27000000000E+01 0.  1.
</event>
<event>
 5   0  0.6580500E-04  0.9118800E+02  0.7818608E-02  0.1180000E+00
       11   -1    0    0    0    0  0.00000000000E+00  0.00000000000E+00  0.39999999673E+01  0.40000000000E+01  0.51109989000E-03 0. -1.
     -623   -1    0    0    0    0  0.00000000000E+00  0.00000000000E+00  0.12525980253E-10  0.17130000000E+03  0.17130000000E+03 0. -1.
       11    1    1    2    0    0 -0.15649449372E+00  0.15528203851E+00 -0.15333566107E+00  0.26854259295E+00  0.51109989000E-03 0. -1.
     -623    1    1    2    0    0  0.10276857320E+01  0.16483011657E+00  0.17699249294E+01  0.17131230528E+03  0.17130000000E+03 0. -1.
      622    1    1    2    0    0 -0.87119123831E+00 -0.32011215507E+00  0.23834106991E+01  0.37191521246E+01  0.27000000000E+01 0. -1.
</event>
<event>
 5   0  0.6580500E-04  0.9118800E+02  0.7818608E-02  0.1180000E+00
       11   -1    0    0    0    0  0.00000000000E+00  0.00000000000E+00  0.39999999673E+01  0.40000000000E+01  0.51109989000E-03 0.  1.
     -623   -1    0    0    0    0  0.00000000000E+00  0.00000000000E+00  0.12525980253E-10  0.17130000000E+03  0.17130000000E+03 0.  1.
       11    1    1    2    0    0 -0.56853501620E+00 -0.24114926489E+00 -0.16405285065E+00  0.63898249712E+00  0.51109989000E-03 0.  1.
     -623    1    1    2    0    0  0.73214570917E+00  0.23639909379E+00  0.21958863677E+01  0.17131580149E+03  0.17130000000E+03 0.  1.
      622    1    1    2    0    0 -0.16361069298E+00  0.47501710952E-02  0.19681664503E+01  0.33452160168E+01  0.27000000000E+01 0.  1.
</event>
<event>
 5   0  0.6580500E-04  0.9118800E+02  0.7818608E-02  0.1180000E+00
       11   -1    0    0    0    0  0.00000000000E+00  0.00000000000E+00  0.39999999673E+01  0.40000000000E+01  0.51109989000E-03 0. -1.
     -623   -1    0    0    0    0  0.00000000000E+00  0.00000000000E+00  0.12525980253E-10  0.17130000000E+03  0.17130000000E+03 0.  1.
       11    1    1    2    0    0 -0.21729215188E+00  0.94817703941E-01  0.30721392606E+00  0.38805532316E+00  0.51109989000E-03 0. -1.
     -623    1    1    2    0    0  0.21227371232E+00  0.57538293007E-01  0.13061691514E+01  0.17130512091E+03  0.17130000000E+03 0.  1.
      622    1    1    2    0    0  0.50184395569E-02 -0.15235599695E+00  0.23866168899E+01  0.36068237708E+01  0.27000000000E+01 0. -1.
</event>
<event>
 5   0  0.6580500E-04  0.9118800E+02  0.7818608E-02  0.1180000E+00
       11   -1    0    0    0    0  0.00000000000E+00  0.00000000000E+00  0.39999999673E+01  0.40000000000E+01  0.51109989000E-03 0. -1.
     -623   -1    0    0    0    0  0.00000000000E+00  0.00000000000E+00  0.12525980253E-10  0.17130000000E+03  0.17130000000E+03 0.  1.
       11    1    1    2    0    0 -0.31654717620E+00 -0.84083643439E+00  0.31161054799E+00  0.95095184894E+00  0.51109989000E-03 0. -1.
     -623    1    1    2    0    0 -0.99073781924E-02  0.32136776929E+00  0.24549021392E+01  0.17131789142E+03  0.17130000000E+03 0.  1.
      622    1    1    2    0    0  0.32645455439E+00  0.51946866510E+00  0.12334872801E+01  0.30311567331E+01  0.27000000000E+01 0. -1.
</event>
<event>
 5   0  0.6580500E-04  0.9118800E+02  0.7818608E-02  0.1180000E+00
       11   -1    0    0    0    0  0.00000000000E+00  0.00000000000E+00  0.39999999673E+01  0.40000000000E+01  0.51109989000E-03 0.  1.
     -623   -1    0    0    0    0  0.00000000000E+00  0.00000000000E+00  0.12525980253E-10  0.17130000000E+03  0.17130000000E+03 0. -1.
       11    1    1    2    0    0  0.96184180841E-01  0.30611224366E+00 -0.46106872953E-01  0.32416385875E+00  0.51109989000E-03 0.  1.
     -623    1    1    2    0    0  0.91273367641E-01 -0.35205996372E+00  0.15704622830E+01  0.17130758485E+03  0.17130000000E+03 0. -1.
      622    1    1    2    0    0 -0.18745754848E+00  0.45947720062E-01  0.24756445573E+01  0.36682512863E+01  0.27000000000E+01 0.  1.
</event>
<event>
 5   0  0.6580500E-04  0.9118800E+02  0.7818608E-02  0.1180000E+00
       11   -1    0    0    0    0  0.00000000000E+00  0.00000000000E+00  0.39999999673E+01  0.40000000000E+01  0.51109989000E-03 0.  1.
     -623   -1    0    0    0    0  0.00000000000E+00  0.00000000000E+00  0.12525980253E-10  0.17130000000E+03  0.17130000000E+03 0. -1.
       11    1    1    2    0    0 -0.26939920762E+00 -0.30317082971E-01 -0.31236541862E-01  0.27289382799E+00  0.51109989000E-03 0.  1.
     -623    1    1    2    0    0  0.11213745793E+00 -0.27804928319E+00  0.14953063816E+01  0.17130678862E+03  0.17130000000E+03 0. -1.
      622    1    1    2    0    0  0.15726174969E+00  0.30836636616E+00  0.25359301276E+01  0.37203175517E+01  0.27000000000E+01 0.  1.
</event>
<event>
 5   0  0.6580500E-04  0.9118800E+02  0.7818608E-02  0.1180000E+00
       11   -1    0    0    0    0  0.00000000000E+00  0.00000000000E+00  0.39999999673E+01  0.40000000000E+01  0.51109989000E-03 0.  1.
     -623   -1    0    0    0    0  0.00000000000E+00  0.00000000000E+00  0.12525980253E-10  0.17130000000E+03  0.17130000000E+03 0. -1.
       11    1    1    2    0    0 -0.29575635394E+00 -0.53102255112E-01  0.99783352483E-01  0.31662067060E+00  0.51109989000E-03 0.  1.
     -623    1    1    2    0    0  0.46703994332E-01 -0.56096962982E+00  0.14953604086E+01  0.17130745159E+03  0.17130000000E+03 0. -1.
      622    1    1    2    0    0  0.24905235961E+00  0.61407188493E+00  0.24048562063E+01  0.36759277374E+01  0.27000000000E+01 0.  1.
</event>
<event>
 5   0  0.6580500E-04  0.9118800E+02  0.7818608E-02  0.1180000E+00
       11   -1    0    0    0    0  0.00000000000E+00  0.00000000000E+00  0.39999999673E+01  0.40000000000E+01  0.51109989000E-03 0. -1.
     -623   -1    0    0    0    0  0.00000000000E+00  0.00000000000E+00  0.12525980253E-10  0.17130000000E+03  0.17130000000E+03 0. -1.
       11    1    1    2    0    0  0.14418596585E+00 -0.26385115463E+00  0.17025969775E+00  0.34553675702E+00  0.51109989000E-03 0. -1.
     -623    1    1    2    0    0 -0.85210956710E+00  0.26851355792E+00  0.14845414443E+01  0.17130876234E+03  0.17130000000E+03 0. -1.
      622    1    1    2    0    0  0.70792360125E+00 -0.46624032925E-02  0.23451988253E+01  0.36457009057E+01  0.27000000000E+01 0. -1.
</event>
<event>
 5   0  0.6580500E-04  0.9118800E+02  0.7818608E-02  0.1180000E+00
       11   -1    0    0    0    0  0.00000000000E+00  0.00000000000E+00  0.39999999673E+01  0.40000000000E+01  0.51109989000E-03 0. -1.
     -623   -1    0    0    0    0  0.00000000000E+00  0.00000000000E+00  0.12525980253E-10  0.17130000000E+03  0.17130000000E+03 0. -1.
       11    1    1    2    0    0 -0.13657748177E+00  0.51262411558E-01  0.30013031865E-02  0.14591268763E+00  0.51109989000E-03 0. -1.
     -623    1    1    2    0    0 -0.49738690515E-01 -0.24684866658E+00  0.12668873328E+01  0.17130486978E+03  0.17130000000E+03 0. -1.
      622    1    1    2    0    0  0.18631617229E+00  0.19558625502E+00  0.27301113313E+01  0.38492175284E+01  0.27000000000E+01 0. -1.
</event>
<event>
 5   0  0.6580500E-04  0.9118800E+02  0.7818608E-02  0.1180000E+00
       11   -1    0    0    0    0  0.00000000000E+00  0.00000000000E+00  0.39999999673E+01  0.40000000000E+01  0.51109989000E-03 0. -1.
     -623   -1    0    0    0    0  0.00000000000E+00  0.00000000000E+00  0.12525980253E-10  0.17130000000E+03  0.17130000000E+03 0.  1.
       11    1    1    2    0    0  0.31523518051E-03  0.12473548436E+00  0.36755751500E-01  0.13003955907E+00  0.51109989000E-03 0. -1.
     -623    1    1    2    0    0 -0.18074452815E+00  0.12300331791E+00  0.12140063269E+01  0.17130444130E+03  0.17130000000E+03 0.  1.
      622    1    1    2    0    0  0.18042929297E+00 -0.24773880227E+00  0.27492378890E+01  0.38655191390E+01  0.27000000000E+01 0. -1.
</event>
<event>
 5   0  0.6580500E-04  0.9118800E+02  0.7818608E-02  0.1180000E+00
       11   -1    0    0    0    0  0.00000000000E+00  0.00000000000E+00  0.39999999673E+01  0.40000000000E+01  0.51109989000E-03 0.  1.
     -623   -1    0    0    0    0  0.00000000000E+00  0.00000000000E+00  0.12525980253E-10  0.17130000000E+03  0.17130000000E+03 0.  1.
       11    1    1    2    0    0 -0.29886277883E+00 -0.56554890376E-02  0.36284396560E-01  0.30111088287E+00  0.51109989000E-03 0.  1.
     -623    1    1    2    0    0  0.85072108041E-01  0.12028634298E+00  0.14563852837E+01  0.17130625431E+03  0.17130000000E+03 0.  1.
      622    1    1    2    0    0  0.21379067079E+00 -0.11463085395E+00  0.25073302871E+01  0.36926348117E+01  0.27000000000E+01 0.  1.
</event>
<event>
 5   0  0.6580500E-04  0.9118800E+02  0.7818608E-02  0.1180000E+00
       11   -1    0    0    0    0  0.00000000000E+00  0.00000000000E+00  0.39999999673E+01  0.40000000000E+01  0.51109989000E-03 0. -1.
     -623   -1    0    0    0    0  0.00000000000E+00  0.00000000000E+00  0.12525980253E-10  0.17130000000E+03  0.17130000000E+03 0.  1.
       11    1    1    2    0    0  0.21494508687E+00  0.41539480282E+00  0.29923268036E+00  0.55524291152E+00  0.51109989000E-03 0. -1.
     -623    1    1    2    0    0 -0.44066719670E+00 -0.82794893331E+00  0.16309539237E+01  0.17131033156E+03  0.17130000000E+03 0.  1.
      622    1    1    2    0    0  0.22572210983E+00  0.41255413050E+00  0.20698133633E+01  0.34344255328E+01  0.27000000000E+01 0. -1.
</event>
<event>
 5   0  0.6580500E-04  0.9118800E+02  0.7818608E-02  0.1180000E+00
       11   -1    0    0    0    0  0.00000000000E+00  0.00000000000E+00  0.39999999673E+01  0.40000000000E+01  0.51109989000E-03 0. -1.
     -623   -1    0    0    0    0  0.00000000000E+00  0.00000000000E+00  0.12525980253E-10  0.17130000000E+03  0.17130000000E+03 0.  1.
       11    1    1    2    0    0  0.15397649651E+00  0.12319787571E+00  0.62861919989E-01  0.20697429856E+00  0.51109989000E-03 0. -1.
     -623    1    1    2    0    0 -0.19481474378E+00  0.50440144285E+00  0.13575540993E+01  0.17130623260E+03  0.17130000000E+03 0.  1.
      622    1    1    2    0    0  0.40838247265E-01 -0.62759931855E+00  0.25795839481E+01  0.37867931040E+01  0.27000000000E+01 0. -1.
</event>
<event>
 5   0  0.6580500E-04  0.9118800E+02  0.7818608E-02  0.1180000E+00
       11   -1    0    0    0    0  0.00000000000E+00  0.00000000000E+00  0.39999999673E+01  0.40000000000E+01  0.51109989000E-03 0.  1.
     -623   -1    0    0    0    0  0.00000000000E+00  0.00000000000E+00  0.12525980253E-10  0.17130000000E+03  0.17130000000E+03 0. -1.
       11    1    1    2    0    0 -0.19868992801E+00 -0.18318495579E+00  0.19596527627E+00  0.33382190798E+00  0.51109989000E-03 0.  1.
     -623    1    1    2    0    0  0.46286095351E+00  0.36525121843E+00  0.13542846912E+01  0.17130636805E+03  0.17130000000E+03 0. -1.
      622    1    1    2    0    0 -0.26417102550E+00 -0.18206626263E+00  0.24497499999E+01  0.36598100383E+01  0.27000000000E+01 0.  1.
</event>
<event>
 5   0  0.6580500E-04  0.9118800E+02  0.7818608E-02  0.1180000E+00
       11   -1    0    0    0    0  0.00000000000E+00  0.00000000000E+00  0.39999999673E+01  0.40000000000E+01  0.51109989000E-03 0.  1.
     -623   -1    0    0    0    0  0.00000000000E+00  0.00000000000E+00  0.12525980253E-10  0.17130000000E+03  0.17130000000E+03 0. -1.
       11    1    1    2    0    0 -0.30828174014E+00  0.14511109598E+00  0.18782743103E+00  0.38906845998E+00  0.51109989000E-03 0.  1.
     -623    1    1    2    0    0  0.54648814501E+00 -0.25177221879E+00  0.14395272376E+01  0.17130710516E+03  0.17130000000E+03 0. -1.
      622    1    1    2    0    0 -0.23820640487E+00  0.10666112281E+00  0.23726452988E+01  0.36038263832E+01  0.27000000000E+01 0.  1.
</event>
<event>
 5   0  0.6580500E-04  0.9118800E+02  0.7818608E-02  0.1180000E+00
       11   -1    0    0    0    0  0.00000000000E+00  0.00000000000E+00  0.39999999673E+01  0.40000000000E+01  0.51109989000E-03 0.  1.
     -623   -1    0    0    0    0  0.00000000000E+00  0.00000000000E+00  0.12525980253E-10  0.17130000000E+03  0.17130000000E+03 0.  1.
       11    1    1    2    0    0  0.80556706469E-01  0.83580802105E-01 -0.98405686698E-01  0.15218105610E+00  0.51109989000E-03 0.  1.
     -623    1    1    2    0    0  0.56723939766E+00 -0.29178731787E+00  0.14533746950E+01  0.17130735302E+03  0.17130000000E+03 0.  1.
      622    1    1    2    0    0 -0.64779610413E+00  0.20820651577E+00  0.26450309591E+01  0.38404659249E+01  0.27000000000E+01 0.  1.
</event>
<event>
 5   0  0.6580500E-04  0.9118800E+02  0.7818608E-02  0.1180000E+00
       11   -1    0    0    0    0  0.00000000000E+00  0.00000000000E+00  0.39999999673E+01  0.40000000000E+01  0.51109989000E-03 0.  1.
     -623   -1    0    0    0    0  0.00000000000E+00  0.00000000000E+00  0.12525980253E-10  0.17130000000E+03  0.17130000000E+03 0. -1.
       11    1    1    2    0    0 -0.25535627292E-01  0.54231750888E+00  0.26968219375E+00  0.60620878874E+00  0.51109989000E-03 0.  1.
     -623    1    1    2    0    0 -0.89147244944E-01 -0.10201381789E+01  0.17542722921E+01  0.17131204307E+03  0.17130000000E+03 0. -1.
      622    1    1    2    0    0  0.11468287224E+00  0.47782066997E+00  0.19760454815E+01  0.33817481424E+01  0.27000000000E+01 0.  1.
</event>
<event>
 5   0  0.6580500E-04  0.9118800E+02  0.7818608E-02  0.1180000E+00
       11   -1    0    0    0    0  0.00000000000E+00  0.00000000000E+00  0.39999999673E+01  0.40000000000E+01  0.51109989000E-03 0.  1.
     -623   -1    0    0    0    0  0.00000000000E+00  0.00000000000E+00  0.12525980253E-10  0.17130000000E+03  0.17130000000E+03 0. -1.
       11    1    1    2    0    0 -0.46990742788E-01 -0.34072831932E+00  0.80744590315E-01  0.35330421393E+00  0.51109989000E-03 0.  1.
     -623    1    1    2    0    0 -0.21247779346E+00  0.19672744893E+00  0.14962547560E+01  0.17130677928E+03  0.17130000000E+03 0. -1.
      622    1    1    2    0    0  0.25946853624E+00  0.14400087039E+00  0.24230006211E+01  0.36399165075E+01  0.27000000000E+01 0.  1.
</event>
<event>
 5   0  0.6580500E-04  0.9118800E+02  0.7818608E-02  0.1180000E+00
       11   -1    0    0    0    0  0.00000000000E+00  0.00000000000E+00  0.39999999673E+01  0.40000000000E+01  0.51109989000E-03 0.  1.
     -623   -1    0    0    0    0  0.00000000000E+00  0.00000000000E+00  0.12525980253E-10  0.17130000000E+03  0.17130000000E+03 0. -1.
       11    1    1    2    0    0 -0.14157031921E+00  0.21839249168E+00 -0.47689657420E-01  0.26459780866E+00  0.51109989000E-03 0.  1.
     -623    1    1    2    0    0 -0.18464623782E+00  0.65327499837E-01  0.15128088790E+01  0.17130679190E+03  0.17130000000E+03 0. -1.
      622    1    1    2    0    0  0.32621655703E+00 -0.28371999151E+00  0.25348807458E+01  0.37286102868E+01  0.27000000000E+01 0.  1.
</event>
<event>
 5   0  0.6580500E-04  0.9118800E+02  0.7818608E-02  0.1180000E+00
       11   -1    0    0    0    0  0.00000000000E+00  0.00000000000E+00  0.39999999673E+01  0.40000000000E+01  0.51109989000E-03 0. -1.
     -623   -1    0    0    0    0  0.00000000000E+00  0.00000000000E+00  0.12525980253E-10  0.17130000000E+03  0.17130000000E+03 0.  1.
       11    1    1    2    0    0 -0.25891291274E-01  0.61231448866E+00  0.40834452854E+00  0.73644070175E+00  0.51109989000E-03 0. -1.
     -623    1    1    2    0    0 -0.49147235399E-01 -0.13647864306E+01  0.19542920000E+01  0.17131659089E+03  0.17130000000E+03 0.  1.
      622    1    1    2    0    0  0.75038526673E-01  0.75247194190E+00  0.16373634388E+01  0.32469684068E+01  0.27000000000E+01 0. -1.
</event>
<event>
 5   0  0.6580500E-04  0.9118800E+02  0.7818608E-02  0.1180000E+00
       11   -1    0    0    0    0  0.00000000000E+00  0.00000000000E+00  0.39999999673E+01  0.40000000000E+01  0.51109989000E-03 0.  1.
     -623   -1    0    0    0    0  0.00000000000E+00  0.00000000000E+00  0.12525980253E-10  0.17130000000E+03  0.17130000000E+03 0.  1.
       11    1    1    2    0    0 -0.31552493443E+00  0.43554165887E+00  0.65233993665E+00  0.84545855903E+00  0.51109989000E-03 0.  1.
     -623    1    1    2    0    0  0.69047339410E+00 -0.36125583314E+00  0.17838933823E+01  0.17131106075E+03  0.17130000000E+03 0.  1.
      622    1    1    2    0    0 -0.37494845968E+00 -0.74285825736E-01  0.15637666484E+01  0.31434806922E+01  0.27000000000E+01 0.  1.
</event>
<event>
 5   0  0.6580500E-04  0.9118800E+02  0.7818608E-02  0.1180000E+00
       11   -1    0    0    0    0  0.00000000000E+00  0.00000000000E+00  0.39999999673E+01  0.40000000000E+01  0.51109989000E-03 0. -1.
     -623   -1    0    0    0    0  0.00000000000E+00  0.00000000000E+00  0.12525980253E-10  0.17130000000E+03  0.17130000000E+03 0.  1.
       11    1    1    2    0    0  0.99000526883E-01  0.31707033551E-01 -0.89606043478E-02  0.10434075883E+00  0.51109989000E-03 0. -1.
     -623    1    1    2    0    0  0.49790442198E+00 -0.12594218667E+00  0.12743517055E+01  0.17130550996E+03  0.17130000000E+03 0.  1.
      622    1    1    2    0    0 -0.59690494886E+00  0.94235153119E-01  0.27346088662E+01  0.38901492816E+01  0.27000000000E+01 0. -1.
</event>
<event>
 5   0  0.6580500E-04  0.9118800E+02  0.7818608E-02  0.1180000E+00
       11   -1    0    0    0    0  0.00000000000E+00  0.00000000000E+00  0.39999999673E+01  0.40000000000E+01  0.51109989000E-03 0. -1.
     -623   -1    0    0    0    0  0.00000000000E+00  0.00000000000E+00  0.12525980253E-10  0.17130000000E+03  0.17130000000E+03 0. -1.
       11    1    1    2    0    0  0.24167474800E-01  0.28018878612E+00 -0.20597932416E-01  0.28198290507E+00  0.51109989000E-03 0. -1.
     -623    1    1    2    0    0 -0.93850574509E-01 -0.27524047995E+00  0.14750616805E+01  0.17130659757E+03  0.17130000000E+03 0. -1.
      622    1    1    2    0    0  0.69683099709E-01 -0.49483061677E-02  0.25455362193E+01  0.37114195214E+01  0.27000000000E+01 0. -1.
</event>
<event>
 5   0  0.6580500E-04  0.9118800E+02  0.7818608E-02  0.1180000E+00
       11   -1    0    0    0    0  0.00000000000E+00  0.00000000000E+00  0.39999999673E+01  0.40000000000E+01  0.51109989000E-03 0. -1.
     -623   -1    0    0    0    0  0.00000000000E+00  0.00000000000E+00  0.12525980253E-10  0.17130000000E+03  0.17130000000E+03 0. -1.
       11    1    1    2    0    0  0.22614302773E+00 -0.81423915605E-01  0.25787467166E+00  0.35251968815E+00  0.51109989000E-03 0. -1.
     -623    1    1    2    0    0 -0.25452813111E+00  0.10842375061E+01  0.15212939328E+01  0.17131037532E+03  0.17130000000E+03 0. -1.
      622    1    1    2    0    0  0.28385103370E-01 -0.10028135905E+01  0.22208313629E+01  0.36371049963E+01  0.27000000000E+01 0. -1.
</event>
<event>
 5   0  0.6580500E-04  0.9118800E+02  0.7818608E-02  0.1180000E+00
       11   -1    0    0    0    0  0.00000000000E+00  0.00000000000E+00  0.39999999673E+01  0.40000000000E+01  0.51109989000E-03 0. -1.
     -623   -1    0    0    0    0  0.00000000000E+00  0.00000000000E+00  0.12525980253E-10  0.17130000000E+03  0.17130000000E+03 0. -1.
       11    1    1    2    0    0  0.50160435587E-01 -0.11989652324E+00 -0.26173872310E+00  0.29223050144E+00  0.51109989000E-03 0. -1.
     -623    1    1    2    0    0  0.11834436175E+00  0.22895697830E-01  0.17410429073E+01  0.17130888990E+03  0.17130000000E+03 0. -1.
      622    1    1    2    0    0 -0.16850479734E+00  0.97000825406E-01  0.25206957831E+01  0.36988795950E+01  0.27000000000E+01 0. -1.
</event>
<event>
 5   0  0.6580500E-04  0.9118800E+02  0.7818608E-02  0.1180000E+00
       11   -1    0    0    0    0  0.00000000000E+00  0.00000000000E+00  0.39999999673E+01  0.40000000000E+01  0.51109989000E-03 0.  1.
     -623   -1    0    0    0    0  0.00000000000E+00  0.00000000000E+00  0.12525980253E-10  0.17130000000E+03  0.17130000000E+03 0.  1.
       11    1    1    2    0    0  0.25175271584E-01  0.64480122314E-01 -0.10558985885E+00  0.12625751457E+00  0.51109989000E-03 0.  1.
     -623    1    1    2    0    0 -0.29684242723E+00  0.43575830458E-01  0.13511177894E+01  0.17130559108E+03  0.17130000000E+03 0.  1.
      622    1    1    2    0    0  0.27166715564E+00 -0.10805595277E+00  0.27544720368E+01  0.38681514104E+01  0.27000000000E+01 0.  1.
</event>
<event>
 5   0  0.6580500E-04  0.9118800E+02  0.7818608E-02  0.1180000E+00
       11   -1    0    0    0    0  0.00000000000E+00  0.00000000000E+00  0.39999999673E+01  0.40000000000E+01  0.51109989000E-03 0.  1.
     -623   -1    0    0    0    0  0.00000000000E+00  0.00000000000E+00  0.12525980253E-10  0.17130000000E+03  0.17130000000E+03 0.  1.
       11    1    1    2    0    0 -0.52631699659E-01  0.21662768876E+00  0.15195935684E+00  0.26979540155E+00  0.51109989000E-03 0.  1.
     -623    1    1    2    0    0 -0.79089181207E-01 -0.13244550324E+00  0.12861123319E+01  0.17130489743E+03  0.17130000000E+03 0.  1.
      622    1    1    2    0    0  0.13172088087E+00 -0.84182185512E-01  0.25619282786E+01  0.37253071733E+01  0.27000000000E+01 0.  1.
</event>
<event>
 5   0  0.6580500E-04  0.9118800E+02  0.7818608E-02  0.1180000E+00
       11   -1    0    0    0    0  0.00000000000E+00  0.00000000000E+00  0.39999999673E+01  0.40000000000E+01  0.51109989000E-03 0. -1.
     -623   -1    0    0    0    0  0.00000000000E+00  0.00000000000E+00  0.12525980253E-10  0.17130000000E+03  0.17130000000E+03 0.  1.
       11    1    1    2    0    0  0.21380855205E+00  0.73476082562E-01 -0.68493900381E-01  0.23622977639E+00  0.51109989000E-03 0. -1.
     -623    1    1    2    0    0 -0.47409879193E+00  0.41175065404E-01  0.14718526175E+01  0.17130698414E+03  0.17130000000E+03 0.  1.
      622    1    1    2    0    0  0.26029023987E+00 -0.11465114797E+00  0.25966412503E+01  0.37567860835E+01  0.27000000000E+01 0. -1.
</event>
<event>
 5   0  0.6580500E-04  0.9118800E+02  0.7818608E-02  0.1180000E+00
       11   -1    0    0    0    0  0.00000000000E+00  0.00000000000E+00  0.39999999673E+01  0.40000000000E+01  0.51109989000E-03 0.  1.
     -623   -1    0    0    0    0  0.00000000000E+00  0.00000000000E+00  0.12525980253E-10  0.17130000000E+03  0.17130000000E+03 0.  1.
       11    1    1    2    0    0  0.13335424944E+00 -0.14150008076E+00  0.14393782980E-01  0.19496941019E+00  0.51109989000E-03 0.  1.
     -623    1    1    2    0    0  0.24143046421E-01  0.68559695434E-01  0.13173685784E+01  0.17130508090E+03  0.17130000000E+03 0.  1.
      622    1    1    2    0    0 -0.15749729586E+00  0.72940385324E-01  0.26682376060E+01  0.37999496865E+01  0.27000000000E+01 0.  1.
</event>
<event>
 5   0  0.6580500E-04  0.9118800E+02  0.7818608E-02  0.1180000E+00
       11   -1    0    0    0    0  0.00000000000E+00  0.00000000000E+00  0.39999999673E+01  0.40000000000E+01  0.51109989000E-03 0. -1.
     -623   -1    0    0    0    0  0.00000000000E+00  0.00000000000E+00  0.12525980253E-10  0.17130000000E+03  0.17130000000E+03 0.  1.
       11    1    1    2    0    0 -0.80489655813E-01 -0.23648932415E+00  0.44963417642E+00  0.51437042971E+00  0.51109989000E-03 0. -1.
     -623    1    1    2    0    0  0.57225208380E+00  0.69981141947E+00  0.14664255004E+01  0.17130866181E+03  0.17130000000E+03 0.  1.
      622    1    1    2    0    0 -0.49176242799E+00 -0.46332209532E+00  0.20839402905E+01  0.34769677571E+01  0.27000000000E+01 0. -1.
</event>
<event>
 5   0  0.6580500E-04  0.9118800E+02  0.7818608E-02  0.1180000E+00
       11   -1    0    0    0    0  0.00000000000E+00  0.00000000000E+00  0.39999999673E+01  0.40000000000E+01  0.51109989000E-03 0. -1.
     -623   -1    0    0    0    0  0.00000000000E+00  0.00000000000E+00  0.12525980253E-10  0.17130000000E+03  0.17130000000E+03 0.  1.
       11    1    1    2    0    0  0.13636579337E+00  0.10591229582E-01  0.46501707498E+00  0.48471532366E+00  0.51109989000E-03 0. -1.
     -623    1    1    2    0    0 -0.16030821474E+00 -0.58789811982E+00  0.13699703739E+01  0.17130656188E+03  0.17130000000E+03 0.  1.
      622    1    1    2    0    0  0.23942421375E-01  0.57730689024E+00  0.21650125185E+01  0.35087228004E+01  0.27000000000E+01 0. -1.
</event>
<event>
 5   0  0.6580500E-04  0.9118800E+02  0.7818608E-02  0.1180000E+00
       11   -1    0    0    0    0  0.00000000000E+00  0.00000000000E+00  0.39999999673E+01  0.40000000000E+01  0.51109989000E-03 0.  1.
     -623   -1    0    0    0    0  0.00000000000E+00  0.00000000000E+00  0.12525980253E-10  0.17130000000E+03  0.17130000000E+03 0.  1.
       11    1    1    2    0    0 -0.38021797176E+00 -0.11304621774E+00  0.83139784530E-01  0.40528710612E+00  0.51109989000E-03 0.  1.
     -623    1    1    2    0    0  0.57740240905E+00  0.18306008912E+00  0.15654520278E+01  0.17130822381E+03  0.17130000000E+03 0.  1.
      622    1    1    2    0    0 -0.19718443729E+00 -0.70013871381E-01  0.23514081550E+01  0.35864890849E+01  0.27000000000E+01 0.  1.
</event>
<event>
 5   0  0.6580500E-04  0.9118800E+02  0.7818608E-02  0.1180000E+00
       11   -1    0    0    0    0  0.00000000000E+00  0.00000000000E+00  0.39999999673E+01  0.40000000000E+01  0.51109989000E-03 0.  1.
     -623   -1    0    0    0    0  0.00000000000E+00  0.00000000000E+00  0.12525980253E-10  0.17130000000E+03  0.17130000000E+03 0.  1.
       11    1    1    2    0    0 -0.94798320507E-01 -0.22830506148E+00  0.11444750760E+00  0.27241221685E+00  0.51109989000E-03 0.  1.
     -623    1    1    2    0    0  0.46851824232E+00  0.35691225332E+00  0.13554901512E+01  0.17130637539E+03  0.17130000000E+03 0.  1.
      622    1    1    2    0    0 -0.37371992182E+00 -0.12860719184E+00  0.25300623086E+01  0.37212123932E+01  0.27000000000E+01 0.  1.
</event>
<event>
 5   0  0.6580500E-04  0.9118800E+02  0.7818608E-02  0.1180000E+00
       11   -1    0    0    0    0  0.00000000000E+00  0.00000000000E+00  0.39999999673E+01  0.40000000000E+01  0.51109989000E-03 0. -1.
     -623   -1    0    0    0    0  0.00000000000E+00  0.00000000000E+00  0.12525980253E-10  0.17130000000E+03  0.17130000000E+03 0. -1.
       11    1    1    2    0    0  0.54999753549E+00  0.26732541603E+00  0.51978399985E+00  0.80258073414E+00  0.51109989000E-03 0. -1.
     -623    1    1    2    0    0  0.63295406368E+00 -0.97031553140E+00  0.25338821444E+01  0.17132265671E+03  0.17130000000E+03 0. -1.
      622    1    1    2    0    0 -0.11829515992E+01  0.70299011538E+00  0.94633382307E+00  0.31747625569E+01  0.27000000000E+01 0.  1.
</event>
<event>
 5   0  0.6580500E-04  0.9118800E+02  0.7818608E-02  0.1180000E+00
       11   -1    0    0    0    0  0.00000000000E+00  0.00000000000E+00  0.39999999673E+01  0.40000000000E+01  0.51109989000E-03 0.  1.
     -623   -1    0    0    0    0  0.00000000000E+00  0.00000000000E+00  0.12525980253E-10  0.17130000000E+03  0.17130000000E+03 0.  1.
       11    1    1    2    0    0  0.68813485940E+00  0.17915009686E+00  0.99057790262E-01  0.71793944659E+00  0.51109989000E-03 0.  1.
     -623    1    1    2    0    0 -0.12294671880E+01  0.42077766463E+00  0.22579789368E+01  0.17131980946E+03  0.17130000000E+03 0.  1.
      622    1    1    2    0    0  0.54133232863E+00 -0.59992776149E+00  0.16429632403E+01  0.32622510967E+01  0.27000000000E+01 0.  1.
</event>
<event>
 5   0  0.6580500E-04  0.9118800E+02  0.7818608E-02  0.1180000E+00
       11   -1    0    0    0    0  0.00000000000E+00  0.00000000000E+00  0.39999999673E+01  0.40000000000E+01  0.51109989000E-03 0. -1.
     -623   -1    0    0    0    0  0.00000000000E+00  0.00000000000E+00  0.12525980253E-10  0.17130000000E+03  0.17130000000E+03 0. -1.
       11    1    1    2    0    0  0.95885432545E-01 -0.97265468453E+00 -0.20635494433E+00  0.99891630069E+00  0.51109989000E-03 0. -1.
     -623    1    1    2    0    0 -0.76531421251E+00  0.18195034350E+00  0.47052809150E+01  0.17136641585E+03  0.17130000000E+03 0.  1.
      622    1    1    2    0    0  0.66942877996E+00  0.79070434103E+00 -0.49892600333E+00  0.29346678523E+01  0.27000000000E+01 0.  1.
</event>
<event>
 5   0  0.6580500E-04  0.9118800E+02  0.7818608E-02  0.1180000E+00
       11   -1    0    0    0    0  0.00000000000E+00  0.00000000000E+00  0.39999999673E+01  0.40000000000E+01  0.51109989000E-03 0.  1.
     -623   -1    0    0    0    0  0.00000000000E+00  0.00000000000E+00  0.12525980253E-10  0.17130000000E+03  0.17130000000E+03 0.  1.
       11    1    1    2    0    0 -0.71047947863E+00  0.20480379261E-01  0.40212426918E+00  0.81664234801E+00  0.51109989000E-03 0.  1.
     -623    1    1    2    0    0  0.67683137546E+00 -0.46010584399E+00  0.19969392623E+01  0.17131359422E+03  0.17130000000E+03 0.  1.
      622    1    1    2    0    0  0.33648103170E-01  0.43962546473E+00  0.16009364359E+01  0.31697634322E+01  0.27000000000E+01 0.  1.
</event>
<event>
 5   0  0.6580500E-04  0.9118800E+02  0.7818608E-02  0.1180000E+00
       11   -1    0    0    0    0  0.00000000000E+00  0.00000000000E+00  0.39999999673E+01  0.40000000000E+01  0.51109989000E-03 0. -1.
     -623   -1    0    0    0    0  0.00000000000E+00  0.00000000000E+00  0.12525980253E-10  0.17130000000E+03  0.17130000000E+03 0.  1.
       11    1    1    2    0    0 -0.38142310258E+00 -0.30579404862E+00  0.23414033989E+00  0.54204754712E+00  0.51109989000E-03 0. -1.
     -623    1    1    2    0    0  0.42031248478E+00  0.35282444403E+00  0.16199964233E+01  0.17130853901E+03  0.17130000000E+03 0.  1.
      622    1    1    2    0    0 -0.38889382203E-01 -0.47030395413E-01  0.21458632042E+01  0.34494134477E+01  0.27000000000E+01 0. -1.
</event>
<event>
 5   0  0.6580500E-04  0.9118800E+02  0.7818608E-02  0.1180000E+00
       11   -1    0    0    0    0  0.00000000000E+00  0.00000000000E+00  0.39999999673E+01  0.40000000000E+01  0.51109989000E-03 0. -1.
     -623   -1    0    0    0    0  0.00000000000E+00  0.00000000000E+00  0.12525980253E-10  0.17130000000E+03  0.17130000000E+03 0.  1.
       11    1    1    2    0    0 -0.43867439725E+00  0.66338572627E+00  0.32848306422E+00  0.86047500447E+00  0.51109989000E-03 0. -1.
     -623    1    1    2    0    0  0.75458181720E+00 -0.93347748096E+00  0.21608171156E+01  0.17131783300E+03  0.17130000000E+03 0.  1.
      622    1    1    2    0    0 -0.31590741995E+00  0.27009175469E+00  0.15106997875E+01  0.31216919934E+01  0.27000000000E+01 0. -1.
</event>
<event>
 5   0  0.6580500E-04  0.9118800E+02  0.7818608E-02  0.1180000E+00
       11   -1    0    0    0    0  0.00000000000E+00  0.00000000000E+00  0.39999999673E+01  0.40000000000E+01  0.51109989000E-03 0.  1.
     -623   -1    0    0    0    0  0.00000000000E+00  0.00000000000E+00  0.12525980253E-10  0.17130000000E+03  0.17130000000E+03 0.  1.
       11    1    1    2    0    0  0.28870135771E-03  0.14567935103E+00  0.61787797750E-01  0.15824206089E+00  0.51109989000E-03 0.  1.
     -623    1    1    2    0    0  0.54666299464E-01 -0.31660242401E+00  0.12176749378E+01  0.17130462912E+03  0.17130000000E+03 0.  1.
      622    1    1    2    0    0 -0.54955000822E-01  0.17092307298E+00  0.27205372318E+01  0.38371288197E+01  0.27000000000E+01 0.  1.
</event>
<event>
 5   0  0.6580500E-04  0.9118800E+02  0.7818608E-02  0.1180000E+00
       11   -1    0    0    0    0  0.00000000000E+00  0.00000000000E+00  0.39999999673E+01  0.40000000000E+01  0.51109989000E-03 0.  1.
     -623   -1    0    0    0    0  0.00000000000E+00  0.00000000000E+00  0.12525980253E-10  0.17130000000E+03  0.17130000000E+03 0.  1.
       11    1    1    2    0    0  0.25652632413E+00 -0.72684737496E-01  0.19348138144E-01  0.26732646279E+00  0.51109989000E-03 0.  1.
     -623    1    1    2    0    0 -0.41523923071E+00 -0.48882140334E+00  0.14815239181E+01  0.17130760720E+03  0.17130000000E+03 0.  1.
      622    1    1    2    0    0  0.15871290658E+00  0.56150614083E+00  0.24991279111E+01  0.37250663415E+01  0.27000000000E+01 0.  1.
</event>
<event>
 5   0  0.6580500E-04  0.9118800E+02  0.7818608E-02  0.1180000E+00
       11   -1    0    0    0    0  0.00000000000E+00  0.00000000000E+00  0.39999999673E+01  0.40000000000E+01  0.51109989000E-03 0.  1.
     -623   -1    0    0    0    0  0.00000000000E+00  0.00000000000E+00  0.12525980253E-10  0.17130000000E+03  0.17130000000E+03 0. -1.
       11    1    1    2    0    0  0.19800715067E+00 -0.21439035461E-01 -0.10287545395E+00  0.22416530554E+00  0.51109989000E-03 0.  1.
     -623    1    1    2    0    0 -0.31747441673E+00 -0.23117674510E-01  0.14760025838E+01  0.17130665459E+03  0.17130000000E+03 0. -1.
      622    1    1    2    0    0  0.11946726605E+00  0.44556709971E-01  0.26268728375E+01  0.37691801008E+01  0.27000000000E+01 0.  1.
</event>
<event>
 5   0  0.6580500E-04  0.9118800E+02  0.7818608E-02  0.1180000E+00
       11   -1    0    0    0    0  0.00000000000E+00  0.00000000000E+00  0.39999999673E+01  0.40000000000E+01  0.51109989000E-03 0. -1.
     -623   -1    0    0    0    0  0.00000000000E+00  0.00000000000E+00  0.12525980253E-10  0.17130000000E+03  0.17130000000E+03 0. -1.
       11    1    1    2    0    0  0.52753890128E-02 -0.51841384782E-01  0.93878194602E-01  0.10737194954E+00  0.51109989000E-03 0. -1.
     -623    1    1    2    0    0 -0.40997056344E+00  0.23781288103E+00  0.11439910336E+01  0.17130447556E+03  0.17130000000E+03 0. -1.
      622    1    1    2    0    0  0.40469517443E+00 -0.18597149625E+00  0.27621307392E+01  0.38881524921E+01  0.27000000000E+01 0. -1.
</event>
<event>
 5   0  0.6580500E-04  0.9118800E+02  0.7818608E-02  0.1180000E+00
       11   -1    0    0    0    0  0.00000000000E+00  0.00000000000E+00  0.39999999673E+01  0.40000000000E+01  0.51109989000E-03 0. -1.
     -623   -1    0    0    0    0  0.00000000000E+00  0.00000000000E+00  0.12525980253E-10  0.17130000000E+03  0.17130000000E+03 0.  1.
       11    1    1    2    0    0  0.33941932553E+00  0.86991688976E-01  0.11506210085E+00  0.36879883510E+00  0.51109989000E-03 0. -1.
     -623    1    1    2    0    0 -0.99579611143E+00 -0.53872026964E-01  0.15631017001E+01  0.17131003415E+03  0.17130000000E+03 0.  1.
      622    1    1    2    0    0  0.65637678590E+00 -0.33119662012E-01  0.23218361664E+01  0.36211670192E+01  0.27000000000E+01 0. -1.
</event>
<event>
 5   0  0.6580500E-04  0.9118800E+02  0.7818608E-02  0.1180000E+00
       11   -1    0    0    0    0  0.00000000000E+00  0.00000000000E+00  0.39999999673E+01  0.40000000000E+01  0.51109989000E-03 0. -1.
     -623   -1    0    0    0    0  0.00000000000E+00  0.00000000000E+00  0.12525980253E-10  0.17130000000E+03  0.17130000000E+03 0.  1.
       11    1    1    2    0    0 -0.12573716336E+00  0.23001454888E+00  0.17008369509E+00  0.31248240191E+00  0.51109989000E-03 0. -1.
     -623    1    1    2    0    0 -0.27225099881E+00 -0.54014500319E+00  0.13795260952E+01  0.17130662267E+03  0.17130000000E+03 0.  1.
      622    1    1    2    0    0  0.39798816218E+00  0.31013045431E+00  0.24503901771E+01  0.36808949314E+01  0.27000000000E+01 0. -1.
</event>
<event>
 5   0  0.6580500E-04  0.9118800E+02  0.7818608E-02  0.1180000E+00
       11   -1    0    0    0    0  0.00000000000E+00  0.00000000000E+00  0.39999999673E+01  0.40000000000E+01  0.51109989000E-03 0.  1.
     -623   -1    0    0    0    0  0.00000000000E+00  0.00000000000E+00  0.12525980253E-10  0.17130000000E+03  0.17130000000E+03 0. -1.
       11    1    1    2    0    0  0.27604524658E-01  0.78722654931E-01 -0.49423869721E-01  0.96965180876E-01  0.51109989000E-03 0.  1.
     -623    1    1    2    0    0  0.41991304245E+00  0.63528397926E+00  0.13703085442E+01  0.17130717340E+03  0.17130000000E+03 0. -1.
      622    1    1    2    0    0 -0.44751756711E+00 -0.71400663419E+00  0.26791152929E+01  0.38958614194E+01  0.27000000000E+01 0.  1.
</event>
<event>
 5   0  0.6580500E-04  0.9118800E+02  0.7818608E-02  0.1180000E+00
       11   -1    0    0    0    0  0.00000000000E+00  0.00000000000E+00  0.39999999673E+01  0.40000000000E+01  0.51109989000E-03 0. -1.
     -623   -1    0    0    0    0  0.00000000000E+00  0.00000000000E+00  0.12525980253E-10  0.17130000000E+03  0.17130000000E+03 0. -1.
       11    1    1    2    0    0 -0.37333946734E+00  0.43613848958E-01  0.36474391878E+00  0.52375844929E+00  0.51109989000E-03 0. -1.
     -623    1    1    2    0    0  0.80275928685E+00  0.41245417694E+00  0.15528335259E+01  0.17130941548E+03  0.17130000000E+03 0. -1.
      622    1    1    2    0    0 -0.42941981951E+00 -0.45606802589E+00  0.20824225227E+01  0.34668260684E+01  0.27000000000E+01 0.  0.
</event>
<event>
 5   0  0.6580500E-04  0.9118800E+02  0.7818608E-02  0.1180000E+00
       11   -1    0    0    0    0  0.00000000000E+00  0.00000000000E+00  0.39999999673E+01  0.40000000000E+01  0.51109989000E-03 0. -1.
     -623   -1    0    0    0    0  0.00000000000E+00  0.00000000000E+00  0.12525980253E-10  0.17130000000E+03  0.17130000000E+03 0. -1.
       11    1    1    2    0    0  0.12337606904E+00 -0.44495853025E-03 -0.28301107077E-01  0.12658225107E+00  0.51109989000E-03 0. -1.
     -623    1    1    2    0    0 -0.40049706752E+00 -0.88577586966E-02  0.12721649771E+01  0.17130519222E+03  0.17130000000E+03 0. -1.
      622    1    1    2    0    0  0.27712099848E+00  0.93027172268E-02  0.27561360973E+01  0.38682255331E+01  0.27000000000E+01 0. -1.
</event>
<event>
 5   0  0.6580500E-04  0.9118800E+02  0.7818608E-02  0.1180000E+00
       11   -1    0    0    0    0  0.00000000000E+00  0.00000000000E+00  0.39999999673E+01  0.40000000000E+01  0.51109989000E-03 0.  1.
     -623   -1    0    0    0    0  0.00000000000E+00  0.00000000000E+00  0.12525980253E-10  0.17130000000E+03  0.17130000000E+03 0. -1.
       11    1    1    2    0    0  0.82487636709E+00 -0.49954463218E+00  0.21691123113E-01  0.96459142986E+00  0.51109989000E-03 0.  1.
     -623    1    1    2    0    0 -0.97254022730E+00  0.53567974094E+00  0.26537118264E+01  0.17132415175E+03  0.17130000000E+03 0. -1.
      622    1    1    2    0    0  0.14766386022E+00 -0.36135108762E-01  0.13245970178E+01  0.30112568176E+01  0.27000000000E+01 0.  1.
</event>
<event>
 5   0  0.6580500E-04  0.9118800E+02  0.7818608E-02  0.1180000E+00
       11   -1    0    0    0    0  0.00000000000E+00  0.00000000000E+00  0.39999999673E+01  0.40000000000E+01  0.51109989000E-03 0. -1.
     -623   -1    0    0    0    0  0.00000000000E+00  0.00000000000E+00  0.12525980253E-10  0.17130000000E+03  0.17130000000E+03 0.  1.
       11    1    1    2    0    0  0.35443256058E+00 -0.19121705289E-02 -0.89760129327E-02  0.35455172603E+00  0.51109989000E-03 0. -1.
     -623    1    1    2    0    0 -0.52337331580E-01  0.44677392051E+00  0.16321708649E+01  0.17130836619E+03  0.17130000000E+03 0.  1.
      622    1    1    2    0    0 -0.30209522900E+00 -0.44486174998E+00  0.23768051154E+01  0.36370820805E+01  0.27000000000E+01 0. -1.
</event>
<event>
 5   0  0.6580500E-04  0.9118800E+02  0.7818608E-02  0.1180000E+00
       11   -1    0    0    0    0  0.00000000000E+00  0.00000000000E+00  0.39999999673E+01  0.40000000000E+01  0.51109989000E-03 0. -1.
     -623   -1    0    0    0    0  0.00000000000E+00  0.00000000000E+00  0.12525980253E-10  0.17130000000E+03  0.17130000000E+03 0. -1.
       11    1    1    2    0    0  0.20876927388E-01  0.14556116961E+00  0.65325494484E-01  0.16090861272E+00  0.51109989000E-03 0. -1.
     -623    1    1    2    0    0  0.84823529407E+00 -0.38407844481E+00  0.13705148069E+01  0.17130801304E+03  0.17130000000E+03 0. -1.
      622    1    1    2    0    0 -0.86911222146E+00  0.23851727520E+00  0.25641596660E+01  0.38310783517E+01  0.27000000000E+01 0. -1.
</event>
<event>
 5   0  0.6580500E-04  0.9118800E+02  0.7818608E-02  0.1180000E+00
       11   -1    0    0    0    0  0.00000000000E+00  0.00000000000E+00  0.39999999673E+01  0.40000000000E+01  0.51109989000E-03 0. -1.
     -623   -1    0    0    0    0  0.00000000000E+00  0.00000000000E+00  0.12525980253E-10  0.17130000000E+03  0.17130000000E+03 0.  1.
       11    1    1    2    0    0 -0.67418350672E-01  0.10353212751E+00 -0.10355518933E+00  0.16120816944E+00  0.51109989000E-03 0. -1.
     -623    1    1    2    0    0 -0.77424952926E+00  0.37907739395E+00  0.15671395184E+01  0.17130933742E+03  0.17130000000E+03 0.  1.
      622    1    1    2    0    0  0.84166787993E+00 -0.48260952147E+00  0.25364156382E+01  0.38294544077E+01  0.27000000000E+01 0. -1.
</event>
<event>
 5   0  0.6580500E-04  0.9118800E+02  0.7818608E-02  0.1180000E+00
       11   -1    0    0    0    0  0.00000000000E+00  0.00000000000E+00  0.39999999673E+01  0.40000000000E+01  0.51109989000E-03 0.  1.
     -623   -1    0    0    0    0  0.00000000000E+00  0.00000000000E+00  0.12525980253E-10  0.17130000000E+03  0.17130000000E+03 0.  1.
       11    1    1    2    0    0  0.24536914523E+00  0.20773050704E+00  0.29777622250E+00  0.43821104607E+00  0.51109989000E-03 0.  1.
     -623    1    1    2    0    0  0.36869754689E-01 -0.31063246681E+00  0.14081296707E+01  0.17130607310E+03  0.17130000000E+03 0.  1.
      622    1    1    2    0    0 -0.28223889992E+00  0.10290195978E+00  0.22940940742E+01  0.35557158535E+01  0.27000000000E+01 0.  1.
</event>
<event>
 5   0  0.6580500E-04  0.9118800E+02  0.7818608E-02  0.1180000E+00
       11   -1    0    0    0    0  0.00000000000E+00  0.00000000000E+00  0.39999999673E+01  0.40000000000E+01  0.51109989000E-03 0.  1.
     -623   -1    0    0    0    0  0.00000000000E+00  0.00000000000E+00  0.12525980253E-10  0.17130000000E+03  0.17130000000E+03 0.  1.
       11    1    1    2    0    0 -0.91800966106E-01 -0.29281668467E+00  0.15520022633E-01  0.30726236432E+00  0.51109989000E-03 0.  1.
     -623    1    1    2    0    0  0.16738172354E-01  0.13621898627E+00  0.14807782699E+01  0.17130645504E+03  0.17130000000E+03 0.  1.
      622    1    1    2    0    0  0.75062793752E-01  0.15659769841E+00  0.25037016749E+01  0.36862825907E+01  0.27000000000E+01 0.  1.
</event>
<event>
 5   0  0.6580500E-04  0.9118800E+02  0.7818608E-02  0.1180000E+00
       11   -1    0    0    0    0  0.00000000000E+00  0.00000000000E+00  0.39999999673E+01  0.40000000000E+01  0.51109989000E-03 0.  1.
     -623   -1    0    0    0    0  0.00000000000E+00  0.00000000000E+00  0.12525980253E-10  0.17130000000E+03  0.17130000000E+03 0.  1.
       11    1    1    2    0    0 -0.46600390741E+00 -0.47922861437E+00  0.23589804453E+00  0.70884967037E+00  0.51109989000E-03 0.  1.
     -623    1    1    2    0    0  0.20975961964E+00  0.62022891821E+00  0.19265128570E+01  0.17131208403E+03  0.17130000000E+03 0.  1.
      622    1    1    2    0    0  0.25624428777E+00 -0.14100030384E+00  0.18375890658E+01  0.32790662994E+01  0.27000000000E+01 0.  1.
</event>
<event>
 5   0  0.6580500E-04  0.9118800E+02  0.7818608E-02  0.1180000E+00
       11   -1    0    0    0    0  0.00000000000E+00  0.00000000000E+00  0.39999999673E+01  0.40000000000E+01  0.51109989000E-03 0. -1.
     -623   -1    0    0    0    0  0.00000000000E+00  0.00000000000E+00  0.12525980253E-10  0.17130000000E+03  0.17130000000E+03 0.  1.
       11    1    1    2    0    0  0.38352869255E+00  0.43921540242E+00  0.13329755522E+00  0.59814122679E+00  0.51109989000E-03 0. -1.
     -623    1    1    2    0    0 -0.12410229755E+01  0.16808434114E+00  0.21178069776E+01  0.17131766837E+03  0.17130000000E+03 0.  1.
      622    1    1    2    0    0  0.85749428297E+00 -0.60729974356E+00  0.17488954345E+01  0.33841904002E+01  0.27000000000E+01 0. -1.
</event>
<event>
 5   0  0.6580500E-04  0.9118800E+02  0.7818608E-02  0.1180000E+00
       11   -1    0    0    0    0  0.00000000000E+00  0.00000000000E+00  0.39999999673E+01  0.40000000000E+01  0.51109989000E-03 0.  1.
     -623   -1    0    0    0    0  0.00000000000E+00  0.00000000000E+00  0.12525980253E-10  0.17130000000E+03  0.17130000000E+03 0. -1.
       11    1    1    2    0    0  0.74647252062E-02  0.74542749287E-01  0.70780571794E-01  0.10306548481E+00  0.51109989000E-03 0.  1.
     -623    1    1    2    0    0  0.35791489038E-01 -0.25690260167E+00  0.11309412124E+01  0.17130392963E+03  0.17130000000E+03 0. -1.
      622    1    1    2    0    0 -0.43256214244E-01  0.18235985239E+00  0.27982781831E+01  0.38930048813E+01  0.27000000000E+01 0.  1.
</event>
<event>
 5   0  0.6580500E-04  0.9118800E+02  0.7818608E-02  0.1180000E+00
       11   -1    0    0    0    0  0.00000000000E+00  0.00000000000E+00  0.39999999673E+01  0.40000000000E+01  0.51109989000E-03 0.  1.
     -623   -1    0    0    0    0  0.00000000000E+00  0.00000000000E+00  0.12525980253E-10  0.17130000000E+03  0.17130000000E+03 0.  1.
       11    1    1    2    0    0 -0.20648186698E-01 -0.10604389272E+00  0.37079115285E-01  0.11422248820E+00  0.51109989000E-03 0.  1.
     -623    1    1    2    0    0  0.32199672619E+00  0.10676070127E+00  0.11909738921E+01  0.17130447600E+03  0.17130000000E+03 0.  1.
      622    1    1    2    0    0 -0.30134853949E+00 -0.71680855533E-03  0.27719469599E+01  0.38813015091E+01  0.27000000000E+01 0.  1.
</event>
<event>
 5   0  0.6580500E-04  0.9118800E+02  0.7818608E-02  0.1180000E+00
       11   -1    0    0    0    0  0.00000000000E+00  0.00000000000E+00  0.39999999673E+01  0.40000000000E+01  0.51109989000E-03 0. -1.
     -623   -1    0    0    0    0  0.00000000000E+00  0.00000000000E+00  0.12525980253E-10  0.17130000000E+03  0.17130000000E+03 0.  1.
       11    1    1    2    0    0  0.51526560507E-01  0.15783574831E+00  0.83427218094E-01  0.18581569316E+00  0.51109989000E-03 0. -1.
     -623    1    1    2    0    0  0.10432988738E-01 -0.70402795157E+00  0.12882873710E+01  0.17130629133E+03  0.17130000000E+03 0.  1.
      622    1    1    2    0    0 -0.61959549245E-01  0.54619220326E+00  0.26282853783E+01  0.38078929788E+01  0.27000000000E+01 0. -1.
</event>
<event>
 5   0  0.6580500E-04  0.9118800E+02  0.7818608E-02  0.1180000E+00
       11   -1    0    0    0    0  0.00000000000E+00  0.00000000000E+00  0.39999999673E+01  0.40000000000E+01  0.51109989000E-03 0. -1.
     -623   -1    0    0    0    0  0.00000000000E+00  0.00000000000E+00  0.12525980253E-10  0.17130000000E+03  0.17130000000E+03 0.  1.
       11    1    1    2    0    0 -0.58052108144E-01  0.35928761264E-02  0.19290156355E-02  0.58197408370E-01  0.51109989000E-03 0. -1.
     -623    1    1    2    0    0  0.86358951952E+00 -0.10131207596E+00  0.12529124705E+01  0.17130678866E+03  0.17130000000E+03 0.  1.
      622    1    1    2    0    0 -0.80553741138E+00  0.97719199837E-01  0.27451584812E+01  0.39350139326E+01  0.27000000000E+01 0. -1.
</event>
<event>
 5   0  0.6580500E-04  0.9118800E+02  0.7818608E-02  0.1180000E+00
       11   -1    0    0    0    0  0.00000000000E+00  0.00000000000E+00  0.39999999673E+01  0.40000000000E+01  0.51109989000E-03 0.  1.
     -623   -1    0    0    0    0  0.00000000000E+00  0.00000000000E+00  0.12525980253E-10  0.17130000000E+03  0.17130000000E+03 0. -1.
       11    1    1    2    0    0 -0.10693237880E+00  0.31727915182E+00  0.11418363532E+00  0.35374956907E+00  0.51109989000E-03 0.  1.
     -623    1    1    2    0    0  0.19083973207E+00  0.19701419574E+00  0.15016919902E+01  0.17130680171E+03  0.17130000000E+03 0. -1.
      622    1    1    2    0    0 -0.83907353263E-01 -0.51429334756E+00  0.23841243418E+01  0.36394487177E+01  0.27000000000E+01 0.  1.
</event>
<event>
 5   0  0.6580500E-04  0.9118800E+02  0.7818608E-02  0.1180000E+00
       11   -1    0    0    0    0  0.00000000000E+00  0.00000000000E+00  0.39999999673E+01  0.40000000000E+01  0.51109989000E-03 0. -1.
     -623   -1    0    0    0    0  0.00000000000E+00  0.00000000000E+00  0.12525980253E-10  0.17130000000E+03  0.17130000000E+03 0.  1.
       11    1    1    2    0    0  0.12234320406E-01 -0.45111694581E-01 -0.14411627318E-01  0.48915230847E-01  0.51109989000E-03 0. -1.
     -623    1    1    2    0    0  0.93283480314E-02 -0.15773680804E+00  0.11423393274E+01  0.17130388176E+03  0.17130000000E+03 0.  1.
      622    1    1    2    0    0 -0.21562668437E-01  0.20284850262E+00  0.28720722673E+01  0.39472030062E+01  0.27000000000E+01 0. -1.
</event>
<event>
 5   0  0.6580500E-04  0.9118800E+02  0.7818608E-02  0.1180000E+00
       11   -1    0    0    0    0  0.00000000000E+00  0.00000000000E+00  0.39999999673E+01  0.40000000000E+01  0.51109989000E-03 0. -1.
     -623   -1    0    0    0    0  0.00000000000E+00  0.00000000000E+00  0.12525980253E-10  0.17130000000E+03  0.17130000000E+03 0. -1.
       11    1    1    2    0    0 -0.14063424117E-01  0.35465207156E+00  0.13770864970E+00  0.38070960742E+00  0.51109989000E-03 0. -1.
     -623    1    1    2    0    0 -0.63668924343E-01 -0.80672373131E+00  0.15092154933E+01  0.17130855959E+03  0.17130000000E+03 0. -1.
      622    1    1    2    0    0  0.77732348460E-01  0.45207165975E+00  0.23530758244E+01  0.36107308040E+01  0.27000000000E+01 0. -1.
</event>
<event>
 5   0  0.6580500E-04  0.9118800E+02  0.7818608E-02  0.1180000E+00
       11   -1    0    0    0    0  0.00000000000E+00  0.00000000000E+00  0.39999999673E+01  0.40000000000E+01  0.51109989000E-03 0.  1.
     -623   -1    0    0    0    0  0.00000000000E+00  0.00000000000E+00  0.12525980253E-10  0.17130000000E+03  0.17130000000E+03 0.  1.
       11    1    1    2    0    0 -0.23396100166E+00 -0.83728282620E-01  0.26746377261E+00  0.36508260228E+00  0.51109989000E-03 0.  1.
     -623    1    1    2    0    0  0.98342656775E+00 -0.11255595838E+01  0.17873860813E+01  0.17131584504E+03  0.17130000000E+03 0.  1.
      622    1    1    2    0    0 -0.74946556609E+00  0.12092878664E+01  0.19451501134E+01  0.36190723594E+01  0.27000000000E+01 0.  0.
</event>
<event>
 5   0  0.6580500E-04  0.9118800E+02  0.7818608E-02  0.1180000E+00
       11   -1    0    0    0    0  0.00000000000E+00  0.00000000000E+00  0.39999999673E+01  0.40000000000E+01  0.51109989000E-03 0.  1.
     -623   -1    0    0    0    0  0.00000000000E+00  0.00000000000E+00  0.12525980253E-10  0.17130000000E+03  0.17130000000E+03 0.  1.
       11    1    1    2    0    0 -0.50470251549E-01 -0.15377934503E+00 -0.11453335930E+00  0.19827628417E+00  0.51109989000E-03 0.  1.
     -623    1    1    2    0    0 -0.25544109906E+00  0.36428460074E+00  0.14739560111E+01  0.17130691901E+03  0.17130000000E+03 0.  1.
      622    1    1    2    0    0  0.30591135061E+00 -0.21050525571E+00  0.26405773155E+01  0.37948047086E+01  0.27000000000E+01 0.  1.
</event>
<event>
 5   0  0.6580500E-04  0.9118800E+02  0.7818608E-02  0.1180000E+00
       11   -1    0    0    0    0  0.00000000000E+00  0.00000000000E+00  0.39999999673E+01  0.40000000000E+01  0.51109989000E-03 0. -1.
     -623   -1    0    0    0    0  0.00000000000E+00  0.00000000000E+00  0.12525980253E-10  0.17130000000E+03  0.17130000000E+03 0. -1.
       11    1    1    2    0    0  0.37484341221E-01  0.20112899783E+00  0.10467598006E+00  0.22981573407E+00  0.51109989000E-03 0. -1.
     -623    1    1    2    0    0 -0.64442314659E+00 -0.40766398085E+00  0.13536350179E+01  0.17130704539E+03  0.17130000000E+03 0. -1.
      622    1    1    2    0    0  0.60693880537E+00  0.20653498302E+00  0.25416889694E+01  0.37631388799E+01  0.27000000000E+01 0. -1.
</event>
<event>
 5   0  0.6580500E-04  0.9118800E+02  0.7818608E-02  0.1180000E+00
       11   -1    0    0    0    0  0.00000000000E+00  0.00000000000E+00  0.39999999673E+01  0.40000000000E+01  0.51109989000E-03 0. -1.
     -623   -1    0    0    0    0  0.00000000000E+00  0.00000000000E+00  0.12525980253E-10  0.17130000000E+03  0.17130000000E+03 0. -1.
       11    1    1    2    0    0  0.38879005888E+00  0.13079616764E+00  0.16156597823E+00  0.44087319480E+00  0.51109989000E-03 0. -1.
     -623    1    1    2    0    0 -0.63429408889E+00 -0.58907271225E+00  0.15936961890E+01  0.17130960044E+03  0.17130000000E+03 0. -1.
      622    1    1    2    0    0  0.24550403002E+00  0.45827654461E+00  0.22447378001E+01  0.35495263644E+01  0.27000000000E+01 0. -1.
</event>
<event>
 5   0  0.6580500E-04  0.9118800E+02  0.7818608E-02  0.1180000E+00
       11   -1    0    0    0    0  0.00000000000E+00  0.00000000000E+00  0.39999999673E+01  0.40000000000E+01  0.51109989000E-03 0.  1.
     -623   -1    0    0    0    0  0.00000000000E+00  0.00000000000E+00  0.12525980253E-10  0.17130000000E+03  0.17130000000E+03 0.  1.
       11    1    1    2    0    0  0.85492102163E-01  0.10771899008E+00  0.81430392433E-01  0.15982318477E+00  0.51109989000E-03 0.  1.
     -623    1    1    2    0    0 -0.47975993441E+00 -0.63979012795E-01  0.12239848031E+01  0.17130505656E+03  0.17130000000E+03 0.  1.
      622    1    1    2    0    0  0.39426783225E+00 -0.43739977283E-01  0.26945847718E+01  0.38351202591E+01  0.27000000000E+01 0.  1.
</event>
<event>
 5   0  0.6580500E-04  0.9118800E+02  0.7818608E-02  0.1180000E+00
       11   -1    0    0    0    0  0.00000000000E+00  0.00000000000E+00  0.39999999673E+01  0.40000000000E+01  0.51109989000E-03 0. -1.
     -623   -1    0    0    0    0  0.00000000000E+00  0.00000000000E+00  0.12525980253E-10  0.17130000000E+03  0.17130000000E+03 0. -1.
       11    1    1    2    0    0 -0.46571367402E+00  0.21991004608E+00  0.27370876785E+00  0.58323786344E+00  0.51109989000E-03 0. -1.
     -623    1    1    2    0    0  0.25938527930E+00 -0.78903496917E-02  0.16671582545E+01  0.17130830908E+03  0.17130000000E+03 0. -1.
      622    1    1    2    0    0  0.20632839472E+00 -0.21201969639E+00  0.20591329450E+01  0.34084530572E+01  0.27000000000E+01 0. -1.
</event>
<event>
 5   0  0.6580500E-04  0.9118800E+02  0.7818608E-02  0.1180000E+00
       11   -1    0    0    0    0  0.00000000000E+00  0.00000000000E+00  0.39999999673E+01  0.40000000000E+01  0.51109989000E-03 0. -1.
     -623   -1    0    0    0    0  0.00000000000E+00  0.00000000000E+00  0.12525980253E-10  0.17130000000E+03  0.17130000000E+03 0.  1.
       11    1    1    2    0    0 -0.81541817661E-01 -0.56355441274E-02 -0.16150837708E+00  0.18101393447E+00  0.51109989000E-03 0. -1.
     -623    1    1    2    0    0  0.86094848803E-01  0.35172140071E+00  0.14927434549E+01  0.17130688662E+03  0.17130000000E+03 0.  1.
      622    1    1    2    0    0 -0.45530311419E-02 -0.34608585659E+00  0.26687648895E+01  0.38120994460E+01  0.27000000000E+01 0. -1.
</event>
<event>
 5   0  0.6580500E-04  0.9118800E+02  0.7818608E-02  0.1180000E+00
       11   -1    0    0    0    0  0.00000000000E+00  0.00000000000E+00  0.39999999673E+01  0.40000000000E+01  0.51109989000E-03 0.  1.
     -623   -1    0    0    0    0  0.00000000000E+00  0.00000000000E+00  0.12525980253E-10  0.17130000000E+03  0.17130000000E+03 0. -1.
       11    1    1    2    0    0  0.48757717731E-02  0.61064210040E-02 -0.23560930036E-01  0.24828213289E-01  0.51109989000E-03 0.  1.
     -623    1    1    2    0    0 -0.17049217376E+00 -0.11097135984E+01  0.13410793512E+01  0.17130892862E+03  0.17130000000E+03 0. -1.
      622    1    1    2    0    0  0.16561640198E+00  0.11036071774E+01  0.26824815462E+01  0.39662431645E+01  0.27000000000E+01 0.  1.
</event>
<event>
 5   0  0.6580500E-04  0.9118800E+02  0.7818608E-02  0.1180000E+00
       11   -1    0    0    0    0  0.00000000000E+00  0.00000000000E+00  0.39999999673E+01  0.40000000000E+01  0.51109989000E-03 0. -1.
     -623   -1    0    0    0    0  0.00000000000E+00  0.00000000000E+00  0.12525980253E-10  0.17130000000E+03  0.17130000000E+03 0.  1.
       11    1    1    2    0    0  0.45319493569E+00  0.65243801911E-01  0.10861748187E+01  0.11787359337E+01  0.51109989000E-03 0. -1.
     -623    1    1    2    0    0 -0.72763322773E+00  0.42524744898E+00  0.24178132532E+01  0.17131913526E+03  0.17130000000E+03 0. -1.
      622    1    1    2    0    0  0.27443829203E+00 -0.49049125090E+00  0.49601189545E+00  0.28021288057E+01  0.27000000000E+01 0.  1.
</event>
<event>
 5   0  0.6580500E-04  0.9118800E+02  0.7818608E-02  0.1180000E+00
       11   -1    0    0    0    0  0.00000000000E+00  0.00000000000E+00  0.39999999673E+01  0.40000000000E+01  0.51109989000E-03 0.  1.
     -623   -1    0    0    0    0  0.00000000000E+00  0.00000000000E+00  0.12525980253E-10  0.17130000000E+03  0.17130000000E+03 0. -1.
       11    1    1    2    0    0  0.53502165673E-01  0.16030598164E+00 -0.89797230074E-01  0.19137474555E+00  0.51109989000E-03 0.  1.
     -623    1    1    2    0    0 -0.77208317384E-01 -0.45873683646E+00  0.14297622323E+01  0.17130659830E+03  0.17130000000E+03 0. -1.
      622    1    1    2    0    0  0.23706151711E-01  0.29843085482E+00  0.26600349652E+01  0.38020269558E+01  0.27000000000E+01 0.  1.
</event>
<event>
 5   0  0.6580500E-04  0.9118800E+02  0.7818608E-02  0.1180000E+00
       11   -1    0    0    0    0  0.00000000000E+00  0.00000000000E+00  0.39999999673E+01  0.40000000000E+01  0.51109989000E-03 0. -1.
     -623   -1    0    0    0    0  0.00000000000E+00  0.00000000000E+00  0.12525980253E-10  0.17130000000E+03  0.17130000000E+03 0. -1.
       11    1    1    2    0    0  0.59106779165E+00 -0.15280800176E-01 -0.67583953455E-01  0.59511552590E+00  0.51109989000E-03 0. -1.
     -623    1    1    2    0    0 -0.52731114284E+00  0.19604866481E+00  0.20233230698E+01  0.17131287263E+03  0.17130000000E+03 0. -1.
      622    1    1    2    0    0 -0.63756648809E-01 -0.18076786463E+00  0.20442608510E+01  0.33920118452E+01  0.27000000000E+01 0. -1.
</event>
<event>
 5   0  0.6580500E-04  0.9118800E+02  0.7818608E-02  0.1180000E+00
       11   -1    0    0    0    0  0.00000000000E+00  0.00000000000E+00  0.39999999673E+01  0.40000000000E+01  0.51109989000E-03 0. -1.
     -623   -1    0    0    0    0  0.00000000000E+00  0.00000000000E+00  0.12525980253E-10  0.17130000000E+03  0.17130000000E+03 0. -1.
       11    1    1    2    0    0 -0.10705881121E+00  0.75174626865E-01  0.49205333924E-01  0.13976494443E+00  0.51109989000E-03 0. -1.
     -623    1    1    2    0    0  0.44887876663E+00  0.33344150026E+00  0.12516676534E+01  0.17130548546E+03  0.17130000000E+03 0. -1.
      622    1    1    2    0    0 -0.34181995541E+00 -0.40861612713E+00  0.26991269801E+01  0.38547495996E+01  0.27000000000E+01 0. -1.
</event>
<event>
 5   0  0.6580500E-04  0.9118800E+02  0.7818608E-02  0.1180000E+00
       11   -1    0    0    0    0  0.00000000000E+00  0.00000000000E+00  0.39999999673E+01  0.40000000000E+01  0.51109989000E-03 0.  1.
     -623   -1    0    0    0    0  0.00000000000E+00  0.00000000000E+00  0.12525980253E-10  0.17130000000E+03  0.17130000000E+03 0.  1.
       11    1    1    2    0    0  0.81441723021E+00  0.53698341687E+00  0.38776302494E+00  0.10497557047E+01  0.51109989000E-03 0.  1.
     -623    1    1    2    0    0 -0.20836266270E+00 -0.91705631136E+00  0.27415375899E+01  0.17132451791E+03  0.17130000000E+03 0.  1.
      622    1    1    2    0    0 -0.60605456752E+00  0.38007289449E+00  0.87069935255E+00  0.29257263895E+01  0.27000000000E+01 0.  1.
</event>
<event>
 5   0  0.6580500E-04  0.9118800E+02  0.7818608E-02  0.1180000E+00
       11   -1    0    0    0    0  0.00000000000E+00  0.00000000000E+00  0.39999999673E+01  0.40000000000E+01  0.51109989000E-03 0. -1.
     -623   -1    0    0    0    0  0.00000000000E+00  0.00000000000E+00  0.12525980253E-10  0.17130000000E+03  0.17130000000E+03 0.  1.
       11    1    1    2    0    0  0.28513110656E-01 -0.90984226969E-02 -0.14071979125E-01  0.33076586801E-01  0.51109989000E-03 0. -1.
     -623    1    1    2    0    0  0.49961884270E+00  0.35524951408E+00  0.11844833750E+01  0.17130519205E+03  0.17130000000E+03 0.  1.
      622    1    1    2    0    0 -0.52813195335E+00 -0.34615109138E+00  0.28295885715E+01  0.39617313668E+01  0.27000000000E+01 0. -1.
</event>
<event>
 5   0  0.6580500E-04  0.9118800E+02  0.7818608E-02  0.1180000E+00
       11   -1    0    0    0    0  0.00000000000E+00  0.00000000000E+00  0.39999999673E+01  0.40000000000E+01  0.51109989000E-03 0.  1.
     -623   -1    0    0    0    0  0.00000000000E+00  0.00000000000E+00  0.12525980253E-10  0.17130000000E+03  0.17130000000E+03 0.  1.
       11    1    1    2    0    0 -0.78241714451E-01  0.21214246516E-01  0.23256915795E-01  0.84338339379E-01  0.51109989000E-03 0.  1.
     -623    1    1    2    0    0 -0.67363068969E-01  0.61398659048E-01  0.11511608534E+01  0.17130389219E+03  0.17130000000E+03 0.  1.
      622    1    1    2    0    0  0.14560478342E+00 -0.82612905563E-01  0.28255821982E+01  0.39117694722E+01  0.27000000000E+01 0.  1.
</event>
<event>
 5   0  0.6580500E-04  0.9118800E+02  0.7818608E-02  0.1180000E+00
       11   -1    0    0    0    0  0.00000000000E+00  0.00000000000E+00  0.39999999673E+01  0.40000000000E+01  0.51109989000E-03 0.  1.
     -623   -1    0    0    0    0  0.00000000000E+00  0.00000000000E+00  0.12525980253E-10  0.17130000000E+03  0.17130000000E+03 0. -1.
       11    1    1    2    0    0 -0.25424554343E-01  0.19005308404E+00 -0.10984050086E+00  0.22097913831E+00  0.51109989000E-03 0.  1.
     -623    1    1    2    0    0  0.26004549585E+00 -0.34683177549E+00  0.14910176445E+01  0.17130703736E+03  0.17130000000E+03 0. -1.
      622    1    1    2    0    0 -0.23462094151E+00  0.15677869145E+00  0.26188228237E+01  0.37719835002E+01  0.27000000000E+01 0.  1.
</event>
<event>
 5   0  0.6580500E-04  0.9118800E+02  0.7818608E-02  0.1180000E+00
       11   -1    0    0    0    0  0.00000000000E+00  0.00000000000E+00  0.39999999673E+01  0.40000000000E+01  0.51109989000E-03 0.  1.
     -623   -1    0    0    0    0  0.00000000000E+00  0.00000000000E+00  0.12525980253E-10  0.17130000000E+03  0.17130000000E+03 0. -1.
       11    1    1    2    0    0 -0.30472789205E-01  0.72433894966E-01 -0.20389630837E-01  0.81186564717E-01  0.51109989000E-03 0.  1.
     -623    1    1    2    0    0  0.45149753773E+00 -0.40143948508E+00  0.12386319615E+01  0.17130554344E+03  0.17130000000E+03 0. -1.
      622    1    1    2    0    0 -0.42102474852E+00  0.32900559011E+00  0.27817576367E+01  0.39132699966E+01  0.27000000000E+01 0.  1.
</event>
<event>
 5   0  0.6580500E-04  0.9118800E+02  0.7818608E-02  0.1180000E+00
       11   -1    0    0    0    0  0.00000000000E+00  0.00000000000E+00  0.39999999673E+01  0.40000000000E+01  0.51109989000E-03 0. -1.
     -623   -1    0    0    0    0  0.00000000000E+00  0.00000000000E+00  0.12525980253E-10  0.17130000000E+03  0.17130000000E+03 0.  1.
       11    1    1    2    0    0  0.78420365188E-01 -0.95177813511E-01  0.98196893111E-01  0.15764346133E+00  0.51109989000E-03 0. -1.
     -623    1    1    2    0    0 -0.18251189597E-01  0.12899766594E+00  0.11746014454E+01  0.17130407661E+03  0.17130000000E+03 0.  1.
      622    1    1    2    0    0 -0.60169175591E-01 -0.33819852428E-01  0.27272016288E+01  0.38382799320E+01  0.27000000000E+01 0. -1.
</event>
<event>
 5   0  0.6580500E-04  0.9118800E+02  0.7818608E-02  0.1180000E+00
       11   -1    0    0    0    0  0.00000000000E+00  0.00000000000E+00  0.39999999673E+01  0.40000000000E+01  0.51109989000E-03 0.  1.
     -623   -1    0    0    0    0  0.00000000000E+00  0.00000000000E+00  0.12525980253E-10  0.17130000000E+03  0.17130000000E+03 0.  1.
       11    1    1    2    0    0 -0.27335634711E+00  0.33403697122E+00  0.34058389615E+00  0.54982000890E+00  0.51109989000E-03 0.  1.
     -623    1    1    2    0    0 -0.41003475314E+00 -0.10361075573E+01  0.17710844572E+01  0.17131277941E+03  0.17130000000E+03 0.  1.
      622    1    1    2    0    0  0.68339110024E+00  0.70207058607E+00  0.18883316140E+01  0.34374005859E+01  0.27000000000E+01 0.  1.
</event>
<event>
 5   0  0.6580500E-04  0.9118800E+02  0.7818608E-02  0.1180000E+00
       11   -1    0    0    0    0  0.00000000000E+00  0.00000000000E+00  0.39999999673E+01  0.40000000000E+01  0.51109989000E-03 0. -1.
     -623   -1    0    0    0    0  0.00000000000E+00  0.00000000000E+00  0.12525980253E-10  0.17130000000E+03  0.17130000000E+03 0. -1.
       11    1    1    2    0    0  0.16360801386E+00 -0.10285481221E+00  0.97961494099E-01  0.21666427980E+00  0.51109989000E-03 0. -1.
     -623    1    1    2    0    0 -0.23845054672E+00  0.30986785953E+00  0.12683540432E+01  0.17130514178E+03  0.17130000000E+03 0. -1.
      622    1    1    2    0    0  0.74842532862E-01 -0.20701304732E+00  0.26336844301E+01  0.37781939447E+01  0.27000000000E+01 0. -1.
</event>
<event>
 5   0  0.6580500E-04  0.9118800E+02  0.7818608E-02  0.1180000E+00
       11   -1    0    0    0    0  0.00000000000E+00  0.00000000000E+00  0.39999999673E+01  0.40000000000E+01  0.51109989000E-03 0.  1.
     -623   -1    0    0    0    0  0.00000000000E+00  0.00000000000E+00  0.12525980253E-10  0.17130000000E+03  0.17130000000E+03 0.  1.
       11    1    1    2    0    0  0.19784233596E+00 -0.11075322356E+00  0.11591048834E+01  0.11810725034E+01  0.51109989000E-03 0.  1.
     -623    1    1    2    0    0  0.41893228675E-01  0.20296154496E+00  0.21227759399E+01  0.17131327773E+03  0.17130000000E+03 0.  1.
      622    1    1    2    0    0 -0.23973556463E+00 -0.92208321401E-01  0.71811914412E+00  0.28056497680E+01  0.27000000000E+01 0.  0.
</event>
<event>
 5   0  0.6580500E-04  0.9118800E+02  0.7818608E-02  0.1180000E+00
       11   -1    0    0    0    0  0.00000000000E+00  0.00000000000E+00  0.39999999673E+01  0.40000000000E+01  0.51109989000E-03 0. -1.
     -623   -1    0    0    0    0  0.00000000000E+00  0.00000000000E+00  0.12525980253E-10  0.17130000000E+03  0.17130000000E+03 0.  1.
       11    1    1    2    0    0  0.17358055530E+00 -0.16758108324E+00 -0.17759673079E+00  0.29959053498E+00  0.51109989000E-03 0. -1.
     -623    1    1    2    0    0  0.38885946764E+00 -0.13829223441E+00  0.17436980153E+01  0.17130937166E+03  0.17130000000E+03 0.  1.
      622    1    1    2    0    0 -0.56244002294E+00  0.30587331765E+00  0.24338986828E+01  0.36910378031E+01  0.27000000000E+01 0. -1.
</event>
<event>
 5   0  0.6580500E-04  0.9118800E+02  0.7818608E-02  0.1180000E+00
       11   -1    0    0    0    0  0.00000000000E+00  0.00000000000E+00  0.39999999673E+01  0.40000000000E+01  0.51109989000E-03 0.  1.
     -623   -1    0    0    0    0  0.00000000000E+00  0.00000000000E+00  0.12525980253E-10  0.17130000000E+03  0.17130000000E+03 0.  1.
       11    1    1    2    0    0  0.34589507289E-01  0.21148563026E+00  0.12934095837E+00  0.25030371663E+00  0.51109989000E-03 0.  1.
     -623    1    1    2    0    0  0.30573118891E+00 -0.49424876543E+00  0.13154258807E+01  0.17130603638E+03  0.17130000000E+03 0.  1.
      622    1    1    2    0    0 -0.34032069620E+00  0.28276313517E+00  0.25552331283E+01  0.37436599080E+01  0.27000000000E+01 0.  1.
</event>
<event>
 5   0  0.6580500E-04  0.9118800E+02  0.7818608E-02  0.1180000E+00
       11   -1    0    0    0    0  0.00000000000E+00  0.00000000000E+00  0.39999999673E+01  0.40000000000E+01  0.51109989000E-03 0. -1.
     -623   -1    0    0    0    0  0.00000000000E+00  0.00000000000E+00  0.12525980253E-10  0.17130000000E+03  0.17130000000E+03 0.  1.
       11    1    1    2    0    0 -0.39142586791E+00 -0.16047453005E+00  0.23060305581E+00  0.48181356917E+00  0.51109989000E-03 0. -1.
     -623    1    1    2    0    0  0.26003332215E+00 -0.32112981316E-01  0.15370434827E+01  0.17130709603E+03  0.17130000000E+03 0.  1.
      622    1    1    2    0    0  0.13139254577E+00  0.19258751137E+00  0.22323534289E+01  0.35110903979E+01  0.27000000000E+01 0. -1.
</event>
<event>
 5   0  0.6580500E-04  0.9118800E+02  0.7818608E-02  0.1180000E+00
       11   -1    0    0    0    0  0.00000000000E+00  0.00000000000E+00  0.39999999673E+01  0.40000000000E+01  0.51109989000E-03 0.  1.
     -623   -1    0    0    0    0  0.00000000000E+00  0.00000000000E+00  0.12525980253E-10  0.17130000000E+03  0.17130000000E+03 0.  1.
       11    1    1    2    0    0 -0.16373709637E+00 -0.91664900483E-01  0.53282869469E-01  0.19506823450E+00  0.51109989000E-03 0.  1.
     -623    1    1    2    0    0 -0.10451218827E+00  0.50831388295E+00  0.13204504792E+01  0.17130587525E+03  0.17130000000E+03 0.  1.
      622    1    1    2    0    0  0.26824928464E+00 -0.41664898246E+00  0.26262666187E+01  0.37990565152E+01  0.27000000000E+01 0.  1.
</event>
<event>
 5   0  0.6580500E-04  0.9118800E+02  0.7818608E-02  0.1180000E+00
       11   -1    0    0    0    0  0.00000000000E+00  0.00000000000E+00  0.39999999673E+01  0.40000000000E+01  0.51109989000E-03 0.  1.
     -623   -1    0    0    0    0  0.00000000000E+00  0.00000000000E+00  0.12525980253E-10  0.17130000000E+03  0.17130000000E+03 0. -1.
       11    1    1    2    0    0  0.14392709805E+00 -0.10336993023E+00 -0.10111960357E+00  0.20402398750E+00  0.51109989000E-03 0.  1.
     -623    1    1    2    0    0  0.11578174769E+00  0.44956523248E+00  0.14783388899E+01  0.17130700803E+03  0.17130000000E+03 0. -1.
      622    1    1    2    0    0 -0.25970884574E+00 -0.34619530225E+00  0.26227806810E+01  0.37889679825E+01  0.27000000000E+01 0.  1.
</event>
<event>
 5   0  0.6580500E-04  0.9118800E+02  0.7818608E-02  0.1180000E+00
       11   -1    0    0    0    0  0.00000000000E+00  0.00000000000E+00  0.39999999673E+01  0.40000000000E+01  0.51109989000E-03 0. -1.
     -623   -1    0    0    0    0  0.00000000000E+00  0.00000000000E+00  0.12525980253E-10  0.17130000000E+03  0.17130000000E+03 0. -1.
       11    1    1    2    0    0  0.27759805884E-01  0.10656702021E+00  0.46011917536E-01  0.11935030120E+00  0.51109989000E-03 0. -1.
     -623    1    1    2    0    0 -0.13603431226E-03  0.16446837636E+00  0.11858174346E+01  0.17130418329E+03  0.17130000000E+03 0. -1.
      622    1    1    2    0    0 -0.27623771572E-01 -0.27103539657E+00  0.27681706152E+01  0.38764664082E+01  0.27000000000E+01 0. -1.
</event>
<event>
 5   0  0.6580500E-04  0.9118800E+02  0.7818608E-02  0.1180000E+00
       11   -1    0    0    0    0  0.00000000000E+00  0.00000000000E+00  0.39999999673E+01  0.40000000000E+01  0.51109989000E-03 0. -1.
     -623   -1    0    0    0    0  0.00000000000E+00  0.00000000000E+00  0.12525980253E-10  0.17130000000E+03  0.17130000000E+03 0.  1.
       11    1    1    2    0    0  0.24710969451E+00 -0.13004412929E+00 -0.36277887299E+00  0.45780284904E+00  0.51109989000E-03 0. -1.
     -623    1    1    2    0    0 -0.37519936477E+00  0.32188354541E+00  0.21027665954E+01  0.17131361887E+03  0.17130000000E+03 0.  1.
      622    1    1    2    0    0  0.12808967026E+00 -0.19183941612E+00  0.22600122449E+01  0.35285782792E+01  0.27000000000E+01 0. -1.
</event>
<event>
 5   0  0.6580500E-04  0.9118800E+02  0.7818608E-02  0.1180000E+00
       11   -1    0    0    0    0  0.00000000000E+00  0.00000000000E+00  0.39999999673E+01  0.40000000000E+01  0.51109989000E-03 0.  1.
     -623   -1    0    0    0    0  0.00000000000E+00  0.00000000000E+00  0.12525980253E-10  0.17130000000E+03  0.17130000000E+03 0. -1.
       11    1    1    2    0    0  0.27248579521E+00 -0.10212928519E-02  0.23448865490E+00  0.35949233946E+00  0.51109989000E-03 0.  1.
     -623    1    1    2    0    0 -0.39608048331E-01  0.60324126167E+00  0.14212093833E+01  0.17130696222E+03  0.17130000000E+03 0. -1.
      622    1    1    2    0    0 -0.23287774688E+00 -0.60221996881E+00  0.23443019292E+01  0.36335454409E+01  0.27000000000E+01 0.  1.
</event>
<event>
 5   0  0.6580500E-04  0.9118800E+02  0.7818608E-02  0.1180000E+00
       11   -1    0    0    0    0  0.00000000000E+00  0.00000000000E+00  0.39999999673E+01  0.40000000000E+01  0.51109989000E-03 0. -1.
     -623   -1    0    0    0    0  0.00000000000E+00  0.00000000000E+00  0.12525980253E-10  0.17130000000E+03  0.17130000000E+03 0. -1.
       11    1    1    2    0    0  0.25582920856E+00  0.31750041680E+00 -0.11793997330E+00  0.42445871077E+00  0.51109989000E-03 0. -1.
     -623    1    1    2    0    0  0.10127614615E+00 -0.72906689724E+00  0.18564184571E+01  0.17131164025E+03  0.17130000000E+03 0. -1.
      622    1    1    2    0    0 -0.35710535471E+00  0.41156648044E+00  0.22615214836E+01  0.35639010400E+01  0.27000000000E+01 0. -1.
</event>
<event>
 5   0  0.6580500E-04  0.9118800E+02  0.7818608E-02  0.1180000E+00
       11   -1    0    0    0    0  0.00000000000E+00  0.00000000000E+00  0.39999999673E+01  0.40000000000E+01  0.51109989000E-03 0.  1.
     -623   -1    0    0    0    0  0.00000000000E+00  0.00000000000E+00  0.12525980253E-10  0.17130000000E+03  0.17130000000E+03 0.  1.
       11    1    1    2    0    0  0.12662004668E+00  0.36699510802E+00  0.30618061768E+00  0.49443389589E+00  0.51109989000E-03 0.  1.
     -623    1    1    2    0    0  0.12774414230E+00 -0.46998686743E+00  0.14861774884E+01  0.17130713917E+03  0.17130000000E+03 0.  1.
      622    1    1    2    0    0 -0.25436418898E+00  0.10299175940E+00  0.22076418613E+01  0.34984269366E+01  0.27000000000E+01 0.  1.
</event>
<event>
 5   0  0.6580500E-04  0.9118800E+02  0.7818608E-02  0.1180000E+00
       11   -1    0    0    0    0  0.00000000000E+00  0.00000000000E+00  0.39999999673E+01  0.40000000000E+01  0.51109989000E-03 0.  1.
     -623   -1    0    0    0    0  0.00000000000E+00  0.00000000000E+00  0.12525980253E-10  0.17130000000E+03  0.17130000000E+03 0.  1.
       11    1    1    2    0    0  0.42303448741E-01  0.77712018360E-01  0.13037989514E+00  0.15756877182E+00  0.51109989000E-03 0.  1.
     -623    1    1    2    0    0  0.95858020206E+00 -0.16452403524E+00  0.13390869339E+01  0.17130799485E+03  0.17130000000E+03 0.  1.
      622    1    1    2    0    0 -0.10008836508E+01  0.86812016879E-01  0.25305331383E+01  0.38344363827E+01  0.27000000000E+01 0.  1.
</event>
<event>
 5   0  0.6580500E-04  0.9118800E+02  0.7818608E-02  0.1180000E+00
       11   -1    0    0    0    0  0.00000000000E+00  0.00000000000E+00  0.39999999673E+01  0.40000000000E+01  0.51109989000E-03 0.  1.
     -623   -1    0    0    0    0  0.00000000000E+00  0.00000000000E+00  0.12525980253E-10  0.17130000000E+03  0.17130000000E+03 0. -1.
       11    1    1    2    0    0  0.17359513425E+00  0.19167068186E-01  0.83744913615E-01  0.19369078171E+00  0.51109989000E-03 0.  1.
     -623    1    1    2    0    0 -0.48820744101E+00  0.24592933711E+00  0.12731301569E+01  0.17130560320E+03  0.17130000000E+03 0. -1.
      622    1    1    2    0    0  0.31461230675E+00 -0.26509640530E+00  0.26431248969E+01  0.38007060171E+01  0.27000000000E+01 0.  1.
</event>
<event>
 5   0  0.6580500E-04  0.9118800E+02  0.7818608E-02  0.1180000E+00
       11   -1    0    0    0    0  0.00000000000E+00  0.00000000000E+00  0.39999999673E+01  0.40000000000E+01  0.51109989000E-03 0.  1.
     -623   -1    0    0    0    0  0.00000000000E+00  0.00000000000E+00  0.12525980253E-10  0.17130000000E+03  0.17130000000E+03 0.  1.
       11    1    1    2    0    0 -0.45431882707E+00 -0.82436806729E+00 -0.33856407108E+00  0.10003070521E+01  0.51109989000E-03 0.  1.
     -623    1    1    2    0    0  0.34450167371E+00  0.80734079570E+00  0.31080776491E+01  0.17133044279E+03  0.17130000000E+03 0. -1.
      622    1    1    2    0    0  0.10981715336E+00  0.17027271588E-01  0.12304863894E+01  0.29692501561E+01  0.27000000000E+01 0.  1.
</event>
<event>
 5   0  0.6580500E-04  0.9118800E+02  0.7818608E-02  0.1180000E+00
       11   -1    0    0    0    0  0.00000000000E+00  0.00000000000E+00  0.39999999673E+01  0.40000000000E+01  0.51109989000E-03 0.  1.
     -623   -1    0    0    0    0  0.00000000000E+00  0.00000000000E+00  0.12525980253E-10  0.17130000000E+03  0.17130000000E+03 0. -1.
       11    1    1    2    0    0  0.30289863002E-01  0.16801033583E-01  0.14793872642E+00  0.15194037819E+00  0.51109989000E-03 0.  1.
     -623    1    1    2    0    0 -0.23679998480E+00  0.42671759719E-01  0.11241118053E+01  0.17130385729E+03  0.17130000000E+03 0. -1.
      622    1    1    2    0    0  0.20651012179E+00 -0.59472793302E-01  0.27279494357E+01  0.38442023317E+01  0.27000000000E+01 0.  1.
</event>
<event>
 5   0  0.6580500E-04  0.9118800E+02  0.7818608E-02  0.1180000E+00
       11   -1    0    0    0    0  0.00000000000E+00  0.00000000000E+00  0.39999999673E+01  0.40000000000E+01  0.51109989000E-03 0. -1.
     -623   -1    0    0    0    0  0.00000000000E+00  0.00000000000E+00  0.12525980253E-10  0.17130000000E+03  0.17130000000E+03 0. -1.
       11    1    1    2    0    0 -0.24085701165E+00 -0.31636597922E+00  0.21816696144E+00  0.45353788944E+00  0.51109989000E-03 0. -1.
     -623    1    1    2    0    0  0.11644745831E+00  0.79403985063E+00  0.15500745565E+01  0.17130889291E+03  0.17130000000E+03 0. -1.
      622    1    1    2    0    0  0.12440955334E+00 -0.47767387141E+00  0.22317584494E+01  0.35375691995E+01  0.27000000000E+01 0. -1.
</event>
<event>
 5   0  0.6580500E-04  0.9118800E+02  0.7818608E-02  0.1180000E+00
       11   -1    0    0    0    0  0.00000000000E+00  0.00000000000E+00  0.39999999673E+01  0.40000000000E+01  0.51109989000E-03 0. -1.
     -623   -1    0    0    0    0  0.00000000000E+00  0.00000000000E+00  0.12525980253E-10  0.17130000000E+03  0.17130000000E+03 0.  1.
       11    1    1    2    0    0  0.19411507201E+00  0.70272454295E-01  0.12511518926E+00  0.24139790972E+00  0.51109989000E-03 0. -1.
     -623    1    1    2    0    0 -0.48918454191E+00  0.89427975315E-01  0.12898078145E+01  0.17130557756E+03  0.17130000000E+03 0.  1.
      622    1    1    2    0    0  0.29506946990E+00 -0.15970042961E+00  0.25850769636E+01  0.37530245305E+01  0.27000000000E+01 0. -1.
</event>
<event>
 5   0  0.6580500E-04  0.9118800E+02  0.7818608E-02  0.1180000E+00
       11   -1    0    0    0    0  0.00000000000E+00  0.00000000000E+00  0.39999999673E+01  0.40000000000E+01  0.51109989000E-03 0.  1.
     -623   -1    0    0    0    0  0.00000000000E+00  0.00000000000E+00  0.12525980253E-10  0.17130000000E+03  0.17130000000E+03 0.  1.
       11    1    1    2    0    0 -0.11691395786E+00 -0.36543777349E-01 -0.90669301875E-01  0.15239916250E+00  0.51109989000E-03 0.  1.
     -623    1    1    2    0    0 -0.30029912672E+00 -0.27081953410E+00  0.14078835330E+01  0.17130626275E+03  0.17130000000E+03 0.  1.
      622    1    1    2    0    0  0.41721308458E+00  0.30736331145E+00  0.26827857363E+01  0.38413380832E+01  0.27000000000E+01 0.  1.
</event>
<event>
 5   0  0.6580500E-04  0.9118800E+02  0.7818608E-02  0.1180000E+00
       11   -1    0    0    0    0  0.00000000000E+00  0.00000000000E+00  0.39999999673E+01  0.40000000000E+01  0.51109989000E-03 0.  1.
     -623   -1    0    0    0    0  0.00000000000E+00  0.00000000000E+00  0.12525980253E-10  0.17130000000E+03  0.17130000000E+03 0.  1.
       11    1    1    2    0    0 -0.10751652847E+00  0.14936214628E+00 -0.63705080084E-01  0.19474971909E+00  0.51109989000E-03 0.  1.
     -623    1    1    2    0    0  0.71544143259E+00  0.55116658804E+00  0.15622303509E+01  0.17130950413E+03  0.17130000000E+03 0.  1.
      622    1    1    2    0    0 -0.60792490412E+00 -0.70052873432E+00  0.25014746966E+01  0.37957461525E+01  0.27000000000E+01 0.  1.
</event>
<event>
 5   0  0.6580500E-04  0.9118800E+02  0.7818608E-02  0.1180000E+00
       11   -1    0    0    0    0  0.00000000000E+00  0.00000000000E+00  0.39999999673E+01  0.40000000000E+01  0.51109989000E-03 0. -1.
     -623   -1    0    0    0    0  0.00000000000E+00  0.00000000000E+00  0.12525980253E-10  0.17130000000E+03  0.17130000000E+03 0.  1.
       11    1    1    2    0    0  0.78917231269E-01 -0.19955126767E+00  0.13167536969E+00  0.25176834992E+00  0.51109989000E-03 0. -1.
     -623    1    1    2    0    0 -0.61413868875E+00 -0.23860071642E+00  0.13722991602E+01  0.17130676374E+03  0.17130000000E+03 0.  1.
      622    1    1    2    0    0  0.53522145748E+00  0.43815198409E+00  0.24960254374E+01  0.37414679143E+01  0.27000000000E+01 0. -1.
</event>
<event>
 5   0  0.6580500E-04  0.9118800E+02  0.7818608E-02  0.1180000E+00
       11   -1    0    0    0    0  0.00000000000E+00  0.00000000000E+00  0.39999999673E+01  0.40000000000E+01  0.51109989000E-03 0.  1.
     -623   -1    0    0    0    0  0.00000000000E+00  0.00000000000E+00  0.12525980253E-10  0.17130000000E+03  0.17130000000E+03 0. -1.
       11    1    1    2    0    0  0.35580332238E-01 -0.85133568366E-01  0.58653890155E-01  0.10933537650E+00  0.51109989000E-03 0.  1.
     -623    1    1    2    0    0 -0.51944536341E-01  0.10534435422E+00  0.11455471370E+01  0.17130387057E+03  0.17130000000E+03 0. -1.
      622    1    1    2    0    0  0.16364204103E-01 -0.20210785852E-01  0.27957989402E+01  0.38867940487E+01  0.27000000000E+01 0.  1.
</event>
<event>
 5   0  0.6580500E-04  0.9118800E+02  0.7818608E-02  0.1180000E+00
       11   -1    0    0    0    0  0.00000000000E+00  0.00000000000E+00  0.39999999673E+01  0.40000000000E+01  0.51109989000E-03 0.  1.
     -623   -1    0    0    0    0  0.00000000000E+00  0.00000000000E+00  0.12525980253E-10  0.17130000000E+03  0.17130000000E+03 0. -1.
       11    1    1    2    0    0  0.30457987276E-01  0.82232947864E-01 -0.45065659175E-01  0.98595748201E-01  0.51109989000E-03 0.  1.
     -623    1    1    2    0    0 -0.37816666772E+00  0.31230061168E-01  0.12597862866E+01  0.17130505260E+03  0.17130000000E+03 0. -1.
      622    1    1    2    0    0  0.34770868045E+00 -0.11346300903E+00  0.27852793399E+01  0.38963516502E+01  0.27000000000E+01 0.  1.
</event>
<event>
 5   0  0.6580500E-04  0.9118800E+02  0.7818608E-02  0.1180000E+00
       11   -1    0    0    0    0  0.00000000000E+00  0.00000000000E+00  0.39999999673E+01  0.40000000000E+01  0.51109989000E-03 0.  1.
     -623   -1    0    0    0    0  0.00000000000E+00  0.00000000000E+00  0.12525980253E-10  0.17130000000E+03  0.17130000000E+03 0.  1.
       11    1    1    2    0    0  0.20139956270E+00  0.47463978215E+00 -0.23799449694E+00  0.56787881493E+00  0.51109989000E-03 0.  1.
     -623    1    1    2    0    0 -0.92926358844E+00 -0.37967556788E+00  0.22818569428E+01  0.17131813843E+03  0.17130000000E+03 0. -1.
      622    1    1    2    0    0  0.72786402575E+00 -0.94964214272E-01  0.19561375215E+01  0.34139827541E+01  0.27000000000E+01 0.  1.
</event>
<event>
 5   0  0.6580500E-04  0.9118800E+02  0.7818608E-02  0.1180000E+00
       11   -1    0    0    0    0  0.00000000000E+00  0.00000000000E+00  0.39999999673E+01  0.40000000000E+01  0.51109989000E-03 0. -1.
     -623   -1    0    0    0    0  0.00000000000E+00  0.00000000000E+00  0.12525980253E-10  0.17130000000E+03  0.17130000000E+03 0.  1.
       11    1    1    2    0    0 -0.27600164961E-01 -0.24414213708E+00  0.54984427502E+00  0.60224259248E+00  0.51109989000E-03 0. -1.
     -623    1    1    2    0    0  0.72387386384E+00  0.20844501035E+00  0.15236421826E+01  0.17130843216E+03  0.17130000000E+03 0.  1.
      622    1    1    2    0    0 -0.69627369888E+00  0.35697126732E-01  0.19265135097E+01  0.33893252502E+01  0.27000000000E+01 0. -1.
</event>
<event>
 5   0  0.6580500E-04  0.9118800E+02  0.7818608E-02  0.1180000E+00
       11   -1    0    0    0    0  0.00000000000E+00  0.00000000000E+00  0.39999999673E+01  0.40000000000E+01  0.51109989000E-03 0.  1.
     -623   -1    0    0    0    0  0.00000000000E+00  0.00000000000E+00  0.12525980253E-10  0.17130000000E+03  0.17130000000E+03 0.  1.
       11    1    1    2    0    0  0.79740394029E-01  0.70377849749E-02  0.28310364822E-01  0.84910534309E-01  0.51109989000E-03 0.  1.
     -623    1    1    2    0    0  0.17915659437E+00  0.36673723963E+00  0.11796293953E+01  0.17130454786E+03  0.17130000000E+03 0.  1.
      622    1    1    2    0    0 -0.25889698840E+00 -0.37377502460E+00  0.27920602073E+01  0.39105416020E+01  0.27000000000E+01 0.  1.
</event>
<event>
 5   0  0.6580500E-04  0.9118800E+02  0.7818608E-02  0.1180000E+00
       11   -1    0    0    0    0  0.00000000000E+00  0.00000000000E+00  0.39999999673E+01  0.40000000000E+01  0.51109989000E-03 0.  1.
     -623   -1    0    0    0    0  0.00000000000E+00  0.00000000000E+00  0.12525980253E-10  0.17130000000E+03  0.17130000000E+03 0.  1.
       11    1    1    2    0    0 -0.22929079231E+00 -0.22680708216E+00  0.10848062363E+00  0.34027052015E+00  0.51109989000E-03 0.  1.
     -623    1    1    2    0    0  0.20347141169E+00  0.18133373775E+00  0.14307051912E+01  0.17130619136E+03  0.17130000000E+03 0.  1.
      622    1    1    2    0    0  0.25819380619E-01  0.45473344411E-01  0.24608141525E+01  0.36535381151E+01  0.27000000000E+01 0.  1.
</event>
<event>
 5   0  0.6580500E-04  0.9118800E+02  0.7818608E-02  0.1180000E+00
       11   -1    0    0    0    0  0.00000000000E+00  0.00000000000E+00  0.39999999673E+01  0.40000000000E+01  0.51109989000E-03 0.  1.
     -623   -1    0    0    0    0  0.00000000000E+00  0.00000000000E+00  0.12525980253E-10  0.17130000000E+03  0.17130000000E+03 0.  1.
       11    1    1    2    0    0  0.13122884206E+00  0.17366162781E-01  0.15206314552E+00  0.20160866560E+00  0.51109989000E-03 0.  1.
     -623    1    1    2    0    0  0.34921232974E+00 -0.43666642260E+00  0.12616373678E+01  0.17130555845E+03  0.17130000000E+03 0.  1.
      622    1    1    2    0    0 -0.48044117180E+00  0.41930025982E+00  0.25862994541E+01  0.37928328850E+01  0.27000000000E+01 0.  1.
</event>
<event>
 5   0  0.6580500E-04  0.9118800E+02  0.7818608E-02  0.1180000E+00
       11   -1    0    0    0    0  0.00000000000E+00  0.00000000000E+00  0.39999999673E+01  0.40000000000E+01  0.51109989000E-03 0.  1.
     -623   -1    0    0    0    0  0.00000000000E+00  0.00000000000E+00  0.12525980253E-10  0.17130000000E+03  0.17130000000E+03 0.  1.
       11    1    1    2    0    0 -0.33824083231E+00 -0.15840449618E+00  0.16577906101E+00  0.40863407022E+00  0.51109989000E-03 0.  1.
     -623    1    1    2    0    0  0.29370344908E+00  0.42848055087E+00  0.14931443555E+01  0.17130729505E+03  0.17130000000E+03 0.  1.
      622    1    1    2    0    0  0.44537383232E-01 -0.27007605470E+00  0.23410765509E+01  0.35840708797E+01  0.27000000000E+01 0.  1.
</event>
<event>
 5   0  0.6580500E-04  0.9118800E+02  0.7818608E-02  0.1180000E+00
       11   -1    0    0    0    0  0.00000000000E+00  0.00000000000E+00  0.39999999673E+01  0.40000000000E+01  0.51109989000E-03 0.  1.
     -623   -1    0    0    0    0  0.00000000000E+00  0.00000000000E+00  0.12525980253E-10  0.17130000000E+03  0.17130000000E+03 0.  1.
       11    1    1    2    0    0 -0.56419088672E-02 -0.34583961871E-01  0.39662879373E-01  0.52927183726E-01  0.51109989000E-03 0.  1.
     -623    1    1    2    0    0  0.49212659466E-01  0.23593898821E+00  0.10936214542E+01  0.17130366049E+03  0.17130000000E+03 0.  1.
      622    1    1    2    0    0 -0.43570750599E-01 -0.20135502634E+00  0.28667156338E+01  0.39434123271E+01  0.27000000000E+01 0.  1.
</event>
<event>
 5   0  0.6580500E-04  0.9118800E+02  0.7818608E-02  0.1180000E+00
       11   -1    0    0    0    0  0.00000000000E+00  0.00000000000E+00  0.39999999673E+01  0.40000000000E+01  0.51109989000E-03 0. -1.
     -623   -1    0    0    0    0  0.00000000000E+00  0.00000000000E+00  0.12525980253E-10  0.17130000000E+03  0.17130000000E+03 0.  1.
       11    1    1    2    0    0 -0.38078421338E-01 -0.29446561194E+00  0.33180458689E+00  0.44525779936E+00  0.51109989000E-03 0. -1.
     -623    1    1    2    0    0  0.43788210134E+00  0.41465252245E-01  0.14150160621E+01  0.17130640890E+03  0.17130000000E+03 0.  1.
      622    1    1    2    0    0 -0.39980368001E+00  0.25300035969E+00  0.22531793184E+01  0.35483332996E+01  0.27000000000E+01 0. -1.
</event>
<event>
 5   0  0.6580500E-04  0.9118800E+02  0.7818608E-02  0.1180000E+00
       11   -1    0    0    0    0  0.00000000000E+00  0.00000000000E+00  0.39999999673E+01  0.40000000000E+01  0.51109989000E-03 0.  1.
     -623   -1    0    0    0    0  0.00000000000E+00  0.00000000000E+00  0.12525980253E-10  0.17130000000E+03  0.17130000000E+03 0. -1.
       11    1    1    2    0    0  0.22848286265E+00 -0.11382072663E-01  0.45058871704E+00  0.50533595088E+00  0.51109989000E-03 0.  1.
     -623    1    1    2    0    0 -0.58240697783E+00  0.36740594735E+00  0.13997442522E+01  0.17130710280E+03  0.17130000000E+03 0. -1.
      622    1    1    2    0    0  0.35392411518E+00 -0.35602387468E+00  0.21496669981E+01  0.34875612513E+01  0.27000000000E+01 0.  1.
</event>
<event>
 5   0  0.6580500E-04  0.9118800E+02  0.7818608E-02  0.1180000E+00
       11   -1    0    0    0    0  0.00000000000E+00  0.00000000000E+00  0.39999999673E+01  0.40000000000E+01  0.51109989000E-03 0. -1.
     -623   -1    0    0    0    0  0.00000000000E+00  0.00000000000E+00  0.12525980253E-10  0.17130000000E+03  0.17130000000E+03 0. -1.
       11    1    1    2    0    0 -0.47214934514E+00 -0.32305004616E+00 -0.94713531928E-01  0.57987692728E+00  0.51109989000E-03 0. -1.
     -623    1    1    2    0    0  0.86454231540E+00 -0.50018786572E+00  0.22356403975E+01  0.17131749972E+03  0.17130000000E+03 0. -1.
      622    1    1    2    0    0 -0.39239297026E+00  0.82323791188E+00  0.18590731018E+01  0.34026233557E+01  0.27000000000E+01 0. -1.
</event>
<event>
 5   0  0.6580500E-04  0.9118800E+02  0.7818608E-02  0.1180000E+00
       11   -1    0    0    0    0  0.00000000000E+00  0.00000000000E+00  0.39999999673E+01  0.40000000000E+01  0.51109989000E-03 0. -1.
     -623   -1    0    0    0    0  0.00000000000E+00  0.00000000000E+00  0.12525980253E-10  0.17130000000E+03  0.17130000000E+03 0.  1.
       11    1    1    2    0    0  0.14983402509E+00  0.23245922244E+00  0.24332775496E+00  0.36836962786E+00  0.51109989000E-03 0. -1.
     -623    1    1    2    0    0  0.64281357014E+00 -0.62424176102E+00  0.15090652250E+01  0.17130899032E+03  0.17130000000E+03 0.  1.
      622    1    1    2    0    0 -0.79264759524E+00  0.39178253858E+00  0.22476069874E+01  0.36226400508E+01  0.27000000000E+01 0. -1.
</event>
<event>
 5   0  0.6580500E-04  0.9118800E+02  0.7818608E-02  0.1180000E+00
       11   -1    0    0    0    0  0.00000000000E+00  0.00000000000E+00  0.39999999673E+01  0.40000000000E+01  0.51109989000E-03 0.  1.
     -623   -1    0    0    0    0  0.00000000000E+00  0.00000000000E+00  0.12525980253E-10  0.17130000000E+03  0.17130000000E+03 0.  1.
       11    1    1    2    0    0  0.87917242866E-01  0.27038203342E+00 -0.35855824663E-01  0.28656899165E+00  0.51109989000E-03 0.  1.
     -623    1    1    2    0    0 -0.27592436815E+00 -0.19051173236E+01  0.21349831583E+01  0.17132411902E+03  0.17130000000E+03 0.  1.
      622    1    1    2    0    0  0.18800712528E+00  0.16347352902E+01  0.19008726337E+01  0.36893119843E+01  0.27000000000E+01 0.  0.
</event>
<event>
 5   0  0.6580500E-04  0.9118800E+02  0.7818608E-02  0.1180000E+00
       11   -1    0    0    0    0  0.00000000000E+00  0.00000000000E+00  0.39999999673E+01  0.40000000000E+01  0.51109989000E-03 0. -1.
     -623   -1    0    0    0    0  0.00000000000E+00  0.00000000000E+00  0.12525980253E-10  0.17130000000E+03  0.17130000000E+03 0.  1.
       11    1    1    2    0    0 -0.10623256580E+00  0.32622508906E+00  0.39290511474E+00  0.52161562206E+00  0.51109989000E-03 0. -1.
     -623    1    1    2    0    0  0.32635005608E+00 -0.34374167171E+00  0.14359165606E+01  0.17130667389E+03  0.17130000000E+03 0.  1.
      622    1    1    2    0    0 -0.22011749028E+00  0.17516582655E-01  0.21711782920E+01  0.34717104885E+01  0.27000000000E+01 0. -1.
</event>
<event>
 5   0  0.6580500E-04  0.9118800E+02  0.7818608E-02  0.1180000E+00
       11   -1    0    0    0    0  0.00000000000E+00  0.00000000000E+00  0.39999999673E+01  0.40000000000E+01  0.51109989000E-03 0.  1.
     -623   -1    0    0    0    0  0.00000000000E+00  0.00000000000E+00  0.12525980253E-10  0.17130000000E+03  0.17130000000E+03 0. -1.
       11    1    1    2    0    0  0.13228432506E+00  0.10337364253E+00  0.31340433032E-01  0.17078564516E+00  0.51109989000E-03 0.  1.
     -623    1    1    2    0    0  0.19862129026E+00  0.10080771494E+00  0.12884542240E+01  0.17130499037E+03  0.17130000000E+03 0. -1.
      622    1    1    2    0    0 -0.33090561532E+00 -0.20418135747E+00  0.26802053104E+01  0.38242239812E+01  0.27000000000E+01 0.  1.
</event>
<event>
 5   0  0.6580500E-04  0.9118800E+02  0.7818608E-02  0.1180000E+00
       11   -1    0    0    0    0  0.00000000000E+00  0.00000000000E+00  0.39999999673E+01  0.40000000000E+01  0.51109989000E-03 0. -1.
     -623   -1    0    0    0    0  0.00000000000E+00  0.00000000000E+00  0.12525980253E-10  0.17130000000E+03  0.17130000000E+03 0. -1.
       11    1    1    2    0    0  0.47006666639E-01 -0.12804161813E+00 -0.10995842347E-01  0.13684097505E+00  0.51109989000E-03 0. -1.
     -623    1    1    2    0    0 -0.27463333502E-01 -0.59299813544E+00  0.13530787986E+01  0.17130637240E+03  0.17130000000E+03 0. -1.
      622    1    1    2    0    0 -0.19543333137E-01  0.72103975357E+00  0.26579170111E+01  0.38567866296E+01  0.27000000000E+01 0. -1.
</event>
<event>
 5   0  0.6580500E-04  0.9118800E+02  0.7818608E-02  0.1180000E+00
       11   -1    0    0    0    0  0.00000000000E+00  0.00000000000E+00  0.39999999673E+01  0.40000000000E+01  0.51109989000E-03 0.  1.
     -623   -1    0    0    0    0  0.00000000000E+00  0.00000000000E+00  0.12525980253E-10  0.17130000000E+03  0.17130000000E+03 0.  1.
       11    1    1    2    0    0 -0.28512514394E-01 -0.11125674113E+00 -0.17932583932E-01  0.11624484811E+00  0.51109989000E-03 0.  1.
     -623    1    1    2    0    0 -0.31764008878E+00 -0.62073238371E+00  0.13561187753E+01  0.17130678697E+03  0.17130000000E+03 0.  1.
      622    1    1    2    0    0  0.34615260317E+00  0.73198912484E+00  0.26618137760E+01  0.38769681817E+01  0.27000000000E+01 0.  1.
</event>
<event>
 5   0  0.6580500E-04  0.9118800E+02  0.7818608E-02  0.1180000E+00
       11   -1    0    0    0    0  0.00000000000E+00  0.00000000000E+00  0.39999999673E+01  0.40000000000E+01  0.51109989000E-03 0. -1.
     -623   -1    0    0    0    0  0.00000000000E+00  0.00000000000E+00  0.12525980253E-10  0.17130000000E+03  0.17130000000E+03 0.  1.
       11    1    1    2    0    0  0.46616290982E+00  0.34257842149E+00  0.45414281268E+00  0.73546841462E+00  0.51109989000E-03 0. -1.
     -623    1    1    2    0    0  0.25266439734E+00 -0.15950665931E+00  0.18883293609E+01  0.17131066829E+03  0.17130000000E+03 0.  1.
      622    1    1    2    0    0 -0.71882730716E+00 -0.18307176219E+00  0.16575277938E+01  0.32538632969E+01  0.27000000000E+01 0.  0.
</event>
<event>
 5   0  0.6580500E-04  0.9118800E+02  0.7818608E-02  0.1180000E+00
       11   -1    0    0    0    0  0.00000000000E+00  0.00000000000E+00  0.39999999673E+01  0.40000000000E+01  0.51109989000E-03 0. -1.
     -623   -1    0    0    0    0  0.00000000000E+00  0.00000000000E+00  0.12525980253E-10  0.17130000000E+03  0.17130000000E+03 0.  1.
       11    1    1    2    0    0 -0.92004742275E-01  0.55354097821E+00 -0.20819949621E-01  0.56152134304E+00  0.51109989000E-03 0. -1.
     -623    1    1    2    0    0 -0.82995566113E-01 -0.13454988871E+01  0.20838109988E+01  0.17131797782E+03  0.17130000000E+03 0.  1.
      622    1    1    2    0    0  0.17500030839E+00  0.79195790891E+00  0.19370089181E+01  0.34205008385E+01  0.27000000000E+01 0. -1.
</event>
<event>
 5   0  0.6580500E-04  0.9118800E+02  0.7818608E-02  0.1180000E+00
       11   -1    0    0    0    0  0.00000000000E+00  0.00000000000E+00  0.39999999673E+01  0.40000000000E+01  0.51109989000E-03 0.  1.
     -623   -1    0    0    0    0  0.00000000000E+00  0.00000000000E+00  0.12525980253E-10  0.17130000000E+03  0.17130000000E+03 0. -1.
       11    1    1    2    0    0  0.10784502693E+00  0.15337146645E+00 -0.17903884751E+00  0.25924607364E+00  0.51109989000E-03 0.  1.
     -623    1    1    2    0    0 -0.32244671241E+00 -0.73347763120E+00  0.16800163292E+01  0.17131011183E+03  0.17130000000E+03 0. -1.
      622    1    1    2    0    0  0.21460168548E+00  0.58010616474E+00  0.24990224857E+01  0.37306420935E+01  0.27000000000E+01 0.  1.
</event>
<event>
 5   0  0.6580500E-04  0.9118800E+02  0.7818608E-02  0.1180000E+00
       11   -1    0    0    0    0  0.00000000000E+00  0.00000000000E+00  0.39999999673E+01  0.40000000000E+01  0.51109989000E-03 0. -1.
     -623   -1    0    0    0    0  0.00000000000E+00  0.00000000000E+00  0.12525980253E-10  0.17130000000E+03  0.17130000000E+03 0.  1.
       11    1    1    2    0    0  0.52750190913E+00  0.16241423401E+00  0.20257061662E+00  0.58793857118E+00  0.51109989000E-03 0. -1.
     -623    1    1    2    0    0  0.32214131877E+00  0.26802388196E+00  0.19630693909E+01  0.17131176041E+03  0.17130000000E+03 0.  1.
      622    1    1    2    0    0 -0.84964322790E+00 -0.43043811597E+00  0.18343599598E+01  0.34003010232E+01  0.27000000000E+01 0. -1.
</event>
<event>
 5   0  0.6580500E-04  0.9118800E+02  0.7818608E-02  0.1180000E+00
       11   -1    0    0    0    0  0.00000000000E+00  0.00000000000E+00  0.39999999673E+01  0.40000000000E+01  0.51109989000E-03 0. -1.
     -623   -1    0    0    0    0  0.00000000000E+00  0.00000000000E+00  0.12525980253E-10  0.17130000000E+03  0.17130000000E+03 0. -1.
       11    1    1    2    0    0 -0.17258679885E+00 -0.10891904797E+00 -0.35119390351E-01  0.20708258003E+00  0.51109989000E-03 0. -1.
     -623    1    1    2    0    0  0.75313177623E+00 -0.31183928775E+00  0.14819083184E+01  0.17130834919E+03  0.17130000000E+03 0. -1.
      622    1    1    2    0    0 -0.58054497738E+00  0.42075833572E+00  0.25532110393E+01  0.37845682263E+01  0.27000000000E+01 0.  0.
</event>
<event>
 5   0  0.6580500E-04  0.9118800E+02  0.7818608E-02  0.1180000E+00
       11   -1    0    0    0    0  0.00000000000E+00  0.00000000000E+00  0.39999999673E+01  0.40000000000E+01  0.51109989000E-03 0. -1.
     -623   -1    0    0    0    0  0.00000000000E+00  0.00000000000E+00  0.12525980253E-10  0.17130000000E+03  0.17130000000E+03 0. -1.
       11    1    1    2    0    0  0.46447410692E+00 -0.49803768034E+00  0.52849622397E+00  0.86202450488E+00  0.51109989000E-03 0. -1.
     -623    1    1    2    0    0 -0.48035640264E+00  0.94327863385E+00  0.19657475687E+01  0.17131454895E+03  0.17130000000E+03 0. -1.
      622    1    1    2    0    0  0.15882295724E-01 -0.44524095351E+00  0.15057561747E+01  0.31234265497E+01  0.27000000000E+01 0. -1.
</event>
<event>
 5   0  0.6580500E-04  0.9118800E+02  0.7818608E-02  0.1180000E+00
       11   -1    0    0    0    0  0.00000000000E+00  0.00000000000E+00  0.39999999673E+01  0.40000000000E+01  0.51109989000E-03 0.  1.
     -623   -1    0    0    0    0  0.00000000000E+00  0.00000000000E+00  0.12525980253E-10  0.17130000000E+03  0.17130000000E+03 0. -1.
       11    1    1    2    0    0 -0.45252513632E-01 -0.15891112704E+00  0.19118340371E+00  0.25268931787E+00  0.51109989000E-03 0.  1.
     -623    1    1    2    0    0 -0.43537111700E-01  0.35247395499E+00  0.12259161287E+01  0.17130475476E+03  0.17130000000E+03 0. -1.
      622    1    1    2    0    0  0.88789625331E-01 -0.19356282795E+00  0.25829004350E+01  0.37425559211E+01  0.27000000000E+01 0.  1.
</event>
<event>
 5   0  0.6580500E-04  0.9118800E+02  0.7818608E-02  0.1180000E+00
       11   -1    0    0    0    0  0.00000000000E+00  0.00000000000E+00  0.39999999673E+01  0.40000000000E+01  0.51109989000E-03 0.  1.
     -623   -1    0    0    0    0  0.00000000000E+00  0.00000000000E+00  0.12525980253E-10  0.17130000000E+03  0.17130000000E+03 0. -1.
       11    1    1    2    0    0  0.16345862915E-01  0.10231246105E+00 -0.86782899510E-01  0.13515383750E+00  0.51109989000E-03 0.  1.
     -623    1    1    2    0    0  0.10883616960E+00  0.17525217161E+00  0.13458844236E+01  0.17130541137E+03  0.17130000000E+03 0. -1.
      622    1    1    2    0    0 -0.12518203251E+00 -0.27756463266E+00  0.27408984433E+01  0.38594347958E+01  0.27000000000E+01 0.  1.
</event>
<event>
 5   0  0.6580500E-04  0.9118800E+02  0.7818608E-02  0.1180000E+00
       11   -1    0    0    0    0  0.00000000000E+00  0.00000000000E+00  0.39999999673E+01  0.40000000000E+01  0.51109989000E-03 0. -1.
     -623   -1    0    0    0    0  0.00000000000E+00  0.00000000000E+00  0.12525980253E-10  0.17130000000E+03  0.17130000000E+03 0. -1.
       11    1    1    2    0    0  0.60452889738E-01 -0.22854412869E+00  0.11647950885E+00  0.26354261105E+00  0.51109989000E-03 0. -1.
     -623    1    1    2    0    0 -0.58942747429E+00  0.71787383093E-01  0.13699285301E+01  0.17130650683E+03  0.17130000000E+03 0. -1.
      622    1    1    2    0    0  0.52897458455E+00  0.15675674559E+00  0.25135919284E+01  0.37299505588E+01  0.27000000000E+01 0. -1.
</event>
<event>
 5   0  0.6580500E-04  0.9118800E+02  0.7818608E-02  0.1180000E+00
       11   -1    0    0    0    0  0.00000000000E+00  0.00000000000E+00  0.39999999673E+01  0.40000000000E+01  0.51109989000E-03 0.  1.
     -623   -1    0    0    0    0  0.00000000000E+00  0.00000000000E+00  0.12525980253E-10  0.17130000000E+03  0.17130000000E+03 0.  1.
       11    1    1    2    0    0  0.25193208086E-02 -0.12031042093E+00 -0.16927102964E-01  0.12152255922E+00  0.51109989000E-03 0.  1.
     -623    1    1    2    0    0 -0.82903633940E+00  0.38341503960E+00  0.13828980281E+01  0.17130801708E+03  0.17130000000E+03 0.  1.
      622    1    1    2    0    0  0.82651701859E+00 -0.26310461867E+00  0.26340290422E+01  0.38704603625E+01  0.27000000000E+01 0.  1.
</event>
<event>
 5   0  0.6580500E-04  0.9118800E+02  0.7818608E-02  0.1180000E+00
       11   -1    0    0    0    0  0.00000000000E+00  0.00000000000E+00  0.39999999673E+01  0.40000000000E+01  0.51109989000E-03 0. -1.
     -623   -1    0    0    0    0  0.00000000000E+00  0.00000000000E+00  0.12525980253E-10  0.17130000000E+03  0.17130000000E+03 0. -1.
       11    1    1    2    0    0  0.55366435968E-02  0.99917102116E-01 -0.20906592845E+00  0.23178202126E+00  0.51109989000E-03 0. -1.
     -623    1    1    2    0    0 -0.19285166659E+00 -0.27152831495E+00  0.16040802385E+01  0.17130783401E+03  0.17130000000E+03 0. -1.
      622    1    1    2    0    0  0.18731502300E+00  0.17161121284E+00  0.26049856573E+01  0.37603839699E+01  0.27000000000E+01 0. -1.
</event>
<event>
 5   0  0.6580500E-04  0.9118800E+02  0.7818608E-02  0.1180000E+00
       11   -1    0    0    0    0  0.00000000000E+00  0.00000000000E+00  0.39999999673E+01  0.40000000000E+01  0.51109989000E-03 0.  1.
     -623   -1    0    0    0    0  0.00000000000E+00  0.00000000000E+00  0.12525980253E-10  0.17130000000E+03  0.17130000000E+03 0. -1.
       11    1    1    2    0    0  0.30586329776E+00  0.31015065125E+00  0.68877232193E+00  0.81495604548E+00  0.51109989000E-03 0.  1.
     -623    1    1    2    0    0 -0.86663090155E+00 -0.40120198873E+00  0.17432907794E+01  0.17131153223E+03  0.17130000000E+03 0. -1.
      622    1    1    2    0    0  0.56076760379E+00  0.91051337475E-01  0.15679368660E+01  0.31735117248E+01  0.27000000000E+01 0.  0.
</event>
<event>
 5   0  0.6580500E-04  0.9118800E+02  0.7818608E-02  0.1180000E+00
       11   -1    0    0    0    0  0.00000000000E+00  0.00000000000E+00  0.39999999673E+01  0.40000000000E+01  0.51109989000E-03 0. -1.
     -623   -1    0    0    0    0  0.00000000000E+00  0.00000000000E+00  0.12525980253E-10  0.17130000000E+03  0.17130000000E+03 0.  1.
       11    1    1    2    0    0  0.14607897778E+00 -0.25787892878E+00  0.11711292931E+00  0.31867900636E+00  0.51109989000E-03 0. -1.
     -623    1    1    2    0    0 -0.46637523598E+00  0.31969516556E+00  0.14118443342E+01  0.17130675123E+03  0.17130000000E+03 0.  1.
      622    1    1    2    0    0  0.32029625820E+00 -0.61816236780E-01  0.24710427038E+01  0.36745697686E+01  0.27000000000E+01 0. -1.
</event>
<event>
 5   0  0.6580500E-04  0.9118800E+02  0.7818608E-02  0.1180000E+00
       11   -1    0    0    0    0  0.00000000000E+00  0.00000000000E+00  0.39999999673E+01  0.40000000000E+01  0.51109989000E-03 0.  1.
     -623   -1    0    0    0    0  0.00000000000E+00  0.00000000000E+00  0.12525980253E-10  0.17130000000E+03  0.17130000000E+03 0.  1.
       11    1    1    2    0    0 -0.50000856479E-01  0.16667353746E+00  0.37513993670E-01  0.17801043420E+00  0.51109989000E-03 0.  1.
     -623    1    1    2    0    0  0.43233129570E+00  0.12236894033E+00  0.13082015845E+01  0.17130558449E+03  0.17130000000E+03 0.  1.
      622    1    1    2    0    0 -0.38233043922E+00 -0.28904247780E+00  0.26542843892E+01  0.38164050804E+01  0.27000000000E+01 0.  1.
</event>
<event>
 5   0  0.6580500E-04  0.9118800E+02  0.7818608E-02  0.1180000E+00
       11   -1    0    0    0    0  0.00000000000E+00  0.00000000000E+00  0.39999999673E+01  0.40000000000E+01  0.51109989000E-03 0.  1.
     -623   -1    0    0    0    0  0.00000000000E+00  0.00000000000E+00  0.12525980253E-10  0.17130000000E+03  0.17130000000E+03 0. -1.
       11    1    1    2    0    0  0.12084202227E+00 -0.11028272795E+00  0.25198528733E+00  0.30043621734E+00  0.51109989000E-03 0.  1.
     -623    1    1    2    0    0 -0.68310176685E+00 -0.23812826381E+00  0.13168552080E+01  0.17130658902E+03  0.17130000000E+03 0. -1.
      622    1    1    2    0    0  0.56225974458E+00  0.34841099176E+00  0.24311594720E+01  0.36929747654E+01  0.27000000000E+01 0.  1.
</event>
<event>
 5   0  0.6580500E-04  0.9118800E+02  0.7818608E-02  0.1180000E+00
       11   -1    0    0    0    0  0.00000000000E+00  0.00000000000E+00  0.39999999673E+01  0.40000000000E+01  0.51109989000E-03 0. -1.
     -623   -1    0    0    0    0  0.00000000000E+00  0.00000000000E+00  0.12525980253E-10  0.17130000000E+03  0.17130000000E+03 0. -1.
       11    1    1    2    0    0  0.25431253870E-01  0.10796706226E+00 -0.29205541807E-01  0.11470335698E+00  0.51109989000E-03 0. -1.
     -623    1    1    2    0    0  0.15187199194E+00 -0.40265043998E-01  0.12482648787E+01  0.17130462005E+03  0.17130000000E+03 0. -1.
      622    1    1    2    0    0 -0.17730324581E+00 -0.67702018264E-01  0.27809406305E+01  0.38806765898E+01  0.27000000000E+01 0. -1.
</event>
<event>
 5   0  0.6580500E-04  0.9118800E+02  0.7818608E-02  0.1180000E+00
       11   -1    0    0    0    0  0.00000000000E+00  0.00000000000E+00  0.39999999673E+01  0.40000000000E+01  0.51109989000E-03 0. -1.
     -623   -1    0    0    0    0  0.00000000000E+00  0.00000000000E+00  0.12525980253E-10  0.17130000000E+03  0.17130000000E+03 0. -1.
       11    1    1    2    0    0  0.36127512771E+00 -0.75299530152E+00  0.58815269758E+00  0.10214918007E+01  0.51109989000E-03 0. -1.
     -623    1    1    2    0    0 -0.14005173736E+01  0.27126603785E+00  0.31645120775E+01  0.17133516618E+03  0.17130000000E+03 0.  1.
      622    1    1    2    0    0  0.10392422459E+01  0.48172926367E+00  0.24733519229E+00  0.29433420166E+01  0.27000000000E+01 0.  0.
</event>
<event>
 5   0  0.6580500E-04  0.9118800E+02  0.7818608E-02  0.1180000E+00
       11   -1    0    0    0    0  0.00000000000E+00  0.00000000000E+00  0.39999999673E+01  0.40000000000E+01  0.51109989000E-03 0. -1.
     -623   -1    0    0    0    0  0.00000000000E+00  0.00000000000E+00  0.12525980253E-10  0.17130000000E+03  0.17130000000E+03 0. -1.
       11    1    1    2    0    0 -0.81423872235E-01 -0.54559749023E-01  0.37265582361E+00  0.38533003682E+00  0.51109989000E-03 0. -1.
     -623    1    1    2    0    0 -0.59688387882E-02 -0.45873043719E+00  0.12895603497E+01  0.17130546820E+03  0.17130000000E+03 0. -1.
      622    1    1    2    0    0  0.87392711023E-01  0.51329018622E+00  0.23377837941E+01  0.36092017634E+01  0.27000000000E+01 0. -1.
</event>
<event>
 5   0  0.6580500E-04  0.9118800E+02  0.7818608E-02  0.1180000E+00
       11   -1    0    0    0    0  0.00000000000E+00  0.00000000000E+00  0.39999999673E+01  0.40000000000E+01  0.51109989000E-03 0.  1.
     -623   -1    0    0    0    0  0.00000000000E+00  0.00000000000E+00  0.12525980253E-10  0.17130000000E+03  0.17130000000E+03 0.  1.
       11    1    1    2    0    0  0.26503616343E+00 -0.10522278897E+00  0.15955903826E+00  0.32676497848E+00  0.51109989000E-03 0.  1.
     -623    1    1    2    0    0  0.24014537220E+00 -0.20141564402E+00  0.14305718371E+01  0.17130626017E+03  0.17130000000E+03 0.  1.
      622    1    1    2    0    0 -0.50518153563E+00  0.30663843299E+00  0.24098690920E+01  0.36669748503E+01  0.27000000000E+01 0.  1.
</event>
<event>
 5   0  0.6580500E-04  0.9118800E+02  0.7818608E-02  0.1180000E+00
       11   -1    0    0    0    0  0.00000000000E+00  0.00000000000E+00  0.39999999673E+01  0.40000000000E+01  0.51109989000E-03 0.  1.
     -623   -1    0    0    0    0  0.00000000000E+00  0.00000000000E+00  0.12525980253E-10  0.17130000000E+03  0.17130000000E+03 0. -1.
       11    1    1    2    0    0 -0.51135661525E-01 -0.68528331174E-01 -0.76846712597E-02  0.85850471436E-01  0.51109989000E-03 0.  1.
     -623    1    1    2    0    0 -0.11117626131E+00  0.50319973707E-01  0.11842967735E+01  0.17130413729E+03  0.17130000000E+03 0. -1.
      622    1    1    2    0    0  0.16231192283E+00  0.18208357467E-01  0.28233878651E+01  0.39100122431E+01  0.27000000000E+01 0.  1.
</event>
<event>
 5   0  0.6580500E-04  0.9118800E+02  0.7818608E-02  0.1180000E+00
       11   -1    0    0    0    0  0.00000000000E+00  0.00000000000E+00  0.39999999673E+01  0.40000000000E+01  0.51109989000E-03 0. -1.
     -623   -1    0    0    0    0  0.00000000000E+00  0.00000000000E+00  0.12525980253E-10  0.17130000000E+03  0.17130000000E+03 0.  1.
       11    1    1    2    0    0 -0.39529384970E+00 -0.41133956814E+00 -0.74540554261E-03  0.57048951330E+00  0.51109989000E-03 0. -1.
     -623    1    1    2    0    0  0.95104123310E+00  0.27923919213E+00  0.19891378539E+01  0.17131441598E+03  0.17130000000E+03 0.  1.
      622    1    1    2    0    0 -0.55574738340E+00  0.13210037602E+00  0.20116075190E+01  0.34150945044E+01  0.27000000000E+01 0. -1.
</event>
<event>
 5   0  0.6580500E-04  0.9118800E+02  0.7818608E-02  0.1180000E+00
       11   -1    0    0    0    0  0.00000000000E+00  0.00000000000E+00  0.39999999673E+01  0.40000000000E+01  0.51109989000E-03 0.  1.
     -623   -1    0    0    0    0  0.00000000000E+00  0.00000000000E+00  0.12525980253E-10  0.17130000000E+03  0.17130000000E+03 0. -1.
       11    1    1    2    0    0  0.53631097835E-01 -0.13644730721E+00  0.23116386677E+00  0.27373556003E+00  0.51109989000E-03 0.  1.
     -623    1    1    2    0    0  0.37691384447E+00  0.90461907216E+00  0.13692559703E+01  0.17130827552E+03  0.17130000000E+03 0. -1.
      622    1    1    2    0    0 -0.43054494230E+00 -0.76817176494E+00  0.23995801303E+01  0.37179889200E+01  0.27000000000E+01 0.  1.
</event>
<event>
 5   0  0.6580500E-04  0.9118800E+02  0.7818608E-02  0.1180000E+00
       11   -1    0    0    0    0  0.00000000000E+00  0.00000000000E+00  0.39999999673E+01  0.40000000000E+01  0.51109989000E-03 0.  1.
     -623   -1    0    0    0    0  0.00000000000E+00  0.00000000000E+00  0.12525980253E-10  0.17130000000E+03  0.17130000000E+03 0. -1.
       11    1    1    2    0    0 -0.44242654067E-01  0.35808268452E+00  0.43767462537E+00  0.56722126221E+00  0.51109989000E-03 0.  1.
     -623    1    1    2    0    0 -0.17935784979E+00 -0.69598850108E+00  0.14947832469E+01  0.17130802943E+03  0.17130000000E+03 0. -1.
      622    1    1    2    0    0  0.22360050386E+00  0.33790581655E+00  0.20675420951E+01  0.34247493107E+01  0.27000000000E+01 0.  1.
</event>
<event>
 5   0  0.6580500E-04  0.9118800E+02  0.7818608E-02  0.1180000E+00
       11   -1    0    0    0    0  0.00000000000E+00  0.00000000000E+00  0.39999999673E+01  0.40000000000E+01  0.51109989000E-03 0. -1.
     -623   -1    0    0    0    0  0.00000000000E+00  0.00000000000E+00  0.12525980253E-10  0.17130000000E+03  0.17130000000E+03 0.  1.
       11    1    1    2    0    0 -0.17962800684E+00  0.74308584668E-01  0.63058848027E-01  0.20436405293E+00  0.51109989000E-03 0. -1.
     -623    1    1    2    0    0  0.57249692682E+00 -0.81913969116E+00  0.14187912259E+01  0.17130879052E+03  0.17130000000E+03 0.  1.
      622    1    1    2    0    0 -0.39286891998E+00  0.74483110649E+00  0.25181498934E+01  0.37868454222E+01  0.27000000000E+01 0. -1.
</event>
<event>
 5   0  0.6580500E-04  0.9118800E+02  0.7818608E-02  0.1180000E+00
       11   -1    0    0    0    0  0.00000000000E+00  0.00000000000E+00  0.39999999673E+01  0.40000000000E+01  0.51109989000E-03 0. -1.
     -623   -1    0    0    0    0  0.00000000000E+00  0.00000000000E+00  0.12525980253E-10  0.17130000000E+03  0.17130000000E+03 0. -1.
       11    1    1    2    0    0 -0.17806808796E+00  0.13013725461E+00 -0.17738998427E+00  0.28303960276E+00  0.51109989000E-03 0. -1.
     -623    1    1    2    0    0  0.23993790496E+01  0.20042740597E+00  0.31053150556E+01  0.17134506171E+03  0.17130000000E+03 0. -1.
      622    1    1    2    0    0 -0.22213109617E+01 -0.33056466059E+00  0.10720748960E+01  0.36718986868E+01  0.27000000000E+01 0. -1.
</event>
<event>
 5   0  0.6580500E-04  0.9118800E+02  0.7818608E-02  0.1180000E+00
       11   -1    0    0    0    0  0.00000000000E+00  0.00000000000E+00  0.39999999673E+01  0.40000000000E+01  0.51109989000E-03 0.  1.
     -623   -1    0    0    0    0  0.00000000000E+00  0.00000000000E+00  0.12525980253E-10  0.17130000000E+03  0.17130000000E+03 0. -1.
       11    1    1    2    0    0 -0.80298734204E-01 -0.27665472781E+00  0.19622189650E+00  0.34855274926E+00  0.51109989000E-03 0.  1.
     -623    1    1    2    0    0  0.15767602821E+00  0.46021852270E+00  0.13627140080E+01  0.17130611096E+03  0.17130000000E+03 0. -1.
      622    1    1    2    0    0 -0.77377294008E-01 -0.18356379490E+00  0.24410640629E+01  0.36453362906E+01  0.27000000000E+01 0.  1.
</event>
<event>
 5   0  0.6580500E-04  0.9118800E+02  0.7818608E-02  0.1180000E+00
       11   -1    0    0    0    0  0.00000000000E+00  0.00000000000E+00  0.39999999673E+01  0.40000000000E+01  0.51109989000E-03 0. -1.
     -623   -1    0    0    0    0  0.00000000000E+00  0.00000000000E+00  0.12525980253E-10  0.17130000000E+03  0.17130000000E+03 0. -1.
       11    1    1    2    0    0  0.25446709986E-01  0.77325842912E+00 -0.50990960302E+00  0.92659818569E+00  0.51109989000E-03 0. -1.
     -623    1    1    2    0    0 -0.96752305525E+00 -0.12786633296E+01  0.36560290373E+01  0.17134651333E+03  0.17130000000E+03 0. -1.
      622    1    1    2    0    0  0.94207634526E+00  0.50540490048E+00  0.85388053312E+00  0.30268884880E+01  0.27000000000E+01 0.  0.
</event>
<event>
 5   0  0.6580500E-04  0.9118800E+02  0.7818608E-02  0.1180000E+00
       11   -1    0    0    0    0  0.00000000000E+00  0.00000000000E+00  0.39999999673E+01  0.40000000000E+01  0.51109989000E-03 0. -1.
     -623   -1    0    0    0    0  0.00000000000E+00  0.00000000000E+00  0.12525980253E-10  0.17130000000E+03  0.17130000000E+03 0. -1.
       11    1    1    2    0    0 -0.17343806006E+00  0.80268996595E-01 -0.14127119827E-01  0.19163431120E+00  0.51109989000E-03 0. -1.
     -623    1    1    2    0    0 -0.17632832562E+00 -0.74248778897E+00  0.14463684395E+01  0.17130780590E+03  0.17130000000E+03 0. -1.
      622    1    1    2    0    0  0.34976638568E+00  0.66221879237E+00  0.25677586477E+01  0.38005597912E+01  0.27000000000E+01 0. -1.
</event>
<event>
 5   0  0.6580500E-04  0.9118800E+02  0.7818608E-02  0.1180000E+00
       11   -1    0    0    0    0  0.00000000000E+00  0.00000000000E+00  0.39999999673E+01  0.40000000000E+01  0.51109989000E-03 0.  1.
     -623   -1    0    0    0    0  0.00000000000E+00  0.00000000000E+00  0.12525980253E-10  0.17130000000E+03  0.17130000000E+03 0. -1.
       11    1    1    2    0    0 -0.17116975884E+00 -0.41592586665E-01  0.40604823859E-01  0.18077069052E+00  0.51109989000E-03 0.  1.
     -623    1    1    2    0    0  0.34856462925E+00  0.14773234380E+00  0.12734213743E+01  0.17130515148E+03  0.17130000000E+03 0. -1.
      622    1    1    2    0    0 -0.17739487041E+00 -0.10613975714E+00  0.26859737692E+01  0.38140778279E+01  0.27000000000E+01 0.  1.
</event>
<event>
 5   0  0.6580500E-04  0.9118800E+02  0.7818608E-02  0.1180000E+00
       11   -1    0    0    0    0  0.00000000000E+00  0.00000000000E+00  0.39999999673E+01  0.40000000000E+01  0.51109989000E-03 0. -1.
     -623   -1    0    0    0    0  0.00000000000E+00  0.00000000000E+00  0.12525980253E-10  0.17130000000E+03  0.17130000000E+03 0.  1.
       11    1    1    2    0    0 -0.64568763946E+00 -0.82360483064E-01  0.41315095476E+00  0.77096676295E+00  0.51109989000E-03 0. -1.
     -623    1    1    2    0    0  0.97245221785E+00  0.84750317870E+00  0.20592898021E+01  0.17131723381E+03  0.17130000000E+03 0.  1.
      622    1    1    2    0    0 -0.32676457839E+00 -0.76514269564E+00  0.15275592105E+01  0.32117994296E+01  0.27000000000E+01 0. -1.
</event>
<event>
 5   0  0.6580500E-04  0.9118800E+02  0.7818608E-02  0.1180000E+00
       11   -1    0    0    0    0  0.00000000000E+00  0.00000000000E+00  0.39999999673E+01  0.40000000000E+01  0.51109989000E-03 0.  1.
     -623   -1    0    0    0    0  0.00000000000E+00  0.00000000000E+00  0.12525980253E-10  0.17130000000E+03  0.17130000000E+03 0.  1.
       11    1    1    2    0    0 -0.83973217205E-01  0.20709348902E+00  0.43060462833E-01  0.22758224685E+00  0.51109989000E-03 0.  1.
     -623    1    1    2    0    0 -0.24658534014E+00 -0.10533256251E+00  0.13531661846E+01  0.17130555437E+03  0.17130000000E+03 0.  1.
      622    1    1    2    0    0  0.33055855734E+00 -0.10176092651E+00  0.26037733199E+01  0.37668633832E+01  0.27000000000E+01 0.  1.
</event>
<event>
 5   0  0.6580500E-04  0.9118800E+02  0.7818608E-02  0.1180000E+00
       11   -1    0    0    0    0  0.00000000000E+00  0.00000000000E+00  0.39999999673E+01  0.40000000000E+01  0.51109989000E-03 0.  1.
     -623   -1    0    0    0    0  0.00000000000E+00  0.00000000000E+00  0.12525980253E-10  0.17130000000E+03  0.17130000000E+03 0.  1.
       11    1    1    2    0    0 -0.12145181383E+00 -0.13475974401E+00 -0.25119437134E-01  0.18314469425E+00  0.51109989000E-03 0.  1.
     -623    1    1    2    0    0  0.14855841014E+00  0.32744059494E+00  0.13422982944E+01  0.17130563637E+03  0.17130000000E+03 0.  1.
      622    1    1    2    0    0 -0.27106596310E-01 -0.19268085093E+00  0.26828211101E+01  0.38112189371E+01  0.27000000000E+01 0.  1.
</event>
<event>
 5   0  0.6580500E-04  0.9118800E+02  0.7818608E-02  0.1180000E+00
       11   -1    0    0    0    0  0.00000000000E+00  0.00000000000E+00  0.39999999673E+01  0.40000000000E+01  0.51109989000E-03 0. -1.
     -623   -1    0    0    0    0  0.00000000000E+00  0.00000000000E+00  0.12525980253E-10  0.17130000000E+03  0.17130000000E+03 0.  1.
       11    1    1    2    0    0 -0.13692942467E-01 -0.14085264748E-01  0.50885401220E-02  0.20298911719E-01  0.51109989000E-03 0. -1.
     -623    1    1    2    0    0  0.77229237484E+00  0.84608086513E-01  0.11804464977E+01  0.17130582900E+03  0.17130000000E+03 0.  1.
      622    1    1    2    0    0 -0.75859943237E+00 -0.70522821765E-01  0.28144649295E+01  0.39738720924E+01  0.27000000000E+01 0. -1.
</event>
<event>
 5   0  0.6580500E-04  0.9118800E+02  0.7818608E-02  0.1180000E+00
       11   -1    0    0    0    0  0.00000000000E+00  0.00000000000E+00  0.39999999673E+01  0.40000000000E+01  0.51109989000E-03 0.  1.
     -623   -1    0    0    0    0  0.00000000000E+00  0.00000000000E+00  0.12525980253E-10  0.17130000000E+03  0.17130000000E+03 0. -1.
       11    1    1    2    0    0 -0.34923940045E-02  0.12476697863E-01 -0.15966717128E-01  0.20568473069E-01  0.51109989000E-03 0.  1.
     -623    1    1    2    0    0 -0.22629471315E+00 -0.14240634940E+01  0.14859346954E+01  0.17131251317E+03  0.17130000000E+03 0. -1.
      622    1    1    2    0    0  0.22978710715E+00  0.14115867962E+01  0.25300319891E+01  0.39669183586E+01  0.27000000000E+01 0.  1.
</event>
<event>
 5   0  0.6580500E-04  0.9118800E+02  0.7818608E-02  0.1180000E+00
       11   -1    0    0    0    0  0.00000000000E+00  0.00000000000E+00  0.39999999673E+01  0.40000000000E+01  0.51109989000E-03 0. -1.
     -623   -1    0    0    0    0  0.00000000000E+00  0.00000000000E+00  0.12525980253E-10  0.17130000000E+03  0.17130000000E+03 0.  1.
       11    1    1    2    0    0  0.14101599022E+00 -0.15994978995E+00  0.61574292631E-01  0.22194841639E+00  0.51109989000E-03 0. -1.
     -623    1    1    2    0    0  0.73051192146E+00 -0.35639620627E+00  0.15109469571E+01  0.17130859181E+03  0.17130000000E+03 0.  1.
      622    1    1    2    0    0 -0.87152791168E+00  0.51634599622E+00  0.24274787177E+01  0.37694597774E+01  0.27000000000E+01 0. -1.
</event>
<event>
 5   0  0.6580500E-04  0.9118800E+02  0.7818608E-02  0.1180000E+00
       11   -1    0    0    0    0  0.00000000000E+00  0.00000000000E+00  0.39999999673E+01  0.40000000000E+01  0.51109989000E-03 0. -1.
     -623   -1    0    0    0    0  0.00000000000E+00  0.00000000000E+00  0.12525980253E-10  0.17130000000E+03  0.17130000000E+03 0.  1.
       11    1    1    2    0    0 -0.38854670338E-01  0.49548430773E+00  0.25218846016E+00  0.55732725151E+00  0.51109989000E-03 0. -1.
     -623    1    1    2    0    0  0.24110339809E+00 -0.53887808669E+00  0.16363018446E+01  0.17130883224E+03  0.17130000000E+03 0.  1.
      622    1    1    2    0    0 -0.20224872775E+00  0.43393778962E-01  0.21115096626E+01  0.34338405063E+01  0.27000000000E+01 0. -1.
</event>
<event>
 5   0  0.6580500E-04  0.9118800E+02  0.7818608E-02  0.1180000E+00
       11   -1    0    0    0    0  0.00000000000E+00  0.00000000000E+00  0.39999999673E+01  0.40000000000E+01  0.51109989000E-03 0.  1.
     -623   -1    0    0    0    0  0.00000000000E+00  0.00000000000E+00  0.12525980253E-10  0.17130000000E+03  0.17130000000E+03 0.  1.
       11    1    1    2    0    0 -0.13102133349E-01  0.22704066701E-01 -0.58731970620E-02  0.26868126281E-01  0.51109989000E-03 0.  1.
     -623    1    1    2    0    0 -0.57823007339E-01  0.31297315831E+00  0.11167892729E+01  0.17130393607E+03  0.17130000000E+03 0.  1.
      622    1    1    2    0    0  0.70925140688E-01 -0.33567722501E+00  0.28890838915E+01  0.39691958011E+01  0.27000000000E+01 0.  1.
</event>
<event>
 5   0  0.6580500E-04  0.9118800E+02  0.7818608E-02  0.1180000E+00
       11   -1    0    0    0    0  0.00000000000E+00  0.00000000000E+00  0.39999999673E+01  0.40000000000E+01  0.51109989000E-03 0.  1.
     -623   -1    0    0    0    0  0.00000000000E+00  0.00000000000E+00  0.12525980253E-10  0.17130000000E+03  0.17130000000E+03 0. -1.
       11    1    1    2    0    0  0.81947153185E-01 -0.17021665400E+00 -0.43604514397E-01  0.19388310940E+00  0.51109989000E-03 0.  1.
     -623    1    1    2    0    0 -0.63299163765E+00 -0.13162959653E+00  0.14462875517E+01  0.17130732545E+03  0.17130000000E+03 0. -1.
      622    1    1    2    0    0  0.55104448446E+00  0.30184625053E+00  0.25973169300E+01  0.37987914417E+01  0.27000000000E+01 0.  1.
</event>
<event>
 5   0  0.6580500E-04  0.9118800E+02  0.7818608E-02  0.1180000E+00
       11   -1    0    0    0    0  0.00000000000E+00  0.00000000000E+00  0.39999999673E+01  0.40000000000E+01  0.51109989000E-03 0.  1.
     -623   -1    0    0    0    0  0.00000000000E+00  0.00000000000E+00  0.12525980253E-10  0.17130000000E+03  0.17130000000E+03 0.  1.
       11    1    1    2    0    0 -0.16015689657E+00  0.40948747308E+00  0.54024617863E+00  0.69656041868E+00  0.51109989000E-03 0.  1.
     -623    1    1    2    0    0 -0.12800386133E+00  0.16297075094E-01  0.16414671839E+01  0.17130791303E+03  0.17130000000E+03 0.  1.
      622    1    1    2    0    0  0.28816075790E+00 -0.42578454817E+00  0.18182866048E+01  0.32955265560E+01  0.27000000000E+01 0.  1.
</event>
<event>
 5   0  0.6580500E-04  0.9118800E+02  0.7818608E-02  0.1180000E+00
       11   -1    0    0    0    0  0.00000000000E+00  0.00000000000E+00  0.39999999673E+01  0.40000000000E+01  0.51109989000E-03 0. -1.
     -623   -1    0    0    0    0  0.00000000000E+00  0.00000000000E+00  0.12525980253E-10  0.17130000000E+03  0.17130000000E+03 0. -1.
       11    1    1    2    0    0 -0.84385369073E-01  0.68403760733E-01 -0.17300570591E-01  0.10999789072E+00  0.51109989000E-03 0. -1.
     -623    1    1    2    0    0  0.86837911638E-01 -0.31881323324E+00  0.12347971984E+01  0.17130476907E+03  0.17130000000E+03 0. -1.
      622    1    1    2    0    0 -0.24525425648E-02  0.25040947251E+00  0.27825033396E+01  0.38852330373E+01  0.27000000000E+01 0. -1.
</event>
<event>
 5   0  0.6580500E-04  0.9118800E+02  0.7818608E-02  0.1180000E+00
       11   -1    0    0    0    0  0.00000000000E+00  0.00000000000E+00  0.39999999673E+01  0.40000000000E+01  0.51109989000E-03 0. -1.
     -623   -1    0    0    0    0  0.00000000000E+00  0.00000000000E+00  0.12525980253E-10  0.17130000000E+03  0.17130000000E+03 0. -1.
       11    1    1    2    0    0  0.19812122532E+00 -0.42166350664E-01  0.50669607612E-01  0.20880060203E+00  0.51109989000E-03 0. -1.
     -623    1    1    2    0    0 -0.10994417248E+00 -0.15396267930E+00  0.13038511444E+01  0.17130506653E+03  0.17130000000E+03 0. -1.
      622    1    1    2    0    0 -0.88177052841E-01  0.19612902996E+00  0.26454792153E+01  0.37861328645E+01  0.27000000000E+01 0. -1.
</event>
<event>
 5   0  0.6580500E-04  0.9118800E+02  0.7818608E-02  0.1180000E+00
       11   -1    0    0    0    0  0.00000000000E+00  0.00000000000E+00  0.39999999673E+01  0.40000000000E+01  0.51109989000E-03 0. -1.
     -623   -1    0    0    0    0  0.00000000000E+00  0.00000000000E+00  0.12525980253E-10  0.17130000000E+03  0.17130000000E+03 0.  1.
       11    1    1    2    0    0 -0.80662175873E-01  0.47344974786E-01 -0.20964012658E+00  0.22955865732E+00  0.51109989000E-03 0. -1.
     -623    1    1    2    0    0 -0.67023207079E+00 -0.89844200578E-01  0.17022848621E+01  0.17130979265E+03  0.17130000000E+03 0.  1.
      622    1    1    2    0    0  0.75089424666E+00  0.42499225793E-01  0.25073552318E+01  0.37606486957E+01  0.27000000000E+01 0. -1.
</event>
<event>
 5   0  0.6580500E-04  0.9118800E+02  0.7818608E-02  0.1180000E+00
       11   -1    0    0    0    0  0.00000000000E+00  0.00000000000E+00  0.39999999673E+01  0.40000000000E+01  0.51109989000E-03 0. -1.
     -623   -1    0    0    0    0  0.00000000000E+00  0.00000000000E+00  0.12525980253E-10  0.17130000000E+03  0.17130000000E+03 0.  1.
       11    1    1    2    0    0  0.14796522176E+00  0.19248619867E-01  0.12986635436E+00  0.19781240465E+00  0.51109989000E-03 0. -1.
     -623    1    1    2    0    0 -0.14849928756E+00 -0.58423820606E+00  0.12616757831E+01  0.17130570689E+03  0.17130000000E+03 0.  1.
      622    1    1    2    0    0  0.53406579389E-03  0.56498958620E+00  0.26084578298E+01  0.37964807082E+01  0.27000000000E+01 0. -1.
</event>
<event>
 5   0  0.6580500E-04  0.9118800E+02  0.7818608E-02  0.1180000E+00
       11   -1    0    0    0    0  0.00000000000E+00  0.00000000000E+00  0.39999999673E+01  0.40000000000E+01  0.51109989000E-03 0. -1.
     -623   -1    0    0    0    0  0.00000000000E+00  0.00000000000E+00  0.12525980253E-10  0.17130000000E+03  0.17130000000E+03 0. -1.
       11    1    1    2    0    0 -0.13945545274E+00  0.27178711475E-01  0.26281166288E-03  0.14208038552E+00  0.51109989000E-03 0. -1.
     -623    1    1    2    0    0  0.48267994312E+00 -0.36950264582E+00  0.12955798363E+01  0.17130597783E+03  0.17130000000E+03 0. -1.
      622    1    1    2    0    0 -0.34322449038E+00  0.34232393434E+00  0.27041573193E+01  0.38519417875E+01  0.27000000000E+01 0. -1.
</event>
<event>
 5   0  0.6580500E-04  0.9118800E+02  0.7818608E-02  0.1180000E+00
       11   -1    0    0    0    0  0.00000000000E+00  0.00000000000E+00  0.39999999673E+01  0.40000000000E+01  0.51109989000E-03 0. -1.
     -623   -1    0    0    0    0  0.00000000000E+00  0.00000000000E+00  0.12525980253E-10  0.17130000000E+03  0.17130000000E+03 0. -1.
       11    1    1    2    0    0 -0.33930313689E+00 -0.12441341822E+00  0.46267016892E-01  0.36434354037E+00  0.51109989000E-03 0. -1.
     -623    1    1    2    0    0 -0.18597774465E+00  0.29366485435E+00  0.15942874296E+01  0.17130777151E+03  0.17130000000E+03 0. -1.
      622    1    1    2    0    0  0.52528088154E+00 -0.16925143613E+00  0.23594455209E+01  0.36278849512E+01  0.27000000000E+01 0. -1.
</event>
<event>
 5   0  0.6580500E-04  0.9118800E+02  0.7818608E-02  0.1180000E+00
       11   -1    0    0    0    0  0.00000000000E+00  0.00000000000E+00  0.39999999673E+01  0.40000000000E+01  0.51109989000E-03 0.  1.
     -623   -1    0    0    0    0  0.00000000000E+00  0.00000000000E+00  0.12525980253E-10  0.17130000000E+03  0.17130000000E+03 0.  1.
       11    1    1    2    0    0  0.30979755341E+00 -0.23284842407E+00 -0.31379386188E+00  0.49865796060E+00  0.51109989000E-03 0.  1.
     -623    1    1    2    0    0  0.74092607936E+00  0.35957179994E+00  0.23851877687E+01  0.17131858447E+03  0.17130000000E+03 0.  1.
      622    1    1    2    0    0 -0.10507236328E+01 -0.12672337588E+00  0.19286060605E+01  0.34827575717E+01  0.27000000000E+01 0.  0.
</event>
<event>
 5   0  0.6580500E-04  0.9118800E+02  0.7818608E-02  0.1180000E+00
       11   -1    0    0    0    0  0.00000000000E+00  0.00000000000E+00  0.39999999673E+01  0.40000000000E+01  0.51109989000E-03 0.  1.
     -623   -1    0    0    0    0  0.00000000000E+00  0.00000000000E+00  0.12525980253E-10  0.17130000000E+03  0.17130000000E+03 0. -1.
       11    1    1    2    0    0  0.24511584431E+00 -0.63263807465E-01  0.44140051384E-01  0.25696827008E+00  0.51109989000E-03 0.  1.
     -623    1    1    2    0    0 -0.14514655241E+01  0.14968700820E+01  0.22215896538E+01  0.17132709311E+03  0.17130000000E+03 0. -1.
      622    1    1    2    0    0  0.12063496798E+01 -0.14336062745E+01  0.17342702622E+01  0.37159386220E+01  0.27000000000E+01 0.  0.
</event>
<event>
 5   0  0.6580500E-04  0.9118800E+02  0.7818608E-02  0.1180000E+00
       11   -1    0    0    0    0  0.00000000000E+00  0.00000000000E+00  0.39999999673E+01  0.40000000000E+01  0.51109989000E-03 0.  1.
     -623   -1    0    0    0    0  0.00000000000E+00  0.00000000000E+00  0.12525980253E-10  0.17130000000E+03  0.17130000000E+03 0.  1.
       11    1    1    2    0    0  0.38474911911E-01 -0.81739321795E-01 -0.10068604512E+00  0.13527592720E+00  0.51109989000E-03 0.  1.
     -623    1    1    2    0    0  0.10042252724E+00  0.32224585255E+00  0.13575416611E+01  0.17130571166E+03  0.17130000000E+03 0.  1.
      622    1    1    2    0    0 -0.13889743915E+00 -0.24050653075E+00  0.27431443514E+01  0.38590124154E+01  0.27000000000E+01 0.  1.
</event>
<event>
 5   0  0.6580500E-04  0.9118800E+02  0.7818608E-02  0.1180000E+00
       11   -1    0    0    0    0  0.00000000000E+00  0.00000000000E+00  0.39999999673E+01  0.40000000000E+01  0.51109989000E-03 0.  1.
     -623   -1    0    0    0    0  0.00000000000E+00  0.00000000000E+00  0.12525980253E-10  0.17130000000E+03  0.17130000000E+03 0. -1.
       11    1    1    2    0    0 -0.72920640128E-02 -0.83565768476E-01 -0.37744625270E-01  0.91985486992E-01  0.51109989000E-03 0.  1.
     -623    1    1    2    0    0 -0.38010779018E-01  0.12556234562E+00  0.12191492655E+01  0.17130438855E+03  0.17130000000E+03 0. -1.
      622    1    1    2    0    0  0.45302843031E-01 -0.41996577140E-01  0.28185953271E+01  0.39036259654E+01  0.27000000000E+01 0.  1.
</event>
<event>
 5   0  0.6580500E-04  0.9118800E+02  0.7818608E-02  0.1180000E+00
       11   -1    0    0    0    0  0.00000000000E+00  0.00000000000E+00  0.39999999673E+01  0.40000000000E+01  0.51109989000E-03 0. -1.
     -623   -1    0    0    0    0  0.00000000000E+00  0.00000000000E+00  0.12525980253E-10  0.17130000000E+03  0.17130000000E+03 0. -1.
       11    1    1    2    0    0 -0.29074746148E+00  0.29857977932E+00  0.21180460535E-01  0.41729227660E+00  0.51109989000E-03 0. -1.
     -623    1    1    2    0    0  0.86874726828E+00 -0.11766120066E+00  0.17202506344E+01  0.17131088065E+03  0.17130000000E+03 0. -1.
      622    1    1    2    0    0 -0.57799980681E+00 -0.18091857866E+00  0.22585688724E+01  0.35718270759E+01  0.27000000000E+01 0. -1.
</event>
<event>
 5   0  0.6580500E-04  0.9118800E+02  0.7818608E-02  0.1180000E+00
       11   -1    0    0    0    0  0.00000000000E+00  0.00000000000E+00  0.39999999673E+01  0.40000000000E+01  0.51109989000E-03 0.  1.
     -623   -1    0    0    0    0  0.00000000000E+00  0.00000000000E+00  0.12525980253E-10  0.17130000000E+03  0.17130000000E+03 0.  1.
       11    1    1    2    0    0 -0.73513764253E-02  0.12855897495E+00 -0.22074897193E+00  0.25556177845E+00  0.51109989000E-03 0.  1.
     -623    1    1    2    0    0 -0.34105269159E+00 -0.22702582477E+00  0.16642674122E+01  0.17130857434E+03  0.17130000000E+03 0.  1.
      622    1    1    2    0    0  0.34840406802E+00  0.98466849828E-01  0.25564815271E+01  0.37358638778E+01  0.27000000000E+01 0.  1.
</event>
<event>
 5   0  0.6580500E-04  0.9118800E+02  0.7818608E-02  0.1180000E+00
       11   -1    0    0    0    0  0.00000000000E+00  0.00000000000E+00  0.39999999673E+01  0.40000000000E+01  0.51109989000E-03 0.  1.
     -623   -1    0    0    0    0  0.00000000000E+00  0.00000000000E+00  0.12525980253E-10  0.17130000000E+03  0.17130000000E+03 0. -1.
       11    1    1    2    0    0  0.15945979710E-01  0.10790231724E+00  0.31537790708E-02  0.10912099651E+00  0.51109989000E-03 0.  1.
     -623    1    1    2    0    0  0.22263933658E+00 -0.14832518576E-01  0.12131771015E+01  0.17130444124E+03  0.17130000000E+03 0. -1.
      622    1    1    2    0    0 -0.23858531629E+00 -0.93069798661E-01  0.27836690868E+01  0.38864377681E+01  0.27000000000E+01 0.  1.
</event>
<event>
 5   0  0.6580500E-04  0.9118800E+02  0.7818608E-02  0.1180000E+00
       11   -1    0    0    0    0  0.00000000000E+00  0.00000000000E+00  0.39999999673E+01  0.40000000000E+01  0.51109989000E-03 0.  1.
     -623   -1    0    0    0    0  0.00000000000E+00  0.00000000000E+00  0.12525980253E-10  0.17130000000E+03  0.17130000000E+03 0. -1.
       11    1    1    2    0    0  0.79507540963E-01 -0.41638508892E-01 -0.19753639905E-01  0.91900391758E-01  0.51109989000E-03 0.  1.
     -623    1    1    2    0    0  0.31614643201E+00  0.32595107671E+00  0.12438043024E+01  0.17130511738E+03  0.17130000000E+03 0. -1.
      622    1    1    2    0    0 -0.39565397297E+00 -0.28431256782E+00  0.27759493049E+01  0.39029822246E+01  0.27000000000E+01 0.  1.
</event>
<event>
 5   0  0.6580500E-04  0.9118800E+02  0.7818608E-02  0.1180000E+00
       11   -1    0    0    0    0  0.00000000000E+00  0.00000000000E+00  0.39999999673E+01  0.40000000000E+01  0.51109989000E-03 0. -1.
     -623   -1    0    0    0    0  0.00000000000E+00  0.00000000000E+00  0.12525980253E-10  0.17130000000E+03  0.17130000000E+03 0. -1.
       11    1    1    2    0    0 -0.18265439162E-01  0.47016488853E-01 -0.84884227467E-01  0.98740922558E-01  0.51109989000E-03 0. -1.
     -623    1    1    2    0    0 -0.20024195898E+00 -0.21374579660E+00  0.12894441706E+01  0.17130510340E+03  0.17130000000E+03 0. -1.
      622    1    1    2    0    0  0.21850739814E+00  0.16672930775E+00  0.27954400243E+01  0.38961556789E+01  0.27000000000E+01 0. -1.
</event>
<event>
 5   0  0.6580500E-04  0.9118800E+02  0.7818608E-02  0.1180000E+00
       11   -1    0    0    0    0  0.00000000000E+00  0.00000000000E+00  0.39999999673E+01  0.40000000000E+01  0.51109989000E-03 0.  1.
     -623   -1    0    0    0    0  0.00000000000E+00  0.00000000000E+00  0.12525980253E-10  0.17130000000E+03  0.17130000000E+03 0.  1.
       11    1    1    2    0    0 -0.21094217964E-02 -0.34973582142E-01 -0.83157476513E-01  0.90238729109E-01  0.51109989000E-03 0.  1.
     -623    1    1    2    0    0 -0.89273371363E-01 -0.29781079456E+00  0.12836307201E+01  0.17130509149E+03  0.17130000000E+03 0.  1.
      622    1    1    2    0    0  0.91382793160E-01  0.33278437670E+00  0.27995267238E+01  0.39046697855E+01  0.27000000000E+01 0.  1.
</event>
<event>
 5   0  0.6580500E-04  0.9118800E+02  0.7818608E-02  0.1180000E+00
       11   -1    0    0    0    0  0.00000000000E+00  0.00000000000E+00  0.39999999673E+01  0.40000000000E+01  0.51109989000E-03 0.  1.
     -623   -1    0    0    0    0  0.00000000000E+00  0.00000000000E+00  0.12525980253E-10  0.17130000000E+03  0.17130000000E+03 0.  1.
       11    1    1    2    0    0 -0.14448083693E+00 -0.65830657162E-01  0.53890366028E-01  0.16766878193E+00  0.51109989000E-03 0.  1.
     -623    1    1    2    0    0 -0.33857470087E+00 -0.13363869886E+00  0.12845726896E+01  0.17130520313E+03  0.17130000000E+03 0.  1.
      622    1    1    2    0    0  0.48305553780E+00  0.19946935602E+00  0.26615369117E+01  0.38271280889E+01  0.27000000000E+01 0.  1.
</event>
<event>
 5   0  0.6580500E-04  0.9118800E+02  0.7818608E-02  0.1180000E+00
       11   -1    0    0    0    0  0.00000000000E+00  0.00000000000E+00  0.39999999673E+01  0.40000000000E+01  0.51109989000E-03 0.  1.
     -623   -1    0    0    0    0  0.00000000000E+00  0.00000000000E+00  0.12525980253E-10  0.17130000000E+03  0.17130000000E+03 0.  1.
       11    1    1    2    0    0 -0.12628330815E+00  0.64834693502E+00  0.31399061075E+00  0.73136282851E+00  0.51109989000E-03 0.  1.
     -623    1    1    2    0    0 -0.39621826381E+00 -0.48164498545E-01  0.20496332981E+01  0.17131272663E+03  0.17130000000E+03 0.  1.
      622    1    1    2    0    0  0.52250157196E+00 -0.60018243648E+00  0.16363760585E+01  0.32559105415E+01  0.27000000000E+01 0. -1.
</event>
<event>
 5   0  0.6580500E-04  0.9118800E+02  0.7818608E-02  0.1180000E+00
       11   -1    0    0    0    0  0.00000000000E+00  0.00000000000E+00  0.39999999673E+01  0.40000000000E+01  0.51109989000E-03 0. -1.
     -623   -1    0    0    0    0  0.00000000000E+00  0.00000000000E+00  0.12525980253E-10  0.17130000000E+03  0.17130000000E+03 0. -1.
       11    1    1    2    0    0 -0.44318198586E-02  0.13280021942E+00  0.39384577060E-01  0.13858912453E+00  0.51109989000E-03 0. -1.
     -623    1    1    2    0    0  0.46866723048E+00 -0.12968076984E+00  0.12468313068E+01  0.17130522775E+03  0.17130000000E+03 0. -1.
      622    1    1    2    0    0 -0.46423541062E+00 -0.31194495821E-02  0.27137840835E+01  0.38561831258E+01  0.27000000000E+01 0. -1.
</event>
<event>
 5   0  0.6580500E-04  0.9118800E+02  0.7818608E-02  0.1180000E+00
       11   -1    0    0    0    0  0.00000000000E+00  0.00000000000E+00  0.39999999673E+01  0.40000000000E+01  0.51109989000E-03 0. -1.
     -623   -1    0    0    0    0  0.00000000000E+00  0.00000000000E+00  0.12525980253E-10  0.17130000000E+03  0.17130000000E+03 0.  1.
       11    1    1    2    0    0  0.28953537184E+00  0.56811801643E-01  0.66763743115E-01  0.30251606730E+00  0.51109989000E-03 0. -1.
     -623    1    1    2    0    0 -0.42056984186E-01 -0.26433036483E-01  0.14282065143E+01  0.17130596090E+03  0.17130000000E+03 0.  1.
      622    1    1    2    0    0 -0.24747838766E+00 -0.30378765161E-01  0.25050297099E+01  0.36915230284E+01  0.27000000000E+01 0. -1.
</event>
<event>
 5   0  0.6580500E-04  0.9118800E+02  0.7818608E-02  0.1180000E+00
       11   -1    0    0    0    0  0.00000000000E+00  0.00000000000E+00  0.39999999673E+01  0.40000000000E+01  0.51109989000E-03 0. -1.
     -623   -1    0    0    0    0  0.00000000000E+00  0.00000000000E+00  0.12525980253E-10  0.17130000000E+03  0.17130000000E+03 0.  1.
       11    1    1    2    0    0  0.19406083113E+00  0.13375834232E+00  0.19469229985E+00  0.30570615493E+00  0.51109989000E-03 0. -1.
     -623    1    1    2    0    0 -0.24934644636E+00 -0.67459183292E+00  0.13534436050E+01  0.17130685642E+03  0.17130000000E+03 0.  1.
      622    1    1    2    0    0  0.55285615227E-01  0.54083349061E+00  0.24518640625E+01  0.36874374225E+01  0.27000000000E+01 0. -1.
</event>
<event>
 5   0  0.6580500E-04  0.9118800E+02  0.7818608E-02  0.1180000E+00
       11   -1    0    0    0    0  0.00000000000E+00  0.00000000000E+00  0.39999999673E+01  0.40000000000E+01  0.51109989000E-03 0.  1.
     -623   -1    0    0    0    0  0.00000000000E+00  0.00000000000E+00  0.12525980253E-10  0.17130000000E+03  0.17130000000E+03 0.  1.
       11    1    1    2    0    0  0.46933736611E-01 -0.44710734454E-01 -0.80286988813E-02  0.65318807678E-01  0.51109989000E-03 0.  1.
     -623    1    1    2    0    0 -0.56111966832E+00 -0.35138656803E+00  0.12285081412E+01  0.17130568455E+03  0.17130000000E+03 0.  1.
      622    1    1    2    0    0  0.51418593171E+00  0.39609730249E+00  0.27795205250E+01  0.39289966397E+01  0.27000000000E+01 0.  1.
</event>
<event>
 5   0  0.6580500E-04  0.9118800E+02  0.7818608E-02  0.1180000E+00
       11   -1    0    0    0    0  0.00000000000E+00  0.00000000000E+00  0.39999999673E+01  0.40000000000E+01  0.51109989000E-03 0. -1.
     -623   -1    0    0    0    0  0.00000000000E+00  0.00000000000E+00  0.12525980253E-10  0.17130000000E+03  0.17130000000E+03 0. -1.
       11    1    1    2    0    0 -0.18656957308E-03 -0.56059804416E+00 -0.30179361077E+00  0.63667090922E+00  0.51109989000E-03 0. -1.
     -623    1    1    2    0    0 -0.46706351974E+00  0.22085817253E+00  0.24126048532E+01  0.17131776787E+03  0.17130000000E+03 0. -1.
      622    1    1    2    0    0  0.46725008931E+00  0.33973987163E+00  0.18891887249E+01  0.33455612182E+01  0.27000000000E+01 0. -1.
</event>
<event>
 5   0  0.6580500E-04  0.9118800E+02  0.7818608E-02  0.1180000E+00
       11   -1    0    0    0    0  0.00000000000E+00  0.00000000000E+00  0.39999999673E+01  0.40000000000E+01  0.51109989000E-03 0. -1.
     -623   -1    0    0    0    0  0.00000000000E+00  0.00000000000E+00  0.12525980253E-10  0.17130000000E+03  0.17130000000E+03 0. -1.
       11    1    1    2    0    0  0.11146622286E+00  0.22729006281E+00  0.22000267916E+00  0.33539071477E+00  0.51109989000E-03 0. -1.
     -623    1    1    2    0    0  0.47469954396E+00 -0.12743660175E+00  0.13842340434E+01  0.17130629785E+03  0.17130000000E+03 0. -1.
      622    1    1    2    0    0 -0.58616576682E+00 -0.99853461063E-01  0.23957632448E+01  0.36583114336E+01  0.27000000000E+01 0. -1.
</event>
<event>
 5   0  0.6580500E-04  0.9118800E+02  0.7818608E-02  0.1180000E+00
       11   -1    0    0    0    0  0.00000000000E+00  0.00000000000E+00  0.39999999673E+01  0.40000000000E+01  0.51109989000E-03 0. -1.
     -623   -1    0    0    0    0  0.00000000000E+00  0.00000000000E+00  0.12525980253E-10  0.17130000000E+03  0.17130000000E+03 0. -1.
       11    1    1    2    0    0 -0.25293515499E+00  0.12759214146E+00  0.17788725464E+00  0.33451469890E+00  0.51109989000E-03 0. -1.
     -623    1    1    2    0    0  0.41493214683E+00 -0.94612998881E-01  0.13573227225E+01  0.17130590604E+03  0.17130000000E+03 0. -1.
      622    1    1    2    0    0 -0.16199699184E+00 -0.32979142579E-01  0.24647899902E+01  0.36595792579E+01  0.27000000000E+01 0. -1.
</event>
<event>
 5   0  0.6580500E-04  0.9118800E+02  0.7818608E-02  0.1180000E+00
       11   -1    0    0    0    0  0.00000000000E+00  0.00000000000E+00  0.39999999673E+01  0.40000000000E+01  0.51109989000E-03 0.  1.
     -623   -1    0    0    0    0  0.00000000000E+00  0.00000000000E+00  0.12525980253E-10  0.17130000000E+03  0.17130000000E+03 0. -1.
       11    1    1    2    0    0 -0.22088999703E+00 -0.19894304913E+00  0.13138536799E+00  0.32501246704E+00  0.51109989000E-03 0.  1.
     -623    1    1    2    0    0  0.15881640077E+00  0.75219941629E+00  0.14503835666E+01  0.17130786508E+03  0.17130000000E+03 0. -1.
      622    1    1    2    0    0  0.62073596257E-01 -0.55325636716E+00  0.24182310328E+01  0.36671224505E+01  0.27000000000E+01 0.  1.
</event>
<event>
 5   0  0.6580500E-04  0.9118800E+02  0.7818608E-02  0.1180000E+00
       11   -1    0    0    0    0  0.00000000000E+00  0.00000000000E+00  0.39999999673E+01  0.40000000000E+01  0.51109989000E-03 0. -1.
     -623   -1    0    0    0    0  0.00000000000E+00  0.00000000000E+00  0.12525980253E-10  0.17130000000E+03  0.17130000000E+03 0. -1.
       11    1    1    2    0    0  0.16756933536E+00 -0.12565901923E-01 -0.12401308925E+00  0.20884657425E+00  0.51109989000E-03 0. -1.
     -623    1    1    2    0    0 -0.25665491020E+00  0.21281865260E+00  0.14813194917E+01  0.17130672921E+03  0.17130000000E+03 0. -1.
      622    1    1    2    0    0  0.89085574836E-01 -0.20025275068E+00  0.26426935649E+01  0.37844242206E+01  0.27000000000E+01 0. -1.
</event>
<event>
 5   0  0.6580500E-04  0.9118800E+02  0.7818608E-02  0.1180000E+00
       11   -1    0    0    0    0  0.00000000000E+00  0.00000000000E+00  0.39999999673E+01  0.40000000000E+01  0.51109989000E-03 0. -1.
     -623   -1    0    0    0    0  0.00000000000E+00  0.00000000000E+00  0.12525980253E-10  0.17130000000E+03  0.17130000000E+03 0.  1.
       11    1    1    2    0    0  0.29679351024E+00  0.36940000045E+00 -0.13081561874E+00  0.49158492184E+00  0.51109989000E-03 0. -1.
     -623    1    1    2    0    0 -0.18930564433E+00 -0.86245307328E+00  0.19700158649E+01  0.17131360315E+03  0.17130000000E+03 0.  1.
      622    1    1    2    0    0 -0.10748786591E+00  0.49305307283E+00  0.21607997212E+01  0.34948119276E+01  0.27000000000E+01 0. -1.
</event>
<event>
 5   0  0.6580500E-04  0.9118800E+02  0.7818608E-02  0.1180000E+00
       11   -1    0    0    0    0  0.00000000000E+00  0.00000000000E+00  0.39999999673E+01  0.40000000000E+01  0.51109989000E-03 0. -1.
     -623   -1    0    0    0    0  0.00000000000E+00  0.00000000000E+00  0.12525980253E-10  0.17130000000E+03  0.17130000000E+03 0.  1.
       11    1    1    2    0    0 -0.19122064752E-01 -0.20269827259E+00 -0.43245866679E+00  0.47798849649E+00  0.51109989000E-03 0. -1.
     -623    1    1    2    0    0 -0.99280557534E+00  0.43805290411E+00  0.24609361328E+01  0.17132111300E+03  0.17130000000E+03 0.  1.
      622    1    1    2    0    0  0.10119276401E+01 -0.23535463152E+00  0.19715225014E+01  0.35008985025E+01  0.27000000000E+01 0. -1.
</event>
<event>
 5   0  0.6580500E-04  0.9118800E+02  0.7818608E-02  0.1180000E+00
       11   -1    0    0    0    0  0.00000000000E+00  0.00000000000E+00  0.39999999673E+01  0.40000000000E+01  0.51109989000E-03 0. -1.
     -623   -1    0    0    0    0  0.00000000000E+00  0.00000000000E+00  0.12525980253E-10  0.17130000000E+03  0.17130000000E+03 0. -1.
       11    1    1    2    0    0 -0.18376881708E-01 -0.22544546134E+00 -0.28790580670E+00  0.36613300941E+00  0.51109989000E-03 0. -1.
     -623    1    1    2    0    0  0.75566228983E-02 -0.43518623358E+00  0.19657100483E+01  0.17131183106E+03  0.17130000000E+03 0. -1.
      622    1    1    2    0    0  0.10820258810E-01  0.66063169492E+00  0.23221957258E+01  0.36220359334E+01  0.27000000000E+01 0. -1.
</event>
<event>
 5   0  0.6580500E-04  0.9118800E+02  0.7818608E-02  0.1180000E+00
       11   -1    0    0    0    0  0.00000000000E+00  0.00000000000E+00  0.39999999673E+01  0.40000000000E+01  0.51109989000E-03 0. -1.
     -623   -1    0    0    0    0  0.00000000000E+00  0.00000000000E+00  0.12525980253E-10  0.17130000000E+03  0.17130000000E+03 0. -1.
       11    1    1    2    0    0 -0.21638297059E+00 -0.15088978678E+00  0.38607393474E+00  0.46759241015E+00  0.51109989000E-03 0. -1.
     -623    1    1    2    0    0 -0.11077440240E+00  0.55648559343E+00  0.14073615140E+01  0.17130672087E+03  0.17130000000E+03 0. -1.
      622    1    1    2    0    0  0.32715737300E+00 -0.40559580665E+00  0.22065645186E+01  0.35256867246E+01  0.27000000000E+01 0. -1.
</event>
<event>
 5   0  0.6580500E-04  0.9118800E+02  0.7818608E-02  0.1180000E+00
       11   -1    0    0    0    0  0.00000000000E+00  0.00000000000E+00  0.39999999673E+01  0.40000000000E+01  0.51109989000E-03 0. -1.
     -623   -1    0    0    0    0  0.00000000000E+00  0.00000000000E+00  0.12525980253E-10  0.17130000000E+03  0.17130000000E+03 0.  1.
       11    1    1    2    0    0  0.91573793083E-01 -0.45689885160E+00  0.21408647748E+00  0.51281146753E+00  0.51109989000E-03 0. -1.
     -623    1    1    2    0    0 -0.41656961163E+00 -0.40963348819E+00  0.18006832786E+01  0.17131046025E+03  0.17130000000E+03 0.  1.
      622    1    1    2    0    0  0.32499581854E+00  0.86653233979E+00  0.19852302112E+01  0.34767282853E+01  0.27000000000E+01 0.  0.
</event>
<event>
 5   0  0.6580500E-04  0.9118800E+02  0.7818608E-02  0.1180000E+00
       11   -1    0    0    0    0  0.00000000000E+00  0.00000000000E+00  0.39999999673E+01  0.40000000000E+01  0.51109989000E-03 0. -1.
     -623   -1    0    0    0    0  0.00000000000E+00  0.00000000000E+00  0.12525980253E-10  0.17130000000E+03  0.17130000000E+03 0. -1.
       11    1    1    2    0    0  0.58567083852E-01 -0.30747097772E+00  0.33076806741E+00  0.45538585957E+00  0.51109989000E-03 0. -1.
     -623    1    1    2    0    0  0.10622638368E+01  0.82533918716E+00  0.17591082575E+01  0.17131431362E+03  0.17130000000E+03 0. -1.
      622    1    1    2    0    0 -0.11208309207E+01 -0.51786820944E+00  0.19101236424E+01  0.35303005204E+01  0.27000000000E+01 0. -1.
</event>
<event>
 5   0  0.6580500E-04  0.9118800E+02  0.7818608E-02  0.1180000E+00
       11   -1    0    0    0    0  0.00000000000E+00  0.00000000000E+00  0.39999999673E+01  0.40000000000E+01  0.51109989000E-03 0. -1.
     -623   -1    0    0    0    0  0.00000000000E+00  0.00000000000E+00  0.12525980253E-10  0.17130000000E+03  0.17130000000E+03 0.  1.
       11    1    1    2    0    0  0.79965066387E+00 -0.65845215239E+00  0.22804261899E+00  0.10606621133E+01  0.51109989000E-03 0. -1.
     -623    1    1    2    0    0 -0.22721664149E+00  0.30524066759E+00  0.29056108217E+01  0.17132506347E+03  0.17130000000E+03 0. -1.
      622    1    1    2    0    0 -0.57243402239E+00  0.35321148480E+00  0.86634652669E+00  0.29142744152E+01  0.27000000000E+01 0. -1.
</event>
<event>
 5   0  0.6580500E-04  0.9118800E+02  0.7818608E-02  0.1180000E+00
       11   -1    0    0    0    0  0.00000000000E+00  0.00000000000E+00  0.39999999673E+01  0.40000000000E+01  0.51109989000E-03 0. -1.
     -623   -1    0    0    0    0  0.00000000000E+00  0.00000000000E+00  0.12525980253E-10  0.17130000000E+03  0.17130000000E+03 0. -1.
       11    1    1    2    0    0 -0.66078302940E+00  0.41926711234E+00  0.28621678614E+00  0.83327032427E+00  0.51109989000E-03 0. -1.
     -623    1    1    2    0    0  0.63166376794E+00 -0.75248766568E+00  0.21246774209E+01  0.17131599310E+03  0.17130000000E+03 0. -1.
      622    1    1    2    0    0  0.29119261458E-01  0.33322055335E+00  0.15891057603E+01  0.31507365783E+01  0.27000000000E+01 0. -1.
</event>
<event>
 5   0  0.6580500E-04  0.9118800E+02  0.7818608E-02  0.1180000E+00
       11   -1    0    0    0    0  0.00000000000E+00  0.00000000000E+00  0.39999999673E+01  0.40000000000E+01  0.51109989000E-03 0. -1.
     -623   -1    0    0    0    0  0.00000000000E+00  0.00000000000E+00  0.12525980253E-10  0.17130000000E+03  0.17130000000E+03 0.  1.
       11    1    1    2    0    0 -0.29708019476E+00 -0.90648381586E-01  0.29490069239E+00  0.42829948727E+00  0.51109989000E-03 0. -1.
     -623    1    1    2    0    0  0.94639141646E-01 -0.72800217865E+00  0.15382179337E+01  0.17130847924E+03  0.17130000000E+03 0.  1.
      622    1    1    2    0    0  0.20244105311E+00  0.81865056023E+00  0.21668813413E+01  0.35632212767E+01  0.27000000000E+01 0. -1.
</event>
<event>
 5   0  0.6580500E-04  0.9118800E+02  0.7818608E-02  0.1180000E+00
       11   -1    0    0    0    0  0.00000000000E+00  0.00000000000E+00  0.39999999673E+01  0.40000000000E+01  0.51109989000E-03 0.  1.
     -623   -1    0    0    0    0  0.00000000000E+00  0.00000000000E+00  0.12525980253E-10  0.17130000000E+03  0.17130000000E+03 0. -1.
       11    1    1    2    0    0  0.80899642746E+00 -0.45989332590E+00  0.75082762325E-01  0.93360311336E+00  0.51109989000E-03 0.  1.
     -623    1    1    2    0    0 -0.93300211445E+00  0.36926717498E+00  0.25258297652E+01  0.17132155926E+03  0.17130000000E+03 0. -1.
      622    1    1    2    0    0  0.12400568699E+00  0.90626150926E-01  0.13990874399E+01  0.30448376269E+01  0.27000000000E+01 0.  1.
</event>
<event>
 5   0  0.6580500E-04  0.9118800E+02  0.7818608E-02  0.1180000E+00
       11   -1    0    0    0    0  0.00000000000E+00  0.00000000000E+00  0.39999999673E+01  0.40000000000E+01  0.51109989000E-03 0.  1.
     -623   -1    0    0    0    0  0.00000000000E+00  0.00000000000E+00  0.12525980253E-10  0.17130000000E+03  0.17130000000E+03 0. -1.
       11    1    1    2    0    0  0.33564292995E+00  0.36429707403E+00  0.38769313127E+00  0.62902683554E+00  0.51109989000E-03 0.  1.
     -623    1    1    2    0    0 -0.67938789370E+00 -0.16542544125E+00  0.16494834809E+01  0.17130936848E+03  0.17130000000E+03 0. -1.
      622    1    1    2    0    0  0.34374496376E+00 -0.19887163278E+00  0.19628233552E+01  0.33616046838E+01  0.27000000000E+01 0.  1.
</event>
<event>
 5   0  0.6580500E-04  0.9118800E+02  0.7818608E-02  0.1180000E+00
       11   -1    0    0    0    0  0.00000000000E+00  0.00000000000E+00  0.39999999673E+01  0.40000000000E+01  0.51109989000E-03 0. -1.
     -623   -1    0    0    0    0  0.00000000000E+00  0.00000000000E+00  0.12525980253E-10  0.17130000000E+03  0.17130000000E+03 0.  1.
       11    1    1    2    0    0 -0.39506061795E+00 -0.67362597815E+00  0.92197724813E-01  0.78634949734E+00  0.51109989000E-03 0. -1.
     -623    1    1    2    0    0  0.27923004978E+00 -0.16817485712E+00  0.24233326159E+01  0.17131745035E+03  0.17130000000E+03 0.  1.
      622    1    1    2    0    0  0.11583056816E+00  0.84180083527E+00  0.14844696267E+01  0.31962001563E+01  0.27000000000E+01 0.  0.
</event>
<event>
 5   0  0.6580500E-04  0.9118800E+02  0.7818608E-02  0.1180000E+00
       11   -1    0    0    0    0  0.00000000000E+00  0.00000000000E+00  0.39999999673E+01  0.40000000000E+01  0.51109989000E-03 0.  1.
     -623   -1    0    0    0    0  0.00000000000E+00  0.00000000000E+00  0.12525980253E-10  0.17130000000E+03  0.17130000000E+03 0.  1.
       11    1    1    2    0    0 -0.90600168639E-01  0.22826028553E+00  0.29100576179E-01  0.24730194756E+00  0.51109989000E-03 0.  1.
     -623    1    1    2    0    0 -0.28634515101E+00 -0.24844805175E-01  0.14088648592E+01  0.17130603466E+03  0.17130000000E+03 0.  1.
      622    1    1    2    0    0  0.37694531965E+00 -0.20341548036E+00  0.25620345320E+01  0.37466633922E+01  0.27000000000E+01 0.  1.
</event>
<event>
 5   0  0.6580500E-04  0.9118800E+02  0.7818608E-02  0.1180000E+00
       11   -1    0    0    0    0  0.00000000000E+00  0.00000000000E+00  0.39999999673E+01  0.40000000000E+01  0.51109989000E-03 0. -1.
     -623   -1    0    0    0    0  0.00000000000E+00  0.00000000000E+00  0.12525980253E-10  0.17130000000E+03  0.17130000000E+03 0.  1.
       11    1    1    2    0    0 -0.22578859346E+00  0.27318116908E-02  0.55958412077E+00  0.60342572134E+00  0.51109989000E-03 0. -1.
     -623    1    1    2    0    0  0.12938497748E+01 -0.95624536263E+00  0.20029596499E+01  0.17131926424E+03  0.17130000000E+03 0.  1.
      622    1    1    2    0    0 -0.10680611813E+01  0.95351355094E+00  0.14374561966E+01  0.33773100385E+01  0.27000000000E+01 0.  0.
</event>
<event>
 5   0  0.6580500E-04  0.9118800E+02  0.7818608E-02  0.1180000E+00
       11   -1    0    0    0    0  0.00000000000E+00  0.00000000000E+00  0.39999999673E+01  0.40000000000E+01  0.51109989000E-03 0.  1.
     -623   -1    0    0    0    0  0.00000000000E+00  0.00000000000E+00  0.12525980253E-10  0.17130000000E+03  0.17130000000E+03 0. -1.
       11    1    1    2    0    0  0.30663300469E+00  0.12086888809E+00  0.35323753240E-01  0.33148320687E+00  0.51109989000E-03 0.  1.
     -623    1    1    2    0    0 -0.56263050995E+00 -0.15635264938E+00  0.15059345318E+01  0.17130761465E+03  0.17130000000E+03 0. -1.
      622    1    1    2    0    0  0.25599750526E+00  0.35483761292E-01  0.24587416824E+01  0.36609021403E+01  0.27000000000E+01 0.  1.
</event>
<event>
 5   0  0.6580500E-04  0.9118800E+02  0.7818608E-02  0.1180000E+00
       11   -1    0    0    0    0  0.00000000000E+00  0.00000000000E+00  0.39999999673E+01  0.40000000000E+01  0.51109989000E-03 0. -1.
     -623   -1    0    0    0    0  0.00000000000E+00  0.00000000000E+00  0.12525980253E-10  0.17130000000E+03  0.17130000000E+03 0. -1.
       11    1    1    2    0    0 -0.26462410343E-01 -0.59169345225E-01 -0.11715991915E-01  0.65869539737E-01  0.51109989000E-03 0. -1.
     -623    1    1    2    0    0 -0.80555947556E-01  0.19147826178E-01  0.11580540441E+01  0.17130393441E+03  0.17130000000E+03 0. -1.
      622    1    1    2    0    0  0.10701835790E+00  0.40021519047E-01  0.28536619152E+01  0.39301960482E+01  0.27000000000E+01 0. -1.
</event>
<event>
 5   0  0.6580500E-04  0.9118800E+02  0.7818608E-02  0.1180000E+00
       11   -1    0    0    0    0  0.00000000000E+00  0.00000000000E+00  0.39999999673E+01  0.40000000000E+01  0.51109989000E-03 0. -1.
     -623   -1    0    0    0    0  0.00000000000E+00  0.00000000000E+00  0.12525980253E-10  0.17130000000E+03  0.17130000000E+03 0.  1.
       11    1    1    2    0    0  0.47012831137E+00 -0.18018679547E+00  0.39788218742E-01  0.50504581375E+00  0.51109989000E-03 0. -1.
     -623    1    1    2    0    0  0.59496688051E+00  0.35197838263E+00  0.20455755409E+01  0.17131360791E+03  0.17130000000E+03 0.  1.
      622    1    1    2    0    0 -0.10650951919E+01 -0.17179158716E+00  0.19146362077E+01  0.34813462806E+01  0.27000000000E+01 0. -1.
</event>
<event>
 5   0  0.6580500E-04  0.9118800E+02  0.7818608E-02  0.1180000E+00
       11   -1    0    0    0    0  0.00000000000E+00  0.00000000000E+00  0.39999999673E+01  0.40000000000E+01  0.51109989000E-03 0. -1.
     -623   -1    0    0    0    0  0.00000000000E+00  0.00000000000E+00  0.12525980253E-10  0.17130000000E+03  0.17130000000E+03 0. -1.
       11    1    1    2    0    0  0.65875899275E-01 -0.42058313948E+00  0.43315980234E-01  0.42790927390E+00  0.51109989000E-03 0. -1.
     -623    1    1    2    0    0  0.48480578281E+00  0.57306081731E+00  0.17047772398E+01  0.17131012726E+03  0.17130000000E+03 0. -1.
      622    1    1    2    0    0 -0.55068168208E+00 -0.15247767783E+00  0.22519067473E+01  0.35619634692E+01  0.27000000000E+01 0. -1.
</event>
<event>
 5   0  0.6580500E-04  0.9118800E+02  0.7818608E-02  0.1180000E+00
       11   -1    0    0    0    0  0.00000000000E+00  0.00000000000E+00  0.39999999673E+01  0.40000000000E+01  0.51109989000E-03 0.  1.
     -623   -1    0    0    0    0  0.00000000000E+00  0.00000000000E+00  0.12525980253E-10  0.17130000000E+03  0.17130000000E+03 0.  1.
       11    1    1    2    0    0  0.47276355654E-01  0.72095748753E-01 -0.29448946460E-01  0.91106270162E-01  0.51109989000E-03 0.  1.
     -623    1    1    2    0    0  0.88157070531E-01  0.24842307062E+00  0.12308345735E+01  0.17130462469E+03  0.17130000000E+03 0.  1.
      622    1    1    2    0    0 -0.13543342618E+00 -0.32051881937E+00  0.27986143403E+01  0.39042690420E+01  0.27000000000E+01 0.  1.
</event>
<event>
 5   0  0.6580500E-04  0.9118800E+02  0.7818608E-02  0.1180000E+00
       11   -1    0    0    0    0  0.00000000000E+00  0.00000000000E+00  0.39999999673E+01  0.40000000000E+01  0.51109989000E-03 0. -1.
     -623   -1    0    0    0    0  0.00000000000E+00  0.00000000000E+00  0.12525980253E-10  0.17130000000E+03  0.17130000000E+03 0.  1.
       11    1    1    2    0    0 -0.10718297862E+00 -0.23728035742E+00  0.14210650372E+00  0.29662211405E+00  0.51109989000E-03 0. -1.
     -623    1    1    2    0    0  0.15025417520E+00 -0.26169390439E-01  0.13450946383E+01  0.17130534884E+03  0.17130000000E+03 0.  1.
      622    1    1    2    0    0 -0.43071196577E-01  0.26344974786E+00  0.25127988254E+01  0.36980290473E+01  0.27000000000E+01 0. -1.
</event>
<event>
 5   0  0.6580500E-04  0.9118800E+02  0.7818608E-02  0.1180000E+00
       11   -1    0    0    0    0  0.00000000000E+00  0.00000000000E+00  0.39999999673E+01  0.40000000000E+01  0.51109989000E-03 0.  1.
     -623   -1    0    0    0    0  0.00000000000E+00  0.00000000000E+00  0.12525980253E-10  0.17130000000E+03  0.17130000000E+03 0. -1.
       11    1    1    2    0    0 -0.10647149867E-01  0.86210904251E-01 -0.30246084666E-01  0.91982436763E-01  0.51109989000E-03 0.  1.
     -623    1    1    2    0    0 -0.30967180746E+00  0.14072669490E+00  0.12390354788E+01  0.17130481870E+03  0.17130000000E+03 0. -1.
      622    1    1    2    0    0  0.32031895733E+00 -0.22693759915E+00  0.27912105733E+01  0.39031988641E+01  0.27000000000E+01 0.  1.
</event>
<event>
 5   0  0.6580500E-04  0.9118800E+02  0.7818608E-02  0.1180000E+00
       11   -1    0    0    0    0  0.00000000000E+00  0.00000000000E+00  0.39999999673E+01  0.40000000000E+01  0.51109989000E-03 0.  1.
     -623   -1    0    0    0    0  0.00000000000E+00  0.00000000000E+00  0.12525980253E-10  0.17130000000E+03  0.17130000000E+03 0.  1.
       11    1    1    2    0    0 -0.14313504162E-01  0.18954231183E-01  0.16110269306E-01  0.28704377363E-01  0.51109989000E-03 0.  1.
     -623    1    1    2    0    0 -0.44190544096E+00 -0.33404269281E+00  0.11313457472E+01  0.17130463160E+03  0.17130000000E+03 0.  1.
      622    1    1    2    0    0  0.45621894513E+00  0.31508846163E+00  0.28525439509E+01  0.39666640211E+01  0.27000000000E+01 0.  1.
</event>
<event>
 5   0  0.6580500E-04  0.9118800E+02  0.7818608E-02  0.1180000E+00
       11   -1    0    0    0    0  0.00000000000E+00  0.00000000000E+00  0.39999999673E+01  0.40000000000E+01  0.51109989000E-03 0.  1.
     -623   -1    0    0    0    0  0.00000000000E+00  0.00000000000E+00  0.12525980253E-10  0.17130000000E+03  0.17130000000E+03 0. -1.
       11    1    1    2    0    0  0.52778286734E-01 -0.13716395175E-01  0.49134731247E-01  0.73404155764E-01  0.51109989000E-03 0.  1.
     -623    1    1    2    0    0 -0.44723575218E+00  0.67914937416E-01  0.11338669651E+01  0.17130434988E+03  0.17130000000E+03 0. -1.
      622    1    1    2    0    0  0.39445746544E+00 -0.54198542240E-01  0.28169982710E+01  0.39222459679E+01  0.27000000000E+01 0.  1.
</event>
<event>
 5   0  0.6580500E-04  0.9118800E+02  0.7818608E-02  0.1180000E+00
       11   -1    0    0    0    0  0.00000000000E+00  0.00000000000E+00  0.39999999673E+01  0.40000000000E+01  0.51109989000E-03 0.  1.
     -623   -1    0    0    0    0  0.00000000000E+00  0.00000000000E+00  0.12525980253E-10  0.17130000000E+03  0.17130000000E+03 0.  1.
       11    1    1    2    0    0 -0.36147614446E+00 -0.90065395864E-01  0.18066425493E+00  0.41402489391E+00  0.51109989000E-03 0.  1.
     -623    1    1    2    0    0  0.74529025276E+00 -0.49776285685E+00  0.15816417023E+01  0.17130964601E+03  0.17130000000E+03 0.  1.
      622    1    1    2    0    0 -0.38381410829E+00  0.58782825271E+00  0.22376940101E+01  0.35763290966E+01  0.27000000000E+01 0.  0.
</event>
<event>
 5   0  0.6580500E-04  0.9118800E+02  0.7818608E-02  0.1180000E+00
       11   -1    0    0    0    0  0.00000000000E+00  0.00000000000E+00  0.39999999673E+01  0.40000000000E+01  0.51109989000E-03 0.  1.
     -623   -1    0    0    0    0  0.00000000000E+00  0.00000000000E+00  0.12525980253E-10  0.17130000000E+03  0.17130000000E+03 0.  1.
       11    1    1    2    0    0 -0.13185367116E+00 -0.93254717759E-01 -0.18261516036E+00  0.24378349206E+00  0.51109989000E-03 0.  1.
     -623    1    1    2    0    0  0.32171862374E+00 -0.10149701611E+00  0.15967213386E+01  0.17130777368E+03  0.17130000000E+03 0.  1.
      622    1    1    2    0    0 -0.18986495258E+00  0.19475173387E+00  0.25858937891E+01  0.37484428269E+01  0.27000000000E+01 0.  1.
</event>
<event>
 5   0  0.6580500E-04  0.9118800E+02  0.7818608E-02  0.1180000E+00
       11   -1    0    0    0    0  0.00000000000E+00  0.00000000000E+00  0.39999999673E+01  0.40000000000E+01  0.51109989000E-03 0.  1.
     -623   -1    0    0    0    0  0.00000000000E+00  0.00000000000E+00  0.12525980253E-10  0.17130000000E+03  0.17130000000E+03 0.  1.
       11    1    1    2    0    0 -0.12580859978E+00 -0.28433487273E+00 -0.11567968644E+00  0.33174715478E+00  0.51109989000E-03 0.  1.
     -623    1    1    2    0    0 -0.38697649759E+00  0.93216584512E+00  0.17934152733E+01  0.17131236097E+03  0.17130000000E+03 0.  1.
      622    1    1    2    0    0  0.51278509737E+00 -0.64783097239E+00  0.23222643805E+01  0.36558918717E+01  0.27000000000E+01 0.  1.
</event>
<event>
 5   0  0.6580500E-04  0.9118800E+02  0.7818608E-02  0.1180000E+00
       11   -1    0    0    0    0  0.00000000000E+00  0.00000000000E+00  0.39999999673E+01  0.40000000000E+01  0.51109989000E-03 0.  1.
     -623   -1    0    0    0    0  0.00000000000E+00  0.00000000000E+00  0.12525980253E-10  0.17130000000E+03  0.17130000000E+03 0. -1.
       11    1    1    2    0    0  0.18074853263E+00 -0.31331266499E+00  0.15689427362E+00  0.39427266252E+00  0.51109989000E-03 0.  1.
     -623    1    1    2    0    0 -0.11970989161E+01  0.45330129490E+00  0.17069729636E+01  0.17131328695E+03  0.17130000000E+03 0. -1.
      622    1    1    2    0    0  0.10163503835E+01 -0.13998862991E+00  0.21361327301E+01  0.35924403905E+01  0.27000000000E+01 0.  1.
</event>
<event>
 5   0  0.6580500E-04  0.9118800E+02  0.7818608E-02  0.1180000E+00
       11   -1    0    0    0    0  0.00000000000E+00  0.00000000000E+00  0.39999999673E+01  0.40000000000E+01  0.51109989000E-03 0. -1.
     -623   -1    0    0    0    0  0.00000000000E+00  0.00000000000E+00  0.12525980253E-10  0.17130000000E+03  0.17130000000E+03 0. -1.
       11    1    1    2    0    0  0.23827102854E+00  0.49547203755E-01 -0.24402754787E+00  0.34464142784E+00  0.51109989000E-03 0. -1.
     -623    1    1    2    0    0 -0.15670093841E+00 -0.94206618767E+00  0.19710922848E+01  0.17131400190E+03  0.17130000000E+03 0. -1.
      622    1    1    2    0    0 -0.81570090125E-01  0.89251898391E+00  0.22729352304E+01  0.36413566672E+01  0.27000000000E+01 0. -1.
</event>
<event>
 5   0  0.6580500E-04  0.9118800E+02  0.7818608E-02  0.1180000E+00
       11   -1    0    0    0    0  0.00000000000E+00  0.00000000000E+00  0.39999999673E+01  0.40000000000E+01  0.51109989000E-03 0. -1.
     -623   -1    0    0    0    0  0.00000000000E+00  0.00000000000E+00  0.12525980253E-10  0.17130000000E+03  0.17130000000E+03 0. -1.
       11    1    1    2    0    0  0.44985316344E+00 -0.51453413557E+00 -0.21020832153E+00  0.71505317634E+00  0.51109989000E-03 0. -1.
     -623    1    1    2    0    0  0.98678844752E-01  0.22864906646E+00  0.24782659845E+01  0.17131810710E+03  0.17130000000E+03 0. -1.
      622    1    1    2    0    0 -0.54853200820E+00  0.28588506911E+00  0.17319423044E+01  0.32668397240E+01  0.27000000000E+01 0. -1.
</event>
<event>
 5   0  0.6580500E-04  0.9118800E+02  0.7818608E-02  0.1180000E+00
       11   -1    0    0    0    0  0.00000000000E+00  0.00000000000E+00  0.39999999673E+01  0.40000000000E+01  0.51109989000E-03 0.  1.
     -623   -1    0    0    0    0  0.00000000000E+00  0.00000000000E+00  0.12525980253E-10  0.17130000000E+03  0.17130000000E+03 0. -1.
       11    1    1    2    0    0 -0.98187210925E-02  0.85742239194E-01 -0.13474432468E-01  0.87349644644E-01  0.51109989000E-03 0.  1.
     -623    1    1    2    0    0  0.11799376852E+00 -0.12922002264E+00  0.11899630291E+01  0.17130422246E+03  0.17130000000E+03 0. -1.
      622    1    1    2    0    0 -0.10817504743E+00  0.43477783447E-01  0.28235113708E+01  0.39084278961E+01  0.27000000000E+01 0.  1.
</event>
<event>
 5   0  0.6580500E-04  0.9118800E+02  0.7818608E-02  0.1180000E+00
       11   -1    0    0    0    0  0.00000000000E+00  0.00000000000E+00  0.39999999673E+01  0.40000000000E+01  0.51109989000E-03 0. -1.
     -623   -1    0    0    0    0  0.00000000000E+00  0.00000000000E+00  0.12525980253E-10  0.17130000000E+03  0.17130000000E+03 0. -1.
       11    1    1    2    0    0  0.83319629092E-01 -0.11400787255E+00  0.18570940665E+00  0.23329852236E+00  0.51109989000E-03 0. -1.
     -623    1    1    2    0    0 -0.65459848440E+00  0.31115229787E+00  0.12675328630E+01  0.17130622275E+03  0.17130000000E+03 0. -1.
      622    1    1    2    0    0  0.57127885530E+00 -0.19714442532E+00  0.25467576977E+01  0.37604787229E+01  0.27000000000E+01 0. -1.
</event>
<event>
 5   0  0.6580500E-04  0.9118800E+02  0.7818608E-02  0.1180000E+00
       11   -1    0    0    0    0  0.00000000000E+00  0.00000000000E+00  0.39999999673E+01  0.40000000000E+01  0.51109989000E-03 0. -1.
     -623   -1    0    0    0    0  0.00000000000E+00  0.00000000000E+00  0.12525980253E-10  0.17130000000E+03  0.17130000000E+03 0. -1.
       11    1    1    2    0    0 -0.18477946977E-01 -0.54159202253E-01 -0.12157581498E+00  0.13437110450E+00  0.51109989000E-03 0. -1.
     -623    1    1    2    0    0  0.13277839550E+00 -0.64416885548E-02  0.13658759623E+01  0.17130549696E+03  0.17130000000E+03 0. -1.
      622    1    1    2    0    0 -0.11430044852E+00  0.60600890808E-01  0.27556998201E+01  0.38601319354E+01  0.27000000000E+01 0. -1.
</event>
<event>
 5   0  0.6580500E-04  0.9118800E+02  0.7818608E-02  0.1180000E+00
       11   -1    0    0    0    0  0.00000000000E+00  0.00000000000E+00  0.39999999673E+01  0.40000000000E+01  0.51109989000E-03 0. -1.
     -623   -1    0    0    0    0  0.00000000000E+00  0.00000000000E+00  0.12525980253E-10  0.17130000000E+03  0.17130000000E+03 0. -1.
       11    1    1    2    0    0  0.23783593919E+00 -0.14084376578E-01 -0.74790518132E-02  0.23837051216E+00  0.51109989000E-03 0. -1.
     -623    1    1    2    0    0 -0.37711786237E+00 -0.40372344957E+00  0.14357138746E+01  0.17130690729E+03  0.17130000000E+03 0. -1.
      622    1    1    2    0    0  0.13928192319E+00  0.41780782615E+00  0.25717651445E+01  0.37547221991E+01  0.27000000000E+01 0. -1.
</event>
<event>
 5   0  0.6580500E-04  0.9118800E+02  0.7818608E-02  0.1180000E+00
       11   -1    0    0    0    0  0.00000000000E+00  0.00000000000E+00  0.39999999673E+01  0.40000000000E+01  0.51109989000E-03 0.  1.
     -623   -1    0    0    0    0  0.00000000000E+00  0.00000000000E+00  0.12525980253E-10  0.17130000000E+03  0.17130000000E+03 0. -1.
       11    1    1    2    0    0  0.22227516012E+00  0.10255336445E+00  0.14477141476E+00  0.28439842320E+00  0.51109989000E-03 0.  1.
     -623    1    1    2    0    0  0.82944024408E-01 -0.38159426546E+00  0.13448162047E+01  0.17130572385E+03  0.17130000000E+03 0. -1.
      622    1    1    2    0    0 -0.30521918453E+00  0.27904090101E+00  0.25104123479E+01  0.37098777246E+01  0.27000000000E+01 0.  1.
</event>
<event>
 5   0  0.6580500E-04  0.9118800E+02  0.7818608E-02  0.1180000E+00
       11   -1    0    0    0    0  0.00000000000E+00  0.00000000000E+00  0.39999999673E+01  0.40000000000E+01  0.51109989000E-03 0. -1.
     -623   -1    0    0    0    0  0.00000000000E+00  0.00000000000E+00  0.12525980253E-10  0.17130000000E+03  0.17130000000E+03 0.  1.
       11    1    1    2    0    0  0.46384053852E+00 -0.27106167163E+00  0.15601721388E+00  0.55943195051E+00  0.51109989000E-03 0. -1.
     -623    1    1    2    0    0 -0.60703320540E+00  0.30809925141E+00  0.17330337278E+01  0.17131011885E+03  0.17130000000E+03 0.  1.
      622    1    1    2    0    0  0.14319266687E+00 -0.37037579774E-01  0.21109490256E+01  0.34304491996E+01  0.27000000000E+01 0. -1.
</event>
<event>
 5   0  0.6580500E-04  0.9118800E+02  0.7818608E-02  0.1180000E+00
       11   -1    0    0    0    0  0.00000000000E+00  0.00000000000E+00  0.39999999673E+01  0.40000000000E+01  0.51109989000E-03 0. -1.
     -623   -1    0    0    0    0  0.00000000000E+00  0.00000000000E+00  0.12525980253E-10  0.17130000000E+03  0.17130000000E+03 0.  1.
       11    1    1    2    0    0 -0.60588404142E-01 -0.13457606118E+00 -0.59996429323E-01  0.15931573593E+00  0.51109989000E-03 0. -1.
     -623    1    1    2    0    0  0.20246082879E+00  0.26021627056E+00  0.13429947279E+01  0.17130558175E+03  0.17130000000E+03 0.  1.
      622    1    1    2    0    0 -0.14187242465E+00 -0.12564020938E+00  0.27170016688E+01  0.38351025169E+01  0.27000000000E+01 0. -1.
</event>
<event>
 5   0  0.6580500E-04  0.9118800E+02  0.7818608E-02  0.1180000E+00
       11   -1    0    0    0    0  0.00000000000E+00  0.00000000000E+00  0.39999999673E+01  0.40000000000E+01  0.51109989000E-03 0.  1.
     -623   -1    0    0    0    0  0.00000000000E+00  0.00000000000E+00  0.12525980253E-10  0.17130000000E+03  0.17130000000E+03 0.  1.
       11    1    1    2    0    0  0.65474734021E-01 -0.73864424528E-01  0.54934327405E-01  0.11296431097E+00  0.51109989000E-03 0.  1.
     -623    1    1    2    0    0 -0.20912282526E+00  0.16124433838E+00  0.11596217058E+01  0.17130412854E+03  0.17130000000E+03 0.  1.
      622    1    1    2    0    0  0.14364809124E+00 -0.87379913853E-01  0.27854439342E+01  0.38829071498E+01  0.27000000000E+01 0.  1.
</event>
<event>
 5   0  0.6580500E-04  0.9118800E+02  0.7818608E-02  0.1180000E+00
       11   -1    0    0    0    0  0.00000000000E+00  0.00000000000E+00  0.39999999673E+01  0.40000000000E+01  0.51109989000E-03 0.  1.
     -623   -1    0    0    0    0  0.00000000000E+00  0.00000000000E+00  0.12525980253E-10  0.17130000000E+03  0.17130000000E+03 0.  1.
       11    1    1    2    0    0  0.11966976834E+00  0.32550806101E+00 -0.53940974750E-01  0.35097897546E+00  0.51109989000E-03 0.  1.
     -623    1    1    2    0    0 -0.59689233759E-01 -0.41209931679E-01  0.16281604006E+01  0.17130775279E+03  0.17130000000E+03 0.  1.
      622    1    1    2    0    0 -0.59980534578E-01 -0.28429812933E+00  0.24257805415E+01  0.36412682305E+01  0.27000000000E+01 0.  1.
</event>
<event>
 5   0  0.6580500E-04  0.9118800E+02  0.7818608E-02  0.1180000E+00
       11   -1    0    0    0    0  0.00000000000E+00  0.00000000000E+00  0.39999999673E+01  0.40000000000E+01  0.51109989000E-03 0. -1.
     -623   -1    0    0    0    0  0.00000000000E+00  0.00000000000E+00  0.12525980253E-10  0.17130000000E+03  0.17130000000E+03 0. -1.
       11    1    1    2    0    0 -0.67644206552E-01 -0.24228094629E+00  0.39825897311E+00  0.47104805115E+00  0.51109989000E-03 0. -1.
     -623    1    1    2    0    0  0.33926177777E+00  0.23828733330E+00  0.13548794654E+01  0.17130585973E+03  0.17130000000E+03 0. -1.
      622    1    1    2    0    0 -0.27161757122E+00  0.39936129820E-02  0.22468615288E+01  0.35230922190E+01  0.27000000000E+01 0. -1.
</event>
<event>
 5   0  0.6580500E-04  0.9118800E+02  0.7818608E-02  0.1180000E+00
       11   -1    0    0    0    0  0.00000000000E+00  0.00000000000E+00  0.39999999673E+01  0.40000000000E+01  0.51109989000E-03 0.  1.
     -623   -1    0    0    0    0  0.00000000000E+00  0.00000000000E+00  0.12525980253E-10  0.17130000000E+03  0.17130000000E+03 0. -1.
       11    1    1    2    0    0 -0.99415845763E-01 -0.14185427074E-02 -0.66886890582E-01  0.11983171536E+00  0.51109989000E-03 0.  1.
     -623    1    1    2    0    0  0.85604907102E-01  0.29243104615E-02  0.12869852812E+01  0.17130485594E+03  0.17130000000E+03 0. -1.
      622    1    1    2    0    0  0.13810938661E-01 -0.15057677540E-02  0.27799015767E+01  0.38753123468E+01  0.27000000000E+01 0.  1.
</event>
<event>
 5   0  0.6580500E-04  0.9118800E+02  0.7818608E-02  0.1180000E+00
       11   -1    0    0    0    0  0.00000000000E+00  0.00000000000E+00  0.39999999673E+01  0.40000000000E+01  0.51109989000E-03 0.  1.
     -623   -1    0    0    0    0  0.00000000000E+00  0.00000000000E+00  0.12525980253E-10  0.17130000000E+03  0.17130000000E+03 0.  1.
       11    1    1    2    0    0 -0.19753004690E+00 -0.74028560084E-01 -0.24483255527E+00  0.32317423858E+00  0.51109989000E-03 0.  1.
     -623    1    1    2    0    0  0.48281197541E-02  0.54195508266E+00  0.18166795292E+01  0.17131049023E+03  0.17130000000E+03 0.  1.
      622    1    1    2    0    0  0.19270192715E+00 -0.46792652257E+00  0.24281529934E+01  0.36663355306E+01  0.27000000000E+01 0.  1.
</event>
<event>
 5   0  0.6580500E-04  0.9118800E+02  0.7818608E-02  0.1180000E+00
       11   -1    0    0    0    0  0.00000000000E+00  0.00000000000E+00  0.39999999673E+01  0.40000000000E+01  0.51109989000E-03 0.  1.
     -623   -1    0    0    0    0  0.00000000000E+00  0.00000000000E+00  0.12525980253E-10  0.17130000000E+03  0.17130000000E+03 0. -1.
       11    1    1    2    0    0  0.57646194677E+00  0.27138281490E+00  0.31736657408E+00  0.71181374801E+00  0.51109989000E-03 0.  1.
     -623    1    1    2    0    0 -0.50321707498E+00 -0.15389004980E+00  0.18296523382E+01  0.17131057917E+03  0.17130000000E+03 0. -1.
      622    1    1    2    0    0 -0.73244871791E-01 -0.11749276510E+00  0.18529810551E+01  0.32776070771E+01  0.27000000000E+01 0.  1.
</event>
<event>
 5   0  0.6580500E-04  0.9118800E+02  0.7818608E-02  0.1180000E+00
       11   -1    0    0    0    0  0.00000000000E+00  0.00000000000E+00  0.39999999673E+01  0.40000000000E+01  0.51109989000E-03 0. -1.
     -623   -1    0    0    0    0  0.00000000000E+00  0.00000000000E+00  0.12525980253E-10  0.17130000000E+03  0.17130000000E+03 0.  1.
       11    1    1    2    0    0 -0.24971988292E+00 -0.21842665058E-01  0.28444995045E+00  0.37914266111E+00  0.51109989000E-03 0. -1.
     -623    1    1    2    0    0 -0.60113256420E-01 -0.11796709437E-01  0.13310206687E+01  0.17130518197E+03  0.17130000000E+03 0.  1.
      622    1    1    2    0    0  0.30983313934E+00  0.33639374495E-01  0.23845293482E+01  0.36156753718E+01  0.27000000000E+01 0. -1.
</event>
<event>
 5   0  0.6580500E-04  0.9118800E+02  0.7818608E-02  0.1180000E+00
       11   -1    0    0    0    0  0.00000000000E+00  0.00000000000E+00  0.39999999673E+01  0.40000000000E+01  0.51109989000E-03 0. -1.
     -623   -1    0    0    0    0  0.00000000000E+00  0.00000000000E+00  0.12525980253E-10  0.17130000000E+03  0.17130000000E+03 0.  1.
       11    1    1    2    0    0  0.19136822157E+00  0.12209060009E+00 -0.27423826128E-01  0.22864872253E+00  0.51109989000E-03 0. -1.
     -623    1    1    2    0    0  0.45578030285E+00  0.40540404980E-01  0.14908216544E+01  0.17130709830E+03  0.17130000000E+03 0.  1.
      622    1    1    2    0    0 -0.64714852442E+00 -0.16263100507E+00  0.25366021391E+01  0.37642529762E+01  0.27000000000E+01 0.  0.
</event>
<event>
 5   0  0.6580500E-04  0.9118800E+02  0.7818608E-02  0.1180000E+00
       11   -1    0    0    0    0  0.00000000000E+00  0.00000000000E+00  0.39999999673E+01  0.40000000000E+01  0.51109989000E-03 0.  1.
     -623   -1    0    0    0    0  0.00000000000E+00  0.00000000000E+00  0.12525980253E-10  0.17130000000E+03  0.17130000000E+03 0.  1.
       11    1    1    2    0    0 -0.78480875458E-01  0.27888063116E-02 -0.46515019705E-01  0.91273947719E-01  0.51109989000E-03 0.  1.
     -623    1    1    2    0    0  0.33621963869E-01 -0.17206454885E+00  0.12318808619E+01  0.17130451911E+03  0.17130000000E+03 0.  1.
      622    1    1    2    0    0  0.44858911590E-01  0.16927574254E+00  0.28146341251E+01  0.39042069435E+01  0.27000000000E+01 0.  1.
</event>
<event>
 5   0  0.6580500E-04  0.9118800E+02  0.7818608E-02  0.1180000E+00
       11   -1    0    0    0    0  0.00000000000E+00  0.00000000000E+00  0.39999999673E+01  0.40000000000E+01  0.51109989000E-03 0. -1.
     -623   -1    0    0    0    0  0.00000000000E+00  0.00000000000E+00  0.12525980253E-10  0.17130000000E+03  0.17130000000E+03 0. -1.
       11    1    1    2    0    0  0.54905595929E-01  0.65869078452E+00  0.49264580683E+00  0.82437147348E+00  0.51109989000E-03 0. -1.
     -623    1    1    2    0    0  0.80554027981E+00 -0.14323185373E+01  0.23660825092E+01  0.17132422122E+03  0.17130000000E+03 0. -1.
      622    1    1    2    0    0 -0.86044587574E+00  0.77362775280E+00  0.11412716513E+01  0.31514073026E+01  0.27000000000E+01 0. -1.
</event>
<event>
 5   0  0.6580500E-04  0.9118800E+02  0.7818608E-02  0.1180000E+00
       11   -1    0    0    0    0  0.00000000000E+00  0.00000000000E+00  0.39999999673E+01  0.40000000000E+01  0.51109989000E-03 0. -1.
     -623   -1    0    0    0    0  0.00000000000E+00  0.00000000000E+00  0.12525980253E-10  0.17130000000E+03  0.17130000000E+03 0.  1.
       11    1    1    2    0    0 -0.17067476699E+00 -0.49326119128E-01  0.93545185585E-01  0.20078322909E+00  0.51109989000E-03 0. -1.
     -623    1    1    2    0    0  0.70462735140E+00  0.27780538648E+00  0.13071925900E+01  0.17130666195E+03  0.17130000000E+03 0.  1.
      622    1    1    2    0    0 -0.53395258441E+00 -0.22847926735E+00  0.25992621918E+01  0.37925548222E+01  0.27000000000E+01 0. -1.
</event>
<event>
 5   0  0.6580500E-04  0.9118800E+02  0.7818608E-02  0.1180000E+00
       11   -1    0    0    0    0  0.00000000000E+00  0.00000000000E+00  0.39999999673E+01  0.40000000000E+01  0.51109989000E-03 0.  1.
     -623   -1    0    0    0    0  0.00000000000E+00  0.00000000000E+00  0.12525980253E-10  0.17130000000E+03  0.17130000000E+03 0.  1.
       11    1    1    2    0    0  0.23916789402E-01 -0.26987381975E+00 -0.10425560861E+00  0.29029878497E+00  0.51109989000E-03 0.  1.
     -623    1    1    2    0    0 -0.55785890155E+00  0.42103755451E+00  0.16353426860E+01  0.17130923158E+03  0.17130000000E+03 0.  1.
      622    1    1    2    0    0  0.53394211215E+00 -0.15116373476E+00  0.24689128900E+01  0.37004696340E+01  0.27000000000E+01 0.  1.
</event>
<event>
 5   0  0.6580500E-04  0.9118800E+02  0.7818608E-02  0.1180000E+00
       11   -1    0    0    0    0  0.00000000000E+00  0.00000000000E+00  0.39999999673E+01  0.40000000000E+01  0.51109989000E-03 0. -1.
     -623   -1    0    0    0    0  0.00000000000E+00  0.00000000000E+00  0.12525980253E-10  0.17130000000E+03  0.17130000000E+03 0.  1.
       11    1    1    2    0    0  0.87427462047E-01  0.45500288647E-01 -0.17428731836E+00  0.20022529299E+00  0.51109989000E-03 0. -1.
     -623    1    1    2    0    0  0.14606912387E+01 -0.20945773061E+00  0.20330027243E+01  0.17131841872E+03  0.17130000000E+03 0.  1.
      622    1    1    2    0    0 -0.15481187007E+01  0.16395744196E+00  0.21412845614E+01  0.37813559905E+01  0.27000000000E+01 0. -1.
</event>
<event>
 5   0  0.6580500E-04  0.9118800E+02  0.7818608E-02  0.1180000E+00
       11   -1    0    0    0    0  0.00000000000E+00  0.00000000000E+00  0.39999999673E+01  0.40000000000E+01  0.51109989000E-03 0.  1.
     -623   -1    0    0    0    0  0.00000000000E+00  0.00000000000E+00  0.12525980253E-10  0.17130000000E+03  0.17130000000E+03 0.  1.
       11    1    1    2    0    0  0.14658567126E+00 -0.28975421851E-01  0.10672008152E+00  0.18362018166E+00  0.51109989000E-03 0.  1.
     -623    1    1    2    0    0  0.18608756953E+00  0.36164887026E+00  0.12446503210E+01  0.17130500452E+03  0.17130000000E+03 0.  1.
      622    1    1    2    0    0 -0.33267324079E+00 -0.33267344841E+00  0.26486295648E+01  0.38113753003E+01  0.27000000000E+01 0.  1.
</event>
<event>
 5   0  0.6580500E-04  0.9118800E+02  0.7818608E-02  0.1180000E+00
       11   -1    0    0    0    0  0.00000000000E+00  0.00000000000E+00  0.39999999673E+01  0.40000000000E+01  0.51109989000E-03 0. -1.
     -623   -1    0    0    0    0  0.00000000000E+00  0.00000000000E+00  0.12525980253E-10  0.17130000000E+03  0.17130000000E+03 0. -1.
       11    1    1    2    0    0 -0.19919496977E+00  0.42145421999E+00  0.70873029956E-01  0.47151409643E+00  0.51109989000E-03 0. -1.
     -623    1    1    2    0    0 -0.40131801497E+00 -0.12118963373E+01  0.19126654811E+01  0.17131543433E+03  0.17130000000E+03 0. -1.
      622    1    1    2    0    0  0.60051298475E+00  0.79044211731E+00  0.20164614563E+01  0.35130515781E+01  0.27000000000E+01 0.  0.
</event>
<event>
 5   0  0.6580500E-04  0.9118800E+02  0.7818608E-02  0.1180000E+00
       11   -1    0    0    0    0  0.00000000000E+00  0.00000000000E+00  0.39999999673E+01  0.40000000000E+01  0.51109989000E-03 0.  1.
     -623   -1    0    0    0    0  0.00000000000E+00  0.00000000000E+00  0.12525980253E-10  0.17130000000E+03  0.17130000000E+03 0. -1.
       11    1    1    2    0    0  0.13987967127E+00  0.46839966871E-01 -0.58062763614E-01  0.15853028314E+00  0.51109989000E-03 0.  1.
     -623    1    1    2    0    0  0.43170198353E+00 -0.45284397852E-01  0.13949140449E+01  0.17130622932E+03  0.17130000000E+03 0. -1.
      622    1    1    2    0    0 -0.57158165480E+00 -0.15555690190E-02  0.26631486861E+01  0.38352404008E+01  0.27000000000E+01 0.  1.
</event>
<event>
 5   0  0.6580500E-04  0.9118800E+02  0.7818608E-02  0.1180000E+00
       11   -1    0    0    0    0  0.00000000000E+00  0.00000000000E+00  0.39999999673E+01  0.40000000000E+01  0.51109989000E-03 0. -1.
     -623   -1    0    0    0    0  0.00000000000E+00  0.00000000000E+00  0.12525980253E-10  0.17130000000E+03  0.17130000000E+03 0. -1.
       11    1    1    2    0    0  0.16588260283E+00  0.10333166544E+00 -0.40673085665E+00  0.45124796064E+00  0.51109989000E-03 0. -1.
     -623    1    1    2    0    0 -0.11797316662E+01 -0.24664656707E+00  0.23798547527E+01  0.17132077022E+03  0.17130000000E+03 0. -1.
      622    1    1    2    0    0  0.10138490634E+01  0.14331490164E+00  0.20268760714E+01  0.35279818159E+01  0.27000000000E+01 0. -1.
</event>
<event>
 5   0  0.6580500E-04  0.9118800E+02  0.7818608E-02  0.1180000E+00
       11   -1    0    0    0    0  0.00000000000E+00  0.00000000000E+00  0.39999999673E+01  0.40000000000E+01  0.51109989000E-03 0. -1.
     -623   -1    0    0    0    0  0.00000000000E+00  0.00000000000E+00  0.12525980253E-10  0.17130000000E+03  0.17130000000E+03 0.  1.
       11    1    1    2    0    0 -0.16934851101E+00  0.28778284450E-02  0.51675634317E-01  0.17708142896E+00  0.51109989000E-03 0. -1.
     -623    1    1    2    0    0  0.50660306590E+00  0.12536404647E-01  0.12708282343E+01  0.17130546345E+03  0.17130000000E+03 0.  1.
      622    1    1    2    0    0 -0.33725455489E+00 -0.15414233092E-01  0.26774960987E+01  0.38174551198E+01  0.27000000000E+01 0. -1.
</event>
<event>
 5   0  0.6580500E-04  0.9118800E+02  0.7818608E-02  0.1180000E+00
       11   -1    0    0    0    0  0.00000000000E+00  0.00000000000E+00  0.39999999673E+01  0.40000000000E+01  0.51109989000E-03 0. -1.
     -623   -1    0    0    0    0  0.00000000000E+00  0.00000000000E+00  0.12525980253E-10  0.17130000000E+03  0.17130000000E+03 0.  1.
       11    1    1    2    0    0 -0.32977051212E-01  0.26696281232E-01  0.32219983845E-02  0.42553728788E-01  0.51109989000E-03 0. -1.
     -623    1    1    2    0    0  0.26863099014E+00 -0.70920440810E-01  0.11187211687E+01  0.17130387833E+03  0.17130000000E+03 0.  1.
      622    1    1    2    0    0 -0.23565393892E+00  0.44224159577E-01  0.28780568003E+01  0.39535679457E+01  0.27000000000E+01 0. -1.
</event>
<event>
 5   0  0.6580500E-04  0.9118800E+02  0.7818608E-02  0.1180000E+00
       11   -1    0    0    0    0  0.00000000000E+00  0.00000000000E+00  0.39999999673E+01  0.40000000000E+01  0.51109989000E-03 0. -1.
     -623   -1    0    0    0    0  0.00000000000E+00  0.00000000000E+00  0.12525980253E-10  0.17130000000E+03  0.17130000000E+03 0.  1.
       11    1    1    2    0    0 -0.72992272497E-01  0.17777836946E+00  0.56682797951E-01  0.20036521979E+00  0.51109989000E-03 0. -1.
     -623    1    1    2    0    0 -0.19791542868E+00  0.17957410823E-01  0.12980770064E+01  0.17130503348E+03  0.17130000000E+03 0.  1.
      622    1    1    2    0    0  0.27090770118E+00 -0.19573578029E+00  0.26452401630E+01  0.37946012964E+01  0.27000000000E+01 0. -1.
</event>
<event>
 5   0  0.6580500E-04  0.9118800E+02  0.7818608E-02  0.1180000E+00
       11   -1    0    0    0    0  0.00000000000E+00  0.00000000000E+00  0.39999999673E+01  0.40000000000E+01  0.51109989000E-03 0. -1.
     -623   -1    0    0    0    0  0.00000000000E+00  0.00000000000E+00  0.12525980253E-10  0.17130000000E+03  0.17130000000E+03 0. -1.
       11    1    1    2    0    0 -0.20119242984E+00  0.14016709551E+00  0.49007528484E+00  0.54799567017E+00  0.51109989000E-03 0. -1.
     -623    1    1    2    0    0 -0.10134057405E+01  0.49290322316E+00  0.18809307369E+01  0.17131403283E+03  0.17130000000E+03 0. -1.
      622    1    1    2    0    0  0.12145981703E+01 -0.63307031867E+00  0.16289939457E+01  0.34379714977E+01  0.27000000000E+01 0. -1.
</event>
<event>
 5   0  0.6580500E-04  0.9118800E+02  0.7818608E-02  0.1180000E+00
       11   -1    0    0    0    0  0.00000000000E+00  0.00000000000E+00  0.39999999673E+01  0.40000000000E+01  0.51109989000E-03 0. -1.
     -623   -1    0    0    0    0  0.00000000000E+00  0.00000000000E+00  0.12525980253E-10  0.17130000000E+03  0.17130000000E+03 0.  1.
       11    1    1    2    0    0 -0.38912252297E-01 -0.11413477204E+00  0.35944656562E+00  0.37913454647E+00  0.51109989000E-03 0. -1.
     -623    1    1    2    0    0 -0.43850573860E+00  0.76349498017E-01  0.12842231486E+01  0.17130539205E+03  0.17130000000E+03 0.  1.
      622    1    1    2    0    0  0.47741799090E+00  0.37785274018E-01  0.23563302532E+01  0.36154734029E+01  0.27000000000E+01 0. -1.
</event>
<event>
 5   0  0.6580500E-04  0.9118800E+02  0.7818608E-02  0.1180000E+00
       11   -1    0    0    0    0  0.00000000000E+00  0.00000000000E+00  0.39999999673E+01  0.40000000000E+01  0.51109989000E-03 0.  1.
     -623   -1    0    0    0    0  0.00000000000E+00  0.00000000000E+00  0.12525980253E-10  0.17130000000E+03  0.17130000000E+03 0. -1.
       11    1    1    2    0    0  0.29733474394E-01  0.84909092369E-01  0.29798495778E+00  0.31126986644E+00  0.51109989000E-03 0.  1.
     -623    1    1    2    0    0 -0.44421358790E+00  0.12430437123E+00  0.12395930004E+01  0.17130510608E+03  0.17130000000E+03 0. -1.
      622    1    1    2    0    0  0.41448011350E+00 -0.20921346360E+00  0.24624220092E+01  0.36836240564E+01  0.27000000000E+01 0.  1.
</event>
<event>
 5   0  0.6580500E-04  0.9118800E+02  0.7818608E-02  0.1180000E+00
       11   -1    0    0    0    0  0.00000000000E+00  0.00000000000E+00  0.39999999673E+01  0.40000000000E+01  0.51109989000E-03 0. -1.
     -623   -1    0    0    0    0  0.00000000000E+00  0.00000000000E+00  0.12525980253E-10  0.17130000000E+03  0.17130000000E+03 0.  1.
       11    1    1    2    0    0  0.30041723521E+00  0.14649192061E+00  0.23456740382E+00  0.40832894359E+00  0.51109989000E-03 0. -1.
     -623    1    1    2    0    0 -0.19092309121E+00 -0.38307721277E+00  0.14210780522E+01  0.17130642913E+03  0.17130000000E+03 0.  1.
      622    1    1    2    0    0 -0.10949414399E+00  0.23658529216E+00  0.23443545113E+01  0.35852419225E+01  0.27000000000E+01 0. -1.
</event>
<event>
 5   0  0.6580500E-04  0.9118800E+02  0.7818608E-02  0.1180000E+00
       11   -1    0    0    0    0  0.00000000000E+00  0.00000000000E+00  0.39999999673E+01  0.40000000000E+01  0.51109989000E-03 0. -1.
     -623   -1    0    0    0    0  0.00000000000E+00  0.00000000000E+00  0.12525980253E-10  0.17130000000E+03  0.17130000000E+03 0.  1.
       11    1    1    2    0    0 -0.41702581172E-01  0.22242701257E-01 -0.49603224100E-01  0.68517035106E-01  0.51109989000E-03 0. -1.
     -623    1    1    2    0    0 -0.77468899154E+00 -0.69977536786E-01  0.13212555664E+01  0.17130686138E+03  0.17130000000E+03 0.  1.
      622    1    1    2    0    0  0.81639157271E+00  0.47734835529E-01  0.27283476251E+01  0.39246215840E+01  0.27000000000E+01 0. -1.
</event>
<event>
 5   0  0.6580500E-04  0.9118800E+02  0.7818608E-02  0.1180000E+00
       11   -1    0    0    0    0  0.00000000000E+00  0.00000000000E+00  0.39999999673E+01  0.40000000000E+01  0.51109989000E-03 0.  1.
     -623   -1    0    0    0    0  0.00000000000E+00  0.00000000000E+00  0.12525980253E-10  0.17130000000E+03  0.17130000000E+03 0. -1.
       11    1    1    2    0    0  0.35505876397E+00 -0.41796665518E+00  0.38201973178E-01  0.54974767184E+00  0.51109989000E-03 0.  1.
     -623    1    1    2    0    0 -0.33828103903E+00 -0.41034730262E-01  0.18809828241E+01  0.17131066579E+03  0.17130000000E+03 0. -1.
      622    1    1    2    0    0 -0.16777724940E-01  0.45900138544E+00  0.20808151700E+01  0.34395865356E+01  0.27000000000E+01 0.  1.
</event>
<event>
 5   0  0.6580500E-04  0.9118800E+02  0.7818608E-02  0.1180000E+00
       11   -1    0    0    0    0  0.00000000000E+00  0.00000000000E+00  0.39999999673E+01  0.40000000000E+01  0.51109989000E-03 0.  1.
     -623   -1    0    0    0    0  0.00000000000E+00  0.00000000000E+00  0.12525980253E-10  0.17130000000E+03  0.17130000000E+03 0.  1.
       11    1    1    2    0    0  0.44912952965E-01 -0.19474691808E-01  0.14704440825E+00  0.15497985735E+00  0.51109989000E-03 0.  1.
     -623    1    1    2    0    0 -0.31132883296E+00 -0.33777870758E+00  0.11583799496E+01  0.17130453253E+03  0.17130000000E+03 0.  1.
      622    1    1    2    0    0  0.26641587999E+00  0.35725339939E+00  0.26945756095E+01  0.38404876159E+01  0.27000000000E+01 0.  1.
</event>
<event>
 5   0  0.6580500E-04  0.9118800E+02  0.7818608E-02  0.1180000E+00
       11   -1    0    0    0    0  0.00000000000E+00  0.00000000000E+00  0.39999999673E+01  0.40000000000E+01  0.51109989000E-03 0. -1.
     -623   -1    0    0    0    0  0.00000000000E+00  0.00000000000E+00  0.12525980253E-10  0.17130000000E+03  0.17130000000E+03 0.  1.
       11    1    1    2    0    0 -0.23107156237E+00  0.84893444209E+00  0.19669734655E+00  0.90153971696E+00  0.51109989000E-03 0. -1.
     -623    1    1    2    0    0  0.65012266119E-02 -0.21917015393E+01  0.33990003448E+01  0.17134773649E+03  0.17130000000E+03 0.  1.
      622    1    1    2    0    0  0.22457033576E+00  0.13427670973E+01  0.40430227602E+00  0.30507237901E+01  0.27000000000E+01 0.  0.
</event>
<event>
 5   0  0.6580500E-04  0.9118800E+02  0.7818608E-02  0.1180000E+00
       11   -1    0    0    0    0  0.00000000000E+00  0.00000000000E+00  0.39999999673E+01  0.40000000000E+01  0.51109989000E-03 0.  1.
     -623   -1    0    0    0    0  0.00000000000E+00  0.00000000000E+00  0.12525980253E-10  0.17130000000E+03  0.17130000000E+03 0. -1.
       11    1    1    2    0    0  0.14701102918E-01  0.30215785484E-01 -0.33333508590E-01  0.47333921614E-01  0.51109989000E-03 0.  1.
     -623    1    1    2    0    0  0.26771316061E+00  0.51727848035E-01  0.11673334502E+01  0.17130419438E+03  0.17130000000E+03 0. -1.
      622    1    1    2    0    0 -0.28241426353E+00 -0.81943633519E-01  0.28660000257E+01  0.39484716946E+01  0.27000000000E+01 0.  1.
</event>
<event>
 5   0  0.6580500E-04  0.9118800E+02  0.7818608E-02  0.1180000E+00
       11   -1    0    0    0    0  0.00000000000E+00  0.00000000000E+00  0.39999999673E+01  0.40000000000E+01  0.51109989000E-03 0.  1.
     -623   -1    0    0    0    0  0.00000000000E+00  0.00000000000E+00  0.12525980253E-10  0.17130000000E+03  0.17130000000E+03 0.  1.
       11    1    1    2    0    0 -0.40244971107E+00 -0.10273280158E+00  0.12760171698E+00  0.43451381780E+00  0.51109989000E-03 0.  1.
     -623    1    1    2    0    0  0.86451344778E+00 -0.32935798553E-01  0.16093490078E+01  0.17130974424E+03  0.17130000000E+03 0.  1.
      622    1    1    2    0    0 -0.46206373671E+00  0.13566860013E+00  0.22630492426E+01  0.35557419395E+01  0.27000000000E+01 0.  1.
</event>
<event>
 5   0  0.6580500E-04  0.9118800E+02  0.7818608E-02  0.1180000E+00
       11   -1    0    0    0    0  0.00000000000E+00  0.00000000000E+00  0.39999999673E+01  0.40000000000E+01  0.51109989000E-03 0. -1.
     -623   -1    0    0    0    0  0.00000000000E+00  0.00000000000E+00  0.12525980253E-10  0.17130000000E+03  0.17130000000E+03 0. -1.
       11    1    1    2    0    0 -0.23380352544E+00  0.29248678069E+00 -0.26578775710E+00  0.45919059053E+00  0.51109989000E-03 0. -1.
     -623    1    1    2    0    0  0.81553126781E-01  0.13732719195E+00  0.20402555385E+01  0.17131222418E+03  0.17130000000E+03 0. -1.
      622    1    1    2    0    0  0.15225039866E+00 -0.42981397264E+00  0.22255321859E+01  0.35285852329E+01  0.27000000000E+01 0. -1.
</event>
<event>
 5   0  0.6580500E-04  0.9118800E+02  0.7818608E-02  0.1180000E+00
       11   -1    0    0    0    0  0.00000000000E+00  0.00000000000E+00  0.39999999673E+01  0.40000000000E+01  0.51109989000E-03 0. -1.
     -623   -1    0    0    0    0  0.00000000000E+00  0.00000000000E+00  0.12525980253E-10  0.17130000000E+03  0.17130000000E+03 0.  1.
       11    1    1    2    0    0  0.28604585221E+00 -0.81946805849E+00  0.61597489865E+00  0.10643192498E+01  0.51109989000E-03 0. -1.
     -623    1    1    2    0    0 -0.59864583513E+00  0.51171318946E+00  0.23694916726E+01  0.17131819728E+03  0.17130000000E+03 0.  1.
      622    1    1    2    0    0  0.31259998292E+00  0.30775486903E+00  0.10145333961E+01  0.29174834739E+01  0.27000000000E+01 0.  0.
</event>
<event>
 5   0  0.6580500E-04  0.9118800E+02  0.7818608E-02  0.1180000E+00
       11   -1    0    0    0    0  0.00000000000E+00  0.00000000000E+00  0.39999999673E+01  0.40000000000E+01  0.51109989000E-03 0.  1.
     -623   -1    0    0    0    0  0.00000000000E+00  0.00000000000E+00  0.12525980253E-10  0.17130000000E+03  0.17130000000E+03 0.  1.
       11    1    1    2    0    0 -0.67534269351E-01  0.21363045775E-01  0.42069466547E+00  0.42661636167E+00  0.51109989000E-03 0.  1.
     -623    1    1    2    0    0  0.51693164887E+00  0.33173385301E+00  0.13191495601E+01  0.17130618034E+03  0.17130000000E+03 0.  1.
      622    1    1    2    0    0 -0.44939737952E+00 -0.35309689879E+00  0.22601557418E+01  0.35672033025E+01  0.27000000000E+01 0.  1.
</event>
<event>
 5   0  0.6580500E-04  0.9118800E+02  0.7818608E-02  0.1180000E+00
       11   -1    0    0    0    0  0.00000000000E+00  0.00000000000E+00  0.39999999673E+01  0.40000000000E+01  0.51109989000E-03 0. -1.
     -623   -1    0    0    0    0  0.00000000000E+00  0.00000000000E+00  0.12525980253E-10  0.17130000000E+03  0.17130000000E+03 0.  1.
       11    1    1    2    0    0  0.49744551555E+00 -0.13650352646E+00  0.13175900464E+00  0.53239642204E+00  0.51109989000E-03 0. -1.
     -623    1    1    2    0    0 -0.13323094194E+01  0.79485053433E+00  0.20043280982E+01  0.17131875019E+03  0.17130000000E+03 0.  1.
      622    1    1    2    0    0  0.83486390385E+00 -0.65834700788E+00  0.18639128645E+01  0.34488533873E+01  0.27000000000E+01 0. -1.
</event>
<event>
 5   0  0.6580500E-04  0.9118800E+02  0.7818608E-02  0.1180000E+00
       11   -1    0    0    0    0  0.00000000000E+00  0.00000000000E+00  0.39999999673E+01  0.40000000000E+01  0.51109989000E-03 0. -1.
     -623   -1    0    0    0    0  0.00000000000E+00  0.00000000000E+00  0.12525980253E-10  0.17130000000E+03  0.17130000000E+03 0.  1.
       11    1    1    2    0    0  0.96174820517E-01  0.17700766188E+00  0.22656192647E+00  0.30316971519E+00  0.51109989000E-03 0. -1.
     -623    1    1    2    0    0  0.20782498036E+00  0.94944121423E-01  0.12888392787E+01  0.17130500084E+03  0.17130000000E+03 0.  1.
      622    1    1    2    0    0 -0.30399980088E+00 -0.27195178330E+00  0.24845987622E+01  0.36918294463E+01  0.27000000000E+01 0. -1.
</event>
<event>
 5   0  0.6580500E-04  0.9118800E+02  0.7818608E-02  0.1180000E+00
       11   -1    0    0    0    0  0.00000000000E+00  0.00000000000E+00  0.39999999673E+01  0.40000000000E+01  0.51109989000E-03 0.  1.
     -623   -1    0    0    0    0  0.00000000000E+00  0.00000000000E+00  0.12525980253E-10  0.17130000000E+03  0.17130000000E+03 0.  1.
       11    1    1    2    0    0  0.40711850491E-01 -0.18240320755E+00  0.39782622167E+00  0.43953879097E+00  0.51109989000E-03 0.  1.
     -623    1    1    2    0    0 -0.74298517031E+00  0.38311298476E+00  0.14118497507E+01  0.17130785774E+03  0.17130000000E+03 0.  1.
      622    1    1    2    0    0  0.70227331982E+00 -0.20070977721E+00  0.21903239950E+01  0.35526034726E+01  0.27000000000E+01 0.  1.
</event>
<event>
 5   0  0.6580500E-04  0.9118800E+02  0.7818608E-02  0.1180000E+00
       11   -1    0    0    0    0  0.00000000000E+00  0.00000000000E+00  0.39999999673E+01  0.40000000000E+01  0.51109989000E-03 0. -1.
     -623   -1    0    0    0    0  0.00000000000E+00  0.00000000000E+00  0.12525980253E-10  0.17130000000E+03  0.17130000000E+03 0. -1.
       11    1    1    2    0    0  0.12402996234E+00 -0.42752601094E-01 -0.81709555340E-02  0.13144672759E+00  0.51109989000E-03 0. -1.
     -623    1    1    2    0    0  0.22351062211E+00 -0.69958466531E+00  0.13720350259E+01  0.17130706890E+03  0.17130000000E+03 0. -1.
      622    1    1    2    0    0 -0.34754058445E+00  0.74233726641E+00  0.26361358970E+01  0.38614843703E+01  0.27000000000E+01 0. -1.
</event>
<event>
 5   0  0.6580500E-04  0.9118800E+02  0.7818608E-02  0.1180000E+00
       11   -1    0    0    0    0  0.00000000000E+00  0.00000000000E+00  0.39999999673E+01  0.40000000000E+01  0.51109989000E-03 0.  1.
     -623   -1    0    0    0    0  0.00000000000E+00  0.00000000000E+00  0.12525980253E-10  0.17130000000E+03  0.17130000000E+03 0.  1.
       11    1    1    2    0    0 -0.22962587180E+00 -0.12519865930E+00  0.29812301216E+00  0.39658585059E+00  0.51109989000E-03 0.  1.
     -623    1    1    2    0    0 -0.17847279785E+00  0.70298034523E+00  0.14347403475E+01  0.17130754366E+03  0.17130000000E+03 0.  1.
      622    1    1    2    0    0  0.40809866965E+00 -0.57778168592E+00  0.22671366077E+01  0.35958704925E+01  0.27000000000E+01 0.  1.
</event>
<event>
 5   0  0.6580500E-04  0.9118800E+02  0.7818608E-02  0.1180000E+00
       11   -1    0    0    0    0  0.00000000000E+00  0.00000000000E+00  0.39999999673E+01  0.40000000000E+01  0.51109989000E-03 0. -1.
     -623   -1    0    0    0    0  0.00000000000E+00  0.00000000000E+00  0.12525980253E-10  0.17130000000E+03  0.17130000000E+03 0.  1.
       11    1    1    2    0    0  0.10314190874E+00 -0.10178547611E+00  0.14586573793E+00  0.20561033829E+00  0.51109989000E-03 0. -1.
     -623    1    1    2    0    0  0.44726465661E-01  0.50093534304E+00  0.12297998340E+01  0.17130515271E+03  0.17130000000E+03 0.  1.
      622    1    1    2    0    0 -0.14786837440E+00 -0.39914986693E+00  0.26243343954E+01  0.37892369537E+01  0.27000000000E+01 0. -1.
</event>
<event>
 5   0  0.6580500E-04  0.9118800E+02  0.7818608E-02  0.1180000E+00
       11   -1    0    0    0    0  0.00000000000E+00  0.00000000000E+00  0.39999999673E+01  0.40000000000E+01  0.51109989000E-03 0. -1.
     -623   -1    0    0    0    0  0.00000000000E+00  0.00000000000E+00  0.12525980253E-10  0.17130000000E+03  0.17130000000E+03 0.  1.
       11    1    1    2    0    0 -0.19719293864E+00  0.39615157827E+00  0.29682785305E-01  0.44351150716E+00  0.51109989000E-03 0. -1.
     -623    1    1    2    0    0  0.24886758295E+00 -0.15912017360E+00  0.16813598496E+01  0.17130850599E+03  0.17130000000E+03 0.  1.
      622    1    1    2    0    0 -0.51674644315E-01 -0.23703140467E+00  0.22889573325E+01  0.35479825007E+01  0.27000000000E+01 0. -1.
</event>
<event>
 5   0  0.6580500E-04  0.9118800E+02  0.7818608E-02  0.1180000E+00
       11   -1    0    0    0    0  0.00000000000E+00  0.00000000000E+00  0.39999999673E+01  0.40000000000E+01  0.51109989000E-03 0. -1.
     -623   -1    0    0    0    0  0.00000000000E+00  0.00000000000E+00  0.12525980253E-10  0.17130000000E+03  0.17130000000E+03 0. -1.
       11    1    1    2    0    0 -0.13599778695E-01  0.82638096068E-01  0.88281182556E-02  0.84215234948E-01  0.51109989000E-03 0. -1.
     -623    1    1    2    0    0  0.58202000478E+00  0.28471428721E+00  0.12452086174E+01  0.17130575108E+03  0.17130000000E+03 0. -1.
      622    1    1    2    0    0 -0.56842022608E+00 -0.36735238328E+00  0.27459632317E+01  0.39100336823E+01  0.27000000000E+01 0. -1.
</event>
<event>
 5   0  0.6580500E-04  0.9118800E+02  0.7818608E-02  0.1180000E+00
       11   -1    0    0    0    0  0.00000000000E+00  0.00000000000E+00  0.39999999673E+01  0.40000000000E+01  0.51109989000E-03 0.  1.
     -623   -1    0    0    0    0  0.00000000000E+00  0.00000000000E+00  0.12525980253E-10  0.17130000000E+03  0.17130000000E+03 0. -1.
       11    1    1    2    0    0  0.75677098826E-01 -0.58809948465E-01 -0.10482640787E+00  0.14203686259E+00  0.51109989000E-03 0.  1.
     -623    1    1    2    0    0  0.57957681120E-01  0.29120484527E+00  0.13702744517E+01  0.17130573782E+03  0.17130000000E+03 0. -1.
      622    1    1    2    0    0 -0.13363477995E+00 -0.23239489681E+00  0.27345519236E+01  0.38522253134E+01  0.27000000000E+01 0.  1.
</event>
<event>
 5   0  0.6580500E-04  0.9118800E+02  0.7818608E-02  0.1180000E+00
       11   -1    0    0    0    0  0.00000000000E+00  0.00000000000E+00  0.39999999673E+01  0.40000000000E+01  0.51109989000E-03 0. -1.
     -623   -1    0    0    0    0  0.00000000000E+00  0.00000000000E+00  0.12525980253E-10  0.17130000000E+03  0.17130000000E+03 0. -1.
       11    1    1    2    0    0 -0.59764165860E+00 -0.46711087764E+00  0.14265494976E+00  0.77182823220E+00  0.51109989000E-03 0. -1.
     -623    1    1    2    0    0  0.34778401554E+00  0.74655362460E+00  0.21572449218E+01  0.17131556264E+03  0.17130000000E+03 0. -1.
      622    1    1    2    0    0  0.24985764306E+00 -0.27944274696E+00  0.17001000958E+01  0.32126091306E+01  0.27000000000E+01 0. -1.
</event>
<event>
 5   0  0.6580500E-04  0.9118800E+02  0.7818608E-02  0.1180000E+00
       11   -1    0    0    0    0  0.00000000000E+00  0.00000000000E+00  0.39999999673E+01  0.40000000000E+01  0.51109989000E-03 0.  1.
     -623   -1    0    0    0    0  0.00000000000E+00  0.00000000000E+00  0.12525980253E-10  0.17130000000E+03  0.17130000000E+03 0. -1.
       11    1    1    2    0    0  0.16275001610E-01 -0.21878793824E+00  0.11602032917E+00  0.24818141671E+00  0.51109989000E-03 0.  1.
     -623    1    1    2    0    0  0.27206120804E+00 -0.73317066860E-01  0.13192475000E+01  0.17130531167E+03  0.17130000000E+03 0. -1.
      622    1    1    2    0    0 -0.28833620965E+00  0.29210500510E+00  0.25647321382E+01  0.37465069124E+01  0.27000000000E+01 0.  1.
</event>
<event>
 5   0  0.6580500E-04  0.9118800E+02  0.7818608E-02  0.1180000E+00
       11   -1    0    0    0    0  0.00000000000E+00  0.00000000000E+00  0.39999999673E+01  0.40000000000E+01  0.51109989000E-03 0.  1.
     -623   -1    0    0    0    0  0.00000000000E+00  0.00000000000E+00  0.12525980253E-10  0.17130000000E+03  0.17130000000E+03 0. -1.
       11    1    1    2    0    0  0.59015684321E-01 -0.55298932453E-01 -0.61408262591E-01  0.10154830803E+00  0.51109989000E-03 0.  1.
     -623    1    1    2    0    0  0.31194425354E+00 -0.91511867640E+00  0.14616403637E+01  0.17130896399E+03  0.17130000000E+03 0. -1.
      622    1    1    2    0    0 -0.37095993786E+00  0.97041760885E+00  0.25997678662E+01  0.38894877001E+01  0.27000000000E+01 0.  1.
</event>
<event>
 5   0  0.6580500E-04  0.9118800E+02  0.7818608E-02  0.1180000E+00
       11   -1    0    0    0    0  0.00000000000E+00  0.00000000000E+00  0.39999999673E+01  0.40000000000E+01  0.51109989000E-03 0.  1.
     -623   -1    0    0    0    0  0.00000000000E+00  0.00000000000E+00  0.12525980253E-10  0.17130000000E+03  0.17130000000E+03 0. -1.
       11    1    1    2    0    0  0.16426805896E+00 -0.14576777122E+00  0.31771909018E-01  0.22190528103E+00  0.51109989000E-03 0.  1.
     -623    1    1    2    0    0 -0.93646112118E+00  0.22690100844E+00  0.14554572076E+01  0.17130889294E+03  0.17130000000E+03 0. -1.
      622    1    1    2    0    0  0.77219306221E+00 -0.81133237219E-01  0.25127708507E+01  0.37692017823E+01  0.27000000000E+01 0.  1.
</event>
<event>
 5   0  0.6580500E-04  0.9118800E+02  0.7818608E-02  0.1180000E+00
       11   -1    0    0    0    0  0.00000000000E+00  0.00000000000E+00  0.39999999673E+01  0.40000000000E+01  0.51109989000E-03 0. -1.
     -623   -1    0    0    0    0  0.00000000000E+00  0.00000000000E+00  0.12525980253E-10  0.17130000000E+03  0.17130000000E+03 0. -1.
       11    1    1    2    0    0  0.13472495564E+00  0.91118339542E-01 -0.12664228035E+00  0.20613562008E+00  0.51109989000E-03 0. -1.
     -623    1    1    2    0    0 -0.47293960895E+00 -0.79511604546E-01  0.14933071328E+01  0.17130718012E+03  0.17130000000E+03 0. -1.
      622    1    1    2    0    0  0.33821465332E+00 -0.11606734996E-01  0.26333351149E+01  0.37866842614E+01  0.27000000000E+01 0. -1.
</event>
<event>
 5   0  0.6580500E-04  0.9118800E+02  0.7818608E-02  0.1180000E+00
       11   -1    0    0    0    0  0.00000000000E+00  0.00000000000E+00  0.39999999673E+01  0.40000000000E+01  0.51109989000E-03 0. -1.
     -623   -1    0    0    0    0  0.00000000000E+00  0.00000000000E+00  0.12525980253E-10  0.17130000000E+03  0.17130000000E+03 0. -1.
       11    1    1    2    0    0 -0.10441701701E+00 -0.12138988542E+00  0.12145163610E+00  0.20097059202E+00  0.51109989000E-03 0. -1.
     -623    1    1    2    0    0 -0.34153438415E+00 -0.30439076161E-01  0.12549651261E+01  0.17130494012E+03  0.17130000000E+03 0. -1.
      622    1    1    2    0    0  0.44595140116E+00  0.15182896158E+00  0.26235832052E+01  0.37940892873E+01  0.27000000000E+01 0. -1.
</event>
<event>
 5   0  0.6580500E-04  0.9118800E+02  0.7818608E-02  0.1180000E+00
       11   -1    0    0    0    0  0.00000000000E+00  0.00000000000E+00  0.39999999673E+01  0.40000000000E+01  0.51109989000E-03 0. -1.
     -623   -1    0    0    0    0  0.00000000000E+00  0.00000000000E+00  0.12525980253E-10  0.17130000000E+03  0.17130000000E+03 0. -1.
       11    1    1    2    0    0 -0.82467026720E-01 -0.10195181956E+00 -0.56851453417E-01  0.14292422113E+00  0.51109989000E-03 0. -1.
     -623    1    1    2    0    0  0.88791269986E-01  0.29473326427E+00  0.13166524271E+01  0.17130533653E+03  0.17130000000E+03 0. -1.
      622    1    1    2    0    0 -0.63242432662E-02 -0.19278144471E+00  0.27401989937E+01  0.38517392444E+01  0.27000000000E+01 0. -1.
</event>
<event>
 5   0  0.6580500E-04  0.9118800E+02  0.7818608E-02  0.1180000E+00
       11   -1    0    0    0    0  0.00000000000E+00  0.00000000000E+00  0.39999999673E+01  0.40000000000E+01  0.51109989000E-03 0. -1.
     -623   -1    0    0    0    0  0.00000000000E+00  0.00000000000E+00  0.12525980253E-10  0.17130000000E+03  0.17130000000E+03 0. -1.
       11    1    1    2    0    0  0.80333405278E-01  0.79037750511E-01 -0.91541472023E-01  0.14519133698E+00  0.51109989000E-03 0. -1.
     -623    1    1    2    0    0 -0.43168966476E+00  0.43017433787E+00  0.14207607746E+01  0.17130697583E+03  0.17130000000E+03 0. -1.
      622    1    1    2    0    0  0.35135625949E+00 -0.50921208839E+00  0.26707806648E+01  0.38478328357E+01  0.27000000000E+01 0. -1.
</event>
<event>
 5   0  0.6580500E-04  0.9118800E+02  0.7818608E-02  0.1180000E+00
       11   -1    0    0    0    0  0.00000000000E+00  0.00000000000E+00  0.39999999673E+01  0.40000000000E+01  0.51109989000E-03 0. -1.
     -623   -1    0    0    0    0  0.00000000000E+00  0.00000000000E+00  0.12525980253E-10  0.17130000000E+03  0.17130000000E+03 0.  1.
       11    1    1    2    0    0 -0.13134244622E+00  0.23913011629E+00  0.21886291766E+00  0.34976461891E+00  0.51109989000E-03 0. -1.
     -623    1    1    2    0    0  0.41433332972E+00 -0.30662934648E+00  0.13511050681E+01  0.17130610374E+03  0.17130000000E+03 0.  1.
      622    1    1    2    0    0 -0.28299088350E+00  0.67499230194E-01  0.24300319816E+01  0.36441316411E+01  0.27000000000E+01 0. -1.
</event>
<event>
 5   0  0.6580500E-04  0.9118800E+02  0.7818608E-02  0.1180000E+00
       11   -1    0    0    0    0  0.00000000000E+00  0.00000000000E+00  0.39999999673E+01  0.40000000000E+01  0.51109989000E-03 0.  1.
     -623   -1    0    0    0    0  0.00000000000E+00  0.00000000000E+00  0.12525980253E-10  0.17130000000E+03  0.17130000000E+03 0. -1.
       11    1    1    2    0    0 -0.10284711209E+00 -0.84013282887E-01 -0.83921383885E-01  0.15709493965E+00  0.51109989000E-03 0.  1.
     -623    1    1    2    0    0 -0.48182652354E+00  0.53560799039E+00  0.14623604920E+01  0.17130775677E+03  0.17130000000E+03 0. -1.
      622    1    1    2    0    0  0.58467363563E+00 -0.45159470750E+00  0.26215608592E+01  0.38351482864E+01  0.27000000000E+01 0.  1.
</event>
<event>
 5   0  0.6580500E-04  0.9118800E+02  0.7818608E-02  0.1180000E+00
       11   -1    0    0    0    0  0.00000000000E+00  0.00000000000E+00  0.39999999673E+01  0.40000000000E+01  0.51109989000E-03 0. -1.
     -623   -1    0    0    0    0  0.00000000000E+00  0.00000000000E+00  0.12525980253E-10  0.17130000000E+03  0.17130000000E+03 0.  1.
       11    1    1    2    0    0  0.11911223213E+00  0.27313243231E-01  0.16274662018E+00  0.20352017272E+00  0.51109989000E-03 0. -1.
     -623    1    1    2    0    0 -0.45514333732E+00 -0.48486937693E+00  0.12377800545E+01  0.17130576276E+03  0.17130000000E+03 0.  1.
      622    1    1    2    0    0  0.33603110518E+00  0.45755613370E+00  0.25994732927E+01  0.37907170718E+01  0.27000000000E+01 0. -1.
</event>
<event>
 5   0  0.6580500E-04  0.9118800E+02  0.7818608E-02  0.1180000E+00
       11   -1    0    0    0    0  0.00000000000E+00  0.00000000000E+00  0.39999999673E+01  0.40000000000E+01  0.51109989000E-03 0.  1.
     -623   -1    0    0    0    0  0.00000000000E+00  0.00000000000E+00  0.12525980253E-10  0.17130000000E+03  0.17130000000E+03 0.  1.
       11    1    1    2    0    0 -0.88117732777E-01 -0.28382806885E+00  0.68875991407E-01  0.30506928870E+00  0.51109989000E-03 0.  1.
     -623    1    1    2    0    0 -0.19100970724E+01  0.12468670941E+01  0.28561498736E+01  0.17133899364E+03  0.17130000000E+03 0.  1.
      622    1    1    2    0    0  0.19982148052E+01 -0.96303902527E+00  0.10749741024E+01  0.36559370745E+01  0.27000000000E+01 0.  0.
</event>
<event>
 5   0  0.6580500E-04  0.9118800E+02  0.7818608E-02  0.1180000E+00
       11   -1    0    0    0    0  0.00000000000E+00  0.00000000000E+00  0.39999999673E+01  0.40000000000E+01  0.51109989000E-03 0. -1.
     -623   -1    0    0    0    0  0.00000000000E+00  0.00000000000E+00  0.12525980253E-10  0.17130000000E+03  0.17130000000E+03 0. -1.
       11    1    1    2    0    0  0.46372345432E+00  0.19968706193E+00  0.15669311088E+00  0.52864672231E+00  0.51109989000E-03 0. -1.
     -623    1    1    2    0    0 -0.30158352555E+00 -0.16933165513E+00  0.16814934787E+01  0.17130860179E+03  0.17130000000E+03 0. -1.
      622    1    1    2    0    0 -0.16213992878E+00 -0.30355406805E-01  0.21618133778E+01  0.34627514909E+01  0.27000000000E+01 0. -1.
</event>
<event>
 5   0  0.6580500E-04  0.9118800E+02  0.7818608E-02  0.1180000E+00
       11   -1    0    0    0    0  0.00000000000E+00  0.00000000000E+00  0.39999999673E+01  0.40000000000E+01  0.51109989000E-03 0.  1.
     -623   -1    0    0    0    0  0.00000000000E+00  0.00000000000E+00  0.12525980253E-10  0.17130000000E+03  0.17130000000E+03 0. -1.
       11    1    1    2    0    0  0.58710135486E-01  0.18041179093E+00  0.90689053755E-02  0.18994157149E+00  0.51109989000E-03 0.  1.
     -623    1    1    2    0    0 -0.19662033154E+00 -0.61823830737E+00  0.13516352427E+01  0.17130656087E+03  0.17130000000E+03 0. -1.
      622    1    1    2    0    0  0.13791019606E+00  0.43782651644E+00  0.26392958193E+01  0.38034975618E+01  0.27000000000E+01 0.  1.
</event>
<event>
 5   0  0.6580500E-04  0.9118800E+02  0.7818608E-02  0.1180000E+00
       11   -1    0    0    0    0  0.00000000000E+00  0.00000000000E+00  0.39999999673E+01  0.40000000000E+01  0.51109989000E-03 0.  1.
     -623   -1    0    0    0    0  0.00000000000E+00  0.00000000000E+00  0.12525980253E-10  0.17130000000E+03  0.17130000000E+03 0. -1.
       11    1    1    2    0    0  0.18410000906E+00 -0.96102900282E-01 -0.15444757728E+00  0.25881054099E+00  0.51109989000E-03 0.  1.
     -623    1    1    2    0    0 -0.64643392768E+00  0.24551882534E+00  0.16241408139E+01  0.17130909488E+03  0.17130000000E+03 0. -1.
      622    1    1    2    0    0  0.46233391862E+00 -0.14941592506E+00  0.25303067308E+01  0.37320945758E+01  0.27000000000E+01 0.  1.
</event>
<event>
 5   0  0.6580500E-04  0.9118800E+02  0.7818608E-02  0.1180000E+00
       11   -1    0    0    0    0  0.00000000000E+00  0.00000000000E+00  0.39999999673E+01  0.40000000000E+01  0.51109989000E-03 0.  1.
     -623   -1    0    0    0    0  0.00000000000E+00  0.00000000000E+00  0.12525980253E-10  0.17130000000E+03  0.17130000000E+03 0. -1.
       11    1    1    2    0    0 -0.40588209693E+00  0.20428985760E+00 -0.51290213903E+00  0.68523243354E+00  0.51109989000E-03 0.  1.
     -623    1    1    2    0    0  0.15958205497E+01  0.17188771943E+00  0.31338967675E+01  0.17133618269E+03  0.17130000000E+03 0. -1.
      622    1    1    2    0    0 -0.11899384528E+01 -0.37617757703E+00  0.13790053389E+01  0.32785848800E+01  0.27000000000E+01 0.  1.
</event>
<event>
 5   0  0.6580500E-04  0.9118800E+02  0.7818608E-02  0.1180000E+00
       11   -1    0    0    0    0  0.00000000000E+00  0.00000000000E+00  0.39999999673E+01  0.40000000000E+01  0.51109989000E-03 0. -1.
     -623   -1    0    0    0    0  0.00000000000E+00  0.00000000000E+00  0.12525980253E-10  0.17130000000E+03  0.17130000000E+03 0.  1.
       11    1    1    2    0    0 -0.19483198262E+00  0.24665701775E-01  0.17081464813E+00  0.26028024038E+00  0.51109989000E-03 0. -1.
     -623    1    1    2    0    0  0.83533504728E+00 -0.22610944443E+00  0.13413941690E+01  0.17130743781E+03  0.17130000000E+03 0.  1.
      622    1    1    2    0    0 -0.64050306467E+00  0.20144374266E+00  0.24877911502E+01  0.37322819513E+01  0.27000000000E+01 0. -1.
</event>
<event>
 5   0  0.6580500E-04  0.9118800E+02  0.7818608E-02  0.1180000E+00
       11   -1    0    0    0    0  0.00000000000E+00  0.00000000000E+00  0.39999999673E+01  0.40000000000E+01  0.51109989000E-03 0. -1.
     -623   -1    0    0    0    0  0.00000000000E+00  0.00000000000E+00  0.12525980253E-10  0.17130000000E+03  0.17130000000E+03 0. -1.
       11    1    1    2    0    0 -0.42806535944E+00  0.16447022915E+00  0.69319334618E+00  0.83114841313E+00  0.51109989000E-03 0. -1.
     -623    1    1    2    0    0 -0.28724483865E+00 -0.60212719765E+00  0.19020310483E+01  0.17131185828E+03  0.17130000000E+03 0. -1.
      622    1    1    2    0    0  0.71531019809E+00  0.43765696850E+00  0.14047755728E+01  0.31569933024E+01  0.27000000000E+01 0. -1.
</event>
<event>
 5   0  0.6580500E-04  0.9118800E+02  0.7818608E-02  0.1180000E+00
       11   -1    0    0    0    0  0.00000000000E+00  0.00000000000E+00  0.39999999673E+01  0.40000000000E+01  0.51109989000E-03 0. -1.
     -623   -1    0    0    0    0  0.00000000000E+00  0.00000000000E+00  0.12525980253E-10  0.17130000000E+03  0.17130000000E+03 0. -1.
       11    1    1    2    0    0  0.94061272768E-01  0.80595866039E-01 -0.76795330803E-01  0.14574292680E+00  0.51109989000E-03 0. -1.
     -623    1    1    2    0    0 -0.90907302808E-01 -0.61430851408E-01  0.13336846058E+01  0.17130522687E+03  0.17130000000E+03 0. -1.
      622    1    1    2    0    0 -0.31539699599E-02 -0.19165014631E-01  0.27431106923E+01  0.38490302046E+01  0.27000000000E+01 0. -1.
</event>
<event>
 5   0  0.6580500E-04  0.9118800E+02  0.7818608E-02  0.1180000E+00
       11   -1    0    0    0    0  0.00000000000E+00  0.00000000000E+00  0.39999999673E+01  0.40000000000E+01  0.51109989000E-03 0.  1.
     -623   -1    0    0    0    0  0.00000000000E+00  0.00000000000E+00  0.12525980253E-10  0.17130000000E+03  0.17130000000E+03 0. -1.
       11    1    1    2    0    0 -0.20557771346E+00  0.78806862441E-01 -0.14167990295E+00  0.26181324253E+00  0.51109989000E-03 0.  1.
     -623    1    1    2    0    0 -0.24957866335E+00  0.50697393931E+00  0.16788885532E+01  0.17130915906E+03  0.17130000000E+03 0. -1.
      622    1    1    2    0    0  0.45515637681E+00 -0.58578080175E+00  0.24627913171E+01  0.37290276945E+01  0.27000000000E+01 0.  1.
</event>
<event>
 5   0  0.6580500E-04  0.9118800E+02  0.7818608E-02  0.1180000E+00
       11   -1    0    0    0    0  0.00000000000E+00  0.00000000000E+00  0.39999999673E+01  0.40000000000E+01  0.51109989000E-03 0. -1.
     -623   -1    0    0    0    0  0.00000000000E+00  0.00000000000E+00  0.12525980253E-10  0.17130000000E+03  0.17130000000E+03 0. -1.
       11    1    1    2    0    0 -0.13569745502E+00  0.84491226687E-01 -0.80046344110E-01  0.17877428538E+00  0.51109989000E-03 0. -1.
     -623    1    1    2    0    0 -0.14551230331E+00  0.27323966216E+00  0.14234663776E+01  0.17130619396E+03  0.17130000000E+03 0. -1.
      622    1    1    2    0    0  0.28120975834E+00 -0.35773088885E+00  0.26565799338E+01  0.38150317511E+01  0.27000000000E+01 0. -1.
</event>
<event>
 5   0  0.6580500E-04  0.9118800E+02  0.7818608E-02  0.1180000E+00
       11   -1    0    0    0    0  0.00000000000E+00  0.00000000000E+00  0.39999999673E+01  0.40000000000E+01  0.51109989000E-03 0. -1.
     -623   -1    0    0    0    0  0.00000000000E+00  0.00000000000E+00  0.12525980253E-10  0.17130000000E+03  0.17130000000E+03 0. -1.
       11    1    1    2    0    0  0.72811915452E-01  0.13171765217E+00  0.10009704753E+00  0.18075064336E+00  0.51109989000E-03 0. -1.
     -623    1    1    2    0    0  0.56365338140E-01  0.32511073617E+00  0.12477011029E+01  0.17130486167E+03  0.17130000000E+03 0. -1.
      622    1    1    2    0    0 -0.12917725359E+00 -0.45682838834E+00  0.26522018170E+01  0.38143876858E+01  0.27000000000E+01 0. -1.
</event>
<event>
 5   0  0.6580500E-04  0.9118800E+02  0.7818608E-02  0.1180000E+00
       11   -1    0    0    0    0  0.00000000000E+00  0.00000000000E+00  0.39999999673E+01  0.40000000000E+01  0.51109989000E-03 0. -1.
     -623   -1    0    0    0    0  0.00000000000E+00  0.00000000000E+00  0.12525980253E-10  0.17130000000E+03  0.17130000000E+03 0.  1.
       11    1    1    2    0    0  0.39336588773E-01 -0.87377301140E-01  0.16597832690E-01  0.97251782716E-01  0.51109989000E-03 0. -1.
     -623    1    1    2    0    0 -0.60849138881E-01  0.57059386363E+00  0.12145757710E+01  0.17130526692E+03  0.17130000000E+03 0.  1.
      622    1    1    2    0    0  0.21512550108E-01 -0.48321656249E+00  0.27688263637E+01  0.38974812980E+01  0.27000000000E+01 0. -1.
</event>
<event>
 5   0  0.6580500E-04  0.9118800E+02  0.7818608E-02  0.1180000E+00
       11   -1    0    0    0    0  0.00000000000E+00  0.00000000000E+00  0.39999999673E+01  0.40000000000E+01  0.51109989000E-03 0.  1.
     -623   -1    0    0    0    0  0.00000000000E+00  0.00000000000E+00  0.12525980253E-10  0.17130000000E+03  0.17130000000E+03 0. -1.
       11    1    1    2    0    0 -0.25215374807E+00 -0.19644780725E+00 -0.41843421558E+00  0.52655551240E+00  0.51109989000E-03 0.  1.
     -623    1    1    2    0    0  0.11044545273E+01  0.15499877798E+00  0.24433752696E+01  0.17132105512E+03  0.17130000000E+03 0. -1.
      622    1    1    2    0    0 -0.85230077919E+00  0.41449029269E-01  0.19750589134E+01  0.34523893685E+01  0.27000000000E+01 0.  1.
</event>
<event>
 5   0  0.6580500E-04  0.9118800E+02  0.7818608E-02  0.1180000E+00
       11   -1    0    0    0    0  0.00000000000E+00  0.00000000000E+00  0.39999999673E+01  0.40000000000E+01  0.51109989000E-03 0. -1.
     -623   -1    0    0    0    0  0.00000000000E+00  0.00000000000E+00  0.12525980253E-10  0.17130000000E+03  0.17130000000E+03 0. -1.
       11    1    1    2    0    0 -0.21648129447E+00 -0.16412006534E+00 -0.10460557258E-01  0.27186252258E+00  0.51109989000E-03 0. -1.
     -623    1    1    2    0    0  0.61338351457E+00  0.18301267138E+00  0.14817296998E+01  0.17130760420E+03  0.17130000000E+03 0. -1.
      622    1    1    2    0    0 -0.39690222009E+00 -0.18892606039E-01  0.25287308248E+01  0.37205332799E+01  0.27000000000E+01 0. -1.
</event>
<event>
 5   0  0.6580500E-04  0.9118800E+02  0.7818608E-02  0.1180000E+00
       11   -1    0    0    0    0  0.00000000000E+00  0.00000000000E+00  0.39999999673E+01  0.40000000000E+01  0.51109989000E-03 0. -1.
     -623   -1    0    0    0    0  0.00000000000E+00  0.00000000000E+00  0.12525980253E-10  0.17130000000E+03  0.17130000000E+03 0.  1.
       11    1    1    2    0    0  0.27286738006E+00  0.26443942099E-01  0.20850105774E+00  0.34442537868E+00  0.51109989000E-03 0. -1.
     -623    1    1    2    0    0 -0.63309769559E+00 -0.20563346192E+00  0.13703696045E+01  0.17130677456E+03  0.17130000000E+03 0. -1.
      622    1    1    2    0    0  0.36023031553E+00  0.17918951982E+00  0.24211293052E+01  0.36488000598E+01  0.27000000000E+01 0. -1.
</event>
<event>
 5   0  0.6580500E-04  0.9118800E+02  0.7818608E-02  0.1180000E+00
       11   -1    0    0    0    0  0.00000000000E+00  0.00000000000E+00  0.39999999673E+01  0.40000000000E+01  0.51109989000E-03 0. -1.
     -623   -1    0    0    0    0  0.00000000000E+00  0.00000000000E+00  0.12525980253E-10  0.17130000000E+03  0.17130000000E+03 0.  1.
       11    1    1    2    0    0  0.31202158125E+00  0.32278023247E+00 -0.35739137113E+00  0.57382349117E+00  0.51109989000E-03 0. -1.
     -623    1    1    2    0    0 -0.27431299898E+00 -0.52020068345E+00  0.22844068760E+01  0.17131624083E+03  0.17130000000E+03 0.  1.
      622    1    1    2    0    0 -0.37708582273E-01  0.19742045098E+00  0.20729844624E+01  0.34099356817E+01  0.27000000000E+01 0. -1.
</event>
<event>
 5   0  0.6580500E-04  0.9118800E+02  0.7818608E-02  0.1180000E+00
       11   -1    0    0    0    0  0.00000000000E+00  0.00000000000E+00  0.39999999673E+01  0.40000000000E+01  0.51109989000E-03 0.  1.
     -623   -1    0    0    0    0  0.00000000000E+00  0.00000000000E+00  0.12525980253E-10  0.17130000000E+03  0.17130000000E+03 0. -1.
       11    1    1    2    0    0  0.11014843785E+00  0.21167487273E-01  0.19915796199E+00  0.22857142412E+00  0.51109989000E-03 0.  1.
     -623    1    1    2    0    0  0.21272938294E+00 -0.27156010820E+00  0.12062137808E+01  0.17130459407E+03  0.17130000000E+03 0. -1.
      622    1    1    2    0    0 -0.32287782078E+00  0.25039262093E+00  0.25946282245E+01  0.37668345033E+01  0.27000000000E+01 0.  1.
</event>
<event>
 5   0  0.6580500E-04  0.9118800E+02  0.7818608E-02  0.1180000E+00
       11   -1    0    0    0    0  0.00000000000E+00  0.00000000000E+00  0.39999999673E+01  0.40000000000E+01  0.51109989000E-03 0. -1.
     -623   -1    0    0    0    0  0.00000000000E+00  0.00000000000E+00  0.12525980253E-10  0.17130000000E+03  0.17130000000E+03 0. -1.
       11    1    1    2    0    0 -0.38168482137E-01  0.12994225709E+00  0.10337840621E+00  0.17037951549E+00  0.51109989000E-03 0. -1.
     -623    1    1    2    0    0 -0.16703936089E+00 -0.19879138992E+00  0.11955663342E+01  0.17130436888E+03  0.17130000000E+03 0. -1.
      622    1    1    2    0    0  0.20520784303E+00  0.68849132829E-01  0.27010552269E+01  0.38252515997E+01  0.27000000000E+01 0. -1.
</event>
<event>
 5   0  0.6580500E-04  0.9118800E+02  0.7818608E-02  0.1180000E+00
       11   -1    0    0    0    0  0.00000000000E+00  0.00000000000E+00  0.39999999673E+01  0.40000000000E+01  0.51109989000E-03 0. -1.
     -623   -1    0    0    0    0  0.00000000000E+00  0.00000000000E+00  0.12525980253E-10  0.17130000000E+03  0.17130000000E+03 0.  1.
       11    1    1    2    0    0 -0.74278297277E-01 -0.11368926273E+00  0.14356080066E+00  0.19761699981E+00  0.51109989000E-03 0. -1.
     -623    1    1    2    0    0 -0.73973127753E-01  0.55128853310E+00  0.12269160246E+01  0.17130529681E+03  0.17130000000E+03 0.  1.
      622    1    1    2    0    0  0.14825142503E+00 -0.43759927038E+00  0.26295231421E+01  0.37970861936E+01  0.27000000000E+01 0. -1.
</event>
<event>
 5   0  0.6580500E-04  0.9118800E+02  0.7818608E-02  0.1180000E+00
       11   -1    0    0    0    0  0.00000000000E+00  0.00000000000E+00  0.39999999673E+01  0.40000000000E+01  0.51109989000E-03 0.  1.
     -623   -1    0    0    0    0  0.00000000000E+00  0.00000000000E+00  0.12525980253E-10  0.17130000000E+03  0.17130000000E+03 0.  1.
       11    1    1    2    0    0  0.40643172325E-01 -0.10418553011E+00 -0.15682401330E+00  0.19261496440E+00  0.51109989000E-03 0.  1.
     -623    1    1    2    0    0 -0.35824264082E+00 -0.82341070723E-01  0.15078558939E+01  0.17130703064E+03  0.17130000000E+03 0.  1.
      622    1    1    2    0    0  0.31759946849E+00  0.18652660084E+00  0.26489680868E+01  0.38003543940E+01  0.27000000000E+01 0.  1.
</event>
<event>
 5   0  0.6580500E-04  0.9118800E+02  0.7818608E-02  0.1180000E+00
       11   -1    0    0    0    0  0.00000000000E+00  0.00000000000E+00  0.39999999673E+01  0.40000000000E+01  0.51109989000E-03 0. -1.
     -623   -1    0    0    0    0  0.00000000000E+00  0.00000000000E+00  0.12525980253E-10  0.17130000000E+03  0.17130000000E+03 0. -1.
       11    1    1    2    0    0  0.86422813538E-01  0.12143753169E+00 -0.52629345548E-01  0.15806987707E+00  0.51109989000E-03 0. -1.
     -623    1    1    2    0    0 -0.37285412978E-01 -0.29716878555E+00  0.13332019084E+01  0.17130544979E+03  0.17130000000E+03 0. -1.
      622    1    1    2    0    0 -0.49137400560E-01  0.17573125387E+00  0.27194274045E+01  0.38364803357E+01  0.27000000000E+01 0. -1.
</event>
<event>
 5   0  0.6580500E-04  0.9118800E+02  0.7818608E-02  0.1180000E+00
       11   -1    0    0    0    0  0.00000000000E+00  0.00000000000E+00  0.39999999673E+01  0.40000000000E+01  0.51109989000E-03 0.  1.
     -623   -1    0    0    0    0  0.00000000000E+00  0.00000000000E+00  0.12525980253E-10  0.17130000000E+03  0.17130000000E+03 0.  1.
       11    1    1    2    0    0 -0.79624674622E-01 -0.57872657571E-01  0.33723568778E-01  0.10405226387E+00  0.51109989000E-03 0.  1.
     -623    1    1    2    0    0 -0.87291686090E-01  0.25562337700E-01  0.11683690958E+01  0.17130400859E+03  0.17130000000E+03 0.  1.
      622    1    1    2    0    0  0.16691636071E+00  0.32310319871E-01  0.27979073028E+01  0.38919391443E+01  0.27000000000E+01 0.  1.
</event>
<event>
 5   0  0.6580500E-04  0.9118800E+02  0.7818608E-02  0.1180000E+00
       11   -1    0    0    0    0  0.00000000000E+00  0.00000000000E+00  0.39999999673E+01  0.40000000000E+01  0.51109989000E-03 0.  1.
     -623   -1    0    0    0    0  0.00000000000E+00  0.00000000000E+00  0.12525980253E-10  0.17130000000E+03  0.17130000000E+03 0.  1.
       11    1    1    2    0    0  0.22849213321E+00  0.70765353875E-01  0.13327195930E+00  0.27382123111E+00  0.51109989000E-03 0.  1.
     -623    1    1    2    0    0 -0.77089909245E+00  0.41392544956E-02  0.13685330398E+01  0.17130720121E+03  0.17130000000E+03 0.  1.
      622    1    1    2    0    0  0.54240695924E+00 -0.74904608371E-01  0.24981949682E+01  0.37189775623E+01  0.27000000000E+01 0.  1.
</event>
<event>
 5   0  0.6580500E-04  0.9118800E+02  0.7818608E-02  0.1180000E+00
       11   -1    0    0    0    0  0.00000000000E+00  0.00000000000E+00  0.39999999673E+01  0.40000000000E+01  0.51109989000E-03 0. -1.
     -623   -1    0    0    0    0  0.00000000000E+00  0.00000000000E+00  0.12525980253E-10  0.17130000000E+03  0.17130000000E+03 0.  1.
       11    1    1    2    0    0  0.96842075309E-01  0.11024835219E+00 -0.16974323849E+00  0.22437939956E+00  0.51109989000E-03 0. -1.
     -623    1    1    2    0    0 -0.46254931913E+00 -0.44843286373E+00  0.15905244638E+01  0.17130859527E+03  0.17130000000E+03 0.  1.
      622    1    1    2    0    0  0.36570724382E+00  0.33818451154E+00  0.25792187420E+01  0.37670253345E+01  0.27000000000E+01 0. -1.
</event>
<event>
 5   0  0.6580500E-04  0.9118800E+02  0.7818608E-02  0.1180000E+00
       11   -1    0    0    0    0  0.00000000000E+00  0.00000000000E+00  0.39999999673E+01  0.40000000000E+01  0.51109989000E-03 0. -1.
     -623   -1    0    0    0    0  0.00000000000E+00  0.00000000000E+00  0.12525980253E-10  0.17130000000E+03  0.17130000000E+03 0.  1.
       11    1    1    2    0    0 -0.26085389389E-01  0.16971929206E+00  0.49675363965E+00  0.52559444952E+00  0.51109989000E-03 0. -1.
     -623    1    1    2    0    0 -0.53425851059E+00 -0.34528781760E+00  0.14084210557E+01  0.17130697098E+03  0.17130000000E+03 0.  1.
      622    1    1    2    0    0  0.56034389998E+00  0.17556852554E+00  0.20948252720E+01  0.34674345723E+01  0.27000000000E+01 0.  0.
</event>
<event>
 5   0  0.6580500E-04  0.9118800E+02  0.7818608E-02  0.1180000E+00
       11   -1    0    0    0    0  0.00000000000E+00  0.00000000000E+00  0.39999999673E+01  0.40000000000E+01  0.51109989000E-03 0.  1.
     -623   -1    0    0    0    0  0.00000000000E+00  0.00000000000E+00  0.12525980253E-10  0.17130000000E+03  0.17130000000E+03 0. -1.
       11    1    1    2    0    0  0.25278766661E+00 -0.22670209357E+00  0.12062863849E+00  0.36034285516E+00  0.51109989000E-03 0.  1.
     -623    1    1    2    0    0 -0.65223337556E-01  0.60842131062E-01  0.14609136103E+01  0.17130625273E+03  0.17130000000E+03 0. -1.
      622    1    1    2    0    0 -0.18756432905E+00  0.16585996251E+00  0.24184577186E+01  0.36334044148E+01  0.27000000000E+01 0.  1.
</event>
<event>
 5   0  0.6580500E-04  0.9118800E+02  0.7818608E-02  0.1180000E+00
       11   -1    0    0    0    0  0.00000000000E+00  0.00000000000E+00  0.39999999673E+01  0.40000000000E+01  0.51109989000E-03 0.  1.
     -623   -1    0    0    0    0  0.00000000000E+00  0.00000000000E+00  0.12525980253E-10  0.17130000000E+03  0.17130000000E+03 0. -1.
       11    1    1    2    0    0  0.59427321575E-01 -0.12353258846E+00  0.75157149259E-01  0.15633542550E+00  0.51109989000E-03 0.  1.
     -623    1    1    2    0    0 -0.46105766919E+00  0.10111590793E+00  0.12260943769E+01  0.17130503818E+03  0.17130000000E+03 0. -1.
      622    1    1    2    0    0  0.40163034761E+00  0.22416680528E-01  0.26987484412E+01  0.38386263940E+01  0.27000000000E+01 0.  1.
</event>
<event>
 5   0  0.6580500E-04  0.9118800E+02  0.7818608E-02  0.1180000E+00
       11   -1    0    0    0    0  0.00000000000E+00  0.00000000000E+00  0.39999999673E+01  0.40000000000E+01  0.51109989000E-03 0. -1.
     -623   -1    0    0    0    0  0.00000000000E+00  0.00000000000E+00  0.12525980253E-10  0.17130000000E+03  0.17130000000E+03 0. -1.
       11    1    1    2    0    0 -0.37066477199E+00  0.46967459000E-01  0.36817509384E+00  0.52454883124E+00  0.51109989000E-03 0. -1.
     -623    1    1    2    0    0  0.29214952667E+00  0.81986790004E+00  0.16415343782E+01  0.17131007609E+03  0.17130000000E+03 0. -1.
      622    1    1    2    0    0  0.78515245320E-01 -0.86683535904E+00  0.19902904953E+01  0.34653750791E+01  0.27000000000E+01 0.  0.
</event>
<event>
 5   0  0.6580500E-04  0.9118800E+02  0.7818608E-02  0.1180000E+00
       11   -1    0    0    0    0  0.00000000000E+00  0.00000000000E+00  0.39999999673E+01  0.40000000000E+01  0.51109989000E-03 0.  1.
     -623   -1    0    0    0    0  0.00000000000E+00  0.00000000000E+00  0.12525980253E-10  0.17130000000E+03  0.17130000000E+03 0.  1.
       11    1    1    2    0    0 -0.11359704906E+00  0.34001153837E-01  0.10078576738E+00  0.15562262093E+00  0.51109989000E-03 0.  1.
     -623    1    1    2    0    0  0.87068084493E+00 -0.71679086503E+00  0.13735334686E+01  0.17130921887E+03  0.17130000000E+03 0.  1.
      622    1    1    2    0    0 -0.75708379588E+00  0.68278971119E+00  0.25256807314E+01  0.38351585131E+01  0.27000000000E+01 0.  1.
</event>
<event>
 5   0  0.6580500E-04  0.9118800E+02  0.7818608E-02  0.1180000E+00
       11   -1    0    0    0    0  0.00000000000E+00  0.00000000000E+00  0.39999999673E+01  0.40000000000E+01  0.51109989000E-03 0. -1.
     -623   -1    0    0    0    0  0.00000000000E+00  0.00000000000E+00  0.12525980253E-10  0.17130000000E+03  0.17130000000E+03 0. -1.
       11    1    1    2    0    0 -0.61931357755E-01  0.18425236066E+00  0.20843929048E+00  0.28501162173E+00  0.51109989000E-03 0. -1.
     -623    1    1    2    0    0  0.83749736692E+00 -0.69764988528E-01  0.13748946456E+01  0.17130757895E+03  0.17130000000E+03 0. -1.
      622    1    1    2    0    0 -0.77556600916E+00 -0.11448737213E+00  0.24166660313E+01  0.37074094324E+01  0.27000000000E+01 0.  0.
</event>
<event>
 5   0  0.6580500E-04  0.9118800E+02  0.7818608E-02  0.1180000E+00
       11   -1    0    0    0    0  0.00000000000E+00  0.00000000000E+00  0.39999999673E+01  0.40000000000E+01  0.51109989000E-03 0. -1.
     -623   -1    0    0    0    0  0.00000000000E+00  0.00000000000E+00  0.12525980253E-10  0.17130000000E+03  0.17130000000E+03 0.  1.
       11    1    1    2    0    0  0.55502912483E+00  0.12070685063E+00  0.45628785175E+00  0.72857829920E+00  0.51109989000E-03 0. -1.
     -623    1    1    2    0    0 -0.85628860914E+00  0.42126079677E+00  0.18271095637E+01  0.17131240183E+03  0.17130000000E+03 0.  1.
      622    1    1    2    0    0  0.30125948431E+00 -0.54196764740E+00  0.17166025519E+01  0.32590198724E+01  0.27000000000E+01 0.  0.
</event>
<event>
 5   0  0.6580500E-04  0.9118800E+02  0.7818608E-02  0.1180000E+00
       11   -1    0    0    0    0  0.00000000000E+00  0.00000000000E+00  0.39999999673E+01  0.40000000000E+01  0.51109989000E-03 0.  1.
     -623   -1    0    0    0    0  0.00000000000E+00  0.00000000000E+00  0.12525980253E-10  0.17130000000E+03  0.17130000000E+03 0. -1.
       11    1    1    2    0    0 -0.22982480424E-02  0.30040760613E+00 -0.80098161206E-01  0.31091154436E+00  0.51109989000E-03 0.  1.
     -623    1    1    2    0    0 -0.48453015458E-01 -0.60217328935E+00  0.15975619452E+01  0.17130851457E+03  0.17130000000E+03 0. -1.
      622    1    1    2    0    0  0.50751263500E-01  0.30176568322E+00  0.24825361834E+01  0.36805738846E+01  0.27000000000E+01 0.  1.
</event>
<event>
 5   0  0.6580500E-04  0.9118800E+02  0.7818608E-02  0.1180000E+00
       11   -1    0    0    0    0  0.00000000000E+00  0.00000000000E+00  0.39999999673E+01  0.40000000000E+01  0.51109989000E-03 0. -1.
     -623   -1    0    0    0    0  0.00000000000E+00  0.00000000000E+00  0.12525980253E-10  0.17130000000E+03  0.17130000000E+03 0. -1.
       11    1    1    2    0    0  0.28199038410E-01  0.11745560044E+00 -0.10924310692E+00  0.16286596168E+00  0.51109989000E-03 0. -1.
     -623    1    1    2    0    0 -0.30481661640E+00 -0.89608649033E+00  0.15249156268E+01  0.17130940211E+03  0.17130000000E+03 0. -1.
      622    1    1    2    0    0  0.27661757799E+00  0.77863088989E+00  0.25843274475E+01  0.38277319267E+01  0.27000000000E+01 0. -1.
</event>
<event>
 5   0  0.6580500E-04  0.9118800E+02  0.7818608E-02  0.1180000E+00
       11   -1    0    0    0    0  0.00000000000E+00  0.00000000000E+00  0.39999999673E+01  0.40000000000E+01  0.51109989000E-03 0.  1.
     -623   -1    0    0    0    0  0.00000000000E+00  0.00000000000E+00  0.12525980253E-10  0.17130000000E+03  0.17130000000E+03 0.  1.
       11    1    1    2    0    0 -0.19603457346E+00 -0.90618931270E+00  0.54224511602E+00  0.10740757196E+01  0.51109989000E-03 0.  1.
     -623    1    1    2    0    0  0.68477746055E+00  0.14892843113E+01  0.27372038201E+01  0.17132970896E+03  0.17130000000E+03 0. -1.
      622    1    1    2    0    0 -0.48874288709E+00 -0.58309499860E+00  0.72055103128E+00  0.28962153193E+01  0.27000000000E+01 0.  0.
</event>
<event>
 5   0  0.6580500E-04  0.9118800E+02  0.7818608E-02  0.1180000E+00
       11   -1    0    0    0    0  0.00000000000E+00  0.00000000000E+00  0.39999999673E+01  0.40000000000E+01  0.51109989000E-03 0.  1.
     -623   -1    0    0    0    0  0.00000000000E+00  0.00000000000E+00  0.12525980253E-10  0.17130000000E+03  0.17130000000E+03 0.  1.
       11    1    1    2    0    0 -0.29624132294E-02 -0.32984865213E+00  0.17876555349E+00  0.37518834409E+00  0.51109989000E-03 0.  1.
     -623    1    1    2    0    0  0.37657075674E+00  0.20039593829E+00  0.14453327932E+01  0.17130662845E+03  0.17130000000E+03 0.  1.
      622    1    1    2    0    0 -0.37360834351E+00  0.12945271384E+00  0.23759016207E+01  0.36181832058E+01  0.27000000000E+01 0.  1.
</event>
<event>
 5   0  0.6580500E-04  0.9118800E+02  0.7818608E-02  0.1180000E+00
       11   -1    0    0    0    0  0.00000000000E+00  0.00000000000E+00  0.39999999673E+01  0.40000000000E+01  0.51109989000E-03 0.  1.
     -623   -1    0    0    0    0  0.00000000000E+00  0.00000000000E+00  0.12525980253E-10  0.17130000000E+03  0.17130000000E+03 0. -1.
       11    1    1    2    0    0  0.10652765240E-01 -0.26245114832E-02 -0.32062150553E-01  0.33891181581E-01  0.51109989000E-03 0.  1.
     -623    1    1    2    0    0  0.36434731203E+00  0.60709861018E+00  0.12235444458E+01  0.17130583288E+03  0.17130000000E+03 0. -1.
      622    1    1    2    0    0 -0.37500007727E+00 -0.60447409869E+00  0.28085176722E+01  0.39602759385E+01  0.27000000000E+01 0.  1.
</event>
<event>
 5   0  0.6580500E-04  0.9118800E+02  0.7818608E-02  0.1180000E+00
       11   -1    0    0    0    0  0.00000000000E+00  0.00000000000E+00  0.39999999673E+01  0.40000000000E+01  0.51109989000E-03 0.  1.
     -623   -1    0    0    0    0  0.00000000000E+00  0.00000000000E+00  0.12525980253E-10  0.17130000000E+03  0.17130000000E+03 0.  1.
       11    1    1    2    0    0 -0.43746284582E-03 -0.16293771451E+00  0.21440986249E-01  0.16434374736E+00  0.51109989000E-03 0.  1.
     -623    1    1    2    0    0  0.16695231077E+00  0.25480816462E+00  0.12678308790E+01  0.17130496255E+03  0.17130000000E+03 0.  1.
      622    1    1    2    0    0 -0.16651484793E+00 -0.91870450114E-01  0.27107281021E+01  0.38306936993E+01  0.27000000000E+01 0.  1.
</event>
<event>
 5   0  0.6580500E-04  0.9118800E+02  0.7818608E-02  0.1180000E+00
       11   -1    0    0    0    0  0.00000000000E+00  0.00000000000E+00  0.39999999673E+01  0.40000000000E+01  0.51109989000E-03 0. -1.
     -623   -1    0    0    0    0  0.00000000000E+00  0.00000000000E+00  0.12525980253E-10  0.17130000000E+03  0.17130000000E+03 0. -1.
       11    1    1    2    0    0  0.20553987168E+00 -0.12456820324E+00  0.98680737388E-01  0.25981151872E+00  0.51109989000E-03 0. -1.
     -623    1    1    2    0    0  0.23197602278E+00  0.17658235283E+00  0.13591295792E+01  0.17130563980E+03  0.17130000000E+03 0. -1.
      622    1    1    2    0    0 -0.43751589445E+00 -0.52014149591E-01  0.25421896507E+01  0.37345486809E+01  0.27000000000E+01 0. -1.
</event>
<event>
 5   0  0.6580500E-04  0.9118800E+02  0.7818608E-02  0.1180000E+00
       11   -1    0    0    0    0  0.00000000000E+00  0.00000000000E+00  0.39999999673E+01  0.40000000000E+01  0.51109989000E-03 0.  1.
     -623   -1    0    0    0    0  0.00000000000E+00  0.00000000000E+00  0.12525980253E-10  0.17130000000E+03  0.17130000000E+03 0.  1.
       11    1    1    2    0    0  0.27124329604E-01 -0.40433446939E-01 -0.23639818398E-01  0.54126658172E-01  0.51109989000E-03 0.  1.
     -623    1    1    2    0    0  0.63870389136E+00 -0.28614423606E+00  0.12518913932E+01  0.17130600414E+03  0.17130000000E+03 0.  1.
      622    1    1    2    0    0 -0.66582822096E+00  0.32657768300E+00  0.27717483925E+01  0.39398692052E+01  0.27000000000E+01 0.  1.
</event>
<event>
 5   0  0.6580500E-04  0.9118800E+02  0.7818608E-02  0.1180000E+00
       11   -1    0    0    0    0  0.00000000000E+00  0.00000000000E+00  0.39999999673E+01  0.40000000000E+01  0.51109989000E-03 0. -1.
     -623   -1    0    0    0    0  0.00000000000E+00  0.00000000000E+00  0.12525980253E-10  0.17130000000E+03  0.17130000000E+03 0.  1.
       11    1    1    2    0    0  0.25074774714E-01  0.17014853753E+00 -0.52573463183E-01  0.17984298542E+00  0.51109989000E-03 0. -1.
     -623    1    1    2    0    0 -0.30031532750E+00 -0.21821575795E+00  0.13729357854E+01  0.17130590404E+03  0.17130000000E+03 0.  1.
      622    1    1    2    0    0  0.27524055279E+00  0.48067220422E-01  0.26796376452E+01  0.38142529713E+01  0.27000000000E+01 0. -1.
</event>
<event>
 5   0  0.6580500E-04  0.9118800E+02  0.7818608E-02  0.1180000E+00
       11   -1    0    0    0    0  0.00000000000E+00  0.00000000000E+00  0.39999999673E+01  0.40000000000E+01  0.51109989000E-03 0.  1.
     -623   -1    0    0    0    0  0.00000000000E+00  0.00000000000E+00  0.12525980253E-10  0.17130000000E+03  0.17130000000E+03 0.  1.
       11    1    1    2    0    0  0.84694764322E-01  0.23614675442E+00 -0.56296551972E-01  0.25711486871E+00  0.51109989000E-03 0.  1.
     -623    1    1    2    0    0 -0.66246082753E-01 -0.45161716540E-01  0.14805678118E+01  0.17130641701E+03  0.17130000000E+03 0.  1.
      622    1    1    2    0    0 -0.18448681569E-01 -0.19098503788E+00  0.25757287075E+01  0.37364681202E+01  0.27000000000E+01 0.  1.
</event>
<event>
 5   0  0.6580500E-04  0.9118800E+02  0.7818608E-02  0.1180000E+00
       11   -1    0    0    0    0  0.00000000000E+00  0.00000000000E+00  0.39999999673E+01  0.40000000000E+01  0.51109989000E-03 0. -1.
     -623   -1    0    0    0    0  0.00000000000E+00  0.00000000000E+00  0.12525980253E-10  0.17130000000E+03  0.17130000000E+03 0.  1.
       11    1    1    2    0    0 -0.57655898988E-01  0.28846731675E+00  0.73224122245E-01  0.30314951563E+00  0.51109989000E-03 0. -1.
     -623    1    1    2    0    0  0.32004466449E+00 -0.53124807951E+00  0.14375865402E+01  0.17130715487E+03  0.17130000000E+03 0.  1.
      622    1    1    2    0    0 -0.26238876551E+00  0.24278076276E+00  0.24891893049E+01  0.36896956187E+01  0.27000000000E+01 0. -1.
</event>
<event>
 5   0  0.6580500E-04  0.9118800E+02  0.7818608E-02  0.1180000E+00
       11   -1    0    0    0    0  0.00000000000E+00  0.00000000000E+00  0.39999999673E+01  0.40000000000E+01  0.51109989000E-03 0. -1.
     -623   -1    0    0    0    0  0.00000000000E+00  0.00000000000E+00  0.12525980253E-10  0.17130000000E+03  0.17130000000E+03 0.  1.
       11    1    1    2    0    0 -0.62135791435E-01  0.49360321423E-01 -0.79700037164E-02  0.79756379615E-01  0.51109989000E-03 0. -1.
     -623    1    1    2    0    0 -0.38214458391E-01  0.11484305814E+00  0.11779159014E+01  0.17130409258E+03  0.17130000000E+03 0.  1.
      622    1    1    2    0    0  0.10035024983E+00 -0.16420337956E+00  0.28300540697E+01  0.39161510390E+01  0.27000000000E+01 0. -1.
</event>
<event>
 5   0  0.6580500E-04  0.9118800E+02  0.7818608E-02  0.1180000E+00
       11   -1    0    0    0    0  0.00000000000E+00  0.00000000000E+00  0.39999999673E+01  0.40000000000E+01  0.51109989000E-03 0.  1.
     -623   -1    0    0    0    0  0.00000000000E+00  0.00000000000E+00  0.12525980253E-10  0.17130000000E+03  0.17130000000E+03 0. -1.
       11    1    1    2    0    0  0.93824377553E-02  0.33587280984E+00 -0.73236307584E-01  0.34389299571E+00  0.51109989000E-03 0.  1.
     -623    1    1    2    0    0  0.28335456343E+00  0.26533091676E+00  0.17143990743E+01  0.17130901860E+03  0.17130000000E+03 0. -1.
      622    1    1    2    0    0 -0.29273700119E+00 -0.60120372660E+00  0.23588372006E+01  0.36470884020E+01  0.27000000000E+01 0.  1.
</event>
<event>
 5   0  0.6580500E-04  0.9118800E+02  0.7818608E-02  0.1180000E+00
       11   -1    0    0    0    0  0.00000000000E+00  0.00000000000E+00  0.39999999673E+01  0.40000000000E+01  0.51109989000E-03 0.  1.
     -623   -1    0    0    0    0  0.00000000000E+00  0.00000000000E+00  0.12525980253E-10  0.17130000000E+03  0.17130000000E+03 0.  1.
       11    1    1    2    0    0  0.17680719537E-01 -0.56430743502E-01 -0.19880526030E-01  0.62390169037E-01  0.51109989000E-03 0.  1.
     -623    1    1    2    0    0 -0.94608460937E-01  0.23005035415E+00  0.11657489795E+01  0.17130414719E+03  0.17130000000E+03 0.  1.
      622    1    1    2    0    0  0.76927741400E-01 -0.17361961065E+00  0.28541315139E+01  0.39334626406E+01  0.27000000000E+01 0.  1.
</event>
<event>
 5   0  0.6580500E-04  0.9118800E+02  0.7818608E-02  0.1180000E+00
       11   -1    0    0    0    0  0.00000000000E+00  0.00000000000E+00  0.39999999673E+01  0.40000000000E+01  0.51109989000E-03 0.  1.
     -623   -1    0    0    0    0  0.00000000000E+00  0.00000000000E+00  0.12525980253E-10  0.17130000000E+03  0.17130000000E+03 0.  1.
       11    1    1    2    0    0 -0.23805117100E-01 -0.25480123937E+00  0.39945424789E+00  0.47439889604E+00  0.51109989000E-03 0.  1.
     -623    1    1    2    0    0 -0.80684067395E-01  0.29396195456E+00  0.13448178394E+01  0.17130554999E+03  0.17130000000E+03 0.  1.
      622    1    1    2    0    0  0.10448918450E+00 -0.39160715189E-01  0.22557278801E+01  0.35200511105E+01  0.27000000000E+01 0.  1.
</event>
<event>
 5   0  0.6580500E-04  0.9118800E+02  0.7818608E-02  0.1180000E+00
       11   -1    0    0    0    0  0.00000000000E+00  0.00000000000E+00  0.39999999673E+01  0.40000000000E+01  0.51109989000E-03 0.  1.
     -623   -1    0    0    0    0  0.00000000000E+00  0.00000000000E+00  0.12525980253E-10  0.17130000000E+03  0.17130000000E+03 0. -1.
       11    1    1    2    0    0  0.11083308932E+00 -0.23232107339E+00 -0.17119041145E+00  0.30913342269E+00  0.51109989000E-03 0.  1.
     -623    1    1    2    0    0 -0.26002020438E-01  0.42166024289E+00  0.16761657372E+01  0.17130872133E+03  0.17130000000E+03 0. -1.
      622    1    1    2    0    0 -0.84831068884E-01 -0.18933916950E+00  0.24950246417E+01  0.36821452434E+01  0.27000000000E+01 0.  1.
</event>
<event>
 5   0  0.6580500E-04  0.9118800E+02  0.7818608E-02  0.1180000E+00
       11   -1    0    0    0    0  0.00000000000E+00  0.00000000000E+00  0.39999999673E+01  0.40000000000E+01  0.51109989000E-03 0.  1.
     -623   -1    0    0    0    0  0.00000000000E+00  0.00000000000E+00  0.12525980253E-10  0.17130000000E+03  0.17130000000E+03 0.  1.
       11    1    1    2    0    0 -0.21845744084E-01  0.77001488877E-01  0.51874598451E-01  0.95381869395E-01  0.51109989000E-03 0.  1.
     -623    1    1    2    0    0  0.47609227774E+00 -0.61287194968E-01  0.11709009974E+01  0.17130467428E+03  0.17130000000E+03 0.  1.
      622    1    1    2    0    0 -0.45424653365E+00 -0.15714293909E-01  0.27772243715E+01  0.38999438537E+01  0.27000000000E+01 0.  1.
</event>
<event>
 5   0  0.6580500E-04  0.9118800E+02  0.7818608E-02  0.1180000E+00
       11   -1    0    0    0    0  0.00000000000E+00  0.00000000000E+00  0.39999999673E+01  0.40000000000E+01  0.51109989000E-03 0. -1.
     -623   -1    0    0    0    0  0.00000000000E+00  0.00000000000E+00  0.12525980253E-10  0.17130000000E+03  0.17130000000E+03 0. -1.
       11    1    1    2    0    0  0.75632117655E-01  0.16165194538E+00 -0.58058346983E-01  0.18767685404E+00  0.51109989000E-03 0. -1.
     -623    1    1    2    0    0  0.11334721496E+01 -0.10123824282E+01  0.18372730591E+01  0.17131659362E+03  0.17130000000E+03 0. -1.
      622    1    1    2    0    0 -0.12091042673E+01  0.85073048287E+00  0.22207852553E+01  0.37957295259E+01  0.27000000000E+01 0. -1.
</event>
<event>
 5   0  0.6580500E-04  0.9118800E+02  0.7818608E-02  0.1180000E+00
       11   -1    0    0    0    0  0.00000000000E+00  0.00000000000E+00  0.39999999673E+01  0.40000000000E+01  0.51109989000E-03 0. -1.
     -623   -1    0    0    0    0  0.00000000000E+00  0.00000000000E+00  0.12525980253E-10  0.17130000000E+03  0.17130000000E+03 0.  1.
       11    1    1    2    0    0 -0.71876307336E-01 -0.13536619306E+00  0.16143850393E+00  0.22260472041E+00  0.51109989000E-03 0. -1.
     -623    1    1    2    0    0 -0.23354626631E+00  0.70965618814E+00  0.12877200742E+01  0.17130646917E+03  0.17130000000E+03 0. -1.
      622    1    1    2    0    0  0.30542257364E+00 -0.57428999508E+00  0.25508413893E+01  0.37709261117E+01  0.27000000000E+01 0. -1.
</event>
<event>
 5   0  0.6580500E-04  0.9118800E+02  0.7818608E-02  0.1180000E+00
       11   -1    0    0    0    0  0.00000000000E+00  0.00000000000E+00  0.39999999673E+01  0.40000000000E+01  0.51109989000E-03 0. -1.
     -623   -1    0    0    0    0  0.00000000000E+00  0.00000000000E+00  0.12525980253E-10  0.17130000000E+03  0.17130000000E+03 0. -1.
       11    1    1    2    0    0 -0.14077922720E+00 -0.29835044282E+00  0.17034243592E+00  0.37127965773E+00  0.51109989000E-03 0. -1.
     -623    1    1    2    0    0 -0.12824255910E+00  0.86721705938E-01  0.14388148640E+01  0.17130611243E+03  0.17130000000E+03 0. -1.
      622    1    1    2    0    0  0.26902178629E+00  0.21162873689E+00  0.23908426674E+01  0.36226079148E+01  0.27000000000E+01 0. -1.
</event>
<event>
 5   0  0.6580500E-04  0.9118800E+02  0.7818608E-02  0.1180000E+00
       11   -1    0    0    0    0  0.00000000000E+00  0.00000000000E+00  0.39999999673E+01  0.40000000000E+01  0.51109989000E-03 0. -1.
     -623   -1    0    0    0    0  0.00000000000E+00  0.00000000000E+00  0.12525980253E-10  0.17130000000E+03  0.17130000000E+03 0.  1.
       11    1    1    2    0    0 -0.10140229907E+00  0.36024913065E-01  0.20912616111E-01  0.10962581518E+00  0.51109989000E-03 0. -1.
     -623    1    1    2    0    0 -0.12027426216E-02  0.34981626926E+00  0.12133290790E+01  0.17130465417E+03  0.17130000000E+03 0.  1.
      622    1    1    2    0    0  0.10260504169E+00 -0.38584118233E+00  0.27657582723E+01  0.38857200148E+01  0.27000000000E+01 0. -1.
</event>
<event>
 5   0  0.6580500E-04  0.9118800E+02  0.7818608E-02  0.1180000E+00
       11   -1    0    0    0    0  0.00000000000E+00  0.00000000000E+00  0.39999999673E+01  0.40000000000E+01  0.51109989000E-03 0. -1.
     -623   -1    0    0    0    0  0.00000000000E+00  0.00000000000E+00  0.12525980253E-10  0.17130000000E+03  0.17130000000E+03 0. -1.
       11    1    1    2    0    0 -0.82662034957E+00 -0.23619962847E-01  0.47672563338E+00  0.95452956775E+00  0.51109989000E-03 0. -1.
     -623    1    1    2    0    0  0.87958620621E+00  0.13466251869E+00  0.21545510649E+01  0.17131586003E+03  0.17130000000E+03 0. -1.
      622    1    1    2    0    0 -0.52965856640E-01 -0.11104255584E+00  0.13687232690E+01  0.30296104070E+01  0.27000000000E+01 0. -1.
</event>
<event>
 5   0  0.6580500E-04  0.9118800E+02  0.7818608E-02  0.1180000E+00
       11   -1    0    0    0    0  0.00000000000E+00  0.00000000000E+00  0.39999999673E+01  0.40000000000E+01  0.51109989000E-03 0.  1.
     -623   -1    0    0    0    0  0.00000000000E+00  0.00000000000E+00  0.12525980253E-10  0.17130000000E+03  0.17130000000E+03 0. -1.
       11    1    1    2    0    0 -0.17741064027E+00 -0.12108779738E+00 -0.25137658692E+00  0.33064669910E+00  0.51109989000E-03 0.  1.
     -623    1    1    2    0    0  0.34592903712E+00 -0.39116923101E+00  0.18420318392E+01  0.17131069950E+03  0.17130000000E+03 0. -1.
      622    1    1    2    0    0 -0.16851839685E+00  0.51225702840E+00  0.24093447151E+01  0.36586538056E+01  0.27000000000E+01 0.  1.
</event>
<event>
 5   0  0.6580500E-04  0.9118800E+02  0.7818608E-02  0.1180000E+00
       11   -1    0    0    0    0  0.00000000000E+00  0.00000000000E+00  0.39999999673E+01  0.40000000000E+01  0.51109989000E-03 0. -1.
     -623   -1    0    0    0    0  0.00000000000E+00  0.00000000000E+00  0.12525980253E-10  0.17130000000E+03  0.17130000000E+03 0. -1.
       11    1    1    2    0    0  0.51888501397E-01  0.34807162197E+00  0.52604909980E+00  0.63290930410E+00  0.51109989000E-03 0. -1.
     -623    1    1    2    0    0  0.21058773701E+00 -0.24106548167E+00  0.14937666360E+01  0.17130681189E+03  0.17130000000E+03 0. -1.
      622    1    1    2    0    0 -0.26247623841E+00 -0.10700614030E+00  0.19801842315E+01  0.33602788100E+01  0.27000000000E+01 0. -1.
</event>
<event>
 5   0  0.6580500E-04  0.9118800E+02  0.7818608E-02  0.1180000E+00
       11   -1    0    0    0    0  0.00000000000E+00  0.00000000000E+00  0.39999999673E+01  0.40000000000E+01  0.51109989000E-03 0. -1.
     -623   -1    0    0    0    0  0.00000000000E+00  0.00000000000E+00  0.12525980253E-10  0.17130000000E+03  0.17130000000E+03 0.  1.
       11    1    1    2    0    0 -0.11293263843E-01  0.63504935962E-01 -0.46789846497E-01  0.79686671772E-01  0.51109989000E-03 0. -1.
     -623    1    1    2    0    0 -0.47859189705E+00 -0.27286548003E+00  0.12626133482E+01  0.17130553902E+03  0.17130000000E+03 0.  1.
      622    1    1    2    0    0  0.48988516089E+00  0.20936054407E+00  0.27841764657E+01  0.39147743102E+01  0.27000000000E+01 0. -1.
</event>
<event>
 5   0  0.6580500E-04  0.9118800E+02  0.7818608E-02  0.1180000E+00
       11   -1    0    0    0    0  0.00000000000E+00  0.00000000000E+00  0.39999999673E+01  0.40000000000E+01  0.51109989000E-03 0. -1.
     -623   -1    0    0    0    0  0.00000000000E+00  0.00000000000E+00  0.12525980253E-10  0.17130000000E+03  0.17130000000E+03 0.  1.
       11    1    1    2    0    0 -0.22395875236E-01 -0.60098607284E-01  0.50505815163E+00  0.50911434430E+00  0.51109989000E-03 0. -1.
     -623    1    1    2    0    0 -0.63825135597E+00  0.27046578243E+00  0.14055461773E+01  0.17130716878E+03  0.17130000000E+03 0.  1.
      622    1    1    2    0    0  0.66064723121E+00 -0.21036717515E+00  0.20893956384E+01  0.34837168723E+01  0.27000000000E+01 0. -1.
</event>
<event>
 5   0  0.6580500E-04  0.9118800E+02  0.7818608E-02  0.1180000E+00
       11   -1    0    0    0    0  0.00000000000E+00  0.00000000000E+00  0.39999999673E+01  0.40000000000E+01  0.51109989000E-03 0. -1.
     -623   -1    0    0    0    0  0.00000000000E+00  0.00000000000E+00  0.12525980253E-10  0.17130000000E+03  0.17130000000E+03 0. -1.
       11    1    1    2    0    0  0.21020792432E+00  0.19657511216E+00 -0.51835908921E-01  0.29243181913E+00  0.51109989000E-03 0. -1.
     -623    1    1    2    0    0 -0.27055049836E-01 -0.10981980829E+00  0.15291082126E+01  0.17130686199E+03  0.17130000000E+03 0. -1.
      622    1    1    2    0    0 -0.18315287448E+00 -0.86755303865E-01  0.25227276637E+01  0.37007061925E+01  0.27000000000E+01 0. -1.
</event>
<event>
 5   0  0.6580500E-04  0.9118800E+02  0.7818608E-02  0.1180000E+00
       11   -1    0    0    0    0  0.00000000000E+00  0.00000000000E+00  0.39999999673E+01  0.40000000000E+01  0.51109989000E-03 0. -1.
     -623   -1    0    0    0    0  0.00000000000E+00  0.00000000000E+00  0.12525980253E-10  0.17130000000E+03  0.17130000000E+03 0. -1.
       11    1    1    2    0    0  0.85747103719E-01 -0.14992785586E+00  0.67474194625E+00  0.69649686504E+00  0.51109989000E-03 0. -1.
     -623    1    1    2    0    0 -0.41421378915E+00 -0.18267879917E+00  0.14928452875E+01  0.17130710298E+03  0.17130000000E+03 0. -1.
      622    1    1    2    0    0  0.32846668543E+00  0.33260665503E+00  0.18324127336E+01  0.32964001542E+01  0.27000000000E+01 0.  0.
</event>
<event>
 5   0  0.6580500E-04  0.9118800E+02  0.7818608E-02  0.1180000E+00
       11   -1    0    0    0    0  0.00000000000E+00  0.00000000000E+00  0.39999999673E+01  0.40000000000E+01  0.51109989000E-03 0. -1.
     -623   -1    0    0    0    0  0.00000000000E+00  0.00000000000E+00  0.12525980253E-10  0.17130000000E+03  0.17130000000E+03 0.  1.
       11    1    1    2    0    0 -0.33120133881E+00  0.59039108137E-01  0.18020992106E-01  0.33690497250E+00  0.51109989000E-03 0. -1.
     -623    1    1    2    0    0  0.10724639824E+00  0.15908562374E+00  0.15367192333E+01  0.17130700020E+03  0.17130000000E+03 0.  1.
      622    1    1    2    0    0  0.22395494057E+00 -0.21812473188E+00  0.24452597419E+01  0.36560948319E+01  0.27000000000E+01 0. -1.
</event>
<event>
 5   0  0.6580500E-04  0.9118800E+02  0.7818608E-02  0.1180000E+00
       11   -1    0    0    0    0  0.00000000000E+00  0.00000000000E+00  0.39999999673E+01  0.40000000000E+01  0.51109989000E-03 0. -1.
     -623   -1    0    0    0    0  0.00000000000E+00  0.00000000000E+00  0.12525980253E-10  0.17130000000E+03  0.17130000000E+03 0. -1.
       11    1    1    2    0    0  0.35449991054E+00 -0.22110879979E-01  0.32960501456E+00  0.48456042392E+00  0.51109989000E-03 0. -1.
     -623    1    1    2    0    0 -0.37132148978E+00  0.77271632939E-01  0.14298317560E+01  0.17130638712E+03  0.17130000000E+03 0. -1.
      622    1    1    2    0    0  0.16821579232E-01 -0.55160752960E-01  0.22405631968E+01  0.35090524523E+01  0.27000000000E+01 0. -1.
</event>
<event>
 5   0  0.6580500E-04  0.9118800E+02  0.7818608E-02  0.1180000E+00
       11   -1    0    0    0    0  0.00000000000E+00  0.00000000000E+00  0.39999999673E+01  0.40000000000E+01  0.51109989000E-03 0.  1.
     -623   -1    0    0    0    0  0.00000000000E+00  0.00000000000E+00  0.12525980253E-10  0.17130000000E+03  0.17130000000E+03 0. -1.
       11    1    1    2    0    0  0.47798946355E+00  0.23204771613E+00  0.24498722409E+00  0.58509748847E+00  0.51109989000E-03 0.  1.
     -623    1    1    2    0    0 -0.57987284200E+00  0.27775875489E+00  0.17469539488E+01  0.17131011427E+03  0.17130000000E+03 0. -1.
      622    1    1    2    0    0  0.10188337845E+00 -0.50980647103E+00  0.20080587945E+01  0.34047882435E+01  0.27000000000E+01 0.  1.
</event>
<event>
 5   0  0.6580500E-04  0.9118800E+02  0.7818608E-02  0.1180000E+00
       11   -1    0    0    0    0  0.00000000000E+00  0.00000000000E+00  0.39999999673E+01  0.40000000000E+01  0.51109989000E-03 0. -1.
     -623   -1    0    0    0    0  0.00000000000E+00  0.00000000000E+00  0.12525980253E-10  0.17130000000E+03  0.17130000000E+03 0. -1.
       11    1    1    2    0    0  0.18658250504E+00  0.15543115919E+00  0.83827580014E-01  0.25690309618E+00  0.51109989000E-03 0. -1.
     -623    1    1    2    0    0  0.56388241603E+00 -0.16380195309E+00  0.14454702987E+01  0.17130710487E+03  0.17130000000E+03 0. -1.
      622    1    1    2    0    0 -0.75046492107E+00  0.83707938968E-02  0.24707020887E+01  0.37359920341E+01  0.27000000000E+01 0. -1.
</event>
<event>
 5   0  0.6580500E-04  0.9118800E+02  0.7818608E-02  0.1180000E+00
       11   -1    0    0    0    0  0.00000000000E+00  0.00000000000E+00  0.39999999673E+01  0.40000000000E+01  0.51109989000E-03 0. -1.
     -623   -1    0    0    0    0  0.00000000000E+00  0.00000000000E+00  0.12525980253E-10  0.17130000000E+03  0.17130000000E+03 0.  1.
       11    1    1    2    0    0  0.51520764441E-01  0.49680153927E+00 -0.72017241777E-01  0.50463145258E+00  0.51109989000E-03 0. -1.
     -623    1    1    2    0    0 -0.10399294726E+00 -0.37873336491E+00  0.18728572350E+01  0.17131068807E+03  0.17130000000E+03 0.  1.
      622    1    1    2    0    0  0.52472182818E-01 -0.11806817437E+00  0.21991599741E+01  0.34846804754E+01  0.27000000000E+01 0. -1.
</event>
<event>
 5   0  0.6580500E-04  0.9118800E+02  0.7818608E-02  0.1180000E+00
       11   -1    0    0    0    0  0.00000000000E+00  0.00000000000E+00  0.39999999673E+01  0.40000000000E+01  0.51109989000E-03 0. -1.
     -623   -1    0    0    0    0  0.00000000000E+00  0.00000000000E+00  0.12525980253E-10  0.17130000000E+03  0.17130000000E+03 0.  1.
       11    1    1    2    0    0 -0.24982132709E+00 -0.21130809268E+00  0.84656789087E-01  0.33797757124E+00  0.51109989000E-03 0. -1.
     -623    1    1    2    0    0 -0.38454364480E+00 -0.32133563995E+00  0.15970563923E+01  0.17130817762E+03  0.17130000000E+03 0.  1.
      622    1    1    2    0    0  0.63436497189E+00  0.53264373264E+00  0.23182867860E+01  0.36538448086E+01  0.27000000000E+01 0. -1.
</event>
<event>
 5   0  0.6580500E-04  0.9118800E+02  0.7818608E-02  0.1180000E+00
       11   -1    0    0    0    0  0.00000000000E+00  0.00000000000E+00  0.39999999673E+01  0.40000000000E+01  0.51109989000E-03 0. -1.
     -623   -1    0    0    0    0  0.00000000000E+00  0.00000000000E+00  0.12525980253E-10  0.17130000000E+03  0.17130000000E+03 0.  1.
       11    1    1    2    0    0  0.49126936546E+00  0.24239082662E+00  0.60928091403E+00  0.81934266073E+00  0.51109989000E-03 0. -1.
     -623    1    1    2    0    0 -0.55132599554E+00 -0.96689905561E-01  0.17353926223E+01  0.17130970462E+03  0.17130000000E+03 0.  1.
      622    1    1    2    0    0  0.60056630075E-01 -0.14570092106E+00  0.16553264311E+01  0.31709527197E+01  0.27000000000E+01 0. -1.
</event>
<event>
 5   0  0.6580500E-04  0.9118800E+02  0.7818608E-02  0.1180000E+00
       11   -1    0    0    0    0  0.00000000000E+00  0.00000000000E+00  0.39999999673E+01  0.40000000000E+01  0.51109989000E-03 0.  1.
     -623   -1    0    0    0    0  0.00000000000E+00  0.00000000000E+00  0.12525980253E-10  0.17130000000E+03  0.17130000000E+03 0.  1.
       11    1    1    2    0    0 -0.31878121146E+00 -0.13210878275E+00  0.25792973361E+00  0.43081573783E+00  0.51109989000E-03 0.  1.
     -623    1    1    2    0    0 -0.21592812945E-02  0.60357087876E+00  0.14904082904E+01  0.17130754688E+03  0.17130000000E+03 0.  1.
      622    1    1    2    0    0  0.32094049276E+00 -0.47146209601E+00  0.22516619434E+01  0.35616373784E+01  0.27000000000E+01 0.  1.
</event>
<event>
 5   0  0.6580500E-04  0.9118800E+02  0.7818608E-02  0.1180000E+00
       11   -1    0    0    0    0  0.00000000000E+00  0.00000000000E+00  0.39999999673E+01  0.40000000000E+01  0.51109989000E-03 0.  1.
     -623   -1    0    0    0    0  0.00000000000E+00  0.00000000000E+00  0.12525980253E-10  0.17130000000E+03  0.17130000000E+03 0. -1.
       11    1    1    2    0    0  0.24362987823E+00  0.97886210554E-01 -0.30345657422E-01  0.26430729829E+00  0.51109989000E-03 0.  1.
     -623    1    1    2    0    0  0.28373995547E+00 -0.95681239604E-01  0.15133181852E+01  0.17130694614E+03  0.17130000000E+03 0. -1.
      622    1    1    2    0    0 -0.52736983370E+00 -0.22049709496E-02  0.25170274396E+01  0.37287465635E+01  0.27000000000E+01 0.  1.
</event>
<event>
 5   0  0.6580500E-04  0.9118800E+02  0.7818608E-02  0.1180000E+00
       11   -1    0    0    0    0  0.00000000000E+00  0.00000000000E+00  0.39999999673E+01  0.40000000000E+01  0.51109989000E-03 0. -1.
     -623   -1    0    0    0    0  0.00000000000E+00  0.00000000000E+00  0.12525980253E-10  0.17130000000E+03  0.17130000000E+03 0. -1.
       11    1    1    2    0    0 -0.28258829682E+00  0.13941206460E+00 -0.66445157282E-02  0.31517658553E+00  0.51109989000E-03 0. -1.
     -623    1    1    2    0    0  0.14016289831E+01  0.11928165273E+01  0.22517874549E+01  0.17132468568E+03  0.17130000000E+03 0. -1.
      622    1    1    2    0    0 -0.11190406863E+01 -0.13322285919E+01  0.17548570282E+01  0.36601377389E+01  0.27000000000E+01 0.  0.
</event>
<event>
 5   0  0.6580500E-04  0.9118800E+02  0.7818608E-02  0.1180000E+00
       11   -1    0    0    0    0  0.00000000000E+00  0.00000000000E+00  0.39999999673E+01  0.40000000000E+01  0.51109989000E-03 0. -1.
     -623   -1    0    0    0    0  0.00000000000E+00  0.00000000000E+00  0.12525980253E-10  0.17130000000E+03  0.17130000000E+03 0.  1.
       11    1    1    2    0    0 -0.29344452017E-01 -0.20127738432E+00  0.27020981137E-01  0.20519277996E+00  0.51109989000E-03 0. -1.
     -623    1    1    2    0    0  0.77683451940E+00 -0.15557858362E+00  0.14502740854E+01  0.17130797113E+03  0.17130000000E+03 0.  1.
      622    1    1    2    0    0 -0.74749006739E+00  0.35685596794E+00  0.25227049008E+01  0.37868360935E+01  0.27000000000E+01 0.  0.
</event>
<event>
 5   0  0.6580500E-04  0.9118800E+02  0.7818608E-02  0.1180000E+00
       11   -1    0    0    0    0  0.00000000000E+00  0.00000000000E+00  0.39999999673E+01  0.40000000000E+01  0.51109989000E-03 0. -1.
     -623   -1    0    0    0    0  0.00000000000E+00  0.00000000000E+00  0.12525980253E-10  0.17130000000E+03  0.17130000000E+03 0. -1.
       11    1    1    2    0    0 -0.20496556934E+00 -0.14766112878E+00 -0.26207264073E+00  0.36400140633E+00  0.51109989000E-03 0. -1.
     -623    1    1    2    0    0 -0.54257678085E+00 -0.39996975966E+00  0.20316710681E+01  0.17131337383E+03  0.17130000000E+03 0. -1.
      622    1    1    2    0    0  0.74754235019E+00  0.54763088844E+00  0.22304015400E+01  0.36226247646E+01  0.27000000000E+01 0. -1.
</event>
<event>
 5   0  0.6580500E-04  0.9118800E+02  0.7818608E-02  0.1180000E+00
       11   -1    0    0    0    0  0.00000000000E+00  0.00000000000E+00  0.39999999673E+01  0.40000000000E+01  0.51109989000E-03 0. -1.
     -623   -1    0    0    0    0  0.00000000000E+00  0.00000000000E+00  0.12525980253E-10  0.17130000000E+03  0.17130000000E+03 0.  1.
       11    1    1    2    0    0  0.21564877642E+00  0.30875951494E-01 -0.51197766966E-01  0.22378380576E+00  0.51109989000E-03 0. -1.
     -623    1    1    2    0    0 -0.40363439724E+00  0.56355137922E+00  0.14975413969E+01  0.17130794827E+03  0.17130000000E+03 0.  1.
      622    1    1    2    0    0  0.18798562081E+00 -0.59442733071E+00  0.25536563374E+01  0.37682679224E+01  0.27000000000E+01 0. -1.
</event>
<event>
 5   0  0.6580500E-04  0.9118800E+02  0.7818608E-02  0.1180000E+00
       11   -1    0    0    0    0  0.00000000000E+00  0.00000000000E+00  0.39999999673E+01  0.40000000000E+01  0.51109989000E-03 0. -1.
     -623   -1    0    0    0    0  0.00000000000E+00  0.00000000000E+00  0.12525980253E-10  0.17130000000E+03  0.17130000000E+03 0. -1.
       11    1    1    2    0    0 -0.13000522888E-01  0.19800783260E+00 -0.65269088598E+00  0.68218895420E+00  0.51109989000E-03 0. -1.
     -623    1    1    2    0    0 -0.43571907995E+00 -0.43203449655E+00  0.28363031374E+01  0.17132457827E+03  0.17130000000E+03 0. -1.
      622    1    1    2    0    0  0.44871960284E+00  0.23402666395E+00  0.18163877160E+01  0.32932327728E+01  0.27000000000E+01 0. -1.
</event>
<event>
 5   0  0.6580500E-04  0.9118800E+02  0.7818608E-02  0.1180000E+00
       11   -1    0    0    0    0  0.00000000000E+00  0.00000000000E+00  0.39999999673E+01  0.40000000000E+01  0.51109989000E-03 0. -1.
     -623   -1    0    0    0    0  0.00000000000E+00  0.00000000000E+00  0.12525980253E-10  0.17130000000E+03  0.17130000000E+03 0. -1.
       11    1    1    2    0    0 -0.24130448785E+00  0.24516939601E+00  0.10199479317E+00  0.35880229605E+00  0.51109989000E-03 0. -1.
     -623    1    1    2    0    0 -0.21288439242E+00 -0.56415095234E+00  0.15309824584E+01  0.17130790260E+03  0.17130000000E+03 0. -1.
      622    1    1    2    0    0  0.45418888027E+00  0.31898155632E+00  0.23670227158E+01  0.36332951035E+01  0.27000000000E+01 0. -1.
</event>
<event>
 5   0  0.6580500E-04  0.9118800E+02  0.7818608E-02  0.1180000E+00
       11   -1    0    0    0    0  0.00000000000E+00  0.00000000000E+00  0.39999999673E+01  0.40000000000E+01  0.51109989000E-03 0.  1.
     -623   -1    0    0    0    0  0.00000000000E+00  0.00000000000E+00  0.12525980253E-10  0.17130000000E+03  0.17130000000E+03 0. -1.
       11    1    1    2    0    0  0.55755956615E+00  0.81674287931E+00  0.72107984075E-02  0.98893571962E+00  0.51109989000E-03 0.  1.
     -623    1    1    2    0    0 -0.45197026519E+00 -0.10389760195E+01  0.27430624479E+01  0.17132570776E+03  0.17130000000E+03 0. -1.
      622    1    1    2    0    0 -0.10558930096E+00  0.22223314024E+00  0.12497267211E+01  0.29853565192E+01  0.27000000000E+01 0.  1.
</event>
<event>
 5   0  0.6580500E-04  0.9118800E+02  0.7818608E-02  0.1180000E+00
       11   -1    0    0    0    0  0.00000000000E+00  0.00000000000E+00  0.39999999673E+01  0.40000000000E+01  0.51109989000E-03 0.  1.
     -623   -1    0    0    0    0  0.00000000000E+00  0.00000000000E+00  0.12525980253E-10  0.17130000000E+03  0.17130000000E+03 0. -1.
       11    1    1    2    0    0  0.18785146841E+00 -0.10471338861E+00  0.20605639999E+00  0.29784655300E+00  0.51109989000E-03 0.  1.
     -623    1    1    2    0    0  0.99713743487E-01  0.15149942114E+00  0.12850227818E+01  0.17130491580E+03  0.17130000000E+03 0. -1.
      622    1    1    2    0    0 -0.28756521190E+00 -0.46786032524E-01  0.25089207856E+01  0.36972376435E+01  0.27000000000E+01 0.  1.
</event>
<event>
 5   0  0.6580500E-04  0.9118800E+02  0.7818608E-02  0.1180000E+00
       11   -1    0    0    0    0  0.00000000000E+00  0.00000000000E+00  0.39999999673E+01  0.40000000000E+01  0.51109989000E-03 0. -1.
     -623   -1    0    0    0    0  0.00000000000E+00  0.00000000000E+00  0.12525980253E-10  0.17130000000E+03  0.17130000000E+03 0.  1.
       11    1    1    2    0    0 -0.48957051991E+00  0.59907954145E-01  0.21479073547E+00  0.53796243196E+00  0.51109989000E-03 0. -1.
     -623    1    1    2    0    0  0.92138557154E-01  0.17846072651E+00  0.16821155214E+01  0.17130837647E+03  0.17130000000E+03 0.  1.
      622    1    1    2    0    0  0.39743196275E+00 -0.23836868065E+00  0.21030937105E+01  0.34536610934E+01  0.27000000000E+01 0. -1.
</event>
<event>
 5   0  0.6580500E-04  0.9118800E+02  0.7818608E-02  0.1180000E+00
       11   -1    0    0    0    0  0.00000000000E+00  0.00000000000E+00  0.39999999673E+01  0.40000000000E+01  0.51109989000E-03 0. -1.
     -623   -1    0    0    0    0  0.00000000000E+00  0.00000000000E+00  0.12525980253E-10  0.17130000000E+03  0.17130000000E+03 0.  1.
       11    1    1    2    0    0 -0.16847663005E-01  0.62992468268E-02 -0.48033233099E-01  0.51293049864E-01  0.51109989000E-03 0. -1.
     -623    1    1    2    0    0 -0.52264940559E+00 -0.16634111444E+00  0.12295475608E+01  0.17130529069E+03  0.17130000000E+03 0.  1.
      622    1    1    2    0    0  0.53949706859E+00  0.16004186762E+00  0.28184856396E+01  0.39434162584E+01  0.27000000000E+01 0. -1.
</event>
<event>
 5   0  0.6580500E-04  0.9118800E+02  0.7818608E-02  0.1180000E+00
       11   -1    0    0    0    0  0.00000000000E+00  0.00000000000E+00  0.39999999673E+01  0.40000000000E+01  0.51109989000E-03 0. -1.
     -623   -1    0    0    0    0  0.00000000000E+00  0.00000000000E+00  0.12525980253E-10  0.17130000000E+03  0.17130000000E+03 0. -1.
       11    1    1    2    0    0  0.80921867881E-01  0.77631159269E-01  0.14781384161E+00  0.18553743176E+00  0.51109989000E-03 0. -1.
     -623    1    1    2    0    0 -0.71006380987E-01 -0.25076982287E+00  0.11692565431E+01  0.17130418876E+03  0.17130000000E+03 0. -1.
      622    1    1    2    0    0 -0.99154868932E-02  0.17313866360E+00  0.26829295827E+01  0.38102738037E+01  0.27000000000E+01 0. -1.
</event>
<event>
 5   0  0.6580500E-04  0.9118800E+02  0.7818608E-02  0.1180000E+00
       11   -1    0    0    0    0  0.00000000000E+00  0.00000000000E+00  0.39999999673E+01  0.40000000000E+01  0.51109989000E-03 0.  1.
     -623   -1    0    0    0    0  0.00000000000E+00  0.00000000000E+00  0.12525980253E-10  0.17130000000E+03  0.17130000000E+03 0. -1.
       11    1    1    2    0    0 -0.21789267246E+00 -0.11239477791E-01  0.14514653812E+00  0.26205213475E+00  0.51109989000E-03 0.  1.
     -623    1    1    2    0    0  0.72348780637E-01 -0.18163931510E+00  0.12883696016E+01  0.17130495651E+03  0.17130000000E+03 0. -1.
      622    1    1    2    0    0  0.14554389183E+00  0.19287879289E+00  0.25664838276E+01  0.37329913596E+01  0.27000000000E+01 0.  1.
</event>
<event>
 5   0  0.6580500E-04  0.9118800E+02  0.7818608E-02  0.1180000E+00
       11   -1    0    0    0    0  0.00000000000E+00  0.00000000000E+00  0.39999999673E+01  0.40000000000E+01  0.51109989000E-03 0.  1.
     -623   -1    0    0    0    0  0.00000000000E+00  0.00000000000E+00  0.12525980253E-10  0.17130000000E+03  0.17130000000E+03 0. -1.
       11    1    1    2    0    0  0.63491828122E-01  0.17261074915E+00 -0.22016715713E-01  0.18523142269E+00  0.51109989000E-03 0.  1.
     -623    1    1    2    0    0  0.10998860465E+00 -0.48372242080E+00  0.13595043944E+01  0.17130611296E+03  0.17130000000E+03 0. -1.
      622    1    1    2    0    0 -0.17348043277E+00  0.31111167165E+00  0.26625122886E+01  0.38086556185E+01  0.27000000000E+01 0.  1.
</event>
<event>
 5   0  0.6580500E-04  0.9118800E+02  0.7818608E-02  0.1180000E+00
       11   -1    0    0    0    0  0.00000000000E+00  0.00000000000E+00  0.39999999673E+01  0.40000000000E+01  0.51109989000E-03 0. -1.
     -623   -1    0    0    0    0  0.00000000000E+00  0.00000000000E+00  0.12525980253E-10  0.17130000000E+03  0.17130000000E+03 0. -1.
       11    1    1    2    0    0  0.38715243189E-02  0.73075311698E-01  0.30930517698E-01  0.79447769185E-01  0.51109989000E-03 0. -1.
     -623    1    1    2    0    0 -0.20699067375E-01  0.26365852013E+00  0.11521398664E+01  0.17130407867E+03  0.17130000000E+03 0. -1.
      622    1    1    2    0    0  0.16827543056E-01 -0.33673383183E+00  0.28169295833E+01  0.39164735563E+01  0.27000000000E+01 0. -1.
</event>
<event>
 5   0  0.6580500E-04  0.9118800E+02  0.7818608E-02  0.1180000E+00
       11   -1    0    0    0    0  0.00000000000E+00  0.00000000000E+00  0.39999999673E+01  0.40000000000E+01  0.51109989000E-03 0. -1.
     -623   -1    0    0    0    0  0.00000000000E+00  0.00000000000E+00  0.12525980253E-10  0.17130000000E+03  0.17130000000E+03 0. -1.
       11    1    1    2    0    0 -0.14886643717E+00  0.11625923958E+00  0.64720769953E+00  0.67420730822E+00  0.51109989000E-03 0. -1.
     -623    1    1    2    0    0  0.31007392200E+00 -0.22220277217E-01  0.14306867612E+01  0.17130625647E+03  0.17130000000E+03 0. -1.
      622    1    1    2    0    0 -0.16120748484E+00 -0.94038962366E-01  0.19221055066E+01  0.33195362264E+01  0.27000000000E+01 0. -1.
</event>
<event>
 5   0  0.6580500E-04  0.9118800E+02  0.7818608E-02  0.1180000E+00
       11   -1    0    0    0    0  0.00000000000E+00  0.00000000000E+00  0.39999999673E+01  0.40000000000E+01  0.51109989000E-03 0. -1.
     -623   -1    0    0    0    0  0.00000000000E+00  0.00000000000E+00  0.12525980253E-10  0.17130000000E+03  0.17130000000E+03 0. -1.
       11    1    1    2    0    0 -0.10776640053E+00 -0.12788399832E+00 -0.43904304958E+00  0.46981589449E+00  0.51109989000E-03 0. -1.
     -623    1    1    2    0    0  0.23309689108E-02 -0.36599781405E-02  0.21929634500E+01  0.17131403652E+03  0.17130000000E+03 0. -1.
      622    1    1    2    0    0  0.10543543162E+00  0.13154397646E+00  0.22460795669E+01  0.35161475892E+01  0.27000000000E+01 0. -1.
</event>
<event>
 5   0  0.6580500E-04  0.9118800E+02  0.7818608E-02  0.1180000E+00
       11   -1    0    0    0    0  0.00000000000E+00  0.00000000000E+00  0.39999999673E+01  0.40000000000E+01  0.51109989000E-03 0. -1.
     -623   -1    0    0    0    0  0.00000000000E+00  0.00000000000E+00  0.12525980253E-10  0.17130000000E+03  0.17130000000E+03 0.  1.
       11    1    1    2    0    0 -0.25778182448E+00 -0.27039315048E+00  0.39731451407E+00  0.54536502378E+00  0.51109989000E-03 0. -1.
     -623    1    1    2    0    0  0.77972236295E+00  0.36990880296E+00  0.15290194219E+01  0.17130899772E+03  0.17130000000E+03 0.  1.
      622    1    1    2    0    0 -0.52194053847E+00 -0.99515652479E-01  0.20736660314E+01  0.34456372561E+01  0.27000000000E+01 0. -1.
</event>
<event>
 5   0  0.6580500E-04  0.9118800E+02  0.7818608E-02  0.1180000E+00
       11   -1    0    0    0    0  0.00000000000E+00  0.00000000000E+00  0.39999999673E+01  0.40000000000E+01  0.51109989000E-03 0. -1.
     -623   -1    0    0    0    0  0.00000000000E+00  0.00000000000E+00  0.12525980253E-10  0.17130000000E+03  0.17130000000E+03 0. -1.
       11    1    1    2    0    0  0.25936023131E+00  0.56235179504E+00  0.11519776350E+00  0.62990321233E+00  0.51109989000E-03 0. -1.
     -623    1    1    2    0    0 -0.22951496540E+00 -0.88054073741E+00  0.19157676033E+01  0.17131312908E+03  0.17130000000E+03 0. -1.
      622    1    1    2    0    0 -0.29845265917E-01  0.31818894237E+00  0.19690346006E+01  0.33569677093E+01  0.27000000000E+01 0. -1.
</event>
<event>
 5   0  0.6580500E-04  0.9118800E+02  0.7818608E-02  0.1180000E+00
       11   -1    0    0    0    0  0.00000000000E+00  0.00000000000E+00  0.39999999673E+01  0.40000000000E+01  0.51109989000E-03 0.  1.
     -623   -1    0    0    0    0  0.00000000000E+00  0.00000000000E+00  0.12525980253E-10  0.17130000000E+03  0.17130000000E+03 0. -1.
       11    1    1    2    0    0  0.39311653462E+00 -0.14003379290E+00  0.56323910171E+00  0.70099116960E+00  0.51109989000E-03 0.  1.
     -623    1    1    2    0    0 -0.22740022812E+00 -0.13363207016E+00  0.15815930440E+01  0.17130750423E+03  0.17130000000E+03 0. -1.
      622    1    1    2    0    0 -0.16571630650E+00  0.27366586305E+00  0.18551678216E+01  0.32915046020E+01  0.27000000000E+01 0.  1.
</event>
<event>
 5   0  0.6580500E-04  0.9118800E+02  0.7818608E-02  0.1180000E+00
       11   -1    0    0    0    0  0.00000000000E+00  0.00000000000E+00  0.39999999673E+01  0.40000000000E+01  0.51109989000E-03 0.  1.
     -623   -1    0    0    0    0  0.00000000000E+00  0.00000000000E+00  0.12525980253E-10  0.17130000000E+03  0.17130000000E+03 0.  1.
       11    1    1    2    0    0 -0.20630512612E+00  0.10612883682E+00  0.11588981592E+00  0.25933732035E+00  0.51109989000E-03 0.  1.
     -623    1    1    2    0    0  0.28878814885E+00 -0.12266443062E-01  0.13057550106E+01  0.17130522043E+03  0.17130000000E+03 0.  1.
      622    1    1    2    0    0 -0.82483022735E-01 -0.93862393762E-01  0.25783551408E+01  0.37354422536E+01  0.27000000000E+01 0.  1.
</event>
<event>
 5   0  0.6580500E-04  0.9118800E+02  0.7818608E-02  0.1180000E+00
       11   -1    0    0    0    0  0.00000000000E+00  0.00000000000E+00  0.39999999673E+01  0.40000000000E+01  0.51109989000E-03 0.  1.
     -623   -1    0    0    0    0  0.00000000000E+00  0.00000000000E+00  0.12525980253E-10  0.17130000000E+03  0.17130000000E+03 0. -1.
       11    1    1    2    0    0 -0.86005044584E-02  0.79817570137E-01  0.10781020106E+00  0.13441768430E+00  0.51109989000E-03 0.  1.
     -623    1    1    2    0    0 -0.28190936597E+00 -0.50035095891E+00  0.11806198866E+01  0.17130503112E+03  0.17130000000E+03 0. -1.
      622    1    1    2    0    0  0.29050987043E+00  0.42053338878E+00  0.27115698798E+01  0.38605511949E+01  0.27000000000E+01 0.  1.
</event>
<event>
 5   0  0.6580500E-04  0.9118800E+02  0.7818608E-02  0.1180000E+00
       11   -1    0    0    0    0  0.00000000000E+00  0.00000000000E+00  0.39999999673E+01  0.40000000000E+01  0.51109989000E-03 0.  1.
     -623   -1    0    0    0    0  0.00000000000E+00  0.00000000000E+00  0.12525980253E-10  0.17130000000E+03  0.17130000000E+03 0. -1.
       11    1    1    2    0    0  0.88584472405E-02 -0.24392752335E+00  0.34954626024E-01  0.24657898499E+00  0.51109989000E-03 0.  1.
     -623    1    1    2    0    0  0.79752557972E-01  0.26734811927E+00  0.13675235432E+01  0.17130568571E+03  0.17130000000E+03 0.  1.
      622    1    1    2    0    0 -0.88611005213E-01 -0.23420595925E-01  0.25975217981E+01  0.37477353063E+01  0.27000000000E+01 0.  1.
</event>
<event>
 5   0  0.6580500E-04  0.9118800E+02  0.7818608E-02  0.1180000E+00
       11   -1    0    0    0    0  0.00000000000E+00  0.00000000000E+00  0.39999999673E+01  0.40000000000E+01  0.51109989000E-03 0.  1.
     -623   -1    0    0    0    0  0.00000000000E+00  0.00000000000E+00  0.12525980253E-10  0.17130000000E+03  0.17130000000E+03 0. -1.
       11    1    1    2    0    0  0.13436233769E+00  0.75522786635E-01  0.12231295588E+00  0.19676800931E+00  0.51109989000E-03 0.  1.
     -623    1    1    2    0    0 -0.81760542709E-01  0.46033275098E-01  0.12085247641E+01  0.17130428873E+03  0.17130000000E+03 0. -1.
      622    1    1    2    0    0 -0.52601794977E-01 -0.12155606173E+00  0.26691622473E+01  0.37989432646E+01  0.27000000000E+01 0.  1.
</event>
<event>
 5   0  0.6580500E-04  0.9118800E+02  0.7818608E-02  0.1180000E+00
       11   -1    0    0    0    0  0.00000000000E+00  0.00000000000E+00  0.39999999673E+01  0.40000000000E+01  0.51109989000E-03 0. -1.
     -623   -1    0    0    0    0  0.00000000000E+00  0.00000000000E+00  0.12525980253E-10  0.17130000000E+03  0.17130000000E+03 0.  1.
       11    1    1    2    0    0  0.29138400042E-01 -0.46617302159E-01  0.49328128943E-01  0.73863013376E-01  0.51109989000E-03 0. -1.
     -623    1    1    2    0    0  0.63606691169E+00  0.64828910880E+00  0.12552918159E+01  0.17130700691E+03  0.17130000000E+03 0.  1.
      622    1    1    2    0    0 -0.66520531173E+00 -0.60167180664E+00  0.26953800225E+01  0.39191300738E+01  0.27000000000E+01 0. -1.
</event>
<event>
 5   0  0.6580500E-04  0.9118800E+02  0.7818608E-02  0.1180000E+00
       11   -1    0    0    0    0  0.00000000000E+00  0.00000000000E+00  0.39999999673E+01  0.40000000000E+01  0.51109989000E-03 0. -1.
     -623   -1    0    0    0    0  0.00000000000E+00  0.00000000000E+00  0.12525980253E-10  0.17130000000E+03  0.17130000000E+03 0. -1.
       11    1    1    2    0    0  0.33667187938E+00 -0.16132667623E-01 -0.55670356116E-02  0.33710453933E+00  0.51109989000E-03 0. -1.
     -623    1    1    2    0    0  0.13361930142E+01 -0.54766924012E+00  0.23169104738E+01  0.17132175410E+03  0.17130000000E+03 0.  1.
      622    1    1    2    0    0 -0.16728648936E+01  0.56380190774E+00  0.16886565291E+01  0.36411413618E+01  0.27000000000E+01 0. -1.
</event>
<event>
 5   0  0.6580500E-04  0.9118800E+02  0.7818608E-02  0.1180000E+00
       11   -1    0    0    0    0  0.00000000000E+00  0.00000000000E+00  0.39999999673E+01  0.40000000000E+01  0.51109989000E-03 0.  1.
     -623   -1    0    0    0    0  0.00000000000E+00  0.00000000000E+00  0.12525980253E-10  0.17130000000E+03  0.17130000000E+03 0.  1.
       11    1    1    2    0    0  0.10158171243E+00 -0.11239030036E+00  0.11059783762E+00  0.18757016507E+00  0.51109989000E-03 0.  1.
     -623    1    1    2    0    0 -0.74301384279E+00  0.10737605662E+01  0.14763903153E+01  0.17131133868E+03  0.17130000000E+03 0.  1.
      622    1    1    2    0    0  0.64143213036E+00 -0.96137026583E+00  0.24130118144E+01  0.38010911568E+01  0.27000000000E+01 0.  1.
</event>
<event>
 5   0  0.6580500E-04  0.9118800E+02  0.7818608E-02  0.1180000E+00
       11   -1    0    0    0    0  0.00000000000E+00  0.00000000000E+00  0.39999999673E+01  0.40000000000E+01  0.51109989000E-03 0. -1.
     -623   -1    0    0    0    0  0.00000000000E+00  0.00000000000E+00  0.12525980253E-10  0.17130000000E+03  0.17130000000E+03 0. -1.
       11    1    1    2    0    0  0.16611737249E+00  0.67952594847E-01 -0.14823727047E+00  0.23278119805E+00  0.51109989000E-03 0. -1.
     -623    1    1    2    0    0  0.24415105343E+00  0.38064393877E-01  0.15661552892E+01  0.17130733756E+03  0.17130000000E+03 0. -1.
      622    1    1    2    0    0 -0.41026842592E+00 -0.10601698872E+00  0.25820819486E+01  0.37598812445E+01  0.27000000000E+01 0. -1.
</event>
<event>
 5   0  0.6580500E-04  0.9118800E+02  0.7818608E-02  0.1180000E+00
       11   -1    0    0    0    0  0.00000000000E+00  0.00000000000E+00  0.39999999673E+01  0.40000000000E+01  0.51109989000E-03 0.  1.
     -623   -1    0    0    0    0  0.00000000000E+00  0.00000000000E+00  0.12525980253E-10  0.17130000000E+03  0.17130000000E+03 0.  1.
       11    1    1    2    0    0  0.44936068695E+00 -0.28188359634E+00 -0.49969185372E+00  0.72874933877E+00  0.51109989000E-03 0.  1.
     -623    1    1    2    0    0  0.59872551641E+00 -0.21483109480E-01  0.30734533633E+01  0.17132861713E+03  0.17130000000E+03 0. -1.
      622    1    1    2    0    0 -0.10480862034E+01  0.30336670582E+00  0.14262384578E+01  0.32426335264E+01  0.27000000000E+01 0.  1.
</event>
<event>
 5   0  0.6580500E-04  0.9118800E+02  0.7818608E-02  0.1180000E+00
       11   -1    0    0    0    0  0.00000000000E+00  0.00000000000E+00  0.39999999673E+01  0.40000000000E+01  0.51109989000E-03 0. -1.
     -623   -1    0    0    0    0  0.00000000000E+00  0.00000000000E+00  0.12525980253E-10  0.17130000000E+03  0.17130000000E+03 0.  1.
       11    1    1    2    0    0  0.64174841626E+00 -0.71698600350E-01  0.17751142080E+00  0.66969566581E+00  0.51109989000E-03 0. -1.
     -623    1    1    2    0    0 -0.56196784533E+00  0.60479840029E+00  0.19727213487E+01  0.17131334805E+03  0.17130000000E+03 0.  1.
      622    1    1    2    0    0 -0.79780570934E-01 -0.53309979994E+00  0.18497671979E+01  0.33169562889E+01  0.27000000000E+01 0. -1.
</event>
<event>
 5   0  0.6580500E-04  0.9118800E+02  0.7818608E-02  0.1180000E+00
       11   -1    0    0    0    0  0.00000000000E+00  0.00000000000E+00  0.39999999673E+01  0.40000000000E+01  0.51109989000E-03 0. -1.
     -623   -1    0    0    0    0  0.00000000000E+00  0.00000000000E+00  0.12525980253E-10  0.17130000000E+03  0.17130000000E+03 0.  1.
       11    1    1    2    0    0 -0.25426979688E+00 -0.25306085713E+00  0.93217881172E-02  0.35885942090E+00  0.51109989000E-03 0. -1.
     -623    1    1    2    0    0  0.83753498665E-01  0.95609407127E+00  0.16743174914E+01  0.17131087084E+03  0.17130000000E+03 0.  1.
      622    1    1    2    0    0  0.17051629821E+00 -0.70303321414E+00  0.23163606878E+01  0.36302697344E+01  0.27000000000E+01 0. -1.
</event>
<event>
 5   0  0.6580500E-04  0.9118800E+02  0.7818608E-02  0.1180000E+00
       11   -1    0    0    0    0  0.00000000000E+00  0.00000000000E+00  0.39999999673E+01  0.40000000000E+01  0.51109989000E-03 0. -1.
     -623   -1    0    0    0    0  0.00000000000E+00  0.00000000000E+00  0.12525980253E-10  0.17130000000E+03  0.17130000000E+03 0.  1.
       11    1    1    2    0    0  0.52697819614E-02  0.14548586177E+00 -0.28591374449E+00  0.32084394507E+00  0.51109989000E-03 0. -1.
     -623    1    1    2    0    0 -0.56955829023E+00 -0.50607765488E+00  0.18967389656E+01  0.17131219492E+03  0.17130000000E+03 0.  1.
      622    1    1    2    0    0  0.56428850827E+00  0.36059179311E+00  0.23891747463E+01  0.36669611302E+01  0.27000000000E+01 0. -1.
</event>
<event>
 5   0  0.6580500E-04  0.9118800E+02  0.7818608E-02  0.1180000E+00
       11   -1    0    0    0    0  0.00000000000E+00  0.00000000000E+00  0.39999999673E+01  0.40000000000E+01  0.51109989000E-03 0.  1.
     -623   -1    0    0    0    0  0.00000000000E+00  0.00000000000E+00  0.12525980253E-10  0.17130000000E+03  0.17130000000E+03 0. -1.
       11    1    1    2    0    0  0.26615678983E+00  0.22573440865E+00 -0.22751771729E-01  0.34973327603E+00  0.51109989000E-03 0.  1.
     -623    1    1    2    0    0 -0.50587470043E+00  0.20922883445E+00  0.16300843628E+01  0.17130863043E+03  0.17130000000E+03 0. -1.
      622    1    1    2    0    0  0.23971791060E+00 -0.43496324310E+00  0.23926673763E+01  0.36416362906E+01  0.27000000000E+01 0.  1.
</event>
<event>
 5   0  0.6580500E-04  0.9118800E+02  0.7818608E-02  0.1180000E+00
       11   -1    0    0    0    0  0.00000000000E+00  0.00000000000E+00  0.39999999673E+01  0.40000000000E+01  0.51109989000E-03 0.  1.
     -623   -1    0    0    0    0  0.00000000000E+00  0.00000000000E+00  0.12525980253E-10  0.17130000000E+03  0.17130000000E+03 0. -1.
       11    1    1    2    0    0 -0.60107946641E-01  0.28589258821E+00 -0.12832884958E+00  0.31908633957E+00  0.51109989000E-03 0.  1.
     -623    1    1    2    0    0 -0.26604888647E+00 -0.18050135690E-01  0.16749086458E+01  0.17130839567E+03  0.17130000000E+03 0. -1.
      622    1    1    2    0    0  0.32615683311E+00 -0.26784245252E+00  0.24534201711E+01  0.36725179911E+01  0.27000000000E+01 0. -1.
</event>
<event>
 5   0  0.6580500E-04  0.9118800E+02  0.7818608E-02  0.1180000E+00
       11   -1    0    0    0    0  0.00000000000E+00  0.00000000000E+00  0.39999999673E+01  0.40000000000E+01  0.51109989000E-03 0.  1.
     -623   -1    0    0    0    0  0.00000000000E+00  0.00000000000E+00  0.12525980253E-10  0.17130000000E+03  0.17130000000E+03 0.  1.
       11    1    1    2    0    0  0.11434610294E+00 -0.66618792778E-01  0.94237879503E-01  0.16246271561E+00  0.51109989000E-03 0.  1.
     -623    1    1    2    0    0 -0.64201206965E+00 -0.51513816350E-01  0.12410782744E+01  0.17130570658E+03  0.17130000000E+03 0.  1.
      622    1    1    2    0    0  0.52766596671E+00  0.11813260913E+00  0.26646838135E+01  0.38318306998E+01  0.27000000000E+01 0.  1.
</event>
<event>
 5   0  0.6580500E-04  0.9118800E+02  0.7818608E-02  0.1180000E+00
       11   -1    0    0    0    0  0.00000000000E+00  0.00000000000E+00  0.39999999673E+01  0.40000000000E+01  0.51109989000E-03 0. -1.
     -623   -1    0    0    0    0  0.00000000000E+00  0.00000000000E+00  0.12525980253E-10  0.17130000000E+03  0.17130000000E+03 0.  1.
       11    1    1    2    0    0 -0.55957095608E-01 -0.25600186133E+00 -0.36913353170E+00  0.45268971161E+00  0.51109989000E-03 0. -1.
     -623    1    1    2    0    0 -0.57361522014E-01  0.53657433092E+00  0.21099696247E+01  0.17131384408E+03  0.17130000000E+03 0.  1.
      622    1    1    2    0    0  0.11331861762E+00 -0.28057246959E+00  0.22591638744E+01  0.35334662063E+01  0.27000000000E+01 0. -1.
</event>
<event>
 5   0  0.6580500E-04  0.9118800E+02  0.7818608E-02  0.1180000E+00
       11   -1    0    0    0    0  0.00000000000E+00  0.00000000000E+00  0.39999999673E+01  0.40000000000E+01  0.51109989000E-03 0. -1.
     -623   -1    0    0    0    0  0.00000000000E+00  0.00000000000E+00  0.12525980253E-10  0.17130000000E+03  0.17130000000E+03 0.  1.
       11    1    1    2    0    0 -0.59469729896E-01  0.13272116731E+00  0.10656304663E+00  0.18029836704E+00  0.51109989000E-03 0. -1.
     -623    1    1    2    0    0 -0.16189957716E+00 -0.16570419099E+00  0.12071085089E+01  0.17130440969E+03  0.17130000000E+03 0.  1.
      622    1    1    2    0    0  0.22136930706E+00  0.32983023682E-01  0.26863284119E+01  0.38152919399E+01  0.27000000000E+01 0. -1.
</event>
<event>
 5   0  0.6580500E-04  0.9118800E+02  0.7818608E-02  0.1180000E+00
       11   -1    0    0    0    0  0.00000000000E+00  0.00000000000E+00  0.39999999673E+01  0.40000000000E+01  0.51109989000E-03 0. -1.
     -623   -1    0    0    0    0  0.00000000000E+00  0.00000000000E+00  0.12525980253E-10  0.17130000000E+03  0.17130000000E+03 0. -1.
       11    1    1    2    0    0  0.47592659700E-01  0.12534781743E+00  0.13867611119E+00  0.19289494972E+00  0.51109989000E-03 0. -1.
     -623    1    1    2    0    0 -0.27110639236E+00 -0.15118171020E-01  0.11951324909E+01  0.17130438427E+03  0.17130000000E+03 0. -1.
      622    1    1    2    0    0  0.22351373266E+00 -0.11022964641E+00  0.26661913653E+01  0.38027207838E+01  0.27000000000E+01 0. -1.
</event>
<event>
 5   0  0.6580500E-04  0.9118800E+02  0.7818608E-02  0.1180000E+00
       11   -1    0    0    0    0  0.00000000000E+00  0.00000000000E+00  0.39999999673E+01  0.40000000000E+01  0.51109989000E-03 0.  1.
     -623   -1    0    0    0    0  0.00000000000E+00  0.00000000000E+00  0.12525980253E-10  0.17130000000E+03  0.17130000000E+03 0.  1.
       11    1    1    2    0    0  0.80646138777E-01 -0.26626180079E+00  0.16971879607E+00  0.32588936347E+00  0.51109989000E-03 0.  1.
     -623    1    1    2    0    0  0.65872900412E+00  0.70464914398E+00  0.15061235882E+01  0.17130933676E+03  0.17130000000E+03 0.  1.
      622    1    1    2    0    0 -0.73937514289E+00 -0.43838734319E+00  0.23241575831E+01  0.36647738724E+01  0.27000000000E+01 0.  1.
</event>
<event>
 5   0  0.6580500E-04  0.9118800E+02  0.7818608E-02  0.1180000E+00
       11   -1    0    0    0    0  0.00000000000E+00  0.00000000000E+00  0.39999999673E+01  0.40000000000E+01  0.51109989000E-03 0.  1.
     -623   -1    0    0    0    0  0.00000000000E+00  0.00000000000E+00  0.12525980253E-10  0.17130000000E+03  0.17130000000E+03 0. -1.
       11    1    1    2    0    0  0.28363761040E+00 -0.44344923417E-02  0.47200144183E+00  0.55068646349E+00  0.51109989000E-03 0.  1.
     -623    1    1    2    0    0  0.21691247632E+00 -0.90816008801E+00  0.16703754268E+01  0.17131068840E+03  0.17130000000E+03 0. -1.
      622    1    1    2    0    0 -0.50055008673E+00  0.91259458035E+00  0.18576230988E+01  0.34386251372E+01  0.27000000000E+01 0.  0.
</event>
<event>
 5   0  0.6580500E-04  0.9118800E+02  0.7818608E-02  0.1180000E+00
       11   -1    0    0    0    0  0.00000000000E+00  0.00000000000E+00  0.39999999673E+01  0.40000000000E+01  0.51109989000E-03 0. -1.
     -623   -1    0    0    0    0  0.00000000000E+00  0.00000000000E+00  0.12525980253E-10  0.17130000000E+03  0.17130000000E+03 0.  1.
       11    1    1    2    0    0  0.97788300563E-01 -0.17828959822E-01  0.99657750214E-01  0.14075635664E+00  0.51109989000E-03 0. -1.
     -623    1    1    2    0    0 -0.18967509860E+00  0.32292404558E+00  0.11675073811E+01  0.17130438795E+03  0.17130000000E+03 0.  1.
      622    1    1    2    0    0  0.91886798032E-01 -0.30509508576E+00  0.27328348360E+01  0.38548556959E+01  0.27000000000E+01 0. -1.
</event>
<event>
 5   0  0.6580500E-04  0.9118800E+02  0.7818608E-02  0.1180000E+00
       11   -1    0    0    0    0  0.00000000000E+00  0.00000000000E+00  0.39999999673E+01  0.40000000000E+01  0.51109989000E-03 0.  1.
     -623   -1    0    0    0    0  0.00000000000E+00  0.00000000000E+00  0.12525980253E-10  0.17130000000E+03  0.17130000000E+03 0. -1.
       11    1    1    2    0    0  0.30391372635E+00  0.14453705910E+00 -0.98158027047E-01  0.35055637780E+00  0.51109989000E-03 0.  1.
     -623    1    1    2    0    0  0.25122560021E+00 -0.13265543182E-01  0.17236124276E+01  0.17130885596E+03  0.17130000000E+03 0. -1.
      622    1    1    2    0    0 -0.55513932656E+00 -0.13127151591E+00  0.23745455668E+01  0.36405876629E+01  0.27000000000E+01 0.  1.
</event>
<event>
 5   0  0.6580500E-04  0.9118800E+02  0.7818608E-02  0.1180000E+00
       11   -1    0    0    0    0  0.00000000000E+00  0.00000000000E+00  0.39999999673E+01  0.40000000000E+01  0.51109989000E-03 0.  1.
     -623   -1    0    0    0    0  0.00000000000E+00  0.00000000000E+00  0.12525980253E-10  0.17130000000E+03  0.17130000000E+03 0. -1.
       11    1    1    2    0    0  0.29680019316E-01  0.26996698782E+00  0.63963482208E-01  0.27902449057E+00  0.51109989000E-03 0.  1.
     -623    1    1    2    0    0  0.94419138386E+00 -0.48002383893E+00  0.15943187851E+01  0.17131069369E+03  0.17130000000E+03 0. -1.
      622    1    1    2    0    0 -0.97387140317E+00  0.21005685112E+00  0.23417177001E+01  0.37102818192E+01  0.27000000000E+01 0.  1.
</event>
<event>
 5   0  0.6580500E-04  0.9118800E+02  0.7818608E-02  0.1180000E+00
       11   -1    0    0    0    0  0.00000000000E+00  0.00000000000E+00  0.39999999673E+01  0.40000000000E+01  0.51109989000E-03 0.  1.
     -623   -1    0    0    0    0  0.00000000000E+00  0.00000000000E+00  0.12525980253E-10  0.17130000000E+03  0.17130000000E+03 0. -1.
       11    1    1    2    0    0 -0.20054455449E-01  0.11673247000E+00  0.68421920871E-01  0.13678622449E+00  0.51109989000E-03 0.  1.
     -623    1    1    2    0    0  0.13160579910E+00 -0.38744560398E+00  0.11905985244E+01  0.17130462620E+03  0.17130000000E+03 0. -1.
      622    1    1    2    0    0 -0.11155134366E+00  0.27071313398E+00  0.27409795221E+01  0.38585875711E+01  0.27000000000E+01 0.  1.
</event>
<event>
 5   0  0.6580500E-04  0.9118800E+02  0.7818608E-02  0.1180000E+00
       11   -1    0    0    0    0  0.00000000000E+00  0.00000000000E+00  0.39999999673E+01  0.40000000000E+01  0.51109989000E-03 0. -1.
     -623   -1    0    0    0    0  0.00000000000E+00  0.00000000000E+00  0.12525980253E-10  0.17130000000E+03  0.17130000000E+03 0. -1.
       11    1    1    2    0    0  0.30305092447E+00  0.28582660649E+00  0.54939914586E+00  0.68947544880E+00  0.51109989000E-03 0. -1.
     -623    1    1    2    0    0 -0.26374339900E+00 -0.36906988307E+00  0.15504098673E+01  0.17130761671E+03  0.17130000000E+03 0. -1.
      622    1    1    2    0    0 -0.39307525468E-01  0.83243276575E-01  0.19001909542E+01  0.33029078381E+01  0.27000000000E+01 0. -1.
</event>
<event>
 5   0  0.6580500E-04  0.9118800E+02  0.7818608E-02  0.1180000E+00
       11   -1    0    0    0    0  0.00000000000E+00  0.00000000000E+00  0.39999999673E+01  0.40000000000E+01  0.51109989000E-03 0. -1.
     -623   -1    0    0    0    0  0.00000000000E+00  0.00000000000E+00  0.12525980253E-10  0.17130000000E+03  0.17130000000E+03 0.  1.
       11    1    1    2    0    0 -0.37908506292E-01  0.60429720807E-01  0.74249857855E+00  0.74591769411E+00  0.51109989000E-03 0. -1.
     -623    1    1    2    0    0 -0.95332944401E-01 -0.80844167227E+00  0.16268554053E+01  0.17130965917E+03  0.17130000000E+03 0.  1.
      622    1    1    2    0    0  0.13324145069E+00  0.74801195146E+00  0.16306459835E+01  0.32444231363E+01  0.27000000000E+01 0.  1.
</event>
<event>
 5   0  0.6580500E-04  0.9118800E+02  0.7818608E-02  0.1180000E+00
       11   -1    0    0    0    0  0.00000000000E+00  0.00000000000E+00  0.39999999673E+01  0.40000000000E+01  0.51109989000E-03 0. -1.
     -623   -1    0    0    0    0  0.00000000000E+00  0.00000000000E+00  0.12525980253E-10  0.17130000000E+03  0.17130000000E+03 0. -1.
       11    1    1    2    0    0  0.22105251514E+00  0.43806178600E-01 -0.51122024019E+00  0.55868559220E+00  0.51109989000E-03 0. -1.
     -623    1    1    2    0    0 -0.71991169763E+00  0.86941334734E+00  0.26949191012E+01  0.17132491571E+03  0.17130000000E+03 0. -1.
      622    1    1    2    0    0  0.49885918249E+00 -0.91321952594E+00  0.18163011063E+01  0.34163987026E+01  0.27000000000E+01 0.  0.
</event>
<event>
 5   0  0.6580500E-04  0.9118800E+02  0.7818608E-02  0.1180000E+00
       11   -1    0    0    0    0  0.00000000000E+00  0.00000000000E+00  0.39999999673E+01  0.40000000000E+01  0.51109989000E-03 0.  1.
     -623   -1    0    0    0    0  0.00000000000E+00  0.00000000000E+00  0.12525980253E-10  0.17130000000E+03  0.17130000000E+03 0. -1.
       11    1    1    2    0    0 -0.60817902576E-01 -0.89002101228E-01  0.13579678768E-01  0.10865017347E+00  0.51109989000E-03 0.  1.
     -623    1    1    2    0    0 -0.28714288544E+00  0.14698565632E+00  0.12129020490E+01  0.17130459768E+03  0.17130000000E+03 0. -1.
      622    1    1    2    0    0  0.34796078802E+00 -0.57983555093E-01  0.27735182396E+01  0.38867521439E+01  0.27000000000E+01 0.  1.
</event>
<event>
 5   0  0.6580500E-04  0.9118800E+02  0.7818608E-02  0.1180000E+00
       11   -1    0    0    0    0  0.00000000000E+00  0.00000000000E+00  0.39999999673E+01  0.40000000000E+01  0.51109989000E-03 0.  1.
     -623   -1    0    0    0    0  0.00000000000E+00  0.00000000000E+00  0.12525980253E-10  0.17130000000E+03  0.17130000000E+03 0. -1.
       11    1    1    2    0    0 -0.51290173703E-01  0.35818564613E-01  0.53960439149E-01  0.82617441884E-01  0.51109989000E-03 0.  1.
     -623    1    1    2    0    0  0.37650076587E+00 -0.33846807059E+00  0.11491684784E+01  0.17130460269E+03  0.17130000000E+03 0. -1.
      622    1    1    2    0    0 -0.32521059216E+00  0.30264950597E+00  0.27968710498E+01  0.39127798714E+01  0.27000000000E+01 0.  1.
</event>
<event>
 5   0  0.6580500E-04  0.9118800E+02  0.7818608E-02  0.1180000E+00
       11   -1    0    0    0    0  0.00000000000E+00  0.00000000000E+00  0.39999999673E+01  0.40000000000E+01  0.51109989000E-03 0.  1.
     -623   -1    0    0    0    0  0.00000000000E+00  0.00000000000E+00  0.12525980253E-10  0.17130000000E+03  0.17130000000E+03 0. -1.
       11    1    1    2    0    0  0.22853900808E+00  0.21254894662E+00 -0.20917734863E+00  0.37571605945E+00  0.51109989000E-03 0.  1.
     -623    1    1    2    0    0  0.26834170113E+00  0.37981726310E+00  0.19367680723E+01  0.17131157970E+03  0.17130000000E+03 0. -1.
      622    1    1    2    0    0 -0.49688070921E+00 -0.59236620971E+00  0.22724092437E+01  0.36127042415E+01  0.27000000000E+01 0.  0.
</event>
<event>
 5   0  0.6580500E-04  0.9118800E+02  0.7818608E-02  0.1180000E+00
       11   -1    0    0    0    0  0.00000000000E+00  0.00000000000E+00  0.39999999673E+01  0.40000000000E+01  0.51109989000E-03 0. -1.
     -623   -1    0    0    0    0  0.00000000000E+00  0.00000000000E+00  0.12525980253E-10  0.17130000000E+03  0.17130000000E+03 0.  1.
       11    1    1    2    0    0 -0.26834396994E+00  0.72754760874E-01 -0.27376060958E+00  0.39018825458E+00  0.51109989000E-03 0. -1.
     -623    1    1    2    0    0  0.38060690937E+00 -0.32768304916E+00  0.19113504958E+01  0.17131139921E+03  0.17130000000E+03 0.  1.
      622    1    1    2    0    0 -0.11226293944E+00  0.25492828828E+00  0.23624100811E+01  0.35984125377E+01  0.27000000000E+01 0. -1.
</event>
<event>
 5   0  0.6580500E-04  0.9118800E+02  0.7818608E-02  0.1180000E+00
       11   -1    0    0    0    0  0.00000000000E+00  0.00000000000E+00  0.39999999673E+01  0.40000000000E+01  0.51109989000E-03 0. -1.
     -623   -1    0    0    0    0  0.00000000000E+00  0.00000000000E+00  0.12525980253E-10  0.17130000000E+03  0.17130000000E+03 0.  1.
       11    1    1    2    0    0 -0.12226449468E+00  0.20314326098E+00  0.41614502398E+00  0.47894961462E+00  0.51109989000E-03 0. -1.
     -623    1    1    2    0    0 -0.24831879070E-02 -0.66573927828E+00  0.13862016904E+01  0.17130690228E+03  0.17130000000E+03 0.  1.
      622    1    1    2    0    0  0.12474768259E+00  0.46259601730E+00  0.21976532529E+01  0.35141481016E+01  0.27000000000E+01 0. -1.
</event>
<event>
 5   0  0.6580500E-04  0.9118800E+02  0.7818608E-02  0.1180000E+00
       11   -1    0    0    0    0  0.00000000000E+00  0.00000000000E+00  0.39999999673E+01  0.40000000000E+01  0.51109989000E-03 0. -1.
     -623   -1    0    0    0    0  0.00000000000E+00  0.00000000000E+00  0.12525980253E-10  0.17130000000E+03  0.17130000000E+03 0. -1.
       11    1    1    2    0    0 -0.16534710512E-01 -0.17374922937E+00 -0.70733270304E-01  0.18832325430E+00  0.51109989000E-03 0. -1.
     -623    1    1    2    0    0  0.61105865730E+00  0.67944654732E+00  0.15093858706E+01  0.17130908699E+03  0.17130000000E+03 0. -1.
      622    1    1    2    0    0 -0.59452394678E+00 -0.50569731795E+00  0.25613473671E+01  0.38025897538E+01  0.27000000000E+01 0. -1.
</event>
<event>
 5   0  0.6580500E-04  0.9118800E+02  0.7818608E-02  0.1180000E+00
       11   -1    0    0    0    0  0.00000000000E+00  0.00000000000E+00  0.39999999673E+01  0.40000000000E+01  0.51109989000E-03 0. -1.
     -623   -1    0    0    0    0  0.00000000000E+00  0.00000000000E+00  0.12525980253E-10  0.17130000000E+03  0.17130000000E+03 0.  1.
       11    1    1    2    0    0  0.11095903164E+00  0.17199745075E+00 -0.15691877385E-01  0.20528401304E+00  0.51109989000E-03 0. -1.
     -623    1    1    2    0    0  0.72128650634E-01  0.24901740489E+00  0.13976064818E+01  0.17130589749E+03  0.17130000000E+03 0.  1.
      622    1    1    2    0    0 -0.18308768228E+00 -0.42101485564E+00  0.26180853629E+01  0.37888184934E+01  0.27000000000E+01 0. -1.
</event>
<event>
 5   0  0.6580500E-04  0.9118800E+02  0.7818608E-02  0.1180000E+00
       11   -1    0    0    0    0  0.00000000000E+00  0.00000000000E+00  0.39999999673E+01  0.40000000000E+01  0.51109989000E-03 0.  1.
     -623   -1    0    0    0    0  0.00000000000E+00  0.00000000000E+00  0.12525980253E-10  0.17130000000E+03  0.17130000000E+03 0.  1.
       11    1    1    2    0    0 -0.90503213304E-02 -0.20317527083E+00  0.93303148863E-02  0.20359129399E+00  0.51109989000E-03 0.  1.
     -623    1    1    2    0    0  0.37901247772E+00  0.51199445953E+00  0.13754057832E+01  0.17130670603E+03  0.17130000000E+03 0.  1.
      622    1    1    2    0    0 -0.36996215639E+00 -0.30881918870E+00  0.26152638693E+01  0.37897026789E+01  0.27000000000E+01 0.  1.
</event>
<event>
 5   0  0.6580500E-04  0.9118800E+02  0.7818608E-02  0.1180000E+00
       11   -1    0    0    0    0  0.00000000000E+00  0.00000000000E+00  0.39999999673E+01  0.40000000000E+01  0.51109989000E-03 0. -1.
     -623   -1    0    0    0    0  0.00000000000E+00  0.00000000000E+00  0.12525980253E-10  0.17130000000E+03  0.17130000000E+03 0.  1.
       11    1    1    2    0    0 -0.18163133253E+00  0.20262228560E+00  0.65415610846E-01  0.27986638766E+00  0.51109989000E-03 0. -1.
     -623    1    1    2    0    0  0.22622523468E+00 -0.71377771553E+00  0.14387770773E+01  0.17130767857E+03  0.17130000000E+03 0. -1.
      622    1    1    2    0    0 -0.44593902151E-01  0.51115542994E+00  0.24958072792E+01  0.37124550455E+01  0.27000000000E+01 0. -1.
</event>
<event>
 5   0  0.6580500E-04  0.9118800E+02  0.7818608E-02  0.1180000E+00
       11   -1    0    0    0    0  0.00000000000E+00  0.00000000000E+00  0.39999999673E+01  0.40000000000E+01  0.51109989000E-03 0.  1.
     -623   -1    0    0    0    0  0.00000000000E+00  0.00000000000E+00  0.12525980253E-10  0.17130000000E+03  0.17130000000E+03 0. -1.
       11    1    1    2    0    0 -0.45932161683E+00 -0.90799045085E+00  0.40837326075E+00  0.10964451595E+01  0.51109989000E-03 0.  1.
     -623    1    1    2    0    0  0.14906607116E+00  0.10000594543E+01  0.26425436651E+01  0.17132336495E+03  0.17130000000E+03 0. -1.
      622    1    1    2    0    0  0.31025554568E+00 -0.92069003421E-01  0.94908304153E+00  0.28801898939E+01  0.27000000000E+01 0.  0.
</event>
<event>
 5   0  0.6580500E-04  0.9118800E+02  0.7818608E-02  0.1180000E+00
       11   -1    0    0    0    0  0.00000000000E+00  0.00000000000E+00  0.39999999673E+01  0.40000000000E+01  0.51109989000E-03 0. -1.
     -623   -1    0    0    0    0  0.00000000000E+00  0.00000000000E+00  0.12525980253E-10  0.17130000000E+03  0.17130000000E+03 0. -1.
       11    1    1    2    0    0  0.31660158353E+00  0.20442554004E-01  0.94302478438E-01  0.33097987760E+00  0.51109989000E-03 0. -1.
     -623    1    1    2    0    0 -0.74941431219E-01 -0.11442042041E+00  0.14441029285E+01  0.17130614158E+03  0.17130000000E+03 0. -1.
      622    1    1    2    0    0 -0.24166015231E+00  0.93977866406E-01  0.24615945605E+01  0.36628785468E+01  0.27000000000E+01 0. -1.
</event>
<event>
 5   0  0.6580500E-04  0.9118800E+02  0.7818608E-02  0.1180000E+00
       11   -1    0    0    0    0  0.00000000000E+00  0.00000000000E+00  0.39999999673E+01  0.40000000000E+01  0.51109989000E-03 0. -1.
     -623   -1    0    0    0    0  0.00000000000E+00  0.00000000000E+00  0.12525980253E-10  0.17130000000E+03  0.17130000000E+03 0. -1.
       11    1    1    2    0    0 -0.16064064358E-01 -0.20543611359E-01 -0.87940370629E-01  0.91727117798E-01  0.51109989000E-03 0. -1.
     -623    1    1    2    0    0  0.13367672148E+00 -0.27506206044E+00  0.12873217057E+01  0.17130511004E+03  0.17130000000E+03 0. -1.
      622    1    1    2    0    0 -0.11761265712E+00  0.29560567180E+00  0.28006186323E+01  0.39031628423E+01  0.27000000000E+01 0. -1.
</event>
<event>
 5   0  0.6580500E-04  0.9118800E+02  0.7818608E-02  0.1180000E+00
       11   -1    0    0    0    0  0.00000000000E+00  0.00000000000E+00  0.39999999673E+01  0.40000000000E+01  0.51109989000E-03 0. -1.
     -623   -1    0    0    0    0  0.00000000000E+00  0.00000000000E+00  0.12525980253E-10  0.17130000000E+03  0.17130000000E+03 0.  1.
       11    1    1    2    0    0  0.40300730838E+00 -0.25050260884E+00  0.39158158315E+00  0.61522584887E+00  0.51109989000E-03 0. -1.
     -623    1    1    2    0    0  0.25497413418E+00 -0.32086120564E+00  0.17804577356E+01  0.17130974284E+03  0.17130000000E+03 0.  1.
      622    1    1    2    0    0 -0.65798144256E+00  0.57136381448E+00  0.18279606487E+01  0.33750313066E+01  0.27000000000E+01 0. -1.
</event>
<event>
 5   0  0.6580500E-04  0.9118800E+02  0.7818608E-02  0.1180000E+00
       11   -1    0    0    0    0  0.00000000000E+00  0.00000000000E+00  0.39999999673E+01  0.40000000000E+01  0.51109989000E-03 0. -1.
     -623   -1    0    0    0    0  0.00000000000E+00  0.00000000000E+00  0.12525980253E-10  0.17130000000E+03  0.17130000000E+03 0. -1.
       11    1    1    2    0    0 -0.99562792839E-01  0.18444012950E-01 -0.10882220632E+00  0.14864543431E+00  0.51109989000E-03 0. -1.
     -623    1    1    2    0    0  0.59952415622E+00  0.63371784860E+00  0.15011488925E+01  0.17130879859E+03  0.17130000000E+03 0. -1.
      622    1    1    2    0    0 -0.49996136338E+00 -0.65216186155E+00  0.26076732812E+01  0.38425559723E+01  0.27000000000E+01 0. -1.
</event>
<event>
 5   0  0.6580500E-04  0.9118800E+02  0.7818608E-02  0.1180000E+00
       11   -1    0    0    0    0  0.00000000000E+00  0.00000000000E+00  0.39999999673E+01  0.40000000000E+01  0.51109989000E-03 0. -1.
     -623   -1    0    0    0    0  0.00000000000E+00  0.00000000000E+00  0.12525980253E-10  0.17130000000E+03  0.17130000000E+03 0.  1.
       11    1    1    2    0    0 -0.20022878495E+00  0.76283917144E-01  0.13715280259E+00  0.25440509983E+00  0.51109989000E-03 0. -1.
     -623    1    1    2    0    0  0.45693176522E+00 -0.75579532127E-01  0.12874478370E+01  0.17130546407E+03  0.17130000000E+03 0. -1.
      622    1    1    2    0    0 -0.25670298027E+00 -0.70438501665E-03  0.25753993278E+01  0.37401308284E+01  0.27000000000E+01 0. -1.
</event>
<event>
 5   0  0.6580500E-04  0.9118800E+02  0.7818608E-02  0.1180000E+00
       11   -1    0    0    0    0  0.00000000000E+00  0.00000000000E+00  0.39999999673E+01  0.40000000000E+01  0.51109989000E-03 0. -1.
     -623   -1    0    0    0    0  0.00000000000E+00  0.00000000000E+00  0.12525980253E-10  0.17130000000E+03  0.17130000000E+03 0. -1.
       11    1    1    2    0    0 -0.13565290142E+00 -0.82480836029E-01 -0.39900680093E+00  0.42943158522E+00  0.51109989000E-03 0. -1.
     -623    1    1    2    0    0  0.49335478236E+00 -0.10255797030E+01  0.24101444590E+01  0.17132073432E+03  0.17130000000E+03 0. -1.
      622    1    1    2    0    0 -0.35770188094E+00  0.11080605390E+01  0.19888623092E+01  0.35498340917E+01  0.27000000000E+01 0. -1.
</event>
<event>
 5   0  0.6580500E-04  0.9118800E+02  0.7818608E-02  0.1180000E+00
       11   -1    0    0    0    0  0.00000000000E+00  0.00000000000E+00  0.39999999673E+01  0.40000000000E+01  0.51109989000E-03 0. -1.
     -623   -1    0    0    0    0  0.00000000000E+00  0.00000000000E+00  0.12525980253E-10  0.17130000000E+03  0.17130000000E+03 0. -1.
       11    1    1    2    0    0 -0.88359396043E-01  0.11215588394E+00  0.82124876317E-01  0.16471515323E+00  0.51109989000E-03 0. -1.
     -623    1    1    2    0    0 -0.20685555790E+00 -0.58359818784E+00  0.12596948075E+01  0.17130575065E+03  0.17130000000E+03 0. -1.
      622    1    1    2    0    0  0.29521495395E+00  0.47144230391E+00  0.26581802836E+01  0.38295341929E+01  0.27000000000E+01 0. -1.
</event>
<event>
 5   0  0.6580500E-04  0.9118800E+02  0.7818608E-02  0.1180000E+00
       11   -1    0    0    0    0  0.00000000000E+00  0.00000000000E+00  0.39999999673E+01  0.40000000000E+01  0.51109989000E-03 0.  1.
     -623   -1    0    0    0    0  0.00000000000E+00  0.00000000000E+00  0.12525980253E-10  0.17130000000E+03  0.17130000000E+03 0. -1.
       11    1    1    2    0    0  0.26735595407E+00  0.23760199590E+00  0.46831338448E+00  0.58928057998E+00  0.51109989000E-03 0.  1.
     -623    1    1    2    0    0 -0.85573052440E-01  0.58239123954E+00  0.16403432637E+01  0.17130886500E+03  0.17130000000E+03 0. -1.
      622    1    1    2    0    0 -0.18178290163E+00 -0.81999323543E+00  0.18913433192E+01  0.34018544179E+01  0.27000000000E+01 0.  1.
</event>
<event>
 5   0  0.6580500E-04  0.9118800E+02  0.7818608E-02  0.1180000E+00
       11   -1    0    0    0    0  0.00000000000E+00  0.00000000000E+00  0.39999999673E+01  0.40000000000E+01  0.51109989000E-03 0. -1.
     -623   -1    0    0    0    0  0.00000000000E+00  0.00000000000E+00  0.12525980253E-10  0.17130000000E+03  0.17130000000E+03 0.  1.
       11    1    1    2    0    0  0.34920272165E+00 -0.69721458830E+00 -0.19343608261E+00  0.80341054401E+00  0.51109989000E-03 0. -1.
     -623    1    1    2    0    0 -0.16078014553E-01  0.13374976108E+01  0.26971660312E+01  0.17132645407E+03  0.17130000000E+03 0.  1.
      622    1    1    2    0    0 -0.33312470709E+00 -0.64028302250E+00  0.14962700188E+01  0.31701353896E+01  0.27000000000E+01 0. -1.
</event>
<event>
 5   0  0.6580500E-04  0.9118800E+02  0.7818608E-02  0.1180000E+00
       11   -1    0    0    0    0  0.00000000000E+00  0.00000000000E+00  0.39999999673E+01  0.40000000000E+01  0.51109989000E-03 0. -1.
     -623   -1    0    0    0    0  0.00000000000E+00  0.00000000000E+00  0.12525980253E-10  0.17130000000E+03  0.17130000000E+03 0.  1.
       11    1    1    2    0    0 -0.30564786607E+00 -0.59420989939E-01  0.59305189768E-01  0.31696819846E+00  0.51109989000E-03 0. -1.
     -623    1    1    2    0    0  0.27594279642E+00 -0.41242736780E+00  0.14915880383E+01  0.17130721256E+03  0.17130000000E+03 0.  1.
      622    1    1    2    0    0  0.29705069655E-01  0.47184835773E+00  0.24491067393E+01  0.36758192399E+01  0.27000000000E+01 0. -1.
</event>
<event>
 5   0  0.6580500E-04  0.9118800E+02  0.7818608E-02  0.1180000E+00
       11   -1    0    0    0    0  0.00000000000E+00  0.00000000000E+00  0.39999999673E+01  0.40000000000E+01  0.51109989000E-03 0.  1.
     -623   -1    0    0    0    0  0.00000000000E+00  0.00000000000E+00  0.12525980253E-10  0.17130000000E+03  0.17130000000E+03 0. -1.
       11    1    1    2    0    0  0.64131531959E+00 -0.19612105431E+00  0.80428852452E-01  0.67543901917E+00  0.51109989000E-03 0.  1.
     -623    1    1    2    0    0 -0.33351036805E+00  0.88322980704E+00  0.21622796052E+01  0.17131624785E+03  0.17130000000E+03 0. -1.
      622    1    1    2    0    0 -0.30780495155E+00 -0.68710875273E+00  0.17572915098E+01  0.33083131316E+01  0.27000000000E+01 0.  1.
</event>
<event>
 5   0  0.6580500E-04  0.9118800E+02  0.7818608E-02  0.1180000E+00
       11   -1    0    0    0    0  0.00000000000E+00  0.00000000000E+00  0.39999999673E+01  0.40000000000E+01  0.51109989000E-03 0. -1.
     -623   -1    0    0    0    0  0.00000000000E+00  0.00000000000E+00  0.12525980253E-10  0.17130000000E+03  0.17130000000E+03 0.  1.
       11    1    1    2    0    0 -0.48278431688E-02  0.65560875470E-02 -0.33290933540E-01  0.34275907467E-01  0.51109989000E-03 0. -1.
     -623    1    1    2    0    0  0.26058657980E-01  0.29682225408E+00  0.11502700626E+01  0.17130412109E+03  0.17130000000E+03 0.  1.
      622    1    1    2    0    0 -0.21230814811E-01 -0.30337834162E+00  0.28830208383E+01  0.39616029987E+01  0.27000000000E+01 0. -1.
</event>
<event>
 5   0  0.6580500E-04  0.9118800E+02  0.7818608E-02  0.1180000E+00
       11   -1    0    0    0    0  0.00000000000E+00  0.00000000000E+00  0.39999999673E+01  0.40000000000E+01  0.51109989000E-03 0.  1.
     -623   -1    0    0    0    0  0.00000000000E+00  0.00000000000E+00  0.12525980253E-10  0.17130000000E+03  0.17130000000E+03 0.  1.
       11    1    1    2    0    0  0.82762647963E-01 -0.28487209755E+00 -0.26813454926E-01  0.29786068966E+00  0.51109989000E-03 0.  1.
     -623    1    1    2    0    0  0.10421158257E+01  0.13889780317E+00  0.17825370488E+01  0.17131250023E+03  0.17130000000E+03 0.  1.
      622    1    1    2    0    0 -0.11248784737E+01  0.14597429438E+00  0.22442763735E+01  0.36896390766E+01  0.27000000000E+01 0.  1.
</event>
<event>
 5   0  0.6580500E-04  0.9118800E+02  0.7818608E-02  0.1180000E+00
       11   -1    0    0    0    0  0.00000000000E+00  0.00000000000E+00  0.39999999673E+01  0.40000000000E+01  0.51109989000E-03 0. -1.
     -623   -1    0    0    0    0  0.00000000000E+00  0.00000000000E+00  0.12525980253E-10  0.17130000000E+03  0.17130000000E+03 0.  1.
       11    1    1    2    0    0 -0.39529322203E-01 -0.27389659208E+00  0.18242497473E+00  0.33145292742E+00  0.51109989000E-03 0. -1.
     -623    1    1    2    0    0  0.28771233420E+00  0.82040819564E+00  0.14199369159E+01  0.17130809108E+03  0.17130000000E+03 0.  1.
      622    1    1    2    0    0 -0.24818301200E+00 -0.54651160356E+00  0.23976380767E+01  0.36604559944E+01  0.27000000000E+01 0. -1.
</event>
<event>
 5   0  0.6580500E-04  0.9118800E+02  0.7818608E-02  0.1180000E+00
       11   -1    0    0    0    0  0.00000000000E+00  0.00000000000E+00  0.39999999673E+01  0.40000000000E+01  0.51109989000E-03 0. -1.
     -623   -1    0    0    0    0  0.00000000000E+00  0.00000000000E+00  0.12525980253E-10  0.17130000000E+03  0.17130000000E+03 0.  1.
       11    1    1    2    0    0  0.16867798192E+00  0.15066375274E+00  0.31895262774E-01  0.22840621047E+00  0.51109989000E-03 0. -1.
     -623    1    1    2    0    0 -0.37764227649E+00 -0.36030691343E+00  0.13603082580E+01  0.17130619625E+03  0.17130000000E+03 0.  1.
      622    1    1    2    0    0  0.20896429457E+00  0.20964316069E+00  0.26077964465E+01  0.37653975405E+01  0.27000000000E+01 0. -1.
</event>
<event>
 5   0  0.6580500E-04  0.9118800E+02  0.7818608E-02  0.1180000E+00
       11   -1    0    0    0    0  0.00000000000E+00  0.00000000000E+00  0.39999999673E+01  0.40000000000E+01  0.51109989000E-03 0.  1.
     -623   -1    0    0    0    0  0.00000000000E+00  0.00000000000E+00  0.12525980253E-10  0.17130000000E+03  0.17130000000E+03 0. -1.
       11    1    1    2    0    0  0.35741423107E-01  0.54660854939E-01  0.91796259343E+00  0.92028302307E+00  0.51109989000E-03 0.  1.
     -623    1    1    2    0    0 -0.88148207109E-01 -0.40572599128E+00  0.16621899807E+01  0.17130856738E+03  0.17130000000E+03 0. -1.
      622    1    1    2    0    0  0.52406784001E-01  0.35106513634E+00  0.14198473933E+01  0.30711495928E+01  0.27000000000E+01 0.  1.
</event>
<event>
 5   0  0.6580500E-04  0.9118800E+02  0.7818608E-02  0.1180000E+00
       11   -1    0    0    0    0  0.00000000000E+00  0.00000000000E+00  0.39999999673E+01  0.40000000000E+01  0.51109989000E-03 0.  1.
     -623   -1    0    0    0    0  0.00000000000E+00  0.00000000000E+00  0.12525980253E-10  0.17130000000E+03  0.17130000000E+03 0.  1.
       11    1    1    2    0    0 -0.12226502206E+00 -0.53928840521E-01  0.10800555066E+00  0.17182117348E+00  0.51109989000E-03 0.  1.
     -623    1    1    2    0    0  0.55174718595E+00  0.79561638977E+00  0.13287829169E+01  0.17130788976E+03  0.17130000000E+03 0.  1.
      622    1    1    2    0    0 -0.42948216389E+00 -0.74168754925E+00  0.25632114998E+01  0.38202890653E+01  0.27000000000E+01 0.  1.
</event>
<event>
 5   0  0.6580500E-04  0.9118800E+02  0.7818608E-02  0.1180000E+00
       11   -1    0    0    0    0  0.00000000000E+00  0.00000000000E+00  0.39999999673E+01  0.40000000000E+01  0.51109989000E-03 0. -1.
     -623   -1    0    0    0    0  0.00000000000E+00  0.00000000000E+00  0.12525980253E-10  0.17130000000E+03  0.17130000000E+03 0.  1.
       11    1    1    2    0    0  0.39567677696E+00  0.13113259124E+00 -0.52725976767E-01  0.42016206178E+00  0.51109989000E-03 0. -1.
     -623    1    1    2    0    0 -0.42491358232E+00 -0.65831993320E+00  0.17794954876E+01  0.17131103450E+03  0.17130000000E+03 0.  1.
      622    1    1    2    0    0  0.29236805366E-01  0.52718734196E+00  0.22732304565E+01  0.35688034399E+01  0.27000000000E+01 0. -1.
</event>
<event>
 5   0  0.6580500E-04  0.9118800E+02  0.7818608E-02  0.1180000E+00
       11   -1    0    0    0    0  0.00000000000E+00  0.00000000000E+00  0.39999999673E+01  0.40000000000E+01  0.51109989000E-03 0.  1.
     -623   -1    0    0    0    0  0.00000000000E+00  0.00000000000E+00  0.12525980253E-10  0.17130000000E+03  0.17130000000E+03 0. -1.
       11    1    1    2    0    0 -0.47834412681E-01 -0.10103666018E-01 -0.74174691321E-01  0.88838961944E-01  0.51109989000E-03 0.  1.
     -623    1    1    2    0    0 -0.20753463862E+00 -0.17870861781E+00  0.12692059697E+01  0.17130492080E+03  0.17130000000E+03 0. -1.
      622    1    1    2    0    0  0.25536905130E+00  0.18881228383E+00  0.28049686890E+01  0.39062402354E+01  0.27000000000E+01 0.  1.
</event>
<event>
 5   0  0.6580500E-04  0.9118800E+02  0.7818608E-02  0.1180000E+00
       11   -1    0    0    0    0  0.00000000000E+00  0.00000000000E+00  0.39999999673E+01  0.40000000000E+01  0.51109989000E-03 0. -1.
     -623   -1    0    0    0    0  0.00000000000E+00  0.00000000000E+00  0.12525980253E-10  0.17130000000E+03  0.17130000000E+03 0. -1.
       11    1    1    2    0    0  0.10463487369E+00 -0.59999380926E-01 -0.10818474004E+00  0.16202648457E+00  0.51109989000E-03 0. -1.
     -623    1    1    2    0    0  0.16520020615E+00 -0.10273711083E+00  0.14071533436E+01  0.17130588994E+03  0.17130000000E+03 0. -1.
      622    1    1    2    0    0 -0.26983507984E+00  0.16273649176E+00  0.27010313638E+01  0.38320835800E+01  0.27000000000E+01 0. -1.
</event>
<event>
 5   0  0.6580500E-04  0.9118800E+02  0.7818608E-02  0.1180000E+00
       11   -1    0    0    0    0  0.00000000000E+00  0.00000000000E+00  0.39999999673E+01  0.40000000000E+01  0.51109989000E-03 0.  1.
     -623   -1    0    0    0    0  0.00000000000E+00  0.00000000000E+00  0.12525980253E-10  0.17130000000E+03  0.17130000000E+03 0.  1.
       11    1    1    2    0    0 -0.45328799686E+00  0.26317467046E+00 -0.98208763288E-01  0.53326929190E+00  0.51109989000E-03 0.  1.
     -623    1    1    2    0    0  0.82219770964E+00 -0.54128236245E+00  0.19970969880E+01  0.17131446930E+03  0.17130000000E+03 0.  1.
      622    1    1    2    0    0 -0.36890971278E+00  0.27810769199E+00  0.21011117427E+01  0.34522614066E+01  0.27000000000E+01 0.  1.
</event>
<event>
 5   0  0.6580500E-04  0.9118800E+02  0.7818608E-02  0.1180000E+00
       11   -1    0    0    0    0  0.00000000000E+00  0.00000000000E+00  0.39999999673E+01  0.40000000000E+01  0.51109989000E-03 0.  1.
     -623   -1    0    0    0    0  0.00000000000E+00  0.00000000000E+00  0.12525980253E-10  0.17130000000E+03  0.17130000000E+03 0.  1.
       11    1    1    2    0    0 -0.33779544402E-01  0.23432033113E+00  0.89580492162E+00  0.92656019449E+00  0.51109989000E-03 0.  1.
     -623    1    1    2    0    0 -0.74568120398E+00 -0.99633010333E+00  0.39207165100E+01  0.17134938206E+03  0.17130000000E+03 0.  1.
      622    1    1    2    0    0  0.77946074838E+00  0.76200977220E+00 -0.81652146423E+00  0.30240577463E+01  0.27000000000E+01 0.  0.
</event>
<event>
 5   0  0.6580500E-04  0.9118800E+02  0.7818608E-02  0.1180000E+00
       11   -1    0    0    0    0  0.00000000000E+00  0.00000000000E+00  0.39999999673E+01  0.40000000000E+01  0.51109989000E-03 0.  1.
     -623   -1    0    0    0    0  0.00000000000E+00  0.00000000000E+00  0.12525980253E-10  0.17130000000E+03  0.17130000000E+03 0. -1.
       11    1    1    2    0    0  0.21140221918E-01  0.55900580940E+00  0.30798639980E+00  0.63858459707E+00  0.51109989000E-03 0.  1.
     -623    1    1    2    0    0 -0.54850872748E+00  0.26382269379E+00  0.19684114917E+01  0.17131239041E+03  0.17130000000E+03 0. -1.
      622    1    1    2    0    0  0.52736850556E+00 -0.82282850319E+00  0.17236020759E+01  0.33490249928E+01  0.27000000000E+01 0.  1.
</event>
<event>
 5   0  0.6580500E-04  0.9118800E+02  0.7818608E-02  0.1180000E+00
       11   -1    0    0    0    0  0.00000000000E+00  0.00000000000E+00  0.39999999673E+01  0.40000000000E+01  0.51109989000E-03 0.  1.
     -623   -1    0    0    0    0  0.00000000000E+00  0.00000000000E+00  0.12525980253E-10  0.17130000000E+03  0.17130000000E+03 0.  1.
       11    1    1    2    0    0 -0.97797715580E-01  0.17333783170E+00  0.13090519917E+00  0.23821593033E+00  0.51109989000E-03 0.  1.
     -623    1    1    2    0    0 -0.82454383464E-01  0.98099527709E-01  0.12770493603E+01  0.17130480810E+03  0.17130000000E+03 0.  1.
      622    1    1    2    0    0  0.18025209904E+00 -0.27143735940E+00  0.25920454079E+01  0.37569759722E+01  0.27000000000E+01 0.  1.
</event>
<event>
 5   0  0.6580500E-04  0.9118800E+02  0.7818608E-02  0.1180000E+00
       11   -1    0    0    0    0  0.00000000000E+00  0.00000000000E+00  0.39999999673E+01  0.40000000000E+01  0.51109989000E-03 0.  1.
     -623   -1    0    0    0    0  0.00000000000E+00  0.00000000000E+00  0.12525980253E-10  0.17130000000E+03  0.17130000000E+03 0.  1.
       11    1    1    2    0    0  0.20550996954E+00 -0.15198572959E+00  0.34105981697E+00  0.42621129684E+00  0.51109989000E-03 0.  1.
     -623    1    1    2    0    0  0.45168811132E+00  0.47540570981E+00  0.14469592569E+01  0.17130736623E+03  0.17130000000E+03 0.  1.
      622    1    1    2    0    0 -0.65719808086E+00 -0.32341998021E+00  0.22119808935E+01  0.35664224756E+01  0.27000000000E+01 0.  1.
</event>
<event>
 5   0  0.6580500E-04  0.9118800E+02  0.7818608E-02  0.1180000E+00
       11   -1    0    0    0    0  0.00000000000E+00  0.00000000000E+00  0.39999999673E+01  0.40000000000E+01  0.51109989000E-03 0.  1.
     -623   -1    0    0    0    0  0.00000000000E+00  0.00000000000E+00  0.12525980253E-10  0.17130000000E+03  0.17130000000E+03 0.  1.
       11    1    1    2    0    0  0.10923494094E-01  0.27373733377E+00 -0.25615992024E+00  0.37505948406E+00  0.51109989000E-03 0.  1.
     -623    1    1    2    0    0 -0.38691125881E+00 -0.61214816894E+00  0.19096327120E+01  0.17131217447E+03  0.17130000000E+03 0.  1.
      622    1    1    2    0    0  0.37598776472E+00  0.33841083517E+00  0.23465271756E+01  0.36127660426E+01  0.27000000000E+01 0.  1.
</event>
<event>
 5   0  0.6580500E-04  0.9118800E+02  0.7818608E-02  0.1180000E+00
       11   -1    0    0    0    0  0.00000000000E+00  0.00000000000E+00  0.39999999673E+01  0.40000000000E+01  0.51109989000E-03 0.  1.
     -623   -1    0    0    0    0  0.00000000000E+00  0.00000000000E+00  0.12525980253E-10  0.17130000000E+03  0.17130000000E+03 0.  1.
       11    1    1    2    0    0  0.18432608748E+00 -0.85498918356E-01  0.62422957653E+00  0.65646705706E+00  0.51109989000E-03 0.  1.
     -623    1    1    2    0    0 -0.64062706532E+00  0.91543663897E-01  0.14703434580E+01  0.17130753251E+03  0.17130000000E+03 0.  1.
      622    1    1    2    0    0  0.45630097784E+00 -0.60447455416E-02  0.19054269329E+01  0.33360004373E+01  0.27000000000E+01 0.  0.
</event>
<event>
 5   0  0.6580500E-04  0.9118800E+02  0.7818608E-02  0.1180000E+00
       11   -1    0    0    0    0  0.00000000000E+00  0.00000000000E+00  0.39999999673E+01  0.40000000000E+01  0.51109989000E-03 0. -1.
     -623   -1    0    0    0    0  0.00000000000E+00  0.00000000000E+00  0.12525980253E-10  0.17130000000E+03  0.17130000000E+03 0. -1.
       11    1    1    2    0    0 -0.34464075715E-01  0.21667258275E+00  0.27621858510E-01  0.22112894184E+00  0.51109989000E-03 0. -1.
     -623    1    1    2    0    0  0.24968203225E+00  0.18342699912E+00  0.13763043849E+01  0.17130580901E+03  0.17130000000E+03 0. -1.
      622    1    1    2    0    0 -0.21521795653E+00 -0.40009958188E+00  0.25960737239E+01  0.37730620488E+01  0.27000000000E+01 0. -1.
</event>
<event>
 5   0  0.6580500E-04  0.9118800E+02  0.7818608E-02  0.1180000E+00
       11   -1    0    0    0    0  0.00000000000E+00  0.00000000000E+00  0.39999999673E+01  0.40000000000E+01  0.51109989000E-03 0.  1.
     -623   -1    0    0    0    0  0.00000000000E+00  0.00000000000E+00  0.12525980253E-10  0.17130000000E+03  0.17130000000E+03 0.  1.
       11    1    1    2    0    0 -0.18811873252E+00  0.18655763017E+00 -0.55854633422E-01  0.27076264181E+00  0.51109989000E-03 0.  1.
     -623    1    1    2    0    0  0.45234188546E+00 -0.29668825787E+00  0.15104095804E+01  0.17130751289E+03  0.17130000000E+03 0.  1.
      622    1    1    2    0    0 -0.26422315293E+00  0.11013062770E+00  0.25454450204E+01  0.37217244634E+01  0.27000000000E+01 0.  1.
</event>
<event>
 5   0  0.6580500E-04  0.9118800E+02  0.7818608E-02  0.1180000E+00
       11   -1    0    0    0    0  0.00000000000E+00  0.00000000000E+00  0.39999999673E+01  0.40000000000E+01  0.51109989000E-03 0.  1.
     -623   -1    0    0    0    0  0.00000000000E+00  0.00000000000E+00  0.12525980253E-10  0.17130000000E+03  0.17130000000E+03 0. -1.
       11    1    1    2    0    0  0.23522823277E+00  0.48046069201E+00  0.59783967513E-01  0.53828355172E+00  0.51109989000E-03 0.  1.
     -623    1    1    2    0    0 -0.13778045417E+00 -0.95572436578E+00  0.18496918877E+01  0.17131270750E+03  0.17130000000E+03 0. -1.
      622    1    1    2    0    0 -0.97447778599E-01  0.47526367376E+00  0.20905241122E+01  0.34490089436E+01  0.27000000000E+01 0.  1.
</event>
<event>
 5   0  0.6580500E-04  0.9118800E+02  0.7818608E-02  0.1180000E+00
       11   -1    0    0    0    0  0.00000000000E+00  0.00000000000E+00  0.39999999673E+01  0.40000000000E+01  0.51109989000E-03 0.  1.
     -623   -1    0    0    0    0  0.00000000000E+00  0.00000000000E+00  0.12525980253E-10  0.17130000000E+03  0.17130000000E+03 0.  1.
       11    1    1    2    0    0 -0.22343707041E+00 -0.20836231126E+00  0.17352233276E+00  0.35135343797E+00  0.51109989000E-03 0.  1.
     -623    1    1    2    0    0  0.67168504162E+00  0.63007883529E+00  0.14642336310E+01  0.17130873340E+03  0.17130000000E+03 0.  1.
      622    1    1    2    0    0 -0.44824797120E+00 -0.42171652403E+00  0.23622440036E+01  0.36399131587E+01  0.27000000000E+01 0.  1.
</event>
<event>
 5   0  0.6580500E-04  0.9118800E+02  0.7818608E-02  0.1180000E+00
       11   -1    0    0    0    0  0.00000000000E+00  0.00000000000E+00  0.39999999673E+01  0.40000000000E+01  0.51109989000E-03 0. -1.
     -623   -1    0    0    0    0  0.00000000000E+00  0.00000000000E+00  0.12525980253E-10  0.17130000000E+03  0.17130000000E+03 0. -1.
       11    1    1    2    0    0 -0.56165858537E-01  0.13506765334E+00  0.36304940204E+00  0.39141155347E+00  0.51109989000E-03 0. -1.
     -623    1    1    2    0    0  0.11638653080E+00 -0.35402100776E+00  0.12612542250E+01  0.17130504849E+03  0.17130000000E+03 0. -1.
      622    1    1    2    0    0 -0.60220672267E-01  0.21895335442E+00  0.23756963404E+01  0.36035399543E+01  0.27000000000E+01 0. -1.
</event>
<event>
 5   0  0.6580500E-04  0.9118800E+02  0.7818608E-02  0.1180000E+00
       11   -1    0    0    0    0  0.00000000000E+00  0.00000000000E+00  0.39999999673E+01  0.40000000000E+01  0.51109989000E-03 0.  1.
     -623   -1    0    0    0    0  0.00000000000E+00  0.00000000000E+00  0.12525980253E-10  0.17130000000E+03  0.17130000000E+03 0.  1.
       11    1    1    2    0    0  0.97263869833E-01 -0.16530335165E+00  0.97990023700E-02  0.19204619266E+00  0.51109989000E-03 0.  1.
     -623    1    1    2    0    0 -0.19229413418E+00  0.38126021630E+00  0.13233880404E+01  0.17130564408E+03  0.17130000000E+03 0.  1.
      622    1    1    2    0    0  0.95030264346E-01 -0.21595686465E+00  0.26668129246E+01  0.38023097313E+01  0.27000000000E+01 0.  1.
</event>
<event>
 5   0  0.6580500E-04  0.9118800E+02  0.7818608E-02  0.1180000E+00
       11   -1    0    0    0    0  0.00000000000E+00  0.00000000000E+00  0.39999999673E+01  0.40000000000E+01  0.51109989000E-03 0.  1.
     -623   -1    0    0    0    0  0.00000000000E+00  0.00000000000E+00  0.12525980253E-10  0.17130000000E+03  0.17130000000E+03 0. -1.
       11    1    1    2    0    0 -0.25308959185E+00  0.71688561767E-01  0.43120772474E-01  0.26655816181E+00  0.51109989000E-03 0.  1.
     -623    1    1    2    0    0  0.56773520849E+00  0.33123188720E+00  0.14404013092E+01  0.17130731681E+03  0.17130000000E+03 0. -1.
      622    1    1    2    0    0 -0.31464561664E+00 -0.40292044896E+00  0.25164778857E+01  0.37261250249E+01  0.27000000000E+01 0.  1.
</event>
<event>
 5   0  0.6580500E-04  0.9118800E+02  0.7818608E-02  0.1180000E+00
       11   -1    0    0    0    0  0.00000000000E+00  0.00000000000E+00  0.39999999673E+01  0.40000000000E+01  0.51109989000E-03 0.  1.
     -623   -1    0    0    0    0  0.00000000000E+00  0.00000000000E+00  0.12525980253E-10  0.17130000000E+03  0.17130000000E+03 0. -1.
       11    1    1    2    0    0 -0.32263680330E+00  0.31275725217E-01  0.37756882769E+00  0.49762552054E+00  0.51109989000E-03 0.  1.
     -623    1    1    2    0    0  0.89207940278E-01 -0.11986498599E+00  0.14149587720E+01  0.17130590893E+03  0.17130000000E+03 0. -1.
      622    1    1    2    0    0  0.23342886302E+00  0.88589260771E-01  0.22074723677E+01  0.34964655504E+01  0.27000000000E+01 0.  1.
</event>
<event>
 5   0  0.6580500E-04  0.9118800E+02  0.7818608E-02  0.1180000E+00
       11   -1    0    0    0    0  0.00000000000E+00  0.00000000000E+00  0.39999999673E+01  0.40000000000E+01  0.51109989000E-03 0.  1.
     -623   -1    0    0    0    0  0.00000000000E+00  0.00000000000E+00  0.12525980253E-10  0.17130000000E+03  0.17130000000E+03 0.  1.
       11    1    1    2    0    0 -0.33219396238E-01 -0.81894497646E-01 -0.77518447413E-01  0.11755682856E+00  0.51109989000E-03 0.  1.
     -623    1    1    2    0    0  0.30696567964E+00  0.74561408264E+00  0.13925084625E+01  0.17130755748E+03  0.17130000000E+03 0.  1.
      622    1    1    2    0    0 -0.27374628340E+00 -0.66371958499E+00  0.26850099523E+01  0.38748856963E+01  0.27000000000E+01 0.  1.
</event>
<event>
 5   0  0.6580500E-04  0.9118800E+02  0.7818608E-02  0.1180000E+00
       11   -1    0    0    0    0  0.00000000000E+00  0.00000000000E+00  0.39999999673E+01  0.40000000000E+01  0.51109989000E-03 0. -1.
     -623   -1    0    0    0    0  0.00000000000E+00  0.00000000000E+00  0.12525980253E-10  0.17130000000E+03  0.17130000000E+03 0. -1.
       11    1    1    2    0    0  0.52787016358E-01  0.72175366271E-01  0.21409767581E+00  0.23202118137E+00  0.51109989000E-03 0. -1.
     -623    1    1    2    0    0 -0.23170435807E+00 -0.12565655524E+00  0.11703422997E+01  0.17130420070E+03  0.17130000000E+03 0. -1.
      622    1    1    2    0    0  0.17891734171E+00  0.53481188971E-01  0.26155599919E+01  0.37637781183E+01  0.27000000000E+01 0. -1.
</event>
<event>
 5   0  0.6580500E-04  0.9118800E+02  0.7818608E-02  0.1180000E+00
       11   -1    0    0    0    0  0.00000000000E+00  0.00000000000E+00  0.39999999673E+01  0.40000000000E+01  0.51109989000E-03 0.  1.
     -623   -1    0    0    0    0  0.00000000000E+00  0.00000000000E+00  0.12525980253E-10  0.17130000000E+03  0.17130000000E+03 0. -1.
       11    1    1    2    0    0 -0.34303936590E+00  0.31637102546E+00 -0.14304167684E+00  0.48808586831E+00  0.51109989000E-03 0.  1.
     -623    1    1    2    0    0  0.36805108747E+00  0.15900706239E+00  0.19671645557E+01  0.17131176399E+03  0.17130000000E+03 0. -1.
      622    1    1    2    0    0 -0.25011721569E-01 -0.47537808785E+00  0.21758770885E+01  0.35001501421E+01  0.27000000000E+01 0.  1.
</event>
<event>
 5   0  0.6580500E-04  0.9118800E+02  0.7818608E-02  0.1180000E+00
       11   -1    0    0    0    0  0.00000000000E+00  0.00000000000E+00  0.39999999673E+01  0.40000000000E+01  0.51109989000E-03 0. -1.
     -623   -1    0    0    0    0  0.00000000000E+00  0.00000000000E+00  0.12525980253E-10  0.17130000000E+03  0.17130000000E+03 0.  1.
       11    1    1    2    0    0  0.33105005431E+00 -0.26433954489E+00  0.35185034558E+00  0.55069815721E+00  0.51109989000E-03 0. -1.
     -623    1    1    2    0    0 -0.15351506301E+01  0.72792874883E+00  0.19727936501E+01  0.17131978427E+03  0.17130000000E+03 0.  1.
      622    1    1    2    0    0  0.12041005758E+01 -0.46358920394E+00  0.16753559717E+01  0.34295175722E+01  0.27000000000E+01 0. -1.
</event>
<event>
 5   0  0.6580500E-04  0.9118800E+02  0.7818608E-02  0.1180000E+00
       11   -1    0    0    0    0  0.00000000000E+00  0.00000000000E+00  0.39999999673E+01  0.40000000000E+01  0.51109989000E-03 0. -1.
     -623   -1    0    0    0    0  0.00000000000E+00  0.00000000000E+00  0.12525980253E-10  0.17130000000E+03  0.17130000000E+03 0.  1.
       11    1    1    2    0    0  0.19120584814E+00 -0.19858714785E+00  0.31868108316E+00  0.42137207506E+00  0.51109989000E-03 0. -1.
     -623    1    1    2    0    0 -0.65375761700E+00  0.58272657950E+00  0.14237183407E+01  0.17130815492E+03  0.17130000000E+03 0.  1.
      622    1    1    2    0    0  0.46255176885E+00 -0.38413943165E+00  0.22576005435E+01  0.35704730017E+01  0.27000000000E+01 0. -1.
</event>
<event>
 5   0  0.6580500E-04  0.9118800E+02  0.7818608E-02  0.1180000E+00
       11   -1    0    0    0    0  0.00000000000E+00  0.00000000000E+00  0.39999999673E+01  0.40000000000E+01  0.51109989000E-03 0.  1.
     -623   -1    0    0    0    0  0.00000000000E+00  0.00000000000E+00  0.12525980253E-10  0.17130000000E+03  0.17130000000E+03 0.  1.
       11    1    1    2    0    0 -0.21033812697E-01  0.15194714839E+00  0.15040467543E+00  0.21483059557E+00  0.51109989000E-03 0.  1.
     -623    1    1    2    0    0  0.38923669241E-01 -0.79722445453E+00  0.12863533372E+01  0.17130668926E+03  0.17130000000E+03 0.  1.
      622    1    1    2    0    0 -0.17889856544E-01  0.64527730614E+00  0.25632419547E+01  0.37784801398E+01  0.27000000000E+01 0.  1.
</event>
<event>
 5   0  0.6580500E-04  0.9118800E+02  0.7818608E-02  0.1180000E+00
       11   -1    0    0    0    0  0.00000000000E+00  0.00000000000E+00  0.39999999673E+01  0.40000000000E+01  0.51109989000E-03 0.  1.
     -623   -1    0    0    0    0  0.00000000000E+00  0.00000000000E+00  0.12525980253E-10  0.17130000000E+03  0.17130000000E+03 0. -1.
       11    1    1    2    0    0 -0.14201099273E-01  0.36656739616E-01 -0.53756536693E-01  0.66598905682E-01  0.51109989000E-03 0.  1.
     -623    1    1    2    0    0  0.22134259656E+00  0.21024080450E+00  0.12179857188E+01  0.17130460205E+03  0.17130000000E+03 0. -1.
      622    1    1    2    0    0 -0.20714149729E+00 -0.24689754412E+00  0.28357707852E+01  0.39287990459E+01  0.27000000000E+01 0.  1.
</event>
<event>
 5   0  0.6580500E-04  0.9118800E+02  0.7818608E-02  0.1180000E+00
       11   -1    0    0    0    0  0.00000000000E+00  0.00000000000E+00  0.39999999673E+01  0.40000000000E+01  0.51109989000E-03 0.  1.
     -623   -1    0    0    0    0  0.00000000000E+00  0.00000000000E+00  0.12525980253E-10  0.17130000000E+03  0.17130000000E+03 0.  1.
       11    1    1    2    0    0 -0.55764016360E-01  0.18013285109E+00  0.65414742268E-01  0.19959163131E+00  0.51109989000E-03 0.  1.
     -623    1    1    2    0    0 -0.95942425593E-01 -0.74112705167E+00  0.13339012655E+01  0.17130682347E+03  0.17130000000E+03 0.  1.
      622    1    1    2    0    0  0.15170644195E+00  0.56099420058E+00  0.26006839596E+01  0.37935849003E+01  0.27000000000E+01 0.  1.
</event>
<event>
 5   0  0.6580500E-04  0.9118800E+02  0.7818608E-02  0.1180000E+00
       11   -1    0    0    0    0  0.00000000000E+00  0.00000000000E+00  0.39999999673E+01  0.40000000000E+01  0.51109989000E-03 0.  1.
     -623   -1    0    0    0    0  0.00000000000E+00  0.00000000000E+00  0.12525980253E-10  0.17130000000E+03  0.17130000000E+03 0.  1.
       11    1    1    2    0    0  0.47088837379E-01 -0.38725306573E-01  0.13986216114E-01  0.62553045003E-01  0.51109989000E-03 0.  1.
     -623    1    1    2    0    0  0.14798589094E+00  0.44132253470E-01  0.11319959437E+01  0.17130380983E+03  0.17130000000E+03 0.  1.
      622    1    1    2    0    0 -0.19507472832E+00 -0.54069468980E-02  0.28540178076E+01  0.39336371249E+01  0.27000000000E+01 0.  1.
</event>
<event>
 5   0  0.6580500E-04  0.9118800E+02  0.7818608E-02  0.1180000E+00
       11   -1    0    0    0    0  0.00000000000E+00  0.00000000000E+00  0.39999999673E+01  0.40000000000E+01  0.51109989000E-03 0.  1.
     -623   -1    0    0    0    0  0.00000000000E+00  0.00000000000E+00  0.12525980253E-10  0.17130000000E+03  0.17130000000E+03 0. -1.
       11    1    1    2    0    0 -0.67936340675E+00 -0.27097407802E+00  0.16475317291E+00  0.74973692626E+00  0.51109989000E-03 0.  1.
     -623    1    1    2    0    0  0.71597604601E+00  0.16742545587E+00  0.20542309499E+01  0.17131389470E+03  0.17130000000E+03 0. -1.
      622    1    1    2    0    0 -0.36612639265E-01  0.10354862216E+00  0.17810158446E+01  0.32363683723E+01  0.27000000000E+01 0.  1.
</event>
<event>
 5   0  0.6580500E-04  0.9118800E+02  0.7818608E-02  0.1180000E+00
       11   -1    0    0    0    0  0.00000000000E+00  0.00000000000E+00  0.39999999673E+01  0.40000000000E+01  0.51109989000E-03 0. -1.
     -623   -1    0    0    0    0  0.00000000000E+00  0.00000000000E+00  0.12525980253E-10  0.17130000000E+03  0.17130000000E+03 0.  1.
       11    1    1    2    0    0 -0.45774779017E+00 -0.24805057965E+00  0.56181538330E-02  0.52066683623E+00  0.51109989000E-03 0. -1.
     -623    1    1    2    0    0  0.93513156041E+00 -0.69492290738E+00  0.21018562353E+01  0.17131685611E+03  0.17130000000E+03 0.  1.
      622    1    1    2    0    0 -0.47738377024E+00  0.94297348703E+00  0.18925255782E+01  0.34624770506E+01  0.27000000000E+01 0.  1.
</event>
<event>
 5   0  0.6580500E-04  0.9118800E+02  0.7818608E-02  0.1180000E+00
       11   -1    0    0    0    0  0.00000000000E+00  0.00000000000E+00  0.39999999673E+01  0.40000000000E+01  0.51109989000E-03 0. -1.
     -623   -1    0    0    0    0  0.00000000000E+00  0.00000000000E+00  0.12525980253E-10  0.17130000000E+03  0.17130000000E+03 0.  1.
       11    1    1    2    0    0  0.39914659015E+00  0.49550085394E+00  0.39558802159E+00  0.74921908727E+00  0.51109989000E-03 0. -1.
     -623    1    1    2    0    0 -0.79986465400E+00 -0.27578847202E-01  0.19264271814E+01  0.17131270141E+03  0.17130000000E+03 0.  1.
      622    1    1    2    0    0  0.40071806384E+00 -0.46792200673E+00  0.16779847644E+01  0.32380794988E+01  0.27000000000E+01 0. -1.
</event>
<event>
 5   0  0.6580500E-04  0.9118800E+02  0.7818608E-02  0.1180000E+00
       11   -1    0    0    0    0  0.00000000000E+00  0.00000000000E+00  0.39999999673E+01  0.40000000000E+01  0.51109989000E-03 0. -1.
     -623   -1    0    0    0    0  0.00000000000E+00  0.00000000000E+00  0.12525980253E-10  0.17130000000E+03  0.17130000000E+03 0. -1.
       11    1    1    2    0    0  0.26374327771E+00 -0.50369480366E+00  0.33269557370E+00  0.65875304762E+00  0.51109989000E-03 0. -1.
     -623    1    1    2    0    0  0.29106003093E+00 -0.41956113938E+00  0.20464649171E+01  0.17131298481E+03  0.17130000000E+03 0. -1.
      622    1    1    2    0    0 -0.55480330863E+00  0.92325594305E+00  0.16208394766E+01  0.33282621376E+01  0.27000000000E+01 0.  0.
</event>
<event>
 5   0  0.6580500E-04  0.9118800E+02  0.7818608E-02  0.1180000E+00
       11   -1    0    0    0    0  0.00000000000E+00  0.00000000000E+00  0.39999999673E+01  0.40000000000E+01  0.51109989000E-03 0. -1.
     -623   -1    0    0    0    0  0.00000000000E+00  0.00000000000E+00  0.12525980253E-10  0.17130000000E+03  0.17130000000E+03 0. -1.
       11    1    1    2    0    0 -0.56592639588E+00 -0.44003856632E+00 -0.13393639393E+00  0.72927761809E+00  0.51109989000E-03 0. -1.
     -623    1    1    2    0    0  0.35959520003E+00 -0.22470954669E+00  0.24592452341E+01  0.17131817677E+03  0.17130000000E+03 0. -1.
      622    1    1    2    0    0  0.20633119586E+00  0.66474811300E+00  0.16746911272E+01  0.32525456165E+01  0.27000000000E+01 0. -1.
</event>
<event>
 5   0  0.6580500E-04  0.9118800E+02  0.7818608E-02  0.1180000E+00
       11   -1    0    0    0    0  0.00000000000E+00  0.00000000000E+00  0.39999999673E+01  0.40000000000E+01  0.51109989000E-03 0. -1.
     -623   -1    0    0    0    0  0.00000000000E+00  0.00000000000E+00  0.12525980253E-10  0.17130000000E+03  0.17130000000E+03 0.  1.
       11    1    1    2    0    0  0.49716499951E-01  0.25396278488E+00 -0.38482918678E-01  0.26162955247E+00  0.51109989000E-03 0. -1.
     -623    1    1    2    0    0 -0.32696109274E+00  0.19418075418E+00  0.15177004587E+01  0.17130714528E+03  0.17130000000E+03 0.  1.
      622    1    1    2    0    0  0.27724459279E+00 -0.44814353906E+00  0.25207824273E+01  0.37312251663E+01  0.27000000000E+01 0. -1.
</event>
<event>
 5   0  0.6580500E-04  0.9118800E+02  0.7818608E-02  0.1180000E+00
       11   -1    0    0    0    0  0.00000000000E+00  0.00000000000E+00  0.39999999673E+01  0.40000000000E+01  0.51109989000E-03 0.  1.
     -623   -1    0    0    0    0  0.00000000000E+00  0.00000000000E+00  0.12525980253E-10  0.17130000000E+03  0.17130000000E+03 0. -1.
       11    1    1    2    0    0  0.17827502602E+00 -0.23117745081E+00  0.14020061474E+00  0.32385409100E+00  0.51109989000E-03 0.  1.
     -623    1    1    2    0    0 -0.43254904743E+00  0.69534476903E+00  0.14337947819E+01  0.17130795770E+03  0.17130000000E+03 0. -1.
      622    1    1    2    0    0  0.25427402141E+00 -0.46416731822E+00  0.24260045708E+01  0.36681882115E+01  0.27000000000E+01 0.  1.
</event>
<event>
 5   0  0.6580500E-04  0.9118800E+02  0.7818608E-02  0.1180000E+00
       11   -1    0    0    0    0  0.00000000000E+00  0.00000000000E+00  0.39999999673E+01  0.40000000000E+01  0.51109989000E-03 0. -1.
     -623   -1    0    0    0    0  0.00000000000E+00  0.00000000000E+00  0.12525980253E-10  0.17130000000E+03  0.17130000000E+03 0.  1.
       11    1    1    2    0    0 -0.89714481494E-01 -0.14655717459E+00  0.31999443877E-01  0.17479107312E+00  0.51109989000E-03 0. -1.
     -623    1    1    2    0    0  0.29668168933E+00  0.10195587494E+01  0.14250062695E+01  0.17130921797E+03  0.17130000000E+03 0.  1.
      622    1    1    2    0    0 -0.20696720783E+00 -0.87300157484E+00  0.25429942540E+01  0.38159909527E+01  0.27000000000E+01 0. -1.
</event>
<event>
 5   0  0.6580500E-04  0.9118800E+02  0.7818608E-02  0.1180000E+00
       11   -1    0    0    0    0  0.00000000000E+00  0.00000000000E+00  0.39999999673E+01  0.40000000000E+01  0.51109989000E-03 0. -1.
     -623   -1    0    0    0    0  0.00000000000E+00  0.00000000000E+00  0.12525980253E-10  0.17130000000E+03  0.17130000000E+03 0.  1.
       11    1    1    2    0    0 -0.30371520881E+00  0.45720368165E+00  0.13240001857E+00  0.56463099518E+00  0.51109989000E-03 0. -1.
     -623    1    1    2    0    0  0.24144424381E+00 -0.68377961806E+00  0.17740381527E+01  0.17131072080E+03  0.17130000000E+03 0.  1.
      622    1    1    2    0    0  0.62270965001E-01  0.22657593642E+00  0.20935617961E+01  0.34246482041E+01  0.27000000000E+01 0. -1.
</event>
<event>
 5   0  0.6580500E-04  0.9118800E+02  0.7818608E-02  0.1180000E+00
       11   -1    0    0    0    0  0.00000000000E+00  0.00000000000E+00  0.39999999673E+01  0.40000000000E+01  0.51109989000E-03 0. -1.
     -623   -1    0    0    0    0  0.00000000000E+00  0.00000000000E+00  0.12525980253E-10  0.17130000000E+03  0.17130000000E+03 0. -1.
       11    1    1    2    0    0  0.62275267693E-01  0.70608306326E-01  0.33090422132E-01  0.99794684971E-01  0.51109989000E-03 0. -1.
     -623    1    1    2    0    0 -0.28098347711E+00  0.48920230415E+00  0.12248290329E+01  0.17130530779E+03  0.17130000000E+03 0. -1.
      622    1    1    2    0    0  0.21870820941E+00 -0.55981061047E+00  0.27420805123E+01  0.38948975258E+01  0.27000000000E+01 0. -1.
</event>
<event>
 5   0  0.6580500E-04  0.9118800E+02  0.7818608E-02  0.1180000E+00
       11   -1    0    0    0    0  0.00000000000E+00  0.00000000000E+00  0.39999999673E+01  0.40000000000E+01  0.51109989000E-03 0.  1.
     -623   -1    0    0    0    0  0.00000000000E+00  0.00000000000E+00  0.12525980253E-10  0.17130000000E+03  0.17130000000E+03 0.  1.
       11    1    1    2    0    0  0.83554756503E-01 -0.12036620119E+00  0.13045776920E+00  0.19618590799E+00  0.51109989000E-03 0.  1.
     -623    1    1    2    0    0 -0.71345875044E+00  0.26592332034E+00  0.12788104446E+01  0.17130646542E+03  0.17130000000E+03 0.  1.
      622    1    1    2    0    0  0.62990399394E+00 -0.14555711915E+00  0.25907317536E+01  0.37973486718E+01  0.27000000000E+01 0.  1.
</event>
<event>
 5   0  0.6580500E-04  0.9118800E+02  0.7818608E-02  0.1180000E+00
       11   -1    0    0    0    0  0.00000000000E+00  0.00000000000E+00  0.39999999673E+01  0.40000000000E+01  0.51109989000E-03 0. -1.
     -623   -1    0    0    0    0  0.00000000000E+00  0.00000000000E+00  0.12525980253E-10  0.17130000000E+03  0.17130000000E+03 0.  1.
       11    1    1    2    0    0 -0.74496982542E-02 -0.10006824606E+00  0.16698297330E+00  0.19481459511E+00  0.51109989000E-03 0. -1.
     -623    1    1    2    0    0  0.10732866359E+00  0.92087788109E+00  0.12934240961E+01  0.17130739179E+03  0.17130000000E+03 0. -1.
      622    1    1    2    0    0 -0.99878965335E-01 -0.82080963503E+00  0.25395928980E+01  0.37977936163E+01  0.27000000000E+01 0. -1.
</event>
<event>
 5   0  0.6580500E-04  0.9118800E+02  0.7818608E-02  0.1180000E+00
       11   -1    0    0    0    0  0.00000000000E+00  0.00000000000E+00  0.39999999673E+01  0.40000000000E+01  0.51109989000E-03 0.  1.
     -623   -1    0    0    0    0  0.00000000000E+00  0.00000000000E+00  0.12525980253E-10  0.17130000000E+03  0.17130000000E+03 0. -1.
       11    1    1    2    0    0 -0.41951975229E+00  0.24447456000E-02  0.40687312209E+00  0.58442176383E+00  0.51109989000E-03 0.  1.
     -623    1    1    2    0    0  0.43811759659E+00 -0.85245830687E-01  0.15148343192E+01  0.17130727929E+03  0.17130000000E+03 0. -1.
      622    1    1    2    0    0 -0.18597844307E-01  0.82801085087E-01  0.20782925260E+01  0.34082989486E+01  0.27000000000E+01 0.  1.
</event>
<event>
 5   0  0.6580500E-04  0.9118800E+02  0.7818608E-02  0.1180000E+00
       11   -1    0    0    0    0  0.00000000000E+00  0.00000000000E+00  0.39999999673E+01  0.40000000000E+01  0.51109989000E-03 0.  1.
     -623   -1    0    0    0    0  0.00000000000E+00  0.00000000000E+00  0.12525980253E-10  0.17130000000E+03  0.17130000000E+03 0.  1.
       11    1    1    2    0    0 -0.24598498096E+00 -0.45232563787E+00  0.16008674319E+00  0.53919859060E+00  0.51109989000E-03 0.  1.
     -623    1    1    2    0    0 -0.88542458488E-01  0.64602346301E-01  0.17511834136E+01  0.17130898592E+03  0.17130000000E+03 0.  1.
      622    1    1    2    0    0  0.33452743945E+00  0.38772329157E+00  0.20887298106E+01  0.34518154905E+01  0.27000000000E+01 0.  1.
</event>
<event>
 5   0  0.6580500E-04  0.9118800E+02  0.7818608E-02  0.1180000E+00
       11   -1    0    0    0    0  0.00000000000E+00  0.00000000000E+00  0.39999999673E+01  0.40000000000E+01  0.51109989000E-03 0.  1.
     -623   -1    0    0    0    0  0.00000000000E+00  0.00000000000E+00  0.12525980253E-10  0.17130000000E+03  0.17130000000E+03 0. -1.
       11    1    1    2    0    0 -0.16665353484E+00 -0.18965149942E+00  0.22390174506E+00  0.33745124769E+00  0.51109989000E-03 0.  1.
     -623    1    1    2    0    0  0.16381690639E+00 -0.72907526481E+00  0.14911953694E+01  0.17130812021E+03  0.17130000000E+03 0. -1.
      622    1    1    2    0    0  0.28366284449E-02  0.91872676423E+00  0.22849028529E+01  0.36544285409E+01  0.27000000000E+01 0.  1.
</event>
<event>
 5   0  0.6580500E-04  0.9118800E+02  0.7818608E-02  0.1180000E+00
       11   -1    0    0    0    0  0.00000000000E+00  0.00000000000E+00  0.39999999673E+01  0.40000000000E+01  0.51109989000E-03 0.  1.
     -623   -1    0    0    0    0  0.00000000000E+00  0.00000000000E+00  0.12525980253E-10  0.17130000000E+03  0.17130000000E+03 0. -1.
       11    1    1    2    0    0 -0.33829801276E+00  0.33359626850E+00  0.27319596258E+00  0.54805867476E+00  0.51109989000E-03 0.  1.
     -623    1    1    2    0    0  0.47437237424E-01 -0.31066978615E+00  0.16086206641E+01  0.17130784111E+03  0.17130000000E+03 0. -1.
      622    1    1    2    0    0  0.29086077533E+00 -0.22926482347E-01  0.21181833407E+01  0.34441002133E+01  0.27000000000E+01 0.  1.
</event>
<event>
 5   0  0.6580500E-04  0.9118800E+02  0.7818608E-02  0.1180000E+00
       11   -1    0    0    0    0  0.00000000000E+00  0.00000000000E+00  0.39999999673E+01  0.40000000000E+01  0.51109989000E-03 0. -1.
     -623   -1    0    0    0    0  0.00000000000E+00  0.00000000000E+00  0.12525980253E-10  0.17130000000E+03  0.17130000000E+03 0. -1.
       11    1    1    2    0    0  0.67817007376E-01 -0.21160249759E+00  0.16910198796E+00  0.27923199500E+00  0.51109989000E-03 0. -1.
     -623    1    1    2    0    0 -0.16524639212E+00  0.36556134591E+00  0.12850021552E+01  0.17130528939E+03  0.17130000000E+03 0. -1.
      622    1    1    2    0    0  0.97429384744E-01 -0.15395884832E+00  0.25458958242E+01  0.37154786179E+01  0.27000000000E+01 0. -1.
</event>
<event>
 5   0  0.6580500E-04  0.9118800E+02  0.7818608E-02  0.1180000E+00
       11   -1    0    0    0    0  0.00000000000E+00  0.00000000000E+00  0.39999999673E+01  0.40000000000E+01  0.51109989000E-03 0.  1.
     -623   -1    0    0    0    0  0.00000000000E+00  0.00000000000E+00  0.12525980253E-10  0.17130000000E+03  0.17130000000E+03 0. -1.
       11    1    1    2    0    0  0.14765427320E-02 -0.15197220373E+00  0.12662093502E+00  0.19781519985E+00  0.51109989000E-03 0.  1.
     -623    1    1    2    0    0 -0.27590984622E+00  0.41369307777E+00  0.12307066266E+01  0.17130514268E+03  0.17130000000E+03 0. -1.
      622    1    1    2    0    0  0.27443330349E+00 -0.26172087404E+00  0.26426724057E+01  0.37970421248E+01  0.27000000000E+01 0.  1.
</event>
<event>
 5   0  0.6580500E-04  0.9118800E+02  0.7818608E-02  0.1180000E+00
       11   -1    0    0    0    0  0.00000000000E+00  0.00000000000E+00  0.39999999673E+01  0.40000000000E+01  0.51109989000E-03 0. -1.
     -623   -1    0    0    0    0  0.00000000000E+00  0.00000000000E+00  0.12525980253E-10  0.17130000000E+03  0.17130000000E+03 0. -1.
       11    1    1    2    0    0 -0.26841353224E+00 -0.10066732235E+00  0.80971683105E-01  0.29788657030E+00  0.51109989000E-03 0. -1.
     -623    1    1    2    0    0  0.67572659245E+00  0.57417170195E+00  0.14774215527E+01  0.17130866602E+03  0.17130000000E+03 0. -1.
      622    1    1    2    0    0 -0.40731306021E+00 -0.47350437961E+00  0.24416067316E+01  0.36934474083E+01  0.27000000000E+01 0. -1.
</event>
<event>
 5   0  0.6580500E-04  0.9118800E+02  0.7818608E-02  0.1180000E+00
       11   -1    0    0    0    0  0.00000000000E+00  0.00000000000E+00  0.39999999673E+01  0.40000000000E+01  0.51109989000E-03 0.  1.
     -623   -1    0    0    0    0  0.00000000000E+00  0.00000000000E+00  0.12525980253E-10  0.17130000000E+03  0.17130000000E+03 0.  1.
       11    1    1    2    0    0  0.79694046621E-01  0.15673261239E+00  0.44379816761E-01  0.18134520178E+00  0.51109989000E-03 0.  1.
     -623    1    1    2    0    0 -0.46010169015E+00 -0.55898087616E+00  0.13221811716E+01  0.17130663244E+03  0.17130000000E+03 0.  1.
      622    1    1    2    0    0  0.38040764352E+00  0.40224826377E+00  0.26334389790E+01  0.38120223632E+01  0.27000000000E+01 0.  1.
</event>
<event>
 5   0  0.6580500E-04  0.9118800E+02  0.7818608E-02  0.1180000E+00
       11   -1    0    0    0    0  0.00000000000E+00  0.00000000000E+00  0.39999999673E+01  0.40000000000E+01  0.51109989000E-03 0.  1.
     -623   -1    0    0    0    0  0.00000000000E+00  0.00000000000E+00  0.12525980253E-10  0.17130000000E+03  0.17130000000E+03 0. -1.
       11    1    1    2    0    0 -0.96793097606E-01  0.22247177517E+00  0.62599365645E-01  0.25056243991E+00  0.51109989000E-03 0.  1.
     -623    1    1    2    0    0  0.22872043061E+00  0.30138401158E+00  0.14015851814E+01  0.17130615163E+03  0.17130000000E+03 0. -1.
      622    1    1    2    0    0 -0.13192733300E+00 -0.52385578676E+00  0.25358154203E+01  0.37432859298E+01  0.27000000000E+01 0.  1.
</event>
<event>
 5   0  0.6580500E-04  0.9118800E+02  0.7818608E-02  0.1180000E+00
       11   -1    0    0    0    0  0.00000000000E+00  0.00000000000E+00  0.39999999673E+01  0.40000000000E+01  0.51109989000E-03 0. -1.
     -623   -1    0    0    0    0  0.00000000000E+00  0.00000000000E+00  0.12525980253E-10  0.17130000000E+03  0.17130000000E+03 0.  1.
       11    1    1    2    0    0  0.41130251102E+00 -0.79416792268E-01  0.60974356086E+00  0.73977310960E+00  0.51109989000E-03 0. -1.
     -623    1    1    2    0    0 -0.41118663233E+00 -0.33824252982E+00  0.16270388814E+01  0.17130855419E+03  0.17130000000E+03 0.  1.
      622    1    1    2    0    0 -0.11587868600E-03  0.41765932208E+00  0.17632175251E+01  0.32516727024E+01  0.27000000000E+01 0. -1.
</event>
<event>
 5   0  0.6580500E-04  0.9118800E+02  0.7818608E-02  0.1180000E+00
       11   -1    0    0    0    0  0.00000000000E+00  0.00000000000E+00  0.39999999673E+01  0.40000000000E+01  0.51109989000E-03 0.  1.
     -623   -1    0    0    0    0  0.00000000000E+00  0.00000000000E+00  0.12525980253E-10  0.17130000000E+03  0.17130000000E+03 0. -1.
       11    1    1    2    0    0 -0.31842875724E+00 -0.12538017748E-01  0.25877327741E-01  0.31972483895E+00  0.51109989000E-03 0.  1.
     -623    1    1    2    0    0  0.30401510934E+00  0.10550201637E+00  0.14849415339E+01  0.17130673836E+03  0.17130000000E+03 0. -1.
      622    1    1    2    0    0  0.14413647902E-01 -0.92963998626E-01  0.24891811058E+01  0.36735368020E+01  0.27000000000E+01 0.  1.
</event>
<event>
 5   0  0.6580500E-04  0.9118800E+02  0.7818608E-02  0.1180000E+00
       11   -1    0    0    0    0  0.00000000000E+00  0.00000000000E+00  0.39999999673E+01  0.40000000000E+01  0.51109989000E-03 0. -1.
     -623   -1    0    0    0    0  0.00000000000E+00  0.00000000000E+00  0.12525980253E-10  0.17130000000E+03  0.17130000000E+03 0.  1.
       11    1    1    2    0    0  0.20802415015E+00  0.81497539354E-01  0.19070291604E+00  0.29374097327E+00  0.51109989000E-03 0. -1.
     -623    1    1    2    0    0 -0.58802808601E+00  0.33408575817E-01  0.13104723666E+01  0.17130602509E+03  0.17130000000E+03 0.  1.
      622    1    1    2    0    0  0.38000393586E+00 -0.11490611517E+00  0.24988246847E+01  0.37002339401E+01  0.27000000000E+01 0. -1.
</event>
<event>
 5   0  0.6580500E-04  0.9118800E+02  0.7818608E-02  0.1180000E+00
       11   -1    0    0    0    0  0.00000000000E+00  0.00000000000E+00  0.39999999673E+01  0.40000000000E+01  0.51109989000E-03 0. -1.
     -623   -1    0    0    0    0  0.00000000000E+00  0.00000000000E+00  0.12525980253E-10  0.17130000000E+03  0.17130000000E+03 0. -1.
       11    1    1    2    0    0 -0.12034846274E+00 -0.74195095100E-01  0.39328211830E-02  0.14143688672E+00  0.51109989000E-03 0. -1.
     -623    1    1    2    0    0 -0.24004554368E+00 -0.95849724318E-01  0.12754817029E+01  0.17130494349E+03  0.17130000000E+03 0. -1.
      622    1    1    2    0    0  0.36039400642E+00  0.17004481942E+00  0.27205854433E+01  0.38536196277E+01  0.27000000000E+01 0. -1.
</event>
<event>
 5   0  0.6580500E-04  0.9118800E+02  0.7818608E-02  0.1180000E+00
       11   -1    0    0    0    0  0.00000000000E+00  0.00000000000E+00  0.39999999673E+01  0.40000000000E+01  0.51109989000E-03 0. -1.
     -623   -1    0    0    0    0  0.00000000000E+00  0.00000000000E+00  0.12525980253E-10  0.17130000000E+03  0.17130000000E+03 0.  1.
       11    1    1    2    0    0  0.35271431827E-02 -0.16959619453E-02 -0.12008567792E+00  0.12015052347E+00  0.51109989000E-03 0. -1.
     -623    1    1    2    0    0  0.32695893335E-01 -0.43357352814E-01  0.13417632827E+01  0.17130526343E+03  0.17130000000E+03 0.  1.
      622    1    1    2    0    0 -0.36223036517E-01  0.45053314759E-01  0.27783223626E+01  0.38745860501E+01  0.27000000000E+01 0. -1.
</event>
<event>
 5   0  0.6580500E-04  0.9118800E+02  0.7818608E-02  0.1180000E+00
       11   -1    0    0    0    0  0.00000000000E+00  0.00000000000E+00  0.39999999673E+01  0.40000000000E+01  0.51109989000E-03 0. -1.
     -623   -1    0    0    0    0  0.00000000000E+00  0.00000000000E+00  0.12525980253E-10  0.17130000000E+03  0.17130000000E+03 0. -1.
       11    1    1    2    0    0  0.12786074462E+00 -0.88940281169E-01  0.13649125963E+00  0.20709627908E+00  0.51109989000E-03 0. -1.
     -623    1    1    2    0    0  0.31917129832E-01  0.74979833695E+00  0.12975486916E+01  0.17130655810E+03  0.17130000000E+03 0. -1.
      622    1    1    2    0    0 -0.15977787445E+00 -0.66085805578E+00  0.25659600162E+01  0.37863456186E+01  0.27000000000E+01 0. -1.
</event>
<event>
 5   0  0.6580500E-04  0.9118800E+02  0.7818608E-02  0.1180000E+00
       11   -1    0    0    0    0  0.00000000000E+00  0.00000000000E+00  0.39999999673E+01  0.40000000000E+01  0.51109989000E-03 0. -1.
     -623   -1    0    0    0    0  0.00000000000E+00  0.00000000000E+00  0.12525980253E-10  0.17130000000E+03  0.17130000000E+03 0.  1.
       11    1    1    2    0    0  0.32637980413E+00  0.27141831821E+00  0.34179606017E+00  0.54499219075E+00  0.51109989000E-03 0. -1.
     -623    1    1    2    0    0 -0.45413936194E+00  0.37862948398E+00  0.16214932917E+01  0.17130869459E+03  0.17130000000E+03 0.  1.
      622    1    1    2    0    0  0.12775955781E+00 -0.65004780219E+00  0.20367106155E+01  0.34463132157E+01  0.27000000000E+01 0. -1.
</event>
<event>
 5   0  0.6580500E-04  0.9118800E+02  0.7818608E-02  0.1180000E+00
       11   -1    0    0    0    0  0.00000000000E+00  0.00000000000E+00  0.39999999673E+01  0.40000000000E+01  0.51109989000E-03 0.  1.
     -623   -1    0    0    0    0  0.00000000000E+00  0.00000000000E+00  0.12525980253E-10  0.17130000000E+03  0.17130000000E+03 0.  1.
       11    1    1    2    0    0  0.20171173099E+00 -0.37733194539E-01  0.24101782698E+00  0.31654584270E+00  0.51109989000E-03 0.  1.
     -623    1    1    2    0    0  0.56275747854E+00  0.46902024220E-01  0.13829778683E+01  0.17130651337E+03  0.17130000000E+03 0.  1.
      622    1    1    2    0    0 -0.76446920953E+00 -0.91688296807E-02  0.23760042721E+01  0.36769407856E+01  0.27000000000E+01 0.  1.
</event>
<event>
 5   0  0.6580500E-04  0.9118800E+02  0.7818608E-02  0.1180000E+00
       11   -1    0    0    0    0  0.00000000000E+00  0.00000000000E+00  0.39999999673E+01  0.40000000000E+01  0.51109989000E-03 0.  1.
     -623   -1    0    0    0    0  0.00000000000E+00  0.00000000000E+00  0.12525980253E-10  0.17130000000E+03  0.17130000000E+03 0.  1.
       11    1    1    2    0    0  0.19525626861E-01  0.45109511488E-01 -0.16749132800E-01  0.51931809151E-01  0.51109989000E-03 0.  1.
     -623    1    1    2    0    0 -0.31933917206E+00  0.25511023056E+00  0.11739281960E+01  0.17130451006E+03  0.17130000000E+03 0.  1.
      622    1    1    2    0    0  0.29981354520E+00 -0.30021974205E+00  0.28428209042E+01  0.39435581330E+01  0.27000000000E+01 0.  1.
</event>
<event>
 5   0  0.6580500E-04  0.9118800E+02  0.7818608E-02  0.1180000E+00
       11   -1    0    0    0    0  0.00000000000E+00  0.00000000000E+00  0.39999999673E+01  0.40000000000E+01  0.51109989000E-03 0.  1.
     -623   -1    0    0    0    0  0.00000000000E+00  0.00000000000E+00  0.12525980253E-10  0.17130000000E+03  0.17130000000E+03 0. -1.
       11    1    1    2    0    0 -0.10244640889E+00 -0.23708068059E+00  0.52882285718E-01  0.26362722388E+00  0.51109989000E-03 0.  1.
     -623    1    1    2    0    0 -0.25994287916E+00  0.26366951067E+00  0.13990193466E+01  0.17130611299E+03  0.17130000000E+03 0. -1.
      622    1    1    2    0    0  0.36238928805E+00 -0.26588830075E-01  0.25480983351E+01  0.37302597882E+01  0.27000000000E+01 0.  1.
</event>
<event>
 5   0  0.6580500E-04  0.9118800E+02  0.7818608E-02  0.1180000E+00
       11   -1    0    0    0    0  0.00000000000E+00  0.00000000000E+00  0.39999999673E+01  0.40000000000E+01  0.51109989000E-03 0.  1.
     -623   -1    0    0    0    0  0.00000000000E+00  0.00000000000E+00  0.12525980253E-10  0.17130000000E+03  0.17130000000E+03 0. -1.
       11    1    1    2    0    0  0.15580594143E-02  0.26352255395E+00  0.16882521007E-01  0.26406787901E+00  0.51109989000E-03 0.  1.
     -623    1    1    2    0    0 -0.15038150245E+00 -0.66473225799E+00  0.14477104121E+01  0.17130747313E+03  0.17130000000E+03 0. -1.
      622    1    1    2    0    0  0.14882344304E+00  0.40120970404E+00  0.25354070342E+01  0.37284589944E+01  0.27000000000E+01 0.  1.
</event>
<event>
 5   0  0.6580500E-04  0.9118800E+02  0.7818608E-02  0.1180000E+00
       11   -1    0    0    0    0  0.00000000000E+00  0.00000000000E+00  0.39999999673E+01  0.40000000000E+01  0.51109989000E-03 0. -1.
     -623   -1    0    0    0    0  0.00000000000E+00  0.00000000000E+00  0.12525980253E-10  0.17130000000E+03  0.17130000000E+03 0. -1.
       11    1    1    2    0    0 -0.24443905322E+00 -0.20468824094E-02 -0.14400506084E+00  0.28371175379E+00  0.51109989000E-03 0. -1.
     -623    1    1    2    0    0 -0.34244209045E+00  0.43072219253E+00  0.17103524713E+01  0.17130942208E+03  0.17130000000E+03 0. -1.
      622    1    1    2    0    0  0.58688114367E+00 -0.42867531012E+00  0.24336525569E+01  0.37068661651E+01  0.27000000000E+01 0. -1.
</event>
<event>
 5   0  0.6580500E-04  0.9118800E+02  0.7818608E-02  0.1180000E+00
       11   -1    0    0    0    0  0.00000000000E+00  0.00000000000E+00  0.39999999673E+01  0.40000000000E+01  0.51109989000E-03 0. -1.
     -623   -1    0    0    0    0  0.00000000000E+00  0.00000000000E+00  0.12525980253E-10  0.17130000000E+03  0.17130000000E+03 0. -1.
       11    1    1    2    0    0 -0.82120197645E-01  0.92222801829E-02  0.17945523194E+00  0.19756826366E+00  0.51109989000E-03 0. -1.
     -623    1    1    2    0    0  0.56391272824E+00  0.13742505022E+00  0.11984221902E+01  0.17130517534E+03  0.17130000000E+03 0. -1.
      622    1    1    2    0    0 -0.48179253059E+00 -0.14664733041E+00  0.26221225452E+01  0.37972563943E+01  0.27000000000E+01 0. -1.
</event>
<event>
 5   0  0.6580500E-04  0.9118800E+02  0.7818608E-02  0.1180000E+00
       11   -1    0    0    0    0  0.00000000000E+00  0.00000000000E+00  0.39999999673E+01  0.40000000000E+01  0.51109989000E-03 0.  1.
     -623   -1    0    0    0    0  0.00000000000E+00  0.00000000000E+00  0.12525980253E-10  0.17130000000E+03  0.17130000000E+03 0.  1.
       11    1    1    2    0    0  0.55966584294E+00 -0.32006656549E+00  0.55858576057E+00  0.85304558802E+00  0.51109989000E-03 0.  1.
     -623    1    1    2    0    0 -0.10267781661E+00  0.19272451110E+00  0.19182890397E+01  0.17131087974E+03  0.17130000000E+03 0.  1.
      622    1    1    2    0    0 -0.45698802633E+00  0.12734205439E+00  0.15231251671E+01  0.31360746690E+01  0.27000000000E+01 0.  1.
</event>
<event>
 5   0  0.6580500E-04  0.9118800E+02  0.7818608E-02  0.1180000E+00
       11   -1    0    0    0    0  0.00000000000E+00  0.00000000000E+00  0.39999999673E+01  0.40000000000E+01  0.51109989000E-03 0.  1.
     -623   -1    0    0    0    0  0.00000000000E+00  0.00000000000E+00  0.12525980253E-10  0.17130000000E+03  0.17130000000E+03 0.  1.
       11    1    1    2    0    0 -0.49926698906E+00  0.36106093983E+00 -0.28601030904E+00  0.67928984001E+00  0.51109989000E-03 0.  1.
     -623    1    1    2    0    0  0.10399100801E+01  0.16924566198E+00  0.25491716517E+01  0.17132220619E+03  0.17130000000E+03 0.  1.
      622    1    1    2    0    0 -0.54064309101E+00 -0.53030660181E+00  0.17368386248E+01  0.32985039718E+01  0.27000000000E+01 0.  1.
</event>
<event>
 5   0  0.6580500E-04  0.9118800E+02  0.7818608E-02  0.1180000E+00
       11   -1    0    0    0    0  0.00000000000E+00  0.00000000000E+00  0.39999999673E+01  0.40000000000E+01  0.51109989000E-03 0.  1.
     -623   -1    0    0    0    0  0.00000000000E+00  0.00000000000E+00  0.12525980253E-10  0.17130000000E+03  0.17130000000E+03 0.  1.
       11    1    1    2    0    0 -0.57907772235E-01  0.30967735749E+00 -0.42375087807E+00  0.52803261614E+00  0.51109989000E-03 0.  1.
     -623    1    1    2    0    0  0.21054721431E+00 -0.43136483354E+00  0.22749991919E+01  0.17131577869E+03  0.17130000000E+03 0.  1.
      622    1    1    2    0    0 -0.15263944207E+00  0.12168747605E+00  0.21487516535E+01  0.34561886970E+01  0.27000000000E+01 0.  1.
</event>
<event>
 5   0  0.6580500E-04  0.9118800E+02  0.7818608E-02  0.1180000E+00
       11   -1    0    0    0    0  0.00000000000E+00  0.00000000000E+00  0.39999999673E+01  0.40000000000E+01  0.51109989000E-03 0. -1.
     -623   -1    0    0    0    0  0.00000000000E+00  0.00000000000E+00  0.12525980253E-10  0.17130000000E+03  0.17130000000E+03 0. -1.
       11    1    1    2    0    0 -0.74801894703E-01  0.20179143657E-01 -0.10607114794E+00  0.13135399094E+00  0.51109989000E-03 0. -1.
     -623    1    1    2    0    0  0.58123240274E+00 -0.84466319365E-01  0.13923486254E+01  0.17130666537E+03  0.17130000000E+03 0. -1.
      622    1    1    2    0    0 -0.50643050804E+00  0.64287175708E-01  0.27137224899E+01  0.38619806386E+01  0.27000000000E+01 0. -1.
</event>
<event>
 5   0  0.6580500E-04  0.9118800E+02  0.7818608E-02  0.1180000E+00
       11   -1    0    0    0    0  0.00000000000E+00  0.00000000000E+00  0.39999999673E+01  0.40000000000E+01  0.51109989000E-03 0.  1.
     -623   -1    0    0    0    0  0.00000000000E+00  0.00000000000E+00  0.12525980253E-10  0.17130000000E+03  0.17130000000E+03 0.  1.
       11    1    1    2    0    0  0.13733331928E-01 -0.19697268219E+00  0.95830973607E-01  0.21947819633E+00  0.51109989000E-03 0.  1.
     -623    1    1    2    0    0 -0.18788012814E+00  0.12896072263E+01  0.15188147990E+01  0.17131169016E+03  0.17130000000E+03 0.  1.
      622    1    1    2    0    0  0.17414679621E+00 -0.10926345441E+01  0.23853541947E+01  0.37688316476E+01  0.27000000000E+01 0.  0.
</event>
<event>
 5   0  0.6580500E-04  0.9118800E+02  0.7818608E-02  0.1180000E+00
       11   -1    0    0    0    0  0.00000000000E+00  0.00000000000E+00  0.39999999673E+01  0.40000000000E+01  0.51109989000E-03 0. -1.
     -623   -1    0    0    0    0  0.00000000000E+00  0.00000000000E+00  0.12525980253E-10  0.17130000000E+03  0.17130000000E+03 0.  1.
       11    1    1    2    0    0 -0.39565804216E-01 -0.73607142502E-01  0.10714856895E+00  0.13588429395E+00  0.51109989000E-03 0. -1.
     -623    1    1    2    0    0  0.24841939655E-01  0.76933966365E-01  0.11338609157E+01  0.17130377164E+03  0.17130000000E+03 0.  1.
      622    1    1    2    0    0  0.14723864561E-01 -0.33268238633E-02  0.27589904827E+01  0.38603440706E+01  0.27000000000E+01 0. -1.
</event>
<event>
 5   0  0.6580500E-04  0.9118800E+02  0.7818608E-02  0.1180000E+00
       11   -1    0    0    0    0  0.00000000000E+00  0.00000000000E+00  0.39999999673E+01  0.40000000000E+01  0.51109989000E-03 0.  1.
     -623   -1    0    0    0    0  0.00000000000E+00  0.00000000000E+00  0.12525980253E-10  0.17130000000E+03  0.17130000000E+03 0. -1.
       11    1    1    2    0    0 -0.37035208528E+00 -0.57037183219E+00  0.61689844337E+00  0.91817680469E+00  0.51109989000E-03 0.  1.
     -623    1    1    2    0    0  0.57855899011E+00 -0.32884604589E+00  0.22624301011E+01  0.17131623233E+03  0.17130000000E+03 0. -1.
      622    1    1    2    0    0 -0.20820690483E+00  0.89921787808E+00  0.11206714229E+01  0.30655908640E+01  0.27000000000E+01 0. -1.
</event>
<event>
 5   0  0.6580500E-04  0.9118800E+02  0.7818608E-02  0.1180000E+00
       11   -1    0    0    0    0  0.00000000000E+00  0.00000000000E+00  0.39999999673E+01  0.40000000000E+01  0.51109989000E-03 0. -1.
     -623   -1    0    0    0    0  0.00000000000E+00  0.00000000000E+00  0.12525980253E-10  0.17130000000E+03  0.17130000000E+03 0. -1.
       11    1    1    2    0    0  0.86435982258E-01  0.10744956202E+00  0.32989019324E-01  0.14179253868E+00  0.51109989000E-03 0. -1.
     -623    1    1    2    0    0  0.71775021434E+00  0.58124184910E+00  0.14353689738E+01  0.17130850327E+03  0.17130000000E+03 0. -1.
      622    1    1    2    0    0 -0.80418619660E+00 -0.68869141112E+00  0.25316419743E+01  0.38497041944E+01  0.27000000000E+01 0.  0.
</event>
<event>
 5   0  0.6580500E-04  0.9118800E+02  0.7818608E-02  0.1180000E+00
       11   -1    0    0    0    0  0.00000000000E+00  0.00000000000E+00  0.39999999673E+01  0.40000000000E+01  0.51109989000E-03 0.  1.
     -623   -1    0    0    0    0  0.00000000000E+00  0.00000000000E+00  0.12525980253E-10  0.17130000000E+03  0.17130000000E+03 0.  1.
       11    1    1    2    0    0  0.55950063739E-02  0.29181324939E+00  0.26185080794E-01  0.29303958144E+00  0.51109989000E-03 0.  1.
     -623    1    1    2    0    0 -0.17708371476E+00  0.80450938433E-01  0.14766962520E+01  0.17130647525E+03  0.17130000000E+03 0.  1.
      622    1    1    2    0    0  0.17148870839E+00 -0.37226418782E+00  0.24971186345E+01  0.37004851679E+01  0.27000000000E+01 0.  1.
</event>
<event>
 5   0  0.6580500E-04  0.9118800E+02  0.7818608E-02  0.1180000E+00
       11   -1    0    0    0    0  0.00000000000E+00  0.00000000000E+00  0.39999999673E+01  0.40000000000E+01  0.51109989000E-03 0. -1.
     -623   -1    0    0    0    0  0.00000000000E+00  0.00000000000E+00  0.12525980253E-10  0.17130000000E+03  0.17130000000E+03 0.  1.
       11    1    1    2    0    0 -0.24096872160E+00 -0.26392629998E+00  0.13183768815E+00  0.38092578523E+00  0.51109989000E-03 0. -1.
     -623    1    1    2    0    0  0.17514742565E+00  0.48066220056E+00  0.14797203228E+01  0.17130715480E+03  0.17130000000E+03 0.  1.
      622    1    1    2    0    0  0.65821295957E-01 -0.21673590058E+00  0.23884419564E+01  0.36119194167E+01  0.27000000000E+01 0. -1.
</event>
<event>
 5   0  0.6580500E-04  0.9118800E+02  0.7818608E-02  0.1180000E+00
       11   -1    0    0    0    0  0.00000000000E+00  0.00000000000E+00  0.39999999673E+01  0.40000000000E+01  0.51109989000E-03 0.  1.
     -623   -1    0    0    0    0  0.00000000000E+00  0.00000000000E+00  0.12525980253E-10  0.17130000000E+03  0.17130000000E+03 0. -1.
       11    1    1    2    0    0  0.15676988914E+00  0.76695859630E-01  0.81850175213E-01  0.19276608994E+00  0.51109989000E-03 0.  1.
     -623    1    1    2    0    0 -0.62221757174E+00 -0.32216285388E+00  0.12951780239E+01  0.17130632922E+03  0.17130000000E+03 0. -1.
      622    1    1    2    0    0  0.46544768259E+00  0.24546699425E+00  0.26229717682E+01  0.38009046933E+01  0.27000000000E+01 0.  1.
</event>
<event>
 5   0  0.6580500E-04  0.9118800E+02  0.7818608E-02  0.1180000E+00
       11   -1    0    0    0    0  0.00000000000E+00  0.00000000000E+00  0.39999999673E+01  0.40000000000E+01  0.51109989000E-03 0. -1.
     -623   -1    0    0    0    0  0.00000000000E+00  0.00000000000E+00  0.12525980253E-10  0.17130000000E+03  0.17130000000E+03 0. -1.
       11    1    1    2    0    0 -0.59346511732E-02  0.48235890974E-01 -0.34071085920E-01  0.59355045122E-01  0.51109989000E-03 0. -1.
     -623    1    1    2    0    0 -0.30654740870E-01 -0.25795989848E+00  0.11775120367E+01  0.17130424402E+03  0.17130000000E+03 0. -1.
      622    1    1    2    0    0  0.36589392043E-01  0.20972400750E+00  0.28565590165E+01  0.39364009397E+01  0.27000000000E+01 0. -1.
</event>
<event>
 5   0  0.6580500E-04  0.9118800E+02  0.7818608E-02  0.1180000E+00
       11   -1    0    0    0    0  0.00000000000E+00  0.00000000000E+00  0.39999999673E+01  0.40000000000E+01  0.51109989000E-03 0. -1.
     -623   -1    0    0    0    0  0.00000000000E+00  0.00000000000E+00  0.12525980253E-10  0.17130000000E+03  0.17130000000E+03 0.  1.
       11    1    1    2    0    0  0.14000160611E-01 -0.57045582980E-01 -0.10630231017E+00  0.12145223508E+00  0.51109989000E-03 0. -1.
     -623    1    1    2    0    0 -0.32130291023E+00 -0.16607101919E-01  0.13477090372E+01  0.17130560362E+03  0.17130000000E+03 0.  1.
      622    1    1    2    0    0  0.30730274962E+00  0.73652684898E-01  0.27585932403E+01  0.38729441467E+01  0.27000000000E+01 0. -1.
</event>
<event>
 5   0  0.6580500E-04  0.9118800E+02  0.7818608E-02  0.1180000E+00
       11   -1    0    0    0    0  0.00000000000E+00  0.00000000000E+00  0.39999999673E+01  0.40000000000E+01  0.51109989000E-03 0. -1.
     -623   -1    0    0    0    0  0.00000000000E+00  0.00000000000E+00  0.12525980253E-10  0.17130000000E+03  0.17130000000E+03 0.  1.
       11    1    1    2    0    0  0.12096363320E+00  0.60831609748E-02  0.13703533598E+00  0.18288835374E+00  0.51109989000E-03 0. -1.
     -623    1    1    2    0    0 -0.23343515556E+00  0.25592377268E+00  0.11862061320E+01  0.17130445725E+03  0.17130000000E+03 0.  1.
      622    1    1    2    0    0  0.11247152236E+00 -0.26200693365E+00  0.26767584993E+01  0.38126543956E+01  0.27000000000E+01 0. -1.
</event>
<event>
 5   0  0.6580500E-04  0.9118800E+02  0.7818608E-02  0.1180000E+00
       11   -1    0    0    0    0  0.00000000000E+00  0.00000000000E+00  0.39999999673E+01  0.40000000000E+01  0.51109989000E-03 0. -1.
     -623   -1    0    0    0    0  0.00000000000E+00  0.00000000000E+00  0.12525980253E-10  0.17130000000E+03  0.17130000000E+03 0.  1.
       11    1    1    2    0    0  0.86375349719E-01 -0.20536485837E+00  0.18060650197E-01  0.22352153005E+00  0.51109989000E-03 0. -1.
     -623    1    1    2    0    0  0.45979174552E-01  0.98145050060E-01  0.13547575455E+01  0.17130539138E+03  0.17130000000E+03 0.  1.
      622    1    1    2    0    0 -0.13235452427E+00  0.10721980831E+00  0.26271817717E+01  0.37710870938E+01  0.27000000000E+01 0.  0.
</event>
<event>
 5   0  0.6580500E-04  0.9118800E+02  0.7818608E-02  0.1180000E+00
       11   -1    0    0    0    0  0.00000000000E+00  0.00000000000E+00  0.39999999673E+01  0.40000000000E+01  0.51109989000E-03 0.  1.
     -623   -1    0    0    0    0  0.00000000000E+00  0.00000000000E+00  0.12525980253E-10  0.17130000000E+03  0.17130000000E+03 0.  1.
       11    1    1    2    0    0 -0.16315971849E+00 -0.61290155248E-01 -0.14288385327E+00  0.22537442982E+00  0.51109989000E-03 0.  1.
     -623    1    1    2    0    0 -0.24727388007E+00 -0.16707422340E+00  0.15579660609E+01  0.17130734461E+03  0.17130000000E+03 0.  1.
      622    1    1    2    0    0  0.41043359856E+00  0.22836437864E+00  0.25849177598E+01  0.37672809629E+01  0.27000000000E+01 0.  1.
</event>
<event>
 5   0  0.6580500E-04  0.9118800E+02  0.7818608E-02  0.1180000E+00
       11   -1    0    0    0    0  0.00000000000E+00  0.00000000000E+00  0.39999999673E+01  0.40000000000E+01  0.51109989000E-03 0. -1.
     -623   -1    0    0    0    0  0.00000000000E+00  0.00000000000E+00  0.12525980253E-10  0.17130000000E+03  0.17130000000E+03 0. -1.
       11    1    1    2    0    0 -0.23980679317E+00 -0.78885646627E-02  0.15667146955E+00  0.28655843749E+00  0.51109989000E-03 0. -1.
     -623    1    1    2    0    0  0.65950915715E+00 -0.33551534074E+00  0.13627040172E+01  0.17130701820E+03  0.17130000000E+03 0. -1.
      622    1    1    2    0    0 -0.41970236398E+00  0.34340390540E+00  0.24806244807E+01  0.37064233609E+01  0.27000000000E+01 0. -1.
</event>
<event>
 5   0  0.6580500E-04  0.9118800E+02  0.7818608E-02  0.1180000E+00
       11   -1    0    0    0    0  0.00000000000E+00  0.00000000000E+00  0.39999999673E+01  0.40000000000E+01  0.51109989000E-03 0.  1.
     -623   -1    0    0    0    0  0.00000000000E+00  0.00000000000E+00  0.12525980253E-10  0.17130000000E+03  0.17130000000E+03 0. -1.
       11    1    1    2    0    0 -0.33491524095E+00 -0.16724247389E+00 -0.11130877227E+00  0.39054854718E+00  0.51109989000E-03 0.  1.
     -623    1    1    2    0    0  0.22114274560E+00 -0.26643313852E+00  0.17728342902E+01  0.17130952347E+03  0.17130000000E+03 0.  1.
      622    1    1    2    0    0  0.11377249535E+00  0.43367561242E+00  0.23384744494E+01  0.35999279810E+01  0.27000000000E+01 0.  1.
</event>
<event>
 5   0  0.6580500E-04  0.9118800E+02  0.7818608E-02  0.1180000E+00
       11   -1    0    0    0    0  0.00000000000E+00  0.00000000000E+00  0.39999999673E+01  0.40000000000E+01  0.51109989000E-03 0. -1.
     -623   -1    0    0    0    0  0.00000000000E+00  0.00000000000E+00  0.12525980253E-10  0.17130000000E+03  0.17130000000E+03 0.  1.
       11    1    1    2    0    0  0.24593489018E-01 -0.66803156005E-01 -0.60062721647E-01  0.93141253517E-01  0.51109989000E-03 0. -1.
     -623    1    1    2    0    0 -0.20291779402E+00  0.17054744579E+00  0.12504826532E+01  0.17130476925E+03  0.17130000000E+03 0.  1.
      622    1    1    2    0    0  0.17832430500E+00 -0.10374428979E+00  0.28095800358E+01  0.39020894932E+01  0.27000000000E+01 0. -1.
</event>
<event>
 5   0  0.6580500E-04  0.9118800E+02  0.7818608E-02  0.1180000E+00
       11   -1    0    0    0    0  0.00000000000E+00  0.00000000000E+00  0.39999999673E+01  0.40000000000E+01  0.51109989000E-03 0. -1.
     -623   -1    0    0    0    0  0.00000000000E+00  0.00000000000E+00  0.12525980253E-10  0.17130000000E+03  0.17130000000E+03 0.  1.
       11    1    1    2    0    0 -0.47785261224E+00  0.31541257717E+00 -0.57170017814E-01  0.57541018849E+00  0.51109989000E-03 0. -1.
     -623    1    1    2    0    0 -0.63559113116E+00 -0.65849514564E+00  0.23382607429E+01  0.17131840256E+03  0.17130000000E+03 0.  1.
      622    1    1    2    0    0  0.11134437434E+01  0.34308256847E+00  0.17189092423E+01  0.34061872529E+01  0.27000000000E+01 0. -1.
</event>
<event>
 5   0  0.6580500E-04  0.9118800E+02  0.7818608E-02  0.1180000E+00
       11   -1    0    0    0    0  0.00000000000E+00  0.00000000000E+00  0.39999999673E+01  0.40000000000E+01  0.51109989000E-03 0.  1.
     -623   -1    0    0    0    0  0.00000000000E+00  0.00000000000E+00  0.12525980253E-10  0.17130000000E+03  0.17130000000E+03 0.  1.
       11    1    1    2    0    0 -0.48987513700E-01 -0.63289221274E-02 -0.98092771171E-01  0.10982843317E+00  0.51109989000E-03 0.  1.
     -623    1    1    2    0    0 -0.22438712545E+00 -0.16008715183E+00  0.13232875655E+01  0.17130533286E+03  0.17130000000E+03 0.  1.
      622    1    1    2    0    0  0.27337463915E+00  0.16641607396E+00  0.27748051730E+01  0.38848387034E+01  0.27000000000E+01 0.  1.
</event>
<event>
 5   0  0.6580500E-04  0.9118800E+02  0.7818608E-02  0.1180000E+00
       11   -1    0    0    0    0  0.00000000000E+00  0.00000000000E+00  0.39999999673E+01  0.40000000000E+01  0.51109989000E-03 0.  1.
     -623   -1    0    0    0    0  0.00000000000E+00  0.00000000000E+00  0.12525980253E-10  0.17130000000E+03  0.17130000000E+03 0. -1.
       11    1    1    2    0    0  0.32019651647E-01  0.63845677576E-01  0.13432973325E-01  0.72678983413E-01  0.51109989000E-03 0.  1.
     -623    1    1    2    0    0  0.71876181171E+00 -0.30480398448E+00  0.12548860869E+01  0.17130637543E+03  0.17130000000E+03 0. -1.
      622    1    1    2    0    0 -0.75078146336E+00  0.24095830690E+00  0.27316809071E+01  0.39209455862E+01  0.27000000000E+01 0.  1.
</event>
<event>
 5   0  0.6580500E-04  0.9118800E+02  0.7818608E-02  0.1180000E+00
       11   -1    0    0    0    0  0.00000000000E+00  0.00000000000E+00  0.39999999673E+01  0.40000000000E+01  0.51109989000E-03 0.  1.
     -623   -1    0    0    0    0  0.00000000000E+00  0.00000000000E+00  0.12525980253E-10  0.17130000000E+03  0.17130000000E+03 0.  1.
       11    1    1    2    0    0 -0.18945082965E+00  0.37674725655E-02 -0.12862401306E+00  0.22902010537E+00  0.51109989000E-03 0.  1.
     -623    1    1    2    0    0 -0.18325098546E+00  0.30804400923E+00  0.15521242668E+01  0.17130740662E+03  0.17130000000E+03 0.  1.
      622    1    1    2    0    0  0.37270181511E+00 -0.31181148179E+00  0.25764997137E+01  0.37635732778E+01  0.27000000000E+01 0.  1.
</event>
<event>
 5   0  0.6580500E-04  0.9118800E+02  0.7818608E-02  0.1180000E+00
       11   -1    0    0    0    0  0.00000000000E+00  0.00000000000E+00  0.39999999673E+01  0.40000000000E+01  0.51109989000E-03 0. -1.
     -623   -1    0    0    0    0  0.00000000000E+00  0.00000000000E+00  0.12525980253E-10  0.17130000000E+03  0.17130000000E+03 0.  1.
       11    1    1    2    0    0  0.34560373271E-01 -0.11212086985E-01  0.77170868876E-01  0.85297916278E-01  0.51109989000E-03 0. -1.
     -623    1    1    2    0    0  0.32160214132E+00  0.60347228942E-01  0.11166394009E+01  0.17130395195E+03  0.17130000000E+03 0.  1.
      622    1    1    2    0    0 -0.35616251459E+00 -0.49135141957E-01  0.28061896976E+01  0.39107501349E+01  0.27000000000E+01 0. -1.
</event>
<event>
 5   0  0.6580500E-04  0.9118800E+02  0.7818608E-02  0.1180000E+00
       11   -1    0    0    0    0  0.00000000000E+00  0.00000000000E+00  0.39999999673E+01  0.40000000000E+01  0.51109989000E-03 0. -1.
     -623   -1    0    0    0    0  0.00000000000E+00  0.00000000000E+00  0.12525980253E-10  0.17130000000E+03  0.17130000000E+03 0. -1.
       11    1    1    2    0    0 -0.50269545089E-02  0.60374023871E-02 -0.89248803490E-01  0.89595371783E-01  0.51109989000E-03 0. -1.
     -623    1    1    2    0    0  0.31967697740E+00 -0.62607063640E-02  0.12852797148E+01  0.17130512011E+03  0.17130000000E+03 0. -1.
      622    1    1    2    0    0 -0.31465002290E+00  0.22330397692E-03  0.28039690561E+01  0.39052845164E+01  0.27000000000E+01 0. -1.
</event>
<event>
 5   0  0.6580500E-04  0.9118800E+02  0.7818608E-02  0.1180000E+00
       11   -1    0    0    0    0  0.00000000000E+00  0.00000000000E+00  0.39999999673E+01  0.40000000000E+01  0.51109989000E-03 0.  1.
     -623   -1    0    0    0    0  0.00000000000E+00  0.00000000000E+00  0.12525980253E-10  0.17130000000E+03  0.17130000000E+03 0.  1.
       11    1    1    2    0    0 -0.82149040351E-01  0.59378870104E-01 -0.50479415753E-01  0.11323757186E+00  0.51109989000E-03 0.  1.
     -623    1    1    2    0    0  0.38737487481E+00  0.43412523353E+00  0.13241658441E+01  0.17130610596E+03  0.17130000000E+03 0.  1.
      622    1    1    2    0    0 -0.30522583446E+00 -0.49350410364E+00  0.27263135390E+01  0.38806564681E+01  0.27000000000E+01 0.  1.
</event>
<event>
 5   0  0.6580500E-04  0.9118800E+02  0.7818608E-02  0.1180000E+00
       11   -1    0    0    0    0  0.00000000000E+00  0.00000000000E+00  0.39999999673E+01  0.40000000000E+01  0.51109989000E-03 0.  1.
     -623   -1    0    0    0    0  0.00000000000E+00  0.00000000000E+00  0.12525980253E-10  0.17130000000E+03  0.17130000000E+03 0. -1.
       11    1    1    2    0    0 -0.33707925785E+00  0.13969054074E+00  0.17188926838E-01  0.36528289540E+00  0.51109989000E-03 0.  1.
     -623    1    1    2    0    0  0.87559673086E+00 -0.27952597133E+00  0.16296334654E+01  0.17131021718E+03  0.17130000000E+03 0. -1.
      622    1    1    2    0    0 -0.53851747302E+00  0.13983543059E+00  0.23531775752E+01  0.36244999264E+01  0.27000000000E+01 0.  1.
</event>
<event>
 5   0  0.6580500E-04  0.9118800E+02  0.7818608E-02  0.1180000E+00
       11   -1    0    0    0    0  0.00000000000E+00  0.00000000000E+00  0.39999999673E+01  0.40000000000E+01  0.51109989000E-03 0.  1.
     -623   -1    0    0    0    0  0.00000000000E+00  0.00000000000E+00  0.12525980253E-10  0.17130000000E+03  0.17130000000E+03 0. -1.
       11    1    1    2    0    0  0.10167353962E-01 -0.57528185994E-01 -0.12436138045E+00  0.13740044192E+00  0.51109989000E-03 0.  1.
     -623    1    1    2    0    0 -0.68923818834E+00  0.49282497395E+00  0.14951917850E+01  0.17130862069E+03  0.17130000000E+03 0. -1.
      622    1    1    2    0    0  0.67907083438E+00 -0.43529678795E+00  0.26291695628E+01  0.38539788637E+01  0.27000000000E+01 0.  1.
</event>
<event>
 5   0  0.6580500E-04  0.9118800E+02  0.7818608E-02  0.1180000E+00
       11   -1    0    0    0    0  0.00000000000E+00  0.00000000000E+00  0.39999999673E+01  0.40000000000E+01  0.51109989000E-03 0.  1.
     -623   -1    0    0    0    0  0.00000000000E+00  0.00000000000E+00  0.12525980253E-10  0.17130000000E+03  0.17130000000E+03 0.  1.
       11    1    1    2    0    0  0.15763535657E+00 -0.31298799573E-01  0.25303907660E+00  0.29976249933E+00  0.51109989000E-03 0.  1.
     -623    1    1    2    0    0 -0.88394093334E+00 -0.35681326927E+00  0.13671134603E+01  0.17130810742E+03  0.17130000000E+03 0.  1.
      622    1    1    2    0    0  0.72630557677E+00  0.38811206884E+00  0.23798474305E+01  0.36921300845E+01  0.27000000000E+01 0.  1.
</event>
<event>
 5   0  0.6580500E-04  0.9118800E+02  0.7818608E-02  0.1180000E+00
       11   -1    0    0    0    0  0.00000000000E+00  0.00000000000E+00  0.39999999673E+01  0.40000000000E+01  0.51109989000E-03 0.  1.
     -623   -1    0    0    0    0  0.00000000000E+00  0.00000000000E+00  0.12525980253E-10  0.17130000000E+03  0.17130000000E+03 0. -1.
       11    1    1    2    0    0  0.51625776188E-01 -0.95872271614E-01  0.37949788287E+00  0.39481086302E+00  0.51109989000E-03 0.  1.
     -623    1    1    2    0    0 -0.55170954562E+00  0.50131269641E+00  0.13305201362E+01  0.17130678907E+03  0.17130000000E+03 0. -1.
      622    1    1    2    0    0  0.50008376944E+00 -0.40544042480E+00  0.22899819482E+01  0.35984000664E+01  0.27000000000E+01 0.  1.
</event>
<event>
 5   0  0.6580500E-04  0.9118800E+02  0.7818608E-02  0.1180000E+00
       11   -1    0    0    0    0  0.00000000000E+00  0.00000000000E+00  0.39999999673E+01  0.40000000000E+01  0.51109989000E-03 0.  1.
     -623   -1    0    0    0    0  0.00000000000E+00  0.00000000000E+00  0.12525980253E-10  0.17130000000E+03  0.17130000000E+03 0. -1.
       11    1    1    2    0    0  0.13337976362E-01  0.82725689343E-02  0.12025181894E-01  0.19778858230E-01  0.51109989000E-03 0.  1.
     -623    1    1    2    0    0 -0.41349276787E+00 -0.17151561465E+00  0.11013564912E+01  0.17130412540E+03  0.17130000000E+03 0. -1.
      622    1    1    2    0    0  0.40015479151E+00  0.16324304571E+00  0.28866182943E+01  0.39760957390E+01  0.27000000000E+01 0.  1.
</event>
<event>
 5   0  0.6580500E-04  0.9118800E+02  0.7818608E-02  0.1180000E+00
       11   -1    0    0    0    0  0.00000000000E+00  0.00000000000E+00  0.39999999673E+01  0.40000000000E+01  0.51109989000E-03 0. -1.
     -623   -1    0    0    0    0  0.00000000000E+00  0.00000000000E+00  0.12525980253E-10  0.17130000000E+03  0.17130000000E+03 0. -1.
       11    1    1    2    0    0  0.18931633767E-01 -0.22621080230E+00  0.24185309885E+00  0.33169702513E+00  0.51109989000E-03 0. -1.
     -623    1    1    2    0    0  0.17070548928E+00 -0.38098302849E-01  0.13038463246E+01  0.17130505132E+03  0.17130000000E+03 0. -1.
      622    1    1    2    0    0 -0.18963712305E+00  0.26430910514E+00  0.24543005439E+01  0.36632516568E+01  0.27000000000E+01 0. -1.
</event>
<event>
 5   0  0.6580500E-04  0.9118800E+02  0.7818608E-02  0.1180000E+00
       11   -1    0    0    0    0  0.00000000000E+00  0.00000000000E+00  0.39999999673E+01  0.40000000000E+01  0.51109989000E-03 0.  1.
     -623   -1    0    0    0    0  0.00000000000E+00  0.00000000000E+00  0.12525980253E-10  0.17130000000E+03  0.17130000000E+03 0.  1.
       11    1    1    2    0    0  0.56960813290E+00  0.95246147918E-01  0.69258727317E+00  0.90177749248E+00  0.51109989000E-03 0.  1.
     -623    1    1    2    0    0  0.11422339010E-02 -0.48568275263E+00  0.19824259781E+01  0.17131215924E+03  0.17130000000E+03 0.  1.
      622    1    1    2    0    0 -0.57075036680E+00  0.39043660471E+00  0.13249867161E+01  0.30860632724E+01  0.27000000000E+01 0.  0.
</event>
<event>
 5   0  0.6580500E-04  0.9118800E+02  0.7818608E-02  0.1180000E+00
       11   -1    0    0    0    0  0.00000000000E+00  0.00000000000E+00  0.39999999673E+01  0.40000000000E+01  0.51109989000E-03 0. -1.
     -623   -1    0    0    0    0  0.00000000000E+00  0.00000000000E+00  0.12525980253E-10  0.17130000000E+03  0.17130000000E+03 0. -1.
       11    1    1    2    0    0 -0.18954947091E-01 -0.59673753742E-01 -0.71532780985E-01  0.95065487341E-01  0.51109989000E-03 0. -1.
     -623    1    1    2    0    0 -0.42220022473E+00  0.15266552619E+00  0.12943956306E+01  0.17130547866E+03  0.17130000000E+03 0. -1.
      622    1    1    2    0    0  0.44115517182E+00 -0.92991772444E-01  0.27771371177E+01  0.38994558500E+01  0.27000000000E+01 0. -1.
</event>
<event>
 5   0  0.6580500E-04  0.9118800E+02  0.7818608E-02  0.1180000E+00
       11   -1    0    0    0    0  0.00000000000E+00  0.00000000000E+00  0.39999999673E+01  0.40000000000E+01  0.51109989000E-03 0. -1.
     -623   -1    0    0    0    0  0.00000000000E+00  0.00000000000E+00  0.12525980253E-10  0.17130000000E+03  0.17130000000E+03 0.  1.
       11    1    1    2    0    0  0.33222179700E-01 -0.68758449784E-01  0.98427764967E-02  0.76997266919E-01  0.51109989000E-03 0. -1.
     -623    1    1    2    0    0  0.13688491434E-01  0.35288827750E+00  0.11647163702E+01  0.17130432359E+03  0.17130000000E+03 0.  1.
      622    1    1    2    0    0 -0.46910671133E-01 -0.28412982772E+00  0.28254408207E+01  0.39186791399E+01  0.27000000000E+01 0. -1.
</event>
<event>
 5   0  0.6580500E-04  0.9118800E+02  0.7818608E-02  0.1180000E+00
       11   -1    0    0    0    0  0.00000000000E+00  0.00000000000E+00  0.39999999673E+01  0.40000000000E+01  0.51109989000E-03 0.  1.
     -623   -1    0    0    0    0  0.00000000000E+00  0.00000000000E+00  0.12525980253E-10  0.17130000000E+03  0.17130000000E+03 0.  1.
       11    1    1    2    0    0 -0.50243915107E+00  0.70963356838E+00  0.28759314199E+00  0.91582475313E+00  0.51109989000E-03 0.  1.
     -623    1    1    2    0    0  0.26725347484E+00 -0.33723321200E+00  0.23239390531E+01  0.17131630350E+03  0.17130000000E+03 0.  1.
      622    1    1    2    0    0  0.23518567624E+00 -0.37240035638E+00  0.13884677723E+01  0.30678717513E+01  0.27000000000E+01 0.  1.
</event>
<event>
 5   0  0.6580500E-04  0.9118800E+02  0.7818608E-02  0.1180000E+00
       11   -1    0    0    0    0  0.00000000000E+00  0.00000000000E+00  0.39999999673E+01  0.40000000000E+01  0.51109989000E-03 0. -1.
     -623   -1    0    0    0    0  0.00000000000E+00  0.00000000000E+00  0.12525980253E-10  0.17130000000E+03  0.17130000000E+03 0.  1.
       11    1    1    2    0    0  0.19240840066E+00 -0.25456827974E+00  0.32190223278E+00  0.45326295942E+00  0.51109989000E-03 0. -1.
     -623    1    1    2    0    0  0.30402569074E+00  0.61187346034E+00  0.14734035586E+01  0.17130769901E+03  0.17130000000E+03 0.  1.
      622    1    1    2    0    0 -0.49643409140E+00 -0.35730518059E+00  0.22046941760E+01  0.35390380344E+01  0.27000000000E+01 0. -1.
</event>
<event>
 5   0  0.6580500E-04  0.9118800E+02  0.7818608E-02  0.1180000E+00
       11   -1    0    0    0    0  0.00000000000E+00  0.00000000000E+00  0.39999999673E+01  0.40000000000E+01  0.51109989000E-03 0. -1.
     -623   -1    0    0    0    0  0.00000000000E+00  0.00000000000E+00  0.12525980253E-10  0.17130000000E+03  0.17130000000E+03 0.  1.
       11    1    1    2    0    0 -0.39231047070E-01 -0.43724397830E-01  0.32497083909E-02  0.58836381988E-01  0.51109989000E-03 0. -1.
     -623    1    1    2    0    0  0.29921862805E+00 -0.36202237565E+00  0.11729514435E+01  0.17130465962E+03  0.17130000000E+03 0.  1.
      622    1    1    2    0    0 -0.25998758098E+00  0.40574677348E+00  0.28237988155E+01  0.39365039993E+01  0.27000000000E+01 0. -1.
</event>
<event>
 5   0  0.6580500E-04  0.9118800E+02  0.7818608E-02  0.1180000E+00
       11   -1    0    0    0    0  0.00000000000E+00  0.00000000000E+00  0.39999999673E+01  0.40000000000E+01  0.51109989000E-03 0.  1.
     -623   -1    0    0    0    0  0.00000000000E+00  0.00000000000E+00  0.12525980253E-10  0.17130000000E+03  0.17130000000E+03 0.  1.
       11    1    1    2    0    0  0.76119411389E-01  0.13622832908E+00  0.15781570783E+00  0.22194229272E+00  0.51109989000E-03 0.  1.
     -623    1    1    2    0    0  0.34732183261E+00  0.22180770590E+00  0.12659146531E+01  0.17130517322E+03  0.17130000000E+03 0.  1.
      622    1    1    2    0    0 -0.42344124400E+00 -0.35803603498E+00  0.25762696064E+01  0.37728844899E+01  0.27000000000E+01 0.  1.
</event>
<event>
 5   0  0.6580500E-04  0.9118800E+02  0.7818608E-02  0.1180000E+00
       11   -1    0    0    0    0  0.00000000000E+00  0.00000000000E+00  0.39999999673E+01  0.40000000000E+01  0.51109989000E-03 0.  1.
     -623   -1    0    0    0    0  0.00000000000E+00  0.00000000000E+00  0.12525980253E-10  0.17130000000E+03  0.17130000000E+03 0. -1.
       11    1    1    2    0    0  0.35507799840E+00  0.62909290627E+00  0.18106947044E+00  0.74473128309E+00  0.51109989000E-03 0.  1.
     -623    1    1    2    0    0 -0.34422095291E-01 -0.13309060971E+01  0.22110716128E+01  0.17131944237E+03  0.17130000000E+03 0. -1.
      622    1    1    2    0    0 -0.32065590311E+00  0.70181319080E+00  0.16078588842E+01  0.32358263480E+01  0.27000000000E+01 0.  1.
</event>
<event>
 5   0  0.6580500E-04  0.9118800E+02  0.7818608E-02  0.1180000E+00
       11   -1    0    0    0    0  0.00000000000E+00  0.00000000000E+00  0.39999999673E+01  0.40000000000E+01  0.51109989000E-03 0. -1.
     -623   -1    0    0    0    0  0.00000000000E+00  0.00000000000E+00  0.12525980253E-10  0.17130000000E+03  0.17130000000E+03 0.  1.
       11    1    1    2    0    0 -0.12929126860E+00  0.53362463304E-01 -0.20888801806E+00  0.25139262109E+00  0.51109989000E-03 0. -1.
     -623    1    1    2    0    0 -0.60668918408E-01  0.10323041744E+00  0.16314956557E+01  0.17130781102E+03  0.17130000000E+03 0.  1.
      622    1    1    2    0    0  0.18996018701E+00 -0.15659288074E+00  0.25773923297E+01  0.37407963623E+01  0.27000000000E+01 0. -1.
</event>
<event>
 5   0  0.6580500E-04  0.9118800E+02  0.7818608E-02  0.1180000E+00
       11   -1    0    0    0    0  0.00000000000E+00  0.00000000000E+00  0.39999999673E+01  0.40000000000E+01  0.51109989000E-03 0.  1.
     -623   -1    0    0    0    0  0.00000000000E+00  0.00000000000E+00  0.12525980253E-10  0.17130000000E+03  0.17130000000E+03 0. -1.
       11    1    1    2    0    0  0.19479266233E+00 -0.46970128724E+00  0.61811605794E+00  0.80039440456E+00  0.51109989000E-03 0.  1.
     -623    1    1    2    0    0 -0.42165452263E+00  0.86445431138E+00  0.17491276165E+01  0.17131162985E+03  0.17130000000E+03 0. -1.
      622    1    1    2    0    0  0.22686186030E+00 -0.39475302414E+00  0.16327562929E+01  0.31879757473E+01  0.27000000000E+01 0.  1.
</event>
<event>
 5   0  0.6580500E-04  0.9118800E+02  0.7818608E-02  0.1180000E+00
       11   -1    0    0    0    0  0.00000000000E+00  0.00000000000E+00  0.39999999673E+01  0.40000000000E+01  0.51109989000E-03 0. -1.
     -623   -1    0    0    0    0  0.00000000000E+00  0.00000000000E+00  0.12525980253E-10  0.17130000000E+03  0.17130000000E+03 0. -1.
       11    1    1    2    0    0 -0.99322134245E-01 -0.54722700702E-01  0.16967768938E+00  0.20408390387E+00  0.51109989000E-03 0. -1.
     -623    1    1    2    0    0 -0.18487508268E+00 -0.36251877970E+00  0.12173477931E+01  0.17130480885E+03  0.17130000000E+03 0. -1.
      622    1    1    2    0    0  0.28419721693E+00  0.41724148040E+00  0.26129744849E+01  0.37911072485E+01  0.27000000000E+01 0. -1.
</event>
<event>
 5   0  0.6580500E-04  0.9118800E+02  0.7818608E-02  0.1180000E+00
       11   -1    0    0    0    0  0.00000000000E+00  0.00000000000E+00  0.39999999673E+01  0.40000000000E+01  0.51109989000E-03 0. -1.
     -623   -1    0    0    0    0  0.00000000000E+00  0.00000000000E+00  0.12525980253E-10  0.17130000000E+03  0.17130000000E+03 0. -1.
       11    1    1    2    0    0  0.81362524637E+00 -0.15592581199E+00  0.61885346786E+00  0.10340593679E+01  0.51109989000E-03 0. -1.
     -623    1    1    2    0    0 -0.15451931421E+01 -0.54564556939E+00  0.28385537864E+01  0.17133135364E+03  0.17130000000E+03 0.  1.
      622    1    1    2    0    0  0.73156789569E+00  0.70157138137E+00  0.54259271314E+00  0.29345869968E+01  0.27000000000E+01 0. -1.
</event>
<event>
 5   0  0.6580500E-04  0.9118800E+02  0.7818608E-02  0.1180000E+00
       11   -1    0    0    0    0  0.00000000000E+00  0.00000000000E+00  0.39999999673E+01  0.40000000000E+01  0.51109989000E-03 0. -1.
     -623   -1    0    0    0    0  0.00000000000E+00  0.00000000000E+00  0.12525980253E-10  0.17130000000E+03  0.17130000000E+03 0.  1.
       11    1    1    2    0    0 -0.30358242575E+00 -0.82698431442E+00 -0.22773128066E+00  0.90990501864E+00  0.51109989000E-03 0. -1.
     -623    1    1    2    0    0 -0.24079447660E+00  0.89934296779E+00  0.28892162072E+01  0.17132689331E+03  0.17130000000E+03 0.  1.
      622    1    1    2    0    0  0.54437690236E+00 -0.72358653369E-01  0.13385150408E+01  0.30632016749E+01  0.27000000000E+01 0. -1.
</event>
<event>
 5   0  0.6580500E-04  0.9118800E+02  0.7818608E-02  0.1180000E+00
       11   -1    0    0    0    0  0.00000000000E+00  0.00000000000E+00  0.39999999673E+01  0.40000000000E+01  0.51109989000E-03 0. -1.
     -623   -1    0    0    0    0  0.00000000000E+00  0.00000000000E+00  0.12525980253E-10  0.17130000000E+03  0.17130000000E+03 0.  1.
       11    1    1    2    0    0  0.10799458642E+00  0.40734121407E+00  0.35349945775E+00  0.55004711001E+00  0.51109989000E-03 0. -1.
     -623    1    1    2    0    0  0.85971914662E+00 -0.37407264104E+00  0.17503661593E+01  0.17131150816E+03  0.17130000000E+03 0.  1.
      622    1    1    2    0    0 -0.96771373303E+00 -0.33268573034E-01  0.18961343503E+01  0.34384447271E+01  0.27000000000E+01 0. -1.
</event>
<event>
 5   0  0.6580500E-04  0.9118800E+02  0.7818608E-02  0.1180000E+00
       11   -1    0    0    0    0  0.00000000000E+00  0.00000000000E+00  0.39999999673E+01  0.40000000000E+01  0.51109989000E-03 0.  1.
     -623   -1    0    0    0    0  0.00000000000E+00  0.00000000000E+00  0.12525980253E-10  0.17130000000E+03  0.17130000000E+03 0. -1.
       11    1    1    2    0    0  0.58585088673E-01 -0.10325594782E-02 -0.62935553164E-01  0.85990835960E-01  0.51109989000E-03 0.  1.
     -623    1    1    2    0    0  0.17078560625E+00 -0.34737648645E+00  0.12673367152E+01  0.17130512538E+03  0.17130000000E+03 0. -1.
      622    1    1    2    0    0 -0.22937069492E+00  0.34840904592E+00  0.27955988053E+01  0.39088837868E+01  0.27000000000E+01 0.  1.
</event>
<event>
 5   0  0.6580500E-04  0.9118800E+02  0.7818608E-02  0.1180000E+00
       11   -1    0    0    0    0  0.00000000000E+00  0.00000000000E+00  0.39999999673E+01  0.40000000000E+01  0.51109989000E-03 0.  1.
     -623   -1    0    0    0    0  0.00000000000E+00  0.00000000000E+00  0.12525980253E-10  0.17130000000E+03  0.17130000000E+03 0.  1.
       11    1    1    2    0    0  0.25747518395E+00  0.24155957213E+00  0.19003927342E+00  0.40094848036E+00  0.51109989000E-03 0.  1.
     -623    1    1    2    0    0 -0.19505247908E+00 -0.43501441421E+00  0.14492416242E+01  0.17130679375E+03  0.17130000000E+03 0.  1.
      622    1    1    2    0    0 -0.62422704871E-01  0.19345484208E+00  0.23607190698E+01  0.35922577714E+01  0.27000000000E+01 0.  1.
</event>
<event>
 5   0  0.6580500E-04  0.9118800E+02  0.7818608E-02  0.1180000E+00
       11   -1    0    0    0    0  0.00000000000E+00  0.00000000000E+00  0.39999999673E+01  0.40000000000E+01  0.51109989000E-03 0.  1.
     -623   -1    0    0    0    0  0.00000000000E+00  0.00000000000E+00  0.12525980253E-10  0.17130000000E+03  0.17130000000E+03 0.  1.
       11    1    1    2    0    0 -0.11301483536E-01  0.47397393595E-01 -0.70644541515E-01  0.85820445807E-01  0.51109989000E-03 0.  1.
     -623    1    1    2    0    0 -0.61159696553E+00 -0.17124090268E+00  0.13177172030E+01  0.17130624552E+03  0.17130000000E+03 0.  1.
      622    1    1    2    0    0  0.62289844907E+00  0.12384350908E+00  0.27529273058E+01  0.39079340378E+01  0.27000000000E+01 0.  1.
</event>
<event>
 5   0  0.6580500E-04  0.9118800E+02  0.7818608E-02  0.1180000E+00
       11   -1    0    0    0    0  0.00000000000E+00  0.00000000000E+00  0.39999999673E+01  0.40000000000E+01  0.51109989000E-03 0.  1.
     -623   -1    0    0    0    0  0.00000000000E+00  0.00000000000E+00  0.12525980253E-10  0.17130000000E+03  0.17130000000E+03 0. -1.
       11    1    1    2    0    0  0.11743062588E+00 -0.20840721612E+00 -0.14023540262E+00  0.27729000883E+00  0.51109989000E-03 0.  1.
     -623    1    1    2    0    0 -0.15693768649E+01  0.23385094262E-01  0.20714683946E+01  0.17131971420E+03  0.17130000000E+03 0. -1.
      622    1    1    2    0    0  0.14519462390E+01  0.18502212186E+00  0.20687669754E+01  0.37029957960E+01  0.27000000000E+01 0.  0.
</event>
<event>
 5   0  0.6580500E-04  0.9118800E+02  0.7818608E-02  0.1180000E+00
       11   -1    0    0    0    0  0.00000000000E+00  0.00000000000E+00  0.39999999673E+01  0.40000000000E+01  0.51109989000E-03 0.  1.
     -623   -1    0    0    0    0  0.00000000000E+00  0.00000000000E+00  0.12525980253E-10  0.17130000000E+03  0.17130000000E+03 0.  1.
       11    1    1    2    0    0  0.49647293503E-01 -0.19170593196E+00  0.13877590386E+00  0.24181610951E+00  0.51109989000E-03 0.  1.
     -623    1    1    2    0    0  0.11265016064E+00  0.26048467548E+00  0.12600126133E+01  0.17130486909E+03  0.17130000000E+03 0.  1.
      622    1    1    2    0    0 -0.16229745415E+00 -0.68778743519E-01  0.26012114502E+01  0.37533148000E+01  0.27000000000E+01 0.  1.
</event>
<event>
 5   0  0.6580500E-04  0.9118800E+02  0.7818608E-02  0.1180000E+00
       11   -1    0    0    0    0  0.00000000000E+00  0.00000000000E+00  0.39999999673E+01  0.40000000000E+01  0.51109989000E-03 0.  1.
     -623   -1    0    0    0    0  0.00000000000E+00  0.00000000000E+00  0.12525980253E-10  0.17130000000E+03  0.17130000000E+03 0.  1.
       11    1    1    2    0    0 -0.32518793125E+00  0.47908036749E-01  0.29777028867E+00  0.44351975903E+00  0.51109989000E-03 0.  1.
     -623    1    1    2    0    0  0.10611990697E+01 -0.54270303118E+00  0.15831210691E+01  0.17131146180E+03  0.17130000000E+03 0.  1.
      622    1    1    2    0    0 -0.73601113844E+00  0.49479499443E+00  0.21191086096E+01  0.35450184459E+01  0.27000000000E+01 0.  0.
</event>
<event>
 5   0  0.6580500E-04  0.9118800E+02  0.7818608E-02  0.1180000E+00
       11   -1    0    0    0    0  0.00000000000E+00  0.00000000000E+00  0.39999999673E+01  0.40000000000E+01  0.51109989000E-03 0.  1.
     -623   -1    0    0    0    0  0.00000000000E+00  0.00000000000E+00  0.12525980253E-10  0.17130000000E+03  0.17130000000E+03 0.  1.
       11    1    1    2    0    0  0.10357347324E+00  0.14811342030E+00  0.24959790010E+00  0.30816298057E+00  0.51109989000E-03 0.  1.
     -623    1    1    2    0    0  0.13344712819E+00 -0.27059359838E+00  0.12538727060E+01  0.17130485465E+03  0.17130000000E+03 0.  1.
      622    1    1    2    0    0 -0.23702060143E+00  0.12248017808E+00  0.24965293612E+01  0.36869823720E+01  0.27000000000E+01 0.  1.
</event>
<event>
 5   0  0.6580500E-04  0.9118800E+02  0.7818608E-02  0.1180000E+00
       11   -1    0    0    0    0  0.00000000000E+00  0.00000000000E+00  0.39999999673E+01  0.40000000000E+01  0.51109989000E-03 0.  1.
     -623   -1    0    0    0    0  0.00000000000E+00  0.00000000000E+00  0.12525980253E-10  0.17130000000E+03  0.17130000000E+03 0.  1.
       11    1    1    2    0    0  0.22049885044E+00  0.25011928842E-01 -0.15166528774E-01  0.22243116788E+00  0.51109989000E-03 0.  1.
     -623    1    1    2    0    0 -0.29810358543E+00  0.93966902624E-01  0.13854517099E+01  0.17130588773E+03  0.17130000000E+03 0.  1.
      622    1    1    2    0    0  0.77604734988E-01 -0.11897883147E+00  0.26297147862E+01  0.37716810992E+01  0.27000000000E+01 0.  1.
</event>
<event>
 5   0  0.6580500E-04  0.9118800E+02  0.7818608E-02  0.1180000E+00
       11   -1    0    0    0    0  0.00000000000E+00  0.00000000000E+00  0.39999999673E+01  0.40000000000E+01  0.51109989000E-03 0.  1.
     -623   -1    0    0    0    0  0.00000000000E+00  0.00000000000E+00  0.12525980253E-10  0.17130000000E+03  0.17130000000E+03 0. -1.
       11    1    1    2    0    0  0.34520954650E+00  0.75327688152E-01 -0.48184626364E-01  0.35660329645E+00  0.51109989000E-03 0.  1.
     -623    1    1    2    0    0 -0.57085430082E+00 -0.93421101731E-01  0.16254040919E+01  0.17130868787E+03  0.17130000000E+03 0. -1.
      622    1    1    2    0    0  0.22564475432E+00  0.18093413579E-01  0.24227805018E+01  0.36347088311E+01  0.27000000000E+01 0.  1.
</event>
<event>
 5   0  0.6580500E-04  0.9118800E+02  0.7818608E-02  0.1180000E+00
       11   -1    0    0    0    0  0.00000000000E+00  0.00000000000E+00  0.39999999673E+01  0.40000000000E+01  0.51109989000E-03 0.  1.
     -623   -1    0    0    0    0  0.00000000000E+00  0.00000000000E+00  0.12525980253E-10  0.17130000000E+03  0.17130000000E+03 0.  1.
       11    1    1    2    0    0 -0.29018422224E+00  0.16719562095E+00  0.56675932012E+00  0.65831424614E+00  0.51109989000E-03 0.  1.
     -623    1    1    2    0    0  0.41624959512E+00  0.21003838445E+00  0.15176337758E+01  0.17130735709E+03  0.17130000000E+03 0.  1.
      622    1    1    2    0    0 -0.12606537288E+00 -0.37723400540E+00  0.19156068714E+01  0.33343286669E+01  0.27000000000E+01 0.  1.
</event>
<event>
 5   0  0.6580500E-04  0.9118800E+02  0.7818608E-02  0.1180000E+00
       11   -1    0    0    0    0  0.00000000000E+00  0.00000000000E+00  0.39999999673E+01  0.40000000000E+01  0.51109989000E-03 0.  1.
     -623   -1    0    0    0    0  0.00000000000E+00  0.00000000000E+00  0.12525980253E-10  0.17130000000E+03  0.17130000000E+03 0.  1.
       11    1    1    2    0    0  0.94675696555E-01 -0.17874923744E+00  0.49502009497E+00  0.53475221650E+00  0.51109989000E-03 0.  1.
     -623    1    1    2    0    0  0.64289205916E+00  0.78137391192E+00  0.15710080537E+01  0.17131019211E+03  0.17130000000E+03 0.  1.
      622    1    1    2    0    0 -0.73756775572E+00 -0.60262467448E+00  0.19339718187E+01  0.34550556708E+01  0.27000000000E+01 0. -1.
</event>
<event>
 5   0  0.6580500E-04  0.9118800E+02  0.7818608E-02  0.1180000E+00
       11   -1    0    0    0    0  0.00000000000E+00  0.00000000000E+00  0.39999999673E+01  0.40000000000E+01  0.51109989000E-03 0. -1.
     -623   -1    0    0    0    0  0.00000000000E+00  0.00000000000E+00  0.12525980253E-10  0.17130000000E+03  0.17130000000E+03 0.  1.
       11    1    1    2    0    0  0.98648337833E-02 -0.23796173678E+00 -0.15685746854E+00  0.28517999541E+00  0.51109989000E-03 0. -1.
     -623    1    1    2    0    0  0.13219782385E+00 -0.17101723527E+00  0.16544309138E+01  0.17130812551E+03  0.17130000000E+03 0.  1.
      622    1    1    2    0    0 -0.14206265763E+00  0.40897897205E+00  0.25024265221E+01  0.37066944973E+01  0.27000000000E+01 0. -1.
</event>
<event>
 5   0  0.6580500E-04  0.9118800E+02  0.7818608E-02  0.1180000E+00
       11   -1    0    0    0    0  0.00000000000E+00  0.00000000000E+00  0.39999999673E+01  0.40000000000E+01  0.51109989000E-03 0.  1.
     -623   -1    0    0    0    0  0.00000000000E+00  0.00000000000E+00  0.12525980253E-10  0.17130000000E+03  0.17130000000E+03 0.  1.
       11    1    1    2    0    0 -0.14400468527E+00  0.26337969447E-01 -0.43852126587E-01  0.15282116425E+00  0.51109989000E-03 0.  1.
     -623    1    1    2    0    0  0.69388309222E-01  0.17381460263E+00  0.13189062464E+01  0.17130517955E+03  0.17130000000E+03 0.  1.
      622    1    1    2    0    0  0.74616376049E-01 -0.20015257208E+00  0.27249458475E+01  0.38419992878E+01  0.27000000000E+01 0.  1.
</event>
<event>
 5   0  0.6580500E-04  0.9118800E+02  0.7818608E-02  0.1180000E+00
       11   -1    0    0    0    0  0.00000000000E+00  0.00000000000E+00  0.39999999673E+01  0.40000000000E+01  0.51109989000E-03 0. -1.
     -623   -1    0    0    0    0  0.00000000000E+00  0.00000000000E+00  0.12525980253E-10  0.17130000000E+03  0.17130000000E+03 0.  1.
       11    1    1    2    0    0 -0.95362094038E-01 -0.10107286727E+00  0.32609890850E+00  0.35447201981E+00  0.51109989000E-03 0. -1.
     -623    1    1    2    0    0  0.55827713232E+00  0.73137953568E+00  0.13650727693E+01  0.17130790995E+03  0.17130000000E+03 0.  1.
      622    1    1    2    0    0 -0.46291503828E+00 -0.63030666840E+00  0.23088282895E+01  0.36376180255E+01  0.27000000000E+01 0.  0.
</event>
<event>
 5   0  0.6580500E-04  0.9118800E+02  0.7818608E-02  0.1180000E+00
       11   -1    0    0    0    0  0.00000000000E+00  0.00000000000E+00  0.39999999673E+01  0.40000000000E+01  0.51109989000E-03 0.  1.
     -623   -1    0    0    0    0  0.00000000000E+00  0.00000000000E+00  0.12525980253E-10  0.17130000000E+03  0.17130000000E+03 0.  1.
       11    1    1    2    0    0 -0.24347943596E+00 -0.42269230539E+00  0.33285753386E+00  0.59054671267E+00  0.51109989000E-03 0.  1.
     -623    1    1    2    0    0 -0.12863467992E+00  0.94764052250E-01  0.16588711476E+01  0.17130810658E+03  0.17130000000E+03 0.  1.
      622    1    1    2    0    0  0.37211411588E+00  0.32792825314E+00  0.20082712859E+01  0.34013467057E+01  0.27000000000E+01 0.  0.
</event>
<event>
 5   0  0.6580500E-04  0.9118800E+02  0.7818608E-02  0.1180000E+00
       11   -1    0    0    0    0  0.00000000000E+00  0.00000000000E+00  0.39999999673E+01  0.40000000000E+01  0.51109989000E-03 0.  1.
     -623   -1    0    0    0    0  0.00000000000E+00  0.00000000000E+00  0.12525980253E-10  0.17130000000E+03  0.17130000000E+03 0. -1.
       11    1    1    2    0    0 -0.10148493753E+00 -0.15201009400E-01 -0.14625144258E+00  0.17866171642E+00  0.51109989000E-03 0.  1.
     -623    1    1    2    0    0  0.54795036005E+00 -0.36306944291E+00  0.15177065056E+01  0.17130798435E+03  0.17130000000E+03 0. -1.
      622    1    1    2    0    0 -0.44646542252E+00  0.37827045231E+00  0.26285449044E+01  0.38133539336E+01  0.27000000000E+01 0.  1.
</event>
<event>
 5   0  0.6580500E-04  0.9118800E+02  0.7818608E-02  0.1180000E+00
       11   -1    0    0    0    0  0.00000000000E+00  0.00000000000E+00  0.39999999673E+01  0.40000000000E+01  0.51109989000E-03 0. -1.
     -623   -1    0    0    0    0  0.00000000000E+00  0.00000000000E+00  0.12525980253E-10  0.17130000000E+03  0.17130000000E+03 0. -1.
       11    1    1    2    0    0  0.17308900437E-01 -0.20877176792E-01 -0.28171163205E-01  0.39106651666E-01  0.51109989000E-03 0. -1.
     -623    1    1    2    0    0 -0.15415164172E+00  0.37027677657E+00  0.11605894118E+01  0.17130440110E+03  0.17130000000E+03 0. -1.
      622    1    1    2    0    0  0.13684274128E+00 -0.34939959978E+00  0.28675817188E+01  0.39564922507E+01  0.27000000000E+01 0. -1.
</event>
<event>
 5   0  0.6580500E-04  0.9118800E+02  0.7818608E-02  0.1180000E+00
       11   -1    0    0    0    0  0.00000000000E+00  0.00000000000E+00  0.39999999673E+01  0.40000000000E+01  0.51109989000E-03 0.  1.
     -623   -1    0    0    0    0  0.00000000000E+00  0.00000000000E+00  0.12525980253E-10  0.17130000000E+03  0.17130000000E+03 0.  1.
       11    1    1    2    0    0  0.19376479788E+00 -0.18056534006E+00 -0.51076985409E-01  0.26973646136E+00  0.51109989000E-03 0.  1.
     -623    1    1    2    0    0  0.20522623903E+00 -0.25492848246E+00  0.15568922942E+01  0.17130738752E+03  0.17130000000E+03 0.  1.
      622    1    1    2    0    0 -0.39899103691E+00  0.43549382251E+00  0.24941846585E+01  0.37228760156E+01  0.27000000000E+01 0.  1.
</event>
<event>
 5   0  0.6580500E-04  0.9118800E+02  0.7818608E-02  0.1180000E+00
       11   -1    0    0    0    0  0.00000000000E+00  0.00000000000E+00  0.39999999673E+01  0.40000000000E+01  0.51109989000E-03 0.  1.
     -623   -1    0    0    0    0  0.00000000000E+00  0.00000000000E+00  0.12525980253E-10  0.17130000000E+03  0.17130000000E+03 0.  1.
       11    1    1    2    0    0 -0.18182149900E+00  0.80132547601E-01  0.16960208089E+00  0.26123822414E+00  0.51109989000E-03 0.  1.
     -623    1    1    2    0    0  0.87234095530E-01 -0.30105227100E+00  0.12625826327E+01  0.17130493968E+03  0.17130000000E+03 0.  1.
      622    1    1    2    0    0  0.94587403471E-01  0.22091972340E+00  0.25678152538E+01  0.37338221006E+01  0.27000000000E+01 0.  1.
</event>
<event>
 5   0  0.6580500E-04  0.9118800E+02  0.7818608E-02  0.1180000E+00
       11   -1    0    0    0    0  0.00000000000E+00  0.00000000000E+00  0.39999999673E+01  0.40000000000E+01  0.51109989000E-03 0.  1.
     -623   -1    0    0    0    0  0.00000000000E+00  0.00000000000E+00  0.12525980253E-10  0.17130000000E+03  0.17130000000E+03 0. -1.
       11    1    1    2    0    0  0.20330890481E+00  0.54250683765E-02  0.15226990830E+00  0.25406756648E+00  0.51109989000E-03 0.  1.
     -623    1    1    2    0    0 -0.41181204920E+00  0.45886041365E+00  0.13105780186E+01  0.17130612294E+03  0.17130000000E+03 0. -1.
      622    1    1    2    0    0  0.20850314439E+00 -0.46428548203E+00  0.25371520405E+01  0.37398094934E+01  0.27000000000E+01 0.  1.
</event>
<event>
 5   0  0.6580500E-04  0.9118800E+02  0.7818608E-02  0.1180000E+00
       11   -1    0    0    0    0  0.00000000000E+00  0.00000000000E+00  0.39999999673E+01  0.40000000000E+01  0.51109989000E-03 0. -1.
     -623   -1    0    0    0    0  0.00000000000E+00  0.00000000000E+00  0.12525980253E-10  0.17130000000E+03  0.17130000000E+03 0. -1.
       11    1    1    2    0    0  0.88917378320E-01  0.12767498114E+00  0.88140293113E+00  0.89502993760E+00  0.51109989000E-03 0. -1.
     -623    1    1    2    0    0  0.85576373236E-01  0.23592054948E-01  0.16186177545E+01  0.17130767001E+03  0.17130000000E+03 0. -1.
      622    1    1    2    0    0 -0.17449375156E+00 -0.15126703609E+00  0.14999792817E+01  0.30973000551E+01  0.27000000000E+01 0. -1.
</event>
<event>
 5   0  0.6580500E-04  0.9118800E+02  0.7818608E-02  0.1180000E+00
       11   -1    0    0    0    0  0.00000000000E+00  0.00000000000E+00  0.39999999673E+01  0.40000000000E+01  0.51109989000E-03 0. -1.
     -623   -1    0    0    0    0  0.00000000000E+00  0.00000000000E+00  0.12525980253E-10  0.17130000000E+03  0.17130000000E+03 0. -1.
       11    1    1    2    0    0 -0.34655669046E+00  0.32601304038E-01  0.22583528225E+00  0.41492917548E+00  0.51109989000E-03 0. -1.
     -623    1    1    2    0    0  0.38558998565E+00 -0.27416529979E-01  0.14256417645E+01  0.17130636849E+03  0.17130000000E+03 0. -1.
      622    1    1    2    0    0 -0.39033295188E-01 -0.51847740590E-02  0.23485229206E+01  0.35787023330E+01  0.27000000000E+01 0. -1.
</event>
<event>
 5   0  0.6580500E-04  0.9118800E+02  0.7818608E-02  0.1180000E+00
       11   -1    0    0    0    0  0.00000000000E+00  0.00000000000E+00  0.39999999673E+01  0.40000000000E+01  0.51109989000E-03 0. -1.
     -623   -1    0    0    0    0  0.00000000000E+00  0.00000000000E+00  0.12525980253E-10  0.17130000000E+03  0.17130000000E+03 0. -1.
       11    1    1    2    0    0  0.61345232248E-02  0.99666727362E-01 -0.26498248822E+00  0.28317321413E+00  0.51109989000E-03 0. -1.
     -623    1    1    2    0    0 -0.20441409584E+00 -0.50488844994E+00  0.17655200260E+01  0.17130996398E+03  0.17130000000E+03 0. -1.
      622    1    1    2    0    0  0.19827957262E+00  0.40522172258E+00  0.24994624296E+01  0.37068628070E+01  0.27000000000E+01 0. -1.
</event>
<event>
 5   0  0.6580500E-04  0.9118800E+02  0.7818608E-02  0.1180000E+00
       11   -1    0    0    0    0  0.00000000000E+00  0.00000000000E+00  0.39999999673E+01  0.40000000000E+01  0.51109989000E-03 0. -1.
     -623   -1    0    0    0    0  0.00000000000E+00  0.00000000000E+00  0.12525980253E-10  0.17130000000E+03  0.17130000000E+03 0.  1.
       11    1    1    2    0    0  0.14126456772E+00  0.17583987391E+00  0.44671617070E+00  0.50043075219E+00  0.51109989000E-03 0. -1.
     -623    1    1    2    0    0 -0.17611617077E-01 -0.20206487207E+00  0.13388823256E+01  0.17130535236E+03  0.17130000000E+03 0.  1.
      622    1    1    2    0    0 -0.12365295065E+00  0.26224998168E-01  0.22144014711E+01  0.34942168905E+01  0.27000000000E+01 0. -1.
</event>
<event>
 5   0  0.6580500E-04  0.9118800E+02  0.7818608E-02  0.1180000E+00
       11   -1    0    0    0    0  0.00000000000E+00  0.00000000000E+00  0.39999999673E+01  0.40000000000E+01  0.51109989000E-03 0. -1.
     -623   -1    0    0    0    0  0.00000000000E+00  0.00000000000E+00  0.12525980253E-10  0.17130000000E+03  0.17130000000E+03 0. -1.
       11    1    1    2    0    0 -0.14906802231E-01  0.61303047826E-01 -0.10323225163E-01  0.63930482764E-01  0.51109989000E-03 0. -1.
     -623    1    1    2    0    0 -0.35125593797E-01  0.15423418623E+00  0.11603782325E+01  0.17130400316E+03  0.17130000000E+03 0. -1.
      622    1    1    2    0    0  0.50032396027E-01 -0.21553723406E+00  0.28499449600E+01  0.39320663543E+01  0.27000000000E+01 0. -1.
</event>
<event>
 5   0  0.6580500E-04  0.9118800E+02  0.7818608E-02  0.1180000E+00
       11   -1    0    0    0    0  0.00000000000E+00  0.00000000000E+00  0.39999999673E+01  0.40000000000E+01  0.51109989000E-03 0. -1.
     -623   -1    0    0    0    0  0.00000000000E+00  0.00000000000E+00  0.12525980253E-10  0.17130000000E+03  0.17130000000E+03 0.  1.
       11    1    1    2    0    0  0.76348137634E-02 -0.36963488026E+00  0.27347939834E+00  0.45986897876E+00  0.51109989000E-03 0. -1.
     -623    1    1    2    0    0 -0.85373111238E-01  0.13934077214E+00  0.14596043208E+01  0.17130629629E+03  0.17130000000E+03 0.  1.
      622    1    1    2    0    0  0.77738297475E-01  0.23029410812E+00  0.22669162482E+01  0.35338347295E+01  0.27000000000E+01 0. -1.
</event>
<event>
 5   0  0.6580500E-04  0.9118800E+02  0.7818608E-02  0.1180000E+00
       11   -1    0    0    0    0  0.00000000000E+00  0.00000000000E+00  0.39999999673E+01  0.40000000000E+01  0.51109989000E-03 0. -1.
     -623   -1    0    0    0    0  0.00000000000E+00  0.00000000000E+00  0.12525980253E-10  0.17130000000E+03  0.17130000000E+03 0. -1.
       11    1    1    2    0    0  0.10331583279E+00 -0.20375840800E+00  0.17030147190E+00  0.28494649093E+00  0.51109989000E-03 0. -1.
     -623    1    1    2    0    0  0.62134051334E+00  0.11242188716E+00  0.13950845490E+01  0.17130684447E+03  0.17130000000E+03 0. -1.
      622    1    1    2    0    0 -0.72465634613E+00  0.91336520839E-01  0.24346139465E+01  0.37082090352E+01  0.27000000000E+01 0. -1.
</event>
<event>
 5   0  0.6580500E-04  0.9118800E+02  0.7818608E-02  0.1180000E+00
       11   -1    0    0    0    0  0.00000000000E+00  0.00000000000E+00  0.39999999673E+01  0.40000000000E+01  0.51109989000E-03 0. -1.
     -623   -1    0    0    0    0  0.00000000000E+00  0.00000000000E+00  0.12525980253E-10  0.17130000000E+03  0.17130000000E+03 0.  1.
       11    1    1    2    0    0 -0.12175866850E+00  0.98439257080E-02 -0.33949623600E+00  0.36080470023E+00  0.51109989000E-03 0. -1.
     -623    1    1    2    0    0  0.10871460314E+00 -0.42672439856E+00  0.19531262725E+01  0.17131170017E+03  0.17130000000E+03 0.  1.
      622    1    1    2    0    0  0.13044065362E-01  0.41688047285E+00  0.23863699309E+01  0.36274951307E+01  0.27000000000E+01 0. -1.
</event>
<event>
 5   0  0.6580500E-04  0.9118800E+02  0.7818608E-02  0.1180000E+00
       11   -1    0    0    0    0  0.00000000000E+00  0.00000000000E+00  0.39999999673E+01  0.40000000000E+01  0.51109989000E-03 0. -1.
     -623   -1    0    0    0    0  0.00000000000E+00  0.00000000000E+00  0.12525980253E-10  0.17130000000E+03  0.17130000000E+03 0.  1.
       11    1    1    2    0    0  0.85886615705E-01 -0.78880276745E-01 -0.76550975969E-01  0.13949523992E+00  0.51109989000E-03 0. -1.
     -623    1    1    2    0    0 -0.57650493786E+00  0.47846866338E+00  0.14014315311E+01  0.17130737083E+03  0.17130000000E+03 0.  1.
      622    1    1    2    0    0  0.49061832216E+00 -0.39958838664E+00  0.26751194122E+01  0.38531339305E+01  0.27000000000E+01 0. -1.
</event>
<event>
 5   0  0.6580500E-04  0.9118800E+02  0.7818608E-02  0.1180000E+00
       11   -1    0    0    0    0  0.00000000000E+00  0.00000000000E+00  0.39999999673E+01  0.40000000000E+01  0.51109989000E-03 0. -1.
     -623   -1    0    0    0    0  0.00000000000E+00  0.00000000000E+00  0.12525980253E-10  0.17130000000E+03  0.17130000000E+03 0.  1.
       11    1    1    2    0    0  0.19873382838E+00 -0.18566172708E+00 -0.37508719063E-01  0.27454066488E+00  0.51109989000E-03 0. -1.
     -623    1    1    2    0    0  0.12660307579E-01  0.10729783547E+00  0.14900149546E+01  0.17130651423E+03  0.17130000000E+03 0.  1.
      622    1    1    2    0    0 -0.21139413596E+00  0.78363891603E-01  0.25474937318E+01  0.37189451050E+01  0.27000000000E+01 0. -1.
</event>
<event>
 5   0  0.6580500E-04  0.9118800E+02  0.7818608E-02  0.1180000E+00
       11   -1    0    0    0    0  0.00000000000E+00  0.00000000000E+00  0.39999999673E+01  0.40000000000E+01  0.51109989000E-03 0.  1.
     -623   -1    0    0    0    0  0.00000000000E+00  0.00000000000E+00  0.12525980253E-10  0.17130000000E+03  0.17130000000E+03 0. -1.
       11    1    1    2    0    0 -0.28795056704E+00  0.19141586741E+00  0.18612834148E+00  0.39268254873E+00  0.51109989000E-03 0.  1.
     -623    1    1    2    0    0 -0.36657128994E+00  0.47994203614E+00  0.16274958641E+01  0.17130879563E+03  0.17130000000E+03 0. -1.
      622    1    1    2    0    0  0.65452185698E+00 -0.67135790355E+00  0.21863757618E+01  0.35985218170E+01  0.27000000000E+01 0.  1.
</event>
<event>
 5   0  0.6580500E-04  0.9118800E+02  0.7818608E-02  0.1180000E+00
       11   -1    0    0    0    0  0.00000000000E+00  0.00000000000E+00  0.39999999673E+01  0.40000000000E+01  0.51109989000E-03 0. -1.
     -623   -1    0    0    0    0  0.00000000000E+00  0.00000000000E+00  0.12525980253E-10  0.17130000000E+03  0.17130000000E+03 0. -1.
       11    1    1    2    0    0  0.61452074792E-01  0.15494776943E-01 -0.61712847889E-01  0.88460061184E-01  0.51109989000E-03 0. -1.
     -623    1    1    2    0    0  0.99812561922E-01  0.12845658118E-01  0.12425157367E+01  0.17130453576E+03  0.17130000000E+03 0. -1.
      622    1    1    2    0    0 -0.16126463671E+00 -0.28340435061E-01  0.28191970786E+01  0.39070041760E+01  0.27000000000E+01 0.  0.
</event>
<event>
 5   0  0.6580500E-04  0.9118800E+02  0.7818608E-02  0.1180000E+00
       11   -1    0    0    0    0  0.00000000000E+00  0.00000000000E+00  0.39999999673E+01  0.40000000000E+01  0.51109989000E-03 0.  1.
     -623   -1    0    0    0    0  0.00000000000E+00  0.00000000000E+00  0.12525980253E-10  0.17130000000E+03  0.17130000000E+03 0.  1.
       11    1    1    2    0    0 -0.19268297490E+00  0.12208739519E+00  0.37322881476E+00  0.43741521495E+00  0.51109989000E-03 0.  1.
     -623    1    1    2    0    0 -0.49318597490E-01  0.76674896234E+00  0.15068688644E+01  0.17130835061E+03  0.17130000000E+03 0.  1.
      622    1    1    2    0    0  0.24200157239E+00 -0.88883635752E+00  0.21199022882E+01  0.35542341711E+01  0.27000000000E+01 0.  1.
</event>
<event>
 5   0  0.6580500E-04  0.9118800E+02  0.7818608E-02  0.1180000E+00
       11   -1    0    0    0    0  0.00000000000E+00  0.00000000000E+00  0.39999999673E+01  0.40000000000E+01  0.51109989000E-03 0.  1.
     -623   -1    0    0    0    0  0.00000000000E+00  0.00000000000E+00  0.12525980253E-10  0.17130000000E+03  0.17130000000E+03 0. -1.
       11    1    1    2    0    0 -0.12085424512E+00  0.75830255439E-01 -0.51051294605E-03  0.14267620001E+00  0.51109989000E-03 0.  1.
     -623    1    1    2    0    0  0.72978770943E-01  0.15489062244E+00  0.12624644554E+01  0.17130473763E+03  0.17130000000E+03 0. -1.
      622    1    1    2    0    0  0.47875474177E-01 -0.23072087788E+00  0.27380460249E+01  0.38525861728E+01  0.27000000000E+01 0.  1.
</event>
<event>
 5   0  0.6580500E-04  0.9118800E+02  0.7818608E-02  0.1180000E+00
       11   -1    0    0    0    0  0.00000000000E+00  0.00000000000E+00  0.39999999673E+01  0.40000000000E+01  0.51109989000E-03 0.  1.
     -623   -1    0    0    0    0  0.00000000000E+00  0.00000000000E+00  0.12525980253E-10  0.17130000000E+03  0.17130000000E+03 0. -1.
       11    1    1    2    0    0  0.41929890602E-01 -0.29097273032E+00  0.15540562824E+00  0.33252731621E+00  0.51109989000E-03 0.  1.
     -623    1    1    2    0    0  0.57735321031E+00  0.12133456832E+00  0.14581434469E+01  0.17130722180E+03  0.17130000000E+03 0. -1.
      622    1    1    2    0    0 -0.61928310092E+00  0.16963816200E+00  0.23864508923E+01  0.36602508830E+01  0.27000000000E+01 0.  1.
</event>
<event>
 5   0  0.6580500E-04  0.9118800E+02  0.7818608E-02  0.1180000E+00
       11   -1    0    0    0    0  0.00000000000E+00  0.00000000000E+00  0.39999999673E+01  0.40000000000E+01  0.51109989000E-03 0.  1.
     -623   -1    0    0    0    0  0.00000000000E+00  0.00000000000E+00  0.12525980253E-10  0.17130000000E+03  0.17130000000E+03 0. -1.
       11    1    1    2    0    0  0.11731921176E+00  0.21470612035E+00  0.12856241302E+00  0.27638934644E+00  0.51109989000E-03 0.  1.
     -623    1    1    2    0    0  0.14519372310E+00 -0.56902852830E+00  0.13547999078E+01  0.17130636403E+03  0.17130000000E+03 0. -1.
      622    1    1    2    0    0 -0.26251293486E+00  0.35432240795E+00  0.25166376466E+01  0.37172466227E+01  0.27000000000E+01 0.  1.
</event>
<event>
 5   0  0.6580500E-04  0.9118800E+02  0.7818608E-02  0.1180000E+00
       11   -1    0    0    0    0  0.00000000000E+00  0.00000000000E+00  0.39999999673E+01  0.40000000000E+01  0.51109989000E-03 0.  1.
     -623   -1    0    0    0    0  0.00000000000E+00  0.00000000000E+00  0.12525980253E-10  0.17130000000E+03  0.17130000000E+03 0. -1.
       11    1    1    2    0    0 -0.60852643830E-01  0.21232845614E+00 -0.19209950746E+00  0.29272666352E+00  0.51109989000E-03 0.  1.
     -623    1    1    2    0    0  0.80424232679E-01 -0.39291289019E+00  0.16707777981E+01  0.17130861726E+03  0.17130000000E+03 0. -1.
      622    1    1    2    0    0 -0.19571588849E-01  0.18058443406E+00  0.25213216768E+01  0.36986560779E+01  0.27000000000E+01 0.  1.
</event>
<event>
 5   0  0.6580500E-04  0.9118800E+02  0.7818608E-02  0.1180000E+00
       11   -1    0    0    0    0  0.00000000000E+00  0.00000000000E+00  0.39999999673E+01  0.40000000000E+01  0.51109989000E-03 0. -1.
     -623   -1    0    0    0    0  0.00000000000E+00  0.00000000000E+00  0.12525980253E-10  0.17130000000E+03  0.17130000000E+03 0.  1.
       11    1    1    2    0    0  0.34902266171E+00 -0.58413119298E-01  0.14414273949E+00  0.38210770924E+00  0.51109989000E-03 0. -1.
     -623    1    1    2    0    0 -0.54516407737E+00  0.52536095096E+00  0.15144565253E+01  0.17130836753E+03  0.17130000000E+03 0.  1.
      622    1    1    2    0    0  0.19614141566E+00 -0.46694783167E+00  0.23414007025E+01  0.36095247585E+01  0.27000000000E+01 0. -1.
</event>
<event>
 5   0  0.6580500E-04  0.9118800E+02  0.7818608E-02  0.1180000E+00
       11   -1    0    0    0    0  0.00000000000E+00  0.00000000000E+00  0.39999999673E+01  0.40000000000E+01  0.51109989000E-03 0.  1.
     -623   -1    0    0    0    0  0.00000000000E+00  0.00000000000E+00  0.12525980253E-10  0.17130000000E+03  0.17130000000E+03 0. -1.
       11    1    1    2    0    0 -0.39247597075E-01 -0.67741355111E-01  0.78647415560E+00  0.79036138805E+00  0.51109989000E-03 0.  1.
     -623    1    1    2    0    0  0.46604801921E+00  0.18552640673E+00  0.15503790478E+01  0.17130775025E+03  0.17130000000E+03 0. -1.
      622    1    1    2    0    0 -0.42680042214E+00 -0.11778505162E+00  0.16631467640E+01  0.32018883611E+01  0.27000000000E+01 0.  0.
</event>
<event>
 5   0  0.6580500E-04  0.9118800E+02  0.7818608E-02  0.1180000E+00
       11   -1    0    0    0    0  0.00000000000E+00  0.00000000000E+00  0.39999999673E+01  0.40000000000E+01  0.51109989000E-03 0.  1.
     -623   -1    0    0    0    0  0.00000000000E+00  0.00000000000E+00  0.12525980253E-10  0.17130000000E+03  0.17130000000E+03 0. -1.
       11    1    1    2    0    0  0.25029735070E+00 -0.75685319329E-01  0.90866437676E-01  0.27682847044E+00  0.51109989000E-03 0.  1.
     -623    1    1    2    0    0 -0.47251247347E+00  0.23358098191E+00  0.13692620122E+01  0.17130628332E+03  0.17130000000E+03 0. -1.
      622    1    1    2    0    0  0.22221512277E+00 -0.15789566258E+00  0.25398715175E+01  0.37168882047E+01  0.27000000000E+01 0.  1.
</event>
<event>
 5   0  0.6580500E-04  0.9118800E+02  0.7818608E-02  0.1180000E+00
       11   -1    0    0    0    0  0.00000000000E+00  0.00000000000E+00  0.39999999673E+01  0.40000000000E+01  0.51109989000E-03 0. -1.
     -623   -1    0    0    0    0  0.00000000000E+00  0.00000000000E+00  0.12525980253E-10  0.17130000000E+03  0.17130000000E+03 0.  1.
       11    1    1    2    0    0  0.10340521064E+00 -0.12382070936E+00  0.69629939901E-01  0.17570656052E+00  0.51109989000E-03 0. -1.
     -623    1    1    2    0    0 -0.44484278113E+00  0.88280575256E+00  0.13653716774E+01  0.17130829364E+03  0.17130000000E+03 0.  1.
      622    1    1    2    0    0  0.34143757048E+00 -0.75898504320E+00  0.25649983500E+01  0.38159997964E+01  0.27000000000E+01 0. -1.
</event>
<event>
 5   0  0.6580500E-04  0.9118800E+02  0.7818608E-02  0.1180000E+00
       11   -1    0    0    0    0  0.00000000000E+00  0.00000000000E+00  0.39999999673E+01  0.40000000000E+01  0.51109989000E-03 0. -1.
     -623   -1    0    0    0    0  0.00000000000E+00  0.00000000000E+00  0.12525980253E-10  0.17130000000E+03  0.17130000000E+03 0. -1.
       11    1    1    2    0    0  0.13615875104E+00  0.24880456054E-01  0.35298222375E-01  0.14284420991E+00  0.51109989000E-03 0. -1.
     -623    1    1    2    0    0  0.18614612173E+00  0.40805598581E+00  0.12711066178E+01  0.17130530311E+03  0.17130000000E+03 0. -1.
      622    1    1    2    0    0 -0.32230487277E+00 -0.43293644186E+00  0.26935951272E+01  0.38518526845E+01  0.27000000000E+01 0. -1.
</event>
<event>
 5   0  0.6580500E-04  0.9118800E+02  0.7818608E-02  0.1180000E+00
       11   -1    0    0    0    0  0.00000000000E+00  0.00000000000E+00  0.39999999673E+01  0.40000000000E+01  0.51109989000E-03 0.  1.
     -623   -1    0    0    0    0  0.00000000000E+00  0.00000000000E+00  0.12525980253E-10  0.17130000000E+03  0.17130000000E+03 0.  1.
       11    1    1    2    0    0  0.63929587295E-03  0.27380324337E-01 -0.35587383833E-01  0.44908951984E-01  0.51109989000E-03 0.  1.
     -623    1    1    2    0    0  0.18095097071E+00  0.30053813923E+00  0.11759563860E+01  0.17130439556E+03  0.17130000000E+03 0.  1.
      622    1    1    2    0    0 -0.18159026658E+00 -0.32791846356E+00  0.28596309651E+01  0.39506954831E+01  0.27000000000E+01 0.  1.
</event>
<event>
 5   0  0.6580500E-04  0.9118800E+02  0.7818608E-02  0.1180000E+00
       11   -1    0    0    0    0  0.00000000000E+00  0.00000000000E+00  0.39999999673E+01  0.40000000000E+01  0.51109989000E-03 0.  1.
     -623   -1    0    0    0    0  0.00000000000E+00  0.00000000000E+00  0.12525980253E-10  0.17130000000E+03  0.17130000000E+03 0. -1.
       11    1    1    2    0    0  0.94142780560E-01 -0.31765184773E-01 -0.21545734905E+00  0.23726360989E+00  0.51109989000E-03 0.  1.
     -623    1    1    2    0    0 -0.11706427009E+01 -0.44221462483E-01  0.18493445716E+01  0.17131398786E+03  0.17130000000E+03 0. -1.
      622    1    1    2    0    0  0.10764999203E+01  0.75986647256E-01  0.23661127448E+01  0.37487485339E+01  0.27000000000E+01 0.  1.
</event>
<event>
 5   0  0.6580500E-04  0.9118800E+02  0.7818608E-02  0.1180000E+00
       11   -1    0    0    0    0  0.00000000000E+00  0.00000000000E+00  0.39999999673E+01  0.40000000000E+01  0.51109989000E-03 0. -1.
     -623   -1    0    0    0    0  0.00000000000E+00  0.00000000000E+00  0.12525980253E-10  0.17130000000E+03  0.17130000000E+03 0.  1.
       11    1    1    2    0    0 -0.32594928830E-01  0.40323185308E+00  0.45525571717E+00  0.60902905182E+00  0.51109989000E-03 0. -1.
     -623    1    1    2    0    0 -0.18069935661E+00 -0.75190540957E+00  0.15491618626E+01  0.17130875026E+03  0.17130000000E+03 0.  1.
      622    1    1    2    0    0  0.21329428544E+00  0.34867355649E+00  0.19955823876E+01  0.33822206857E+01  0.27000000000E+01 0. -1.
</event>
<event>
 5   0  0.6580500E-04  0.9118800E+02  0.7818608E-02  0.1180000E+00
       11   -1    0    0    0    0  0.00000000000E+00  0.00000000000E+00  0.39999999673E+01  0.40000000000E+01  0.51109989000E-03 0. -1.
     -623   -1    0    0    0    0  0.00000000000E+00  0.00000000000E+00  0.12525980253E-10  0.17130000000E+03  0.17130000000E+03 0. -1.
       11    1    1    2    0    0 -0.55465798720E+00  0.34800750906E+00  0.72691239395E+00  0.97834380400E+00  0.51109989000E-03 0. -1.
     -623    1    1    2    0    0  0.68989385869E+00  0.56019860683E-02  0.20009919223E+01  0.17131307584E+03  0.17130000000E+03 0. -1.
      622    1    1    2    0    0 -0.13523587149E+00 -0.35360949513E+00  0.12720956511E+01  0.30085803565E+01  0.27000000000E+01 0. -1.
</event>
<event>
 5   0  0.6580500E-04  0.9118800E+02  0.7818608E-02  0.1180000E+00
       11   -1    0    0    0    0  0.00000000000E+00  0.00000000000E+00  0.39999999673E+01  0.40000000000E+01  0.51109989000E-03 0. -1.
     -623   -1    0    0    0    0  0.00000000000E+00  0.00000000000E+00  0.12525980253E-10  0.17130000000E+03  0.17130000000E+03 0. -1.
       11    1    1    2    0    0 -0.60483316421E-01  0.17876265849E+00  0.56283502206E-02  0.18880216944E+00  0.51109989000E-03 0. -1.
     -623    1    1    2    0    0  0.87467278000E-01 -0.90189947859E+00  0.14158496978E+01  0.17130824762E+03  0.17130000000E+03 0. -1.
      622    1    1    2    0    0 -0.26983961579E-01  0.72313682010E+00  0.25785219194E+01  0.38029502079E+01  0.27000000000E+01 0. -1.
</event>
<event>
 5   0  0.6580500E-04  0.9118800E+02  0.7818608E-02  0.1180000E+00
       11   -1    0    0    0    0  0.00000000000E+00  0.00000000000E+00  0.39999999673E+01  0.40000000000E+01  0.51109989000E-03 0. -1.
     -623   -1    0    0    0    0  0.00000000000E+00  0.00000000000E+00  0.12525980253E-10  0.17130000000E+03  0.17130000000E+03 0. -1.
       11    1    1    2    0    0  0.24372702909E+00  0.27895389356E+00  0.28074645091E+00  0.46479777362E+00  0.51109989000E-03 0. -1.
     -623    1    1    2    0    0 -0.62656333214E+00  0.37692730110E+00  0.15818919748E+01  0.17130886445E+03  0.17130000000E+03 0. -1.
      622    1    1    2    0    0  0.38283630305E+00 -0.65588119466E+00  0.21373615417E+01  0.35263377797E+01  0.27000000000E+01 0. -1.
</event>
<event>
 5   0  0.6580500E-04  0.9118800E+02  0.7818608E-02  0.1180000E+00
       11   -1    0    0    0    0  0.00000000000E+00  0.00000000000E+00  0.39999999673E+01  0.40000000000E+01  0.51109989000E-03 0. -1.
     -623   -1    0    0    0    0  0.00000000000E+00  0.00000000000E+00  0.12525980253E-10  0.17130000000E+03  0.17130000000E+03 0. -1.
       11    1    1    2    0    0 -0.41374792162E+00 -0.64585331089E-01 -0.81188870439E-01  0.42655656312E+00  0.51109989000E-03 0. -1.
     -623    1    1    2    0    0  0.43148102446E-01  0.64183984098E-01  0.17842990883E+01  0.17130931003E+03  0.17130000000E+03 0. -1.
      622    1    1    2    0    0  0.37059981918E+00  0.40134699066E-03  0.22968897495E+01  0.35641334021E+01  0.27000000000E+01 0. -1.
</event>
<event>
 5   0  0.6580500E-04  0.9118800E+02  0.7818608E-02  0.1180000E+00
       11   -1    0    0    0    0  0.00000000000E+00  0.00000000000E+00  0.39999999673E+01  0.40000000000E+01  0.51109989000E-03 0. -1.
     -623   -1    0    0    0    0  0.00000000000E+00  0.00000000000E+00  0.12525980253E-10  0.17130000000E+03  0.17130000000E+03 0.  1.
       11    1    1    2    0    0 -0.26926710583E+00 -0.13923364224E-01  0.32648982527E+00  0.42343181456E+00  0.51109989000E-03 0. -1.
     -623    1    1    2    0    0 -0.15403434641E-01 -0.19424002694E+00  0.13631174827E+01  0.17130553422E+03  0.17130000000E+03 0.  1.
      622    1    1    2    0    0  0.28467054048E+00  0.20816339116E+00  0.23103926594E+01  0.35710339616E+01  0.27000000000E+01 0. -1.
</event>
<event>
 5   0  0.6580500E-04  0.9118800E+02  0.7818608E-02  0.1180000E+00
       11   -1    0    0    0    0  0.00000000000E+00  0.00000000000E+00  0.39999999673E+01  0.40000000000E+01  0.51109989000E-03 0.  1.
     -623   -1    0    0    0    0  0.00000000000E+00  0.00000000000E+00  0.12525980253E-10  0.17130000000E+03  0.17130000000E+03 0. -1.
       11    1    1    2    0    0  0.18870688172E+00 -0.66620388118E-01  0.55542181069E-01  0.20768668331E+00  0.51109989000E-03 0.  1.
     -623    1    1    2    0    0 -0.22500007143E-01  0.40332423725E+00  0.13160127010E+01  0.17130553134E+03  0.17130000000E+03 0. -1.
      622    1    1    2    0    0 -0.16620687458E+00 -0.33670384913E+00  0.26284450853E+01  0.37867819812E+01  0.27000000000E+01 0.  1.
</event>
<event>
 5   0  0.6580500E-04  0.9118800E+02  0.7818608E-02  0.1180000E+00
       11   -1    0    0    0    0  0.00000000000E+00  0.00000000000E+00  0.39999999673E+01  0.40000000000E+01  0.51109989000E-03 0. -1.
     -623   -1    0    0    0    0  0.00000000000E+00  0.00000000000E+00  0.12525980253E-10  0.17130000000E+03  0.17130000000E+03 0.  1.
       11    1    1    2    0    0 -0.18288992574E-01  0.25423032932E-01 -0.65644984788E-01  0.72734744811E-01  0.51109989000E-03 0. -1.
     -623    1    1    2    0    0 -0.56113430044E-01  0.90785769150E-01  0.12231405089E+01  0.17130440001E+03  0.17130000000E+03 0.  1.
      622    1    1    2    0    0  0.74402422618E-01 -0.11620880208E+00  0.28425044433E+01  0.39228652432E+01  0.27000000000E+01 0. -1.
</event>
<event>
 5   0  0.6580500E-04  0.9118800E+02  0.7818608E-02  0.1180000E+00
       11   -1    0    0    0    0  0.00000000000E+00  0.00000000000E+00  0.39999999673E+01  0.40000000000E+01  0.51109989000E-03 0.  1.
     -623   -1    0    0    0    0  0.00000000000E+00  0.00000000000E+00  0.12525980253E-10  0.17130000000E+03  0.17130000000E+03 0.  1.
       11    1    1    2    0    0 -0.44772937295E+00 -0.37207026240E+00 -0.12084875082E+00  0.59456080712E+00  0.51109989000E-03 0.  1.
     -623    1    1    2    0    0 -0.18477166350E+00 -0.28082866518E+00  0.22837316683E+01  0.17131555223E+03  0.17130000000E+03 0.  1.
      622    1    1    2    0    0  0.63250103645E+00  0.65289892758E+00  0.18371170499E+01  0.33898869636E+01  0.27000000000E+01 0.  1.
</event>
<event>
 5   0  0.6580500E-04  0.9118800E+02  0.7818608E-02  0.1180000E+00
       11   -1    0    0    0    0  0.00000000000E+00  0.00000000000E+00  0.39999999673E+01  0.40000000000E+01  0.51109989000E-03 0.  1.
     -623   -1    0    0    0    0  0.00000000000E+00  0.00000000000E+00  0.12525980253E-10  0.17130000000E+03  0.17130000000E+03 0.  1.
       11    1    1    2    0    0 -0.13813359848E+00 -0.63481025181E-01  0.54030926653E-01  0.16133918881E+00  0.51109989000E-03 0.  1.
     -623    1    1    2    0    0 -0.13778450321E+00  0.14297382547E+00  0.12390143494E+01  0.17130459592E+03  0.17130000000E+03 0.  1.
      622    1    1    2    0    0  0.27591810169E+00 -0.79492800287E-01  0.27069546913E+01  0.38340648932E+01  0.27000000000E+01 0.  1.
</event>
<event>
 5   0  0.6580500E-04  0.9118800E+02  0.7818608E-02  0.1180000E+00
       11   -1    0    0    0    0  0.00000000000E+00  0.00000000000E+00  0.39999999673E+01  0.40000000000E+01  0.51109989000E-03 0.  1.
     -623   -1    0    0    0    0  0.00000000000E+00  0.00000000000E+00  0.12525980253E-10  0.17130000000E+03  0.17130000000E+03 0. -1.
       11    1    1    2    0    0  0.44734557068E-01 -0.91639250068E-01  0.53877818610E+00  0.54834398673E+00  0.51109989000E-03 0.  1.
     -623    1    1    2    0    0 -0.48708316769E+00  0.76310788008E+00  0.14821597559E+01  0.17130880416E+03  0.17130000000E+03 0. -1.
      622    1    1    2    0    0  0.44234861062E+00 -0.67146863001E+00  0.19790620253E+01  0.34428518578E+01  0.27000000000E+01 0.  0.
</event>
<event>
 5   0  0.6580500E-04  0.9118800E+02  0.7818608E-02  0.1180000E+00
       11   -1    0    0    0    0  0.00000000000E+00  0.00000000000E+00  0.39999999673E+01  0.40000000000E+01  0.51109989000E-03 0.  1.
     -623   -1    0    0    0    0  0.00000000000E+00  0.00000000000E+00  0.12525980253E-10  0.17130000000E+03  0.17130000000E+03 0. -1.
       11    1    1    2    0    0 -0.12432765922E+00 -0.14418546769E+00  0.32238333428E+00  0.37440364766E+00  0.51109989000E-03 0.  1.
     -623    1    1    2    0    0 -0.34992929529E+00  0.47745596641E+00  0.13380245611E+01  0.17130624835E+03  0.17130000000E+03 0. -1.
      622    1    1    2    0    0  0.47425695451E+00 -0.33327049872E+00  0.23395920720E+01  0.36193480003E+01  0.27000000000E+01 0.  1.
</event>
<event>
 5   0  0.6580500E-04  0.9118800E+02  0.7818608E-02  0.1180000E+00
       11   -1    0    0    0    0  0.00000000000E+00  0.00000000000E+00  0.39999999673E+01  0.40000000000E+01  0.51109989000E-03 0.  1.
     -623   -1    0    0    0    0  0.00000000000E+00  0.00000000000E+00  0.12525980253E-10  0.17130000000E+03  0.17130000000E+03 0.  1.
       11    1    1    2    0    0 -0.16301496029E+00 -0.10745535510E+00  0.25125763230E+00  0.31819992085E+00  0.51109989000E-03 0.  1.
     -623    1    1    2    0    0  0.53219331111E+00  0.11248343304E+00  0.12814128674E+01  0.17130565636E+03  0.17130000000E+03 0.  1.
      622    1    1    2    0    0 -0.36917835081E+00 -0.50280779392E-02  0.24673294677E+01  0.36761437184E+01  0.27000000000E+01 0.  1.
</event>
<event>
 5   0  0.6580500E-04  0.9118800E+02  0.7818608E-02  0.1180000E+00
       11   -1    0    0    0    0  0.00000000000E+00  0.00000000000E+00  0.39999999673E+01  0.40000000000E+01  0.51109989000E-03 0.  1.
     -623   -1    0    0    0    0  0.00000000000E+00  0.00000000000E+00  0.12525980253E-10  0.17130000000E+03  0.17130000000E+03 0.  1.
       11    1    1    2    0    0  0.18572899771E+00 -0.72760891476E-01  0.25907662024E+00  0.32697150380E+00  0.51109989000E-03 0.  1.
     -623    1    1    2    0    0 -0.63461947398E+00 -0.46819292574E+00  0.13631344485E+01  0.17130723885E+03  0.17130000000E+03 0.  1.
      622    1    1    2    0    0  0.44889047626E+00  0.54095381722E+00  0.23777888987E+01  0.36657896474E+01  0.27000000000E+01 0.  1.
</event>
<event>
 5   0  0.6580500E-04  0.9118800E+02  0.7818608E-02  0.1180000E+00
       11   -1    0    0    0    0  0.00000000000E+00  0.00000000000E+00  0.39999999673E+01  0.40000000000E+01  0.51109989000E-03 0. -1.
     -623   -1    0    0    0    0  0.00000000000E+00  0.00000000000E+00  0.12525980253E-10  0.17130000000E+03  0.17130000000E+03 0. -1.
       11    1    1    2    0    0  0.30744999955E+00 -0.14670000597E+00  0.21661959124E+00  0.40369629984E+00  0.51109989000E-03 0. -1.
     -623    1    1    2    0    0 -0.70676955118E-01  0.20990276096E+00  0.14297800062E+01  0.17130611001E+03  0.17130000000E+03 0. -1.
      622    1    1    2    0    0 -0.23677304443E+00 -0.63202754991E-01  0.23536003699E+01  0.35901936945E+01  0.27000000000E+01 0. -1.
</event>
<event>
 5   0  0.6580500E-04  0.9118800E+02  0.7818608E-02  0.1180000E+00
       11   -1    0    0    0    0  0.00000000000E+00  0.00000000000E+00  0.39999999673E+01  0.40000000000E+01  0.51109989000E-03 0. -1.
     -623   -1    0    0    0    0  0.00000000000E+00  0.00000000000E+00  0.12525980253E-10  0.17130000000E+03  0.17130000000E+03 0.  1.
       11    1    1    2    0    0 -0.17433083443E+00 -0.55185393358E-01  0.17410303515E+00  0.25248523828E+00  0.51109989000E-03 0. -1.
     -623    1    1    2    0    0  0.54328663257E+00  0.58533557322E-01  0.12614447959E+01  0.17130551605E+03  0.17130000000E+03 0.  1.
      622    1    1    2    0    0 -0.36895579814E+00 -0.33481639647E-02  0.25644521363E+01  0.37419987107E+01  0.27000000000E+01 0. -1.
</event>
<event>
 5   0  0.6580500E-04  0.9118800E+02  0.7818608E-02  0.1180000E+00
       11   -1    0    0    0    0  0.00000000000E+00  0.00000000000E+00  0.39999999673E+01  0.40000000000E+01  0.51109989000E-03 0. -1.
     -623   -1    0    0    0    0  0.00000000000E+00  0.00000000000E+00  0.12525980253E-10  0.17130000000E+03  0.17130000000E+03 0.  1.
       11    1    1    2    0    0 -0.35734836842E-01  0.21712909221E-01  0.29776798642E+00  0.30068997980E+00  0.51109989000E-03 0. -1.
     -623    1    1    2    0    0  0.81054250237E-02  0.79430026715E+00  0.13195711041E+01  0.17130692411E+03  0.17130000000E+03 0.  1.
      622    1    1    2    0    0  0.27629411818E-01 -0.81601317637E+00  0.23826608769E+01  0.36923859146E+01  0.27000000000E+01 0.  0.
</event>
<event>
 5   0  0.6580500E-04  0.9118800E+02  0.7818608E-02  0.1180000E+00
       11   -1    0    0    0    0  0.00000000000E+00  0.00000000000E+00  0.39999999673E+01  0.40000000000E+01  0.51109989000E-03 0.  1.
     -623   -1    0    0    0    0  0.00000000000E+00  0.00000000000E+00  0.12525980253E-10  0.17130000000E+03  0.17130000000E+03 0.  1.
       11    1    1    2    0    0 -0.13577594587E+00  0.13887479939E+00 -0.42518643691E-01  0.19882005348E+00  0.51109989000E-03 0.  1.
     -623    1    1    2    0    0 -0.31460049252E-01 -0.57889102802E-02  0.13834153705E+01  0.17130558911E+03  0.17130000000E+03 0.  1.
      622    1    1    2    0    0  0.16723599512E+00 -0.13308588911E+00  0.26591032406E+01  0.37955908336E+01  0.27000000000E+01 0.  1.
</event>
<event>
 5   0  0.6580500E-04  0.9118800E+02  0.7818608E-02  0.1180000E+00
       11   -1    0    0    0    0  0.00000000000E+00  0.00000000000E+00  0.39999999673E+01  0.40000000000E+01  0.51109989000E-03 0.  1.
     -623   -1    0    0    0    0  0.00000000000E+00  0.00000000000E+00  0.12525980253E-10  0.17130000000E+03  0.17130000000E+03 0. -1.
       11    1    1    2    0    0  0.21112355788E+00  0.36190960291E+00  0.68098575889E+00  0.79955836710E+00  0.51109989000E-03 0.  1.
     -623    1    1    2    0    0 -0.43842991656E+00 -0.28311642601E+00  0.16337643016E+01  0.17130858578E+03  0.17130000000E+03 0. -1.
      622    1    1    2    0    0  0.22730635868E+00 -0.78793176902E-01  0.16852499069E+01  0.31918558542E+01  0.27000000000E+01 0.  1.
</event>
<event>
 5   0  0.6580500E-04  0.9118800E+02  0.7818608E-02  0.1180000E+00
       11   -1    0    0    0    0  0.00000000000E+00  0.00000000000E+00  0.39999999673E+01  0.40000000000E+01  0.51109989000E-03 0.  1.
     -623   -1    0    0    0    0  0.00000000000E+00  0.00000000000E+00  0.12525980253E-10  0.17130000000E+03  0.17130000000E+03 0. -1.
       11    1    1    2    0    0 -0.11308532467E+00  0.46028557874E-01 -0.68654650308E-01  0.14007369854E+00  0.51109989000E-03 0.  1.
     -623    1    1    2    0    0  0.28525914241E-01  0.43537852305E+00  0.13623558417E+01  0.17130597299E+03  0.17130000000E+03 0. -1.
      622    1    1    2    0    0  0.84559410426E-01 -0.48140708093E+00  0.27062987760E+01  0.38539533127E+01  0.27000000000E+01 0.  1.
</event>
<event>
 5   0  0.6580500E-04  0.9118800E+02  0.7818608E-02  0.1180000E+00
       11   -1    0    0    0    0  0.00000000000E+00  0.00000000000E+00  0.39999999673E+01  0.40000000000E+01  0.51109989000E-03 0. -1.
     -623   -1    0    0    0    0  0.00000000000E+00  0.00000000000E+00  0.12525980253E-10  0.17130000000E+03  0.17130000000E+03 0. -1.
       11    1    1    2    0    0 -0.21950052065E-01 -0.32550593556E+00  0.60189980128E+00  0.68463095962E+00  0.51109989000E-03 0. -1.
     -623    1    1    2    0    0  0.80385167507E+00  0.52159951115E+00  0.16718025373E+01  0.17131083786E+03  0.17130000000E+03 0. -1.
      622    1    1    2    0    0 -0.78190162300E+00 -0.19609357560E+00  0.17262976288E+01  0.33045311833E+01  0.27000000000E+01 0. -1.
</event>
<event>
 5   0  0.6580500E-04  0.9118800E+02  0.7818608E-02  0.1180000E+00
       11   -1    0    0    0    0  0.00000000000E+00  0.00000000000E+00  0.39999999673E+01  0.40000000000E+01  0.51109989000E-03 0.  1.
     -623   -1    0    0    0    0  0.00000000000E+00  0.00000000000E+00  0.12525980253E-10  0.17130000000E+03  0.17130000000E+03 0.  1.
       11    1    1    2    0    0 -0.14409913452E+00  0.20575935893E+00  0.52969332769E-02  0.25125642894E+00  0.51109989000E-03 0.  1.
     -623    1    1    2    0    0  0.19106039158E+00 -0.52476126983E+00  0.14241096351E+01  0.17130682989E+03  0.17130000000E+03 0.  1.
      622    1    1    2    0    0 -0.46961257056E-01  0.31900191090E+00  0.25705933990E+01  0.37419136818E+01  0.27000000000E+01 0.  1.
</event>
<event>
 5   0  0.6580500E-04  0.9118800E+02  0.7818608E-02  0.1180000E+00
       11   -1    0    0    0    0  0.00000000000E+00  0.00000000000E+00  0.39999999673E+01  0.40000000000E+01  0.51109989000E-03 0.  1.
     -623   -1    0    0    0    0  0.00000000000E+00  0.00000000000E+00  0.12525980253E-10  0.17130000000E+03  0.17130000000E+03 0.  1.
       11    1    1    2    0    0 -0.94456674863E-01 -0.19897193800E+00  0.31482260600E+00  0.38422054866E+00  0.51109989000E-03 0.  1.
     -623    1    1    2    0    0 -0.95242832625E+00 -0.15684383534E+00  0.15662290768E+01  0.17130987944E+03  0.17130000000E+03 0.  1.
      622    1    1    2    0    0  0.10468850011E+01  0.35581577334E+00  0.21189482846E+01  0.36059000129E+01  0.27000000000E+01 0.  1.
</event>
<event>
 5   0  0.6580500E-04  0.9118800E+02  0.7818608E-02  0.1180000E+00
       11   -1    0    0    0    0  0.00000000000E+00  0.00000000000E+00  0.39999999673E+01  0.40000000000E+01  0.51109989000E-03 0. -1.
     -623   -1    0    0    0    0  0.00000000000E+00  0.00000000000E+00  0.12525980253E-10  0.17130000000E+03  0.17130000000E+03 0. -1.
       11    1    1    2    0    0  0.97973882809E-01  0.11905128960E+00  0.18617713603E-01  0.15530283883E+00  0.51109989000E-03 0. -1.
     -623    1    1    2    0    0  0.13887208019E+00 -0.14016548374E+00  0.12613463841E+01  0.17130475745E+03  0.17130000000E+03 0. -1.
      622    1    1    2    0    0 -0.23684596300E+00  0.21114194140E-01  0.27200358696E+01  0.38399397067E+01  0.27000000000E+01 0. -1.
</event>
<event>
 5   0  0.6580500E-04  0.9118800E+02  0.7818608E-02  0.1180000E+00
       11   -1    0    0    0    0  0.00000000000E+00  0.00000000000E+00  0.39999999673E+01  0.40000000000E+01  0.51109989000E-03 0. -1.
     -623   -1    0    0    0    0  0.00000000000E+00  0.00000000000E+00  0.12525980253E-10  0.17130000000E+03  0.17130000000E+03 0.  1.
       11    1    1    2    0    0  0.17364414954E-01 -0.22200139747E-03 -0.10624410590E-01  0.20364466966E-01  0.51109989000E-03 0. -1.
     -623    1    1    2    0    0 -0.15455575831E+00  0.11339442478E+00  0.10973696929E+01  0.17130362216E+03  0.17130000000E+03 0.  1.
      622    1    1    2    0    0  0.13719134335E+00 -0.11317242338E+00  0.29132546850E+01  0.39760133705E+01  0.27000000000E+01 0. -1.
</event>
<event>
 5   0  0.6580500E-04  0.9118800E+02  0.7818608E-02  0.1180000E+00
       11   -1    0    0    0    0  0.00000000000E+00  0.00000000000E+00  0.39999999673E+01  0.40000000000E+01  0.51109989000E-03 0. -1.
     -623   -1    0    0    0    0  0.00000000000E+00  0.00000000000E+00  0.12525980253E-10  0.17130000000E+03  0.17130000000E+03 0. -1.
       11    1    1    2    0    0  0.12549315112E+00  0.92905843987E-01  0.51495202074E-01  0.16441424477E+00  0.51109989000E-03 0. -1.
     -623    1    1    2    0    0  0.15538478459E+00 -0.11906353146E+01  0.14875903263E+01  0.17131066716E+03  0.17130000000E+03 0. -1.
      622    1    1    2    0    0 -0.28087793571E+00  0.10977294706E+01  0.24609144389E+01  0.38249185980E+01  0.27000000000E+01 0. -1.
</event>
<event>
 5   0  0.6580500E-04  0.9118800E+02  0.7818608E-02  0.1180000E+00
       11   -1    0    0    0    0  0.00000000000E+00  0.00000000000E+00  0.39999999673E+01  0.40000000000E+01  0.51109989000E-03 0. -1.
     -623   -1    0    0    0    0  0.00000000000E+00  0.00000000000E+00  0.12525980253E-10  0.17130000000E+03  0.17130000000E+03 0. -1.
       11    1    1    2    0    0  0.41337610582E-01 -0.15857350999E+00  0.14463668826E-01  0.16451083569E+00  0.51109989000E-03 0. -1.
     -623    1    1    2    0    0  0.78020764585E-01 -0.59024132279E-01  0.12795181267E+01  0.17130480652E+03  0.17130000000E+03 0. -1.
      622    1    1    2    0    0 -0.11935837517E+00  0.21759764227E+00  0.27060181718E+01  0.38306826418E+01  0.27000000000E+01 0. -1.
</event>
<event>
 5   0  0.6580500E-04  0.9118800E+02  0.7818608E-02  0.1180000E+00
       11   -1    0    0    0    0  0.00000000000E+00  0.00000000000E+00  0.39999999673E+01  0.40000000000E+01  0.51109989000E-03 0. -1.
     -623   -1    0    0    0    0  0.00000000000E+00  0.00000000000E+00  0.12525980253E-10  0.17130000000E+03  0.17130000000E+03 0. -1.
       11    1    1    2    0    0 -0.38497267350E+00  0.60716192598E-01 -0.10368692338E+00  0.40328855016E+00  0.51109989000E-03 0. -1.
     -623    1    1    2    0    0  0.15699340753E+01 -0.10096983375E+01  0.23273315087E+01  0.17132597776E+03  0.17130000000E+03 0. -1.
      622    1    1    2    0    0 -0.11849614018E+01  0.94898214494E+00  0.17763553820E+01  0.35707336891E+01  0.27000000000E+01 0. -1.
</event>
<event>
 5   0  0.6580500E-04  0.9118800E+02  0.7818608E-02  0.1180000E+00
       11   -1    0    0    0    0  0.00000000000E+00  0.00000000000E+00  0.39999999673E+01  0.40000000000E+01  0.51109989000E-03 0.  1.
     -623   -1    0    0    0    0  0.00000000000E+00  0.00000000000E+00  0.12525980253E-10  0.17130000000E+03  0.17130000000E+03 0.  1.
       11    1    1    2    0    0  0.32260352164E-01  0.62488827854E-01 -0.25371318554E-01  0.74763286154E-01  0.51109989000E-03 0.  1.
     -623    1    1    2    0    0 -0.10041030220E+00  0.24961544306E+00  0.12003446926E+01  0.17130441681E+03  0.17130000000E+03 0.  1.
      622    1    1    2    0    0  0.68149950037E-01 -0.31210427092E+00  0.28250265933E+01  0.39208199072E+01  0.27000000000E+01 0.  1.
</event>
<event>
 5   0  0.6580500E-04  0.9118800E+02  0.7818608E-02  0.1180000E+00
       11   -1    0    0    0    0  0.00000000000E+00  0.00000000000E+00  0.39999999673E+01  0.40000000000E+01  0.51109989000E-03 0. -1.
     -623   -1    0    0    0    0  0.00000000000E+00  0.00000000000E+00  0.12525980253E-10  0.17130000000E+03  0.17130000000E+03 0. -1.
       11    1    1    2    0    0  0.35602535947E+00  0.67859131068E+00  0.41442959325E+00  0.87120168302E+00  0.51109989000E-03 0. -1.
     -623    1    1    2    0    0 -0.34865425807E+00 -0.95169444991E+00  0.20595490000E+01  0.17131537883E+03  0.17130000000E+03 0. -1.
      622    1    1    2    0    0 -0.73711013977E-02  0.27310313923E+00  0.15260213742E+01  0.31134194854E+01  0.27000000000E+01 0. -1.
</event>
<event>
 5   0  0.6580500E-04  0.9118800E+02  0.7818608E-02  0.1180000E+00
       11   -1    0    0    0    0  0.00000000000E+00  0.00000000000E+00  0.39999999673E+01  0.40000000000E+01  0.51109989000E-03 0. -1.
     -623   -1    0    0    0    0  0.00000000000E+00  0.00000000000E+00  0.12525980253E-10  0.17130000000E+03  0.17130000000E+03 0.  1.
       11    1    1    2    0    0 -0.64647305620E-01  0.65248886115E-01  0.62318126602E-01  0.11099775398E+00  0.51109989000E-03 0. -1.
     -623    1    1    2    0    0  0.34137659571E+00 -0.46371482407E+00  0.11882403261E+01  0.17130508890E+03  0.17130000000E+03 0.  1.
      622    1    1    2    0    0 -0.27672929009E+00  0.39846593795E+00  0.27494415147E+01  0.38839133418E+01  0.27000000000E+01 0. -1.
</event>
<event>
 5   0  0.6580500E-04  0.9118800E+02  0.7818608E-02  0.1180000E+00
       11   -1    0    0    0    0  0.00000000000E+00  0.00000000000E+00  0.39999999673E+01  0.40000000000E+01  0.51109989000E-03 0.  1.
     -623   -1    0    0    0    0  0.00000000000E+00  0.00000000000E+00  0.12525980253E-10  0.17130000000E+03  0.17130000000E+03 0.  1.
       11    1    1    2    0    0 -0.34869114446E+00 -0.27012275444E+00 -0.53032387727E-01  0.44425725887E+00  0.51109989000E-03 0.  1.
     -623    1    1    2    0    0  0.37420297915E+00  0.72181702013E+00  0.18018895806E+01  0.17131140608E+03  0.17130000000E+03 0.  1.
      622    1    1    2    0    0 -0.25511834692E-01 -0.45169426569E+00  0.22511427744E+01  0.35443366593E+01  0.27000000000E+01 0.  1.
</event>
<event>
 5   0  0.6580500E-04  0.9118800E+02  0.7818608E-02  0.1180000E+00
       11   -1    0    0    0    0  0.00000000000E+00  0.00000000000E+00  0.39999999673E+01  0.40000000000E+01  0.51109989000E-03 0.  1.
     -623   -1    0    0    0    0  0.00000000000E+00  0.00000000000E+00  0.12525980253E-10  0.17130000000E+03  0.17130000000E+03 0. -1.
       11    1    1    2    0    0  0.24699674803E+00  0.48166376710E-01  0.10842701154E+00  0.27401472851E+00  0.51109989000E-03 0.  1.
     -623    1    1    2    0    0 -0.15170303588E+00 -0.21211526896E+00  0.13388157183E+01  0.17130543025E+03  0.17130000000E+03 0. -1.
      622    1    1    2    0    0 -0.95293712154E-01  0.16394889225E+00  0.25527572375E+01  0.37205550183E+01  0.27000000000E+01 0.  1.
</event>
<event>
 5   0  0.6580500E-04  0.9118800E+02  0.7818608E-02  0.1180000E+00
       11   -1    0    0    0    0  0.00000000000E+00  0.00000000000E+00  0.39999999673E+01  0.40000000000E+01  0.51109989000E-03 0.  1.
     -623   -1    0    0    0    0  0.00000000000E+00  0.00000000000E+00  0.12525980253E-10  0.17130000000E+03  0.17130000000E+03 0. -1.
       11    1    1    2    0    0  0.11187287946E-01 -0.15702721033E-01 -0.26916076368E-01  0.33112946857E-01  0.51109989000E-03 0.  1.
     -623    1    1    2    0    0 -0.50112352323E+00  0.26135398332E+00  0.11797759321E+01  0.17130499497E+03  0.17130000000E+03 0. -1.
      622    1    1    2    0    0  0.48993623529E+00 -0.24565126228E+00  0.28471401116E+01  0.39618920824E+01  0.27000000000E+01 0.  1.
</event>
<event>
 5   0  0.6580500E-04  0.9118800E+02  0.7818608E-02  0.1180000E+00
       11   -1    0    0    0    0  0.00000000000E+00  0.00000000000E+00  0.39999999673E+01  0.40000000000E+01  0.51109989000E-03 0.  1.
     -623   -1    0    0    0    0  0.00000000000E+00  0.00000000000E+00  0.12525980253E-10  0.17130000000E+03  0.17130000000E+03 0. -1.
       11    1    1    2    0    0  0.31506844386E+00 -0.25088191882E-01  0.88772260720E-01  0.32829608159E+00  0.51109989000E-03 0.  1.
     -623    1    1    2    0    0 -0.66124614680E+00 -0.69971597137E+00  0.15716727419E+01  0.17130991508E+03  0.17130000000E+03 0. -1.
      622    1    1    2    0    0  0.34617770293E+00  0.72480416325E+00  0.23395549647E+01  0.36617888402E+01  0.27000000000E+01 0.  1.
</event>
<event>
 5   0  0.6580500E-04  0.9118800E+02  0.7818608E-02  0.1180000E+00
       11   -1    0    0    0    0  0.00000000000E+00  0.00000000000E+00  0.39999999673E+01  0.40000000000E+01  0.51109989000E-03 0. -1.
     -623   -1    0    0    0    0  0.00000000000E+00  0.00000000000E+00  0.12525980253E-10  0.17130000000E+03  0.17130000000E+03 0. -1.
       11    1    1    2    0    0 -0.79195485223E+00  0.32375527455E+00 -0.26383433884E+00  0.89533166220E+00  0.51109989000E-03 0. -1.
     -623    1    1    2    0    0  0.30645356440E+00 -0.15368258343E+00  0.28734526962E+01  0.17132444152E+03  0.17130000000E+03 0. -1.
      622    1    1    2    0    0  0.48550128783E+00 -0.17007269112E+00  0.13903816100E+01  0.30802268167E+01  0.27000000000E+01 0. -1.
</event>
<event>
 5   0  0.6580500E-04  0.9118800E+02  0.7818608E-02  0.1180000E+00
       11   -1    0    0    0    0  0.00000000000E+00  0.00000000000E+00  0.39999999673E+01  0.40000000000E+01  0.51109989000E-03 0. -1.
     -623   -1    0    0    0    0  0.00000000000E+00  0.00000000000E+00  0.12525980253E-10  0.17130000000E+03  0.17130000000E+03 0. -1.
       11    1    1    2    0    0  0.70293617398E-01  0.54280945416E-01 -0.10846210454E+00  0.14018524539E+00  0.51109989000E-03 0. -1.
     -623    1    1    2    0    0  0.12280969572E+00 -0.18277147075E-01  0.13648708123E+01  0.17130548237E+03  0.17130000000E+03 0. -1.
      622    1    1    2    0    0 -0.19310331311E+00 -0.36003798341E-01  0.27435912596E+01  0.38543323887E+01  0.27000000000E+01 0. -1.
</event>
<event>
 5   0  0.6580500E-04  0.9118800E+02  0.7818608E-02  0.1180000E+00
       11   -1    0    0    0    0  0.00000000000E+00  0.00000000000E+00  0.39999999673E+01  0.40000000000E+01  0.51109989000E-03 0.  1.
     -623   -1    0    0    0    0  0.00000000000E+00  0.00000000000E+00  0.12525980253E-10  0.17130000000E+03  0.17130000000E+03 0. -1.
       11    1    1    2    0    0  0.43995476272E+00 -0.16713220997E+00  0.53983224487E+00  0.71617908561E+00  0.51109989000E-03 0.  1.
     -623    1    1    2    0    0 -0.73497611508E+00  0.55931018571E-01  0.16346466244E+01  0.17130938500E+03  0.17130000000E+03 0. -1.
      622    1    1    2    0    0  0.29502135236E+00  0.11120119140E+00  0.18255210980E+01  0.32744359182E+01  0.27000000000E+01 0.  1.
</event>
<event>
 5   0  0.6580500E-04  0.9118800E+02  0.7818608E-02  0.1180000E+00
       11   -1    0    0    0    0  0.00000000000E+00  0.00000000000E+00  0.39999999673E+01  0.40000000000E+01  0.51109989000E-03 0. -1.
     -623   -1    0    0    0    0  0.00000000000E+00  0.00000000000E+00  0.12525980253E-10  0.17130000000E+03  0.17130000000E+03 0.  1.
       11    1    1    2    0    0  0.32724743468E+00 -0.34161333767E+00 -0.21713935961E+00  0.52051927793E+00  0.51109989000E-03 0. -1.
     -623    1    1    2    0    0 -0.13551521355E+00 -0.51645698132E+00  0.22329743521E+01  0.17131538538E+03  0.17130000000E+03 0.  1.
      622    1    1    2    0    0 -0.19173222113E+00  0.85807031899E+00  0.19841649748E+01  0.34640953457E+01  0.27000000000E+01 0. -1.
</event>
<event>
 5   0  0.6580500E-04  0.9118800E+02  0.7818608E-02  0.1180000E+00
       11   -1    0    0    0    0  0.00000000000E+00  0.00000000000E+00  0.39999999673E+01  0.40000000000E+01  0.51109989000E-03 0.  1.
     -623   -1    0    0    0    0  0.00000000000E+00  0.00000000000E+00  0.12525980253E-10  0.17130000000E+03  0.17130000000E+03 0. -1.
       11    1    1    2    0    0 -0.46441091755E-01  0.20041330733E+00  0.30687738619E+00  0.36945400273E+00  0.51109989000E-03 0.  1.
     -623    1    1    2    0    0  0.11058555455E-01 -0.30911186157E+00  0.12762498259E+01  0.17130503345E+03  0.17130000000E+03 0. -1.
      622    1    1    2    0    0  0.35382536301E-01  0.10869855424E+00  0.24168727552E+01  0.36255125451E+01  0.27000000000E+01 0.  1.
</event>
<event>
 5   0  0.6580500E-04  0.9118800E+02  0.7818608E-02  0.1180000E+00
       11   -1    0    0    0    0  0.00000000000E+00  0.00000000000E+00  0.39999999673E+01  0.40000000000E+01  0.51109989000E-03 0. -1.
     -623   -1    0    0    0    0  0.00000000000E+00  0.00000000000E+00  0.12525980253E-10  0.17130000000E+03  0.17130000000E+03 0. -1.
       11    1    1    2    0    0  0.68660793978E+00  0.27280526790E+00  0.35273191606E+00  0.81870216990E+00  0.51109989000E-03 0. -1.
     -623    1    1    2    0    0 -0.12582711486E+01  0.17536703060E+00  0.21687484995E+01  0.17131843879E+03  0.17130000000E+03 0.  1.
      622    1    1    2    0    0  0.57166320882E+00 -0.44817229850E+00  0.14785195518E+01  0.31628590387E+01  0.27000000000E+01 0. -1.
</event>
<event>
 5   0  0.6580500E-04  0.9118800E+02  0.7818608E-02  0.1180000E+00
       11   -1    0    0    0    0  0.00000000000E+00  0.00000000000E+00  0.39999999673E+01  0.40000000000E+01  0.51109989000E-03 0.  1.
     -623   -1    0    0    0    0  0.00000000000E+00  0.00000000000E+00  0.12525980253E-10  0.17130000000E+03  0.17130000000E+03 0.  1.
       11    1    1    2    0    0 -0.71159203925E-01  0.54729988358E-01 -0.93618873142E-01  0.12970643222E+00  0.51109989000E-03 0.  1.
     -623    1    1    2    0    0  0.83999918712E+00 -0.97072137184E-01  0.14415963292E+01  0.17130815282E+03  0.17130000000E+03 0.  1.
      622    1    1    2    0    0 -0.76883998320E+00  0.42342148826E-01  0.26520225113E+01  0.38621407507E+01  0.27000000000E+01 0.  1.
</event>
<event>
 5   0  0.6580500E-04  0.9118800E+02  0.7818608E-02  0.1180000E+00
       11   -1    0    0    0    0  0.00000000000E+00  0.00000000000E+00  0.39999999673E+01  0.40000000000E+01  0.51109989000E-03 0.  1.
     -623   -1    0    0    0    0  0.00000000000E+00  0.00000000000E+00  0.12525980253E-10  0.17130000000E+03  0.17130000000E+03 0.  1.
       11    1    1    2    0    0  0.29252091992E-01  0.54633997896E-01  0.63882917107E-01  0.89004757919E-01  0.51109989000E-03 0.  1.
     -623    1    1    2    0    0 -0.53267777785E+00  0.89811994234E-01  0.11622930699E+01  0.17130479485E+03  0.17130000000E+03 0.  1.
      622    1    1    2    0    0  0.50342568586E+00 -0.14444599213E+00  0.27738239804E+01  0.39062003968E+01  0.27000000000E+01 0.  1.
</event>
<event>
 5   0  0.6580500E-04  0.9118800E+02  0.7818608E-02  0.1180000E+00
       11   -1    0    0    0    0  0.00000000000E+00  0.00000000000E+00  0.39999999673E+01  0.40000000000E+01  0.51109989000E-03 0. -1.
     -623   -1    0    0    0    0  0.00000000000E+00  0.00000000000E+00  0.12525980253E-10  0.17130000000E+03  0.17130000000E+03 0.  1.
       11    1    1    2    0    0 -0.45567245911E+00  0.27934637642E+00  0.13136007180E+00  0.55038851523E+00  0.51109989000E-03 0. -1.
     -623    1    1    2    0    0 -0.32690440429E+00  0.13658000923E+00  0.19329859271E+01  0.17131127212E+03  0.17130000000E+03 0.  1.
      622    1    1    2    0    0  0.78257686340E+00 -0.41592638566E+00  0.19356539685E+01  0.34383393653E+01  0.27000000000E+01 0.  1.
</event>
<event>
 5   0  0.6580500E-04  0.9118800E+02  0.7818608E-02  0.1180000E+00
       11   -1    0    0    0    0  0.00000000000E+00  0.00000000000E+00  0.39999999673E+01  0.40000000000E+01  0.51109989000E-03 0. -1.
     -623   -1    0    0    0    0  0.00000000000E+00  0.00000000000E+00  0.12525980253E-10  0.17130000000E+03  0.17130000000E+03 0.  1.
       11    1    1    2    0    0 -0.25058564570E+00  0.46874909242E+00  0.93564231545E-01  0.53969751168E+00  0.51109989000E-03 0. -1.
     -623    1    1    2    0    0  0.51598190847E+00 -0.14789497138E+00  0.17994979956E+01  0.17131029246E+03  0.17130000000E+03 0.  1.
      622    1    1    2    0    0 -0.26539626277E+00 -0.32085412104E+00  0.21069377402E+01  0.34500100267E+01  0.27000000000E+01 0. -1.
</event>
<event>
 5   0  0.6580500E-04  0.9118800E+02  0.7818608E-02  0.1180000E+00
       11   -1    0    0    0    0  0.00000000000E+00  0.00000000000E+00  0.39999999673E+01  0.40000000000E+01  0.51109989000E-03 0. -1.
     -623   -1    0    0    0    0  0.00000000000E+00  0.00000000000E+00  0.12525980253E-10  0.17130000000E+03  0.17130000000E+03 0.  1.
       11    1    1    2    0    0  0.61347594947E-01 -0.14905935914E-02  0.67040101973E-01  0.90886664427E-01  0.51109989000E-03 0. -1.
     -623    1    1    2    0    0  0.96890407394E-01 -0.20949239202E+00  0.11237615861E+01  0.17130384151E+03  0.17130000000E+03 0.  1.
      622    1    1    2    0    0 -0.15823800234E+00  0.21098298561E+00  0.28091982793E+01  0.39052718290E+01  0.27000000000E+01 0. -1.
</event>
<event>
 5   0  0.6580500E-04  0.9118800E+02  0.7818608E-02  0.1180000E+00
       11   -1    0    0    0    0  0.00000000000E+00  0.00000000000E+00  0.39999999673E+01  0.40000000000E+01  0.51109989000E-03 0. -1.
     -623   -1    0    0    0    0  0.00000000000E+00  0.00000000000E+00  0.12525980253E-10  0.17130000000E+03  0.17130000000E+03 0.  1.
       11    1    1    2    0    0  0.37904759020E+00 -0.37230768929E+00  0.14115201776E+00  0.54974016088E+00  0.51109989000E-03 0. -1.
     -623    1    1    2    0    0 -0.29399223701E+00 -0.65534363136E+00  0.19986547396E+01  0.17131316507E+03  0.17130000000E+03 0.  1.
      622    1    1    2    0    0 -0.85055353194E-01  0.10276513206E+01  0.18601932100E+01  0.34370947657E+01  0.27000000000E+01 0. -1.
</event>
<event>
 5   0  0.6580500E-04  0.9118800E+02  0.7818608E-02  0.1180000E+00
       11   -1    0    0    0    0  0.00000000000E+00  0.00000000000E+00  0.39999999673E+01  0.40000000000E+01  0.51109989000E-03 0. -1.
     -623   -1    0    0    0    0  0.00000000000E+00  0.00000000000E+00  0.12525980253E-10  0.17130000000E+03  0.17130000000E+03 0. -1.
       11    1    1    2    0    0  0.56821791210E-01 -0.51799239026E-01  0.11181501386E-03  0.76890512065E-01  0.51109989000E-03 0. -1.
     -623    1    1    2    0    0  0.45987431784E+00 -0.23641940185E+00  0.12231302685E+01  0.17130514711E+03  0.17130000000E+03 0. -1.
      622    1    1    2    0    0 -0.51669610905E+00  0.28821864088E+00  0.27767578838E+01  0.39179623785E+01  0.27000000000E+01 0. -1.
</event>
<event>
 5   0  0.6580500E-04  0.9118800E+02  0.7818608E-02  0.1180000E+00
       11   -1    0    0    0    0  0.00000000000E+00  0.00000000000E+00  0.39999999673E+01  0.40000000000E+01  0.51109989000E-03 0.  1.
     -623   -1    0    0    0    0  0.00000000000E+00  0.00000000000E+00  0.12525980253E-10  0.17130000000E+03  0.17130000000E+03 0.  1.
       11    1    1    2    0    0  0.13341898143E+00  0.18317763139E+00  0.21501405370E+00  0.31238753777E+00  0.51109989000E-03 0.  1.
     -623    1    1    2    0    0  0.74021038642E+00 -0.30701346920E+00  0.14459358140E+01  0.17130797675E+03  0.17130000000E+03 0.  1.
      622    1    1    2    0    0 -0.87362936785E+00  0.12383583781E+00  0.23390500996E+01  0.36796357096E+01  0.27000000000E+01 0.  1.
</event>
<event>
 5   0  0.6580500E-04  0.9118800E+02  0.7818608E-02  0.1180000E+00
       11   -1    0    0    0    0  0.00000000000E+00  0.00000000000E+00  0.39999999673E+01  0.40000000000E+01  0.51109989000E-03 0. -1.
     -623   -1    0    0    0    0  0.00000000000E+00  0.00000000000E+00  0.12525980253E-10  0.17130000000E+03  0.17130000000E+03 0. -1.
       11    1    1    2    0    0  0.33198708770E-01 -0.63249589424E-01  0.72378781371E-02  0.71800507862E-01  0.51109989000E-03 0. -1.
     -623    1    1    2    0    0  0.71434760421E+00  0.27696892081E+00  0.12565932470E+01  0.17130632222E+03  0.17130000000E+03 0. -1.
      622    1    1    2    0    0 -0.74754631298E+00 -0.21371933139E+00  0.27361688423E+01  0.39218772770E+01  0.27000000000E+01 0. -1.
</event>
<event>
 5   0  0.6580500E-04  0.9118800E+02  0.7818608E-02  0.1180000E+00
       11   -1    0    0    0    0  0.00000000000E+00  0.00000000000E+00  0.39999999673E+01  0.40000000000E+01  0.51109989000E-03 0. -1.
     -623   -1    0    0    0    0  0.00000000000E+00  0.00000000000E+00  0.12525980253E-10  0.17130000000E+03  0.17130000000E+03 0.  1.
       11    1    1    2    0    0  0.20928517762E+00  0.63174547923E-01  0.38937237572E-01  0.22205332415E+00  0.51109989000E-03 0. -1.
     -623    1    1    2    0    0  0.76893869286E+00 -0.10354263564E+01  0.17298765826E+01  0.17131358921E+03  0.17130000000E+03 0. -1.
      622    1    1    2    0    0 -0.97822387047E+00  0.97225180846E+00  0.22311861472E+01  0.37643574675E+01  0.27000000000E+01 0. -1.
</event>
<event>
 5   0  0.6580500E-04  0.9118800E+02  0.7818608E-02  0.1180000E+00
       11   -1    0    0    0    0  0.00000000000E+00  0.00000000000E+00  0.39999999673E+01  0.40000000000E+01  0.51109989000E-03 0.  1.
     -623   -1    0    0    0    0  0.00000000000E+00  0.00000000000E+00  0.12525980253E-10  0.17130000000E+03  0.17130000000E+03 0. -1.
       11    1    1    2    0    0 -0.86308207082E-02 -0.15345369972E+00  0.31074166600E+00  0.34667444849E+00  0.51109989000E-03 0.  1.
     -623    1    1    2    0    0  0.39425207839E+00  0.56968345927E+00  0.13042291717E+01  0.17130636587E+03  0.17130000000E+03 0. -1.
      622    1    1    2    0    0 -0.38562125768E+00 -0.41622975956E+00  0.23850291297E+01  0.36469596812E+01  0.27000000000E+01 0.  1.
</event>
<event>
 5   0  0.6580500E-04  0.9118800E+02  0.7818608E-02  0.1180000E+00
       11   -1    0    0    0    0  0.00000000000E+00  0.00000000000E+00  0.39999999673E+01  0.40000000000E+01  0.51109989000E-03 0.  1.
     -623   -1    0    0    0    0  0.00000000000E+00  0.00000000000E+00  0.12525980253E-10  0.17130000000E+03  0.17130000000E+03 0. -1.
       11    1    1    2    0    0 -0.40583715548E-01 -0.45686117664E-01 -0.40242862221E-01  0.73171090587E-01  0.51109989000E-03 0.  1.
     -623    1    1    2    0    0  0.23894524737E+00 -0.10213401878E-01  0.12024484858E+01  0.17130438722E+03  0.17130000000E+03 0. -1.
      622    1    1    2    0    0 -0.19836153182E+00  0.55899519542E-01  0.28377943438E+01  0.39224416874E+01  0.27000000000E+01 0.  1.
</event>
<event>
 5   0  0.6580500E-04  0.9118800E+02  0.7818608E-02  0.1180000E+00
       11   -1    0    0    0    0  0.00000000000E+00  0.00000000000E+00  0.39999999673E+01  0.40000000000E+01  0.51109989000E-03 0.  1.
     -623   -1    0    0    0    0  0.00000000000E+00  0.00000000000E+00  0.12525980253E-10  0.17130000000E+03  0.17130000000E+03 0.  1.
       11    1    1    2    0    0  0.12325403581E+00  0.17540942697E+00 -0.15644237912E+00  0.26539499547E+00  0.51109989000E-03 0.  1.
     -623    1    1    2    0    0 -0.67873592077E+00 -0.46125796015E+00  0.16681172823E+01  0.17131008743E+03  0.17130000000E+03 0.  1.
      622    1    1    2    0    0  0.55548188496E+00  0.28584853318E+00  0.24883250642E+01  0.37245175706E+01  0.27000000000E+01 0.  1.
</event>
<event>
 5   0  0.6580500E-04  0.9118800E+02  0.7818608E-02  0.1180000E+00
       11   -1    0    0    0    0  0.00000000000E+00  0.00000000000E+00  0.39999999673E+01  0.40000000000E+01  0.51109989000E-03 0. -1.
     -623   -1    0    0    0    0  0.00000000000E+00  0.00000000000E+00  0.12525980253E-10  0.17130000000E+03  0.17130000000E+03 0. -1.
       11    1    1    2    0    0 -0.71619062644E-01 -0.93957572875E-01 -0.22036010343E-01  0.12017970963E+00  0.51109989000E-03 0. -1.
     -623    1    1    2    0    0  0.27456594964E+00  0.39209757343E+00  0.12667820495E+01  0.17130535270E+03  0.17130000000E+03 0. -1.
      622    1    1    2    0    0 -0.20294688700E+00 -0.29814000056E+00  0.27552539282E+01  0.38744675902E+01  0.27000000000E+01 0. -1.
</event>
<event>
 5   0  0.6580500E-04  0.9118800E+02  0.7818608E-02  0.1180000E+00
       11   -1    0    0    0    0  0.00000000000E+00  0.00000000000E+00  0.39999999673E+01  0.40000000000E+01  0.51109989000E-03 0. -1.
     -623   -1    0    0    0    0  0.00000000000E+00  0.00000000000E+00  0.12525980253E-10  0.17130000000E+03  0.17130000000E+03 0.  1.
       11    1    1    2    0    0  0.16491622434E+00 -0.26527425664E-01 -0.43227454685E-01  0.17253967492E+00  0.51109989000E-03 0. -1.
     -623    1    1    2    0    0 -0.45365692128E-01 -0.19913944476E+00  0.13501618998E+01  0.17130544256E+03  0.17130000000E+03 0.  1.
      622    1    1    2    0    0 -0.11955053221E+00  0.22566687042E+00  0.26930655223E+01  0.38220177620E+01  0.27000000000E+01 0. -1.
</event>
<event>
 5   0  0.6580500E-04  0.9118800E+02  0.7818608E-02  0.1180000E+00
       11   -1    0    0    0    0  0.00000000000E+00  0.00000000000E+00  0.39999999673E+01  0.40000000000E+01  0.51109989000E-03 0. -1.
     -623   -1    0    0    0    0  0.00000000000E+00  0.00000000000E+00  0.12525980253E-10  0.17130000000E+03  0.17130000000E+03 0.  1.
       11    1    1    2    0    0  0.63666254227E+00 -0.21438403002E+00  0.65151307207E+00  0.93582543744E+00  0.51109989000E-03 0. -1.
     -623    1    1    2    0    0 -0.12797386886E+01  0.11402860542E+01  0.25351178452E+01  0.17132733234E+03  0.17130000000E+03 0. -1.
      622    1    1    2    0    0  0.64307614630E+00 -0.92590202416E+00  0.81336905006E+00  0.30368422251E+01  0.27000000000E+01 0.  0.
</event>
<event>
 5   0  0.6580500E-04  0.9118800E+02  0.7818608E-02  0.1180000E+00
       11   -1    0    0    0    0  0.00000000000E+00  0.00000000000E+00  0.39999999673E+01  0.40000000000E+01  0.51109989000E-03 0. -1.
     -623   -1    0    0    0    0  0.00000000000E+00  0.00000000000E+00  0.12525980253E-10  0.17130000000E+03  0.17130000000E+03 0.  1.
       11    1    1    2    0    0 -0.35159107005E+00  0.62725599151E+00  0.46748589635E+00  0.85767691116E+00  0.51109989000E-03 0. -1.
     -623    1    1    2    0    0 -0.10051816990E+00 -0.87305643291E+00  0.20394920086E+01  0.17131439478E+03  0.17130000000E+03 0.  1.
      622    1    1    2    0    0  0.45210923996E+00  0.24580044139E+00  0.14930220624E+01  0.31279283081E+01  0.27000000000E+01 0.  1.
</event>
<event>
 5   0  0.6580500E-04  0.9118800E+02  0.7818608E-02  0.1180000E+00
       11   -1    0    0    0    0  0.00000000000E+00  0.00000000000E+00  0.39999999673E+01  0.40000000000E+01  0.51109989000E-03 0. -1.
     -623   -1    0    0    0    0  0.00000000000E+00  0.00000000000E+00  0.12525980253E-10  0.17130000000E+03  0.17130000000E+03 0. -1.
       11    1    1    2    0    0 -0.40543963758E+00 -0.18857110319E+00  0.43590479270E+00  0.62446265717E+00  0.51109989000E-03 0. -1.
     -623    1    1    2    0    0  0.98511764355E+00  0.46274317336E+00  0.16626819419E+01  0.17131152646E+03  0.17130000000E+03 0. -1.
      622    1    1    2    0    0 -0.57967800597E+00 -0.27417207017E+00  0.19014132327E+01  0.33640108793E+01  0.27000000000E+01 0. -1.
</event>
<event>
 5   0  0.6580500E-04  0.9118800E+02  0.7818608E-02  0.1180000E+00
       11   -1    0    0    0    0  0.00000000000E+00  0.00000000000E+00  0.39999999673E+01  0.40000000000E+01  0.51109989000E-03 0. -1.
     -623   -1    0    0    0    0  0.00000000000E+00  0.00000000000E+00  0.12525980253E-10  0.17130000000E+03  0.17130000000E+03 0. -1.
       11    1    1    2    0    0 -0.16091287046E+00  0.39432976776E+00  0.37206028824E+00  0.56552456793E+00  0.51109989000E-03 0. -1.
     -623    1    1    2    0    0  0.43146665358E+00 -0.15022653720E+00  0.15493386622E+01  0.17130761566E+03  0.17130000000E+03 0. -1.
      622    1    1    2    0    0 -0.27055378312E+00 -0.24410323057E+00  0.20786010169E+01  0.34268597760E+01  0.27000000000E+01 0. -1.
</event>
<event>
 5   0  0.6580500E-04  0.9118800E+02  0.7818608E-02  0.1180000E+00
       11   -1    0    0    0    0  0.00000000000E+00  0.00000000000E+00  0.39999999673E+01  0.40000000000E+01  0.51109989000E-03 0. -1.
     -623   -1    0    0    0    0  0.00000000000E+00  0.00000000000E+00  0.12525980253E-10  0.17130000000E+03  0.17130000000E+03 0. -1.
       11    1    1    2    0    0 -0.49586004101E-01  0.77373598047E-01 -0.94902487775E-01  0.13210673293E+00  0.51109989000E-03 0. -1.
     -623    1    1    2    0    0  0.47380056623E+00  0.79307277777E-01  0.13712166509E+01  0.17130616163E+03  0.17130000000E+03 0. -1.
      622    1    1    2    0    0 -0.42421456213E+00 -0.15668087582E+00  0.27236858043E+01  0.38617316390E+01  0.27000000000E+01 0. -1.
</event>
<event>
 5   0  0.6580500E-04  0.9118800E+02  0.7818608E-02  0.1180000E+00
       11   -1    0    0    0    0  0.00000000000E+00  0.00000000000E+00  0.39999999673E+01  0.40000000000E+01  0.51109989000E-03 0.  1.
     -623   -1    0    0    0    0  0.00000000000E+00  0.00000000000E+00  0.12525980253E-10  0.17130000000E+03  0.17130000000E+03 0.  1.
       11    1    1    2    0    0  0.11970219893E+00 -0.32261909075E+00  0.42658142315E+00  0.54807268309E+00  0.51109989000E-03 0.  1.
     -623    1    1    2    0    0 -0.17022005956E+00  0.39939507287E+00  0.14351727679E+01  0.17130656208E+03  0.17130000000E+03 0.  1.
      622    1    1    2    0    0  0.50517860631E-01 -0.76775982112E-01  0.21382457763E+01  0.34453652355E+01  0.27000000000E+01 0.  1.
</event>
<event>
 5   0  0.6580500E-04  0.9118800E+02  0.7818608E-02  0.1180000E+00
       11   -1    0    0    0    0  0.00000000000E+00  0.00000000000E+00  0.39999999673E+01  0.40000000000E+01  0.51109989000E-03 0.  1.
     -623   -1    0    0    0    0  0.00000000000E+00  0.00000000000E+00  0.12525980253E-10  0.17130000000E+03  0.17130000000E+03 0. -1.
       11    1    1    2    0    0 -0.37873075196E+00 -0.28370135030E-01  0.46281132819E+00  0.59869561027E+00  0.51109989000E-03 0.  1.
     -623    1    1    2    0    0  0.24666364837E+00 -0.13497522914E+00  0.14904557868E+01  0.17130671475E+03  0.17130000000E+03 0. -1.
      622    1    1    2    0    0  0.13206710358E+00  0.16334536418E+00  0.20467328524E+01  0.33945896360E+01  0.27000000000E+01 0.  0.
</event>
<event>
 5   0  0.6580500E-04  0.9118800E+02  0.7818608E-02  0.1180000E+00
       11   -1    0    0    0    0  0.00000000000E+00  0.00000000000E+00  0.39999999673E+01  0.40000000000E+01  0.51109989000E-03 0. -1.
     -623   -1    0    0    0    0  0.00000000000E+00  0.00000000000E+00  0.12525980253E-10  0.17130000000E+03  0.17130000000E+03 0.  1.
       11    1    1    2    0    0  0.72118370452E-01 -0.76440615485E+00  0.47810961236E+00  0.90449261555E+00  0.51109989000E-03 0. -1.
     -623    1    1    2    0    0 -0.42971100636E+00  0.11099037814E+01  0.21298925781E+01  0.17131737501E+03  0.17130000000E+03 0.  1.
      622    1    1    2    0    0  0.35759263591E+00 -0.34549762657E+00  0.13919977769E+01  0.30781323744E+01  0.27000000000E+01 0. -1.
</event>
<event>
 5   0  0.6580500E-04  0.9118800E+02  0.7818608E-02  0.1180000E+00
       11   -1    0    0    0    0  0.00000000000E+00  0.00000000000E+00  0.39999999673E+01  0.40000000000E+01  0.51109989000E-03 0.  1.
     -623   -1    0    0    0    0  0.00000000000E+00  0.00000000000E+00  0.12525980253E-10  0.17130000000E+03  0.17130000000E+03 0.  1.
       11    1    1    2    0    0  0.12310855209E+00 -0.15090568165E+00 -0.23845447807E-01  0.19620679640E+00  0.51109989000E-03 0.  1.
     -623    1    1    2    0    0 -0.49830383525E+00  0.15205991940E-02  0.13841983628E+01  0.17130631720E+03  0.17130000000E+03 0.  1.
      622    1    1    2    0    0  0.37519528316E+00  0.14938508245E+00  0.26396470524E+01  0.37974759992E+01  0.27000000000E+01 0.  1.
</event>
<event>
 5   0  0.6580500E-04  0.9118800E+02  0.7818608E-02  0.1180000E+00
       11   -1    0    0    0    0  0.00000000000E+00  0.00000000000E+00  0.39999999673E+01  0.40000000000E+01  0.51109989000E-03 0.  1.
     -623   -1    0    0    0    0  0.00000000000E+00  0.00000000000E+00  0.12525980253E-10  0.17130000000E+03  0.17130000000E+03 0. -1.
       11    1    1    2    0    0  0.15812944913E+00 -0.93963460641E-01 -0.42191436935E-01  0.18871786664E+00  0.51109989000E-03 0.  1.
     -623    1    1    2    0    0  0.12382488330E+00 -0.40396698821E-01  0.13784156851E+01  0.17130559534E+03  0.17130000000E+03 0. -1.
      622    1    1    2    0    0 -0.28195433242E+00  0.13436015946E+00  0.26637757192E+01  0.38056867948E+01  0.27000000000E+01 0.  1.
</event>
<event>
 5   0  0.6580500E-04  0.9118800E+02  0.7818608E-02  0.1180000E+00
       11   -1    0    0    0    0  0.00000000000E+00  0.00000000000E+00  0.39999999673E+01  0.40000000000E+01  0.51109989000E-03 0. -1.
     -623   -1    0    0    0    0  0.00000000000E+00  0.00000000000E+00  0.12525980253E-10  0.17130000000E+03  0.17130000000E+03 0. -1.
       11    1    1    2    0    0  0.37295183967E-01  0.18474439874E+00 -0.85016329552E-01  0.20675942814E+00  0.51109989000E-03 0. -1.
     -623    1    1    2    0    0  0.98847454534E-01 -0.34732872746E+00  0.14383107745E+01  0.17130641887E+03  0.17130000000E+03 0. -1.
      622    1    1    2    0    0 -0.13614263850E+00  0.16258432872E+00  0.26467055224E+01  0.37868217022E+01  0.27000000000E+01 0. -1.
</event>
<event>
 5   0  0.6580500E-04  0.9118800E+02  0.7818608E-02  0.1180000E+00
       11   -1    0    0    0    0  0.00000000000E+00  0.00000000000E+00  0.39999999673E+01  0.40000000000E+01  0.51109989000E-03 0. -1.
     -623   -1    0    0    0    0  0.00000000000E+00  0.00000000000E+00  0.12525980253E-10  0.17130000000E+03  0.17130000000E+03 0.  1.
       11    1    1    2    0    0  0.29564637398E+00  0.12322090317E+00 -0.17544309848E+00  0.36519955018E+00  0.51109989000E-03 0. -1.
     -623    1    1    2    0    0 -0.18770968526E+00 -0.38989537228E+00  0.17736984468E+01  0.17130972903E+03  0.17130000000E+03 0.  1.
      622    1    1    2    0    0 -0.10793668871E+00  0.26667446911E+00  0.24017446190E+01  0.36250714222E+01  0.27000000000E+01 0. -1.
</event>
<event>
 5   0  0.6580500E-04  0.9118800E+02  0.7818608E-02  0.1180000E+00
       11   -1    0    0    0    0  0.00000000000E+00  0.00000000000E+00  0.39999999673E+01  0.40000000000E+01  0.51109989000E-03 0.  1.
     -623   -1    0    0    0    0  0.00000000000E+00  0.00000000000E+00  0.12525980253E-10  0.17130000000E+03  0.17130000000E+03 0.  1.
       11    1    1    2    0    0  0.14773076180E+00 -0.40044128207E+00 -0.17002834236E-01  0.42716151039E+00  0.51109989000E-03 0.  1.
     -623    1    1    2    0    0  0.11164611240E+00  0.80754578726E+00  0.17443481612E+01  0.17131082087E+03  0.17130000000E+03 0.  1.
      622    1    1    2    0    0 -0.25937687420E+00 -0.40710450519E+00  0.22726546404E+01  0.35620176243E+01  0.27000000000E+01 0.  1.
</event>
<event>
 5   0  0.6580500E-04  0.9118800E+02  0.7818608E-02  0.1180000E+00
       11   -1    0    0    0    0  0.00000000000E+00  0.00000000000E+00  0.39999999673E+01  0.40000000000E+01  0.51109989000E-03 0. -1.
     -623   -1    0    0    0    0  0.00000000000E+00  0.00000000000E+00  0.12525980253E-10  0.17130000000E+03  0.17130000000E+03 0.  1.
       11    1    1    2    0    0 -0.15012012907E+00  0.28510658997E+00  0.31238622944E+00  0.44878417793E+00  0.51109989000E-03 0. -1.
     -623    1    1    2    0    0 -0.83187393054E+00 -0.69575763780E+00  0.16611049238E+01  0.17131148637E+03  0.17130000000E+03 0.  1.
      622    1    1    2    0    0  0.98199405961E+00  0.41065104783E+00  0.20265088141E+01  0.35397294515E+01  0.27000000000E+01 0. -1.
</event>
<event>
 5   0  0.6580500E-04  0.9118800E+02  0.7818608E-02  0.1180000E+00
       11   -1    0    0    0    0  0.00000000000E+00  0.00000000000E+00  0.39999999673E+01  0.40000000000E+01  0.51109989000E-03 0. -1.
     -623   -1    0    0    0    0  0.00000000000E+00  0.00000000000E+00  0.12525980253E-10  0.17130000000E+03  0.17130000000E+03 0.  1.
       11    1    1    2    0    0 -0.12803944039E+00  0.17154729053E+00  0.60259851703E+00  0.63949026978E+00  0.51109989000E-03 0. -1.
     -623    1    1    2    0    0  0.62518400069E+00 -0.97835026380E+00  0.16582352667E+01  0.17131196038E+03  0.17130000000E+03 0.  1.
      622    1    1    2    0    0 -0.49714456030E+00  0.80680297327E+00  0.17391661836E+01  0.33485493525E+01  0.27000000000E+01 0. -1.
</event>
<event>
 5   0  0.6580500E-04  0.9118800E+02  0.7818608E-02  0.1180000E+00
       11   -1    0    0    0    0  0.00000000000E+00  0.00000000000E+00  0.39999999673E+01  0.40000000000E+01  0.51109989000E-03 0.  1.
     -623   -1    0    0    0    0  0.00000000000E+00  0.00000000000E+00  0.12525980253E-10  0.17130000000E+03  0.17130000000E+03 0. -1.
       11    1    1    2    0    0  0.46329740342E+00  0.39518388141E-02  0.11012777747E+00  0.47622315109E+00  0.51109989000E-03 0.  1.
     -623    1    1    2    0    0  0.75793963869E+00  0.16391417472E+00  0.20159395329E+01  0.17131361695E+03  0.17130000000E+03 0. -1.
      622    1    1    2    0    0 -0.12212370421E+01 -0.16786601354E+00  0.18739326570E+01  0.35101598987E+01  0.27000000000E+01 0.  1.
</event>
<event>
 5   0  0.6580500E-04  0.9118800E+02  0.7818608E-02  0.1180000E+00
       11   -1    0    0    0    0  0.00000000000E+00  0.00000000000E+00  0.39999999673E+01  0.40000000000E+01  0.51109989000E-03 0. -1.
     -623   -1    0    0    0    0  0.00000000000E+00  0.00000000000E+00  0.12525980253E-10  0.17130000000E+03  0.17130000000E+03 0.  1.
       11    1    1    2    0    0  0.16545570165E+00  0.27939026174E+00  0.11519132220E+00  0.34453419206E+00  0.51109989000E-03 0. -1.
     -623    1    1    2    0    0 -0.42208214293E+00 -0.43258164103E+00  0.14495416153E+01  0.17130719906E+03  0.17130000000E+03 0.  1.
      622    1    1    2    0    0  0.25662644128E+00  0.15319137928E+00  0.24352670299E+01  0.36482667441E+01  0.27000000000E+01 0. -1.
</event>
<event>
 5   0  0.6580500E-04  0.9118800E+02  0.7818608E-02  0.1180000E+00
       11   -1    0    0    0    0  0.00000000000E+00  0.00000000000E+00  0.39999999673E+01  0.40000000000E+01  0.51109989000E-03 0. -1.
     -623   -1    0    0    0    0  0.00000000000E+00  0.00000000000E+00  0.12525980253E-10  0.17130000000E+03  0.17130000000E+03 0. -1.
       11    1    1    2    0    0 -0.23464540890E+00  0.67930525436E-01 -0.12081802511E+00  0.27252574303E+00  0.51109989000E-03 0. -1.
     -623    1    1    2    0    0  0.33769507387E+00  0.33648209158E+00  0.15970273941E+01  0.17130810767E+03  0.17130000000E+03 0. -1.
      622    1    1    2    0    0 -0.10304966497E+00 -0.40441261702E+00  0.25237905984E+01  0.37193665835E+01  0.27000000000E+01 0. -1.
</event>
<event>
 5   0  0.6580500E-04  0.9118800E+02  0.7818608E-02  0.1180000E+00
       11   -1    0    0    0    0  0.00000000000E+00  0.00000000000E+00  0.39999999673E+01  0.40000000000E+01  0.51109989000E-03 0.  1.
     -623   -1    0    0    0    0  0.00000000000E+00  0.00000000000E+00  0.12525980253E-10  0.17130000000E+03  0.17130000000E+03 0.  1.
       11    1    1    2    0    0  0.13612479800E+00 -0.37669255253E+00  0.15068112984E+00  0.42793960307E+00  0.51109989000E-03 0.  1.
     -623    1    1    2    0    0 -0.18258970182E+00 -0.93633556220E-01  0.15702821279E+01  0.17130732002E+03  0.17130000000E+03 0.  1.
      622    1    1    2    0    0  0.46464903821E-01  0.47032610875E+00  0.22790367096E+01  0.35647403776E+01  0.27000000000E+01 0.  1.
</event>
<event>
 5   0  0.6580500E-04  0.9118800E+02  0.7818608E-02  0.1180000E+00
       11   -1    0    0    0    0  0.00000000000E+00  0.00000000000E+00  0.39999999673E+01  0.40000000000E+01  0.51109989000E-03 0. -1.
     -623   -1    0    0    0    0  0.00000000000E+00  0.00000000000E+00  0.12525980253E-10  0.17130000000E+03  0.17130000000E+03 0. -1.
       11    1    1    2    0    0  0.99839926761E-02 -0.37450182793E-01  0.14631331393E-01  0.41431067840E-01  0.51109989000E-03 0. -1.
     -623    1    1    2    0    0 -0.51133392399E+00  0.59427732243E-02  0.11407544861E+01  0.17130456158E+03  0.17130000000E+03 0. -1.
      622    1    1    2    0    0  0.50134993131E+00  0.31507409568E-01  0.28446141499E+01  0.39540073511E+01  0.27000000000E+01 0. -1.
</event>
<event>
 5   0  0.6580500E-04  0.9118800E+02  0.7818608E-02  0.1180000E+00
       11   -1    0    0    0    0  0.00000000000E+00  0.00000000000E+00  0.39999999673E+01  0.40000000000E+01  0.51109989000E-03 0. -1.
     -623   -1    0    0    0    0  0.00000000000E+00  0.00000000000E+00  0.12525980253E-10  0.17130000000E+03  0.17130000000E+03 0. -1.
       11    1    1    2    0    0  0.49773360399E-01  0.32159502948E+00  0.23097746502E+00  0.39906340469E+00  0.51109989000E-03 0. -1.
     -623    1    1    2    0    0  0.27502431918E+00 -0.29751995410E+00  0.14184982957E+01  0.17130635217E+03  0.17130000000E+03 0. -1.
      622    1    1    2    0    0 -0.32479767958E+00 -0.24075075386E-01  0.23505242067E+01  0.35945844250E+01  0.27000000000E+01 0. -1.
</event>
<event>
 5   0  0.6580500E-04  0.9118800E+02  0.7818608E-02  0.1180000E+00
       11   -1    0    0    0    0  0.00000000000E+00  0.00000000000E+00  0.39999999673E+01  0.40000000000E+01  0.51109989000E-03 0.  1.
     -623   -1    0    0    0    0  0.00000000000E+00  0.00000000000E+00  0.12525980253E-10  0.17130000000E+03  0.17130000000E+03 0.  1.
       11    1    1    2    0    0 -0.14075062760E+00  0.12873160800E-01  0.23236810151E+00  0.27197730284E+00  0.51109989000E-03 0.  1.
     -623    1    1    2    0    0  0.39579854817E+00 -0.19413583388E+00  0.12233296671E+01  0.17130493537E+03  0.17130000000E+03 0.  1.
      622    1    1    2    0    0 -0.25504792056E+00  0.18126267308E+00  0.25443021987E+01  0.37230873313E+01  0.27000000000E+01 0.  1.
</event>
<event>
 5   0  0.6580500E-04  0.9118800E+02  0.7818608E-02  0.1180000E+00
       11   -1    0    0    0    0  0.00000000000E+00  0.00000000000E+00  0.39999999673E+01  0.40000000000E+01  0.51109989000E-03 0.  1.
     -623   -1    0    0    0    0  0.00000000000E+00  0.00000000000E+00  0.12525980253E-10  0.17130000000E+03  0.17130000000E+03 0.  1.
       11    1    1    2    0    0  0.13352409489E+00 -0.51606976352E+00  0.16963542697E+00  0.55940425815E+00  0.51109989000E-03 0.  1.
     -623    1    1    2    0    0 -0.34306629497E-01  0.24014364329E+00  0.17326704528E+01  0.17130893436E+03  0.17130000000E+03 0.  1.
      622    1    1    2    0    0 -0.99217465393E-01  0.27592612022E+00  0.20976940876E+01  0.34316613782E+01  0.27000000000E+01 0.  1.
</event>
<event>
 5   0  0.6580500E-04  0.9118800E+02  0.7818608E-02  0.1180000E+00
       11   -1    0    0    0    0  0.00000000000E+00  0.00000000000E+00  0.39999999673E+01  0.40000000000E+01  0.51109989000E-03 0.  1.
     -623   -1    0    0    0    0  0.00000000000E+00  0.00000000000E+00  0.12525980253E-10  0.17130000000E+03  0.17130000000E+03 0.  1.
       11    1    1    2    0    0 -0.31808357447E+00 -0.32245346873E+00  0.63546097594E-01  0.45737486550E+00  0.51109989000E-03 0.  1.
     -623    1    1    2    0    0  0.10000215931E+01  0.78254849250E+00  0.18194107514E+01  0.17131436799E+03  0.17130000000E+03 0.  1.
      622    1    1    2    0    0 -0.68193801867E+00 -0.46009502376E+00  0.21170431184E+01  0.35282571416E+01  0.27000000000E+01 0.  1.
</event>
<event>
 5   0  0.6580500E-04  0.9118800E+02  0.7818608E-02  0.1180000E+00
       11   -1    0    0    0    0  0.00000000000E+00  0.00000000000E+00  0.39999999673E+01  0.40000000000E+01  0.51109989000E-03 0.  1.
     -623   -1    0    0    0    0  0.00000000000E+00  0.00000000000E+00  0.12525980253E-10  0.17130000000E+03  0.17130000000E+03 0.  1.
       11    1    1    2    0    0 -0.85551645958E-01 -0.74849632961E-01  0.10135752963E+00  0.15229957885E+00  0.51109989000E-03 0.  1.
     -623    1    1    2    0    0  0.26009016416E+00 -0.65106136858E-01  0.11724224546E+01  0.17130422196E+03  0.17130000000E+03 0.  1.
      622    1    1    2    0    0 -0.17453851820E+00  0.13995576982E+00  0.27262199832E+01  0.38434784647E+01  0.27000000000E+01 0.  1.
</event>
<event>
 5   0  0.6580500E-04  0.9118800E+02  0.7818608E-02  0.1180000E+00
       11   -1    0    0    0    0  0.00000000000E+00  0.00000000000E+00  0.39999999673E+01  0.40000000000E+01  0.51109989000E-03 0.  1.
     -623   -1    0    0    0    0  0.00000000000E+00  0.00000000000E+00  0.12525980253E-10  0.17130000000E+03  0.17130000000E+03 0.  1.
       11    1    1    2    0    0 -0.60266408400E-01 -0.66698441841E-01 -0.51219338543E-01  0.10346208962E+00  0.51109989000E-03 0.  1.
     -623    1    1    2    0    0  0.78546464780E-01  0.21118895597E+00  0.12521119842E+01  0.17130472426E+03  0.17130000000E+03 0.  1.
      622    1    1    2    0    0 -0.18280056380E-01 -0.14449051413E+00  0.27991073217E+01  0.38918136476E+01  0.27000000000E+01 0.  1.
</event>
<event>
 5   0  0.6580500E-04  0.9118800E+02  0.7818608E-02  0.1180000E+00
       11   -1    0    0    0    0  0.00000000000E+00  0.00000000000E+00  0.39999999673E+01  0.40000000000E+01  0.51109989000E-03 0.  1.
     -623   -1    0    0    0    0  0.00000000000E+00  0.00000000000E+00  0.12525980253E-10  0.17130000000E+03  0.17130000000E+03 0.  1.
       11    1    1    2    0    0 -0.16527339115E+00 -0.13645932020E+00  0.12759234227E+00  0.24943236943E+00  0.51109989000E-03 0.  1.
     -623    1    1    2    0    0  0.29542893665E-01  0.22474353103E+00  0.12813669753E+01  0.17130494238E+03  0.17130000000E+03 0.  1.
      622    1    1    2    0    0  0.13573049749E+00 -0.88284210825E-01  0.25910406498E+01  0.37456252507E+01  0.27000000000E+01 0.  1.
</event>
<event>
 5   0  0.6580500E-04  0.9118800E+02  0.7818608E-02  0.1180000E+00
       11   -1    0    0    0    0  0.00000000000E+00  0.00000000000E+00  0.39999999673E+01  0.40000000000E+01  0.51109989000E-03 0.  1.
     -623   -1    0    0    0    0  0.00000000000E+00  0.00000000000E+00  0.12525980253E-10  0.17130000000E+03  0.17130000000E+03 0.  1.
       11    1    1    2    0    0  0.20536586351E+00  0.70526301418E-02  0.81428357873E+00  0.83981122003E+00  0.51109989000E-03 0.  1.
     -623    1    1    2    0    0 -0.51447599659E+00  0.62373420545E+00  0.17240141280E+01  0.17131058331E+03  0.17130000000E+03 0.  1.
      622    1    1    2    0    0  0.30911013308E+00 -0.63078683559E+00  0.14617022607E+01  0.31496054682E+01  0.27000000000E+01 0.  0.
</event>
<event>
 5   0  0.6580500E-04  0.9118800E+02  0.7818608E-02  0.1180000E+00
       11   -1    0    0    0    0  0.00000000000E+00  0.00000000000E+00  0.39999999673E+01  0.40000000000E+01  0.51109989000E-03 0. -1.
     -623   -1    0    0    0    0  0.00000000000E+00  0.00000000000E+00  0.12525980253E-10  0.17130000000E+03  0.17130000000E+03 0.  1.
       11    1    1    2    0    0 -0.26432933608E+00  0.55351280214E-01  0.52404325560E-01  0.27510041202E+00  0.51109989000E-03 0. -1.
     -623    1    1    2    0    0  0.47242714933E+00 -0.50150208510E+00  0.14401756683E+01  0.17130743941E+03  0.17130000000E+03 0.  1.
      622    1    1    2    0    0 -0.20809781325E+00  0.44615080489E+00  0.25074199735E+01  0.37174601765E+01  0.27000000000E+01 0. -1.
</event>
<event>
 5   0  0.6580500E-04  0.9118800E+02  0.7818608E-02  0.1180000E+00
       11   -1    0    0    0    0  0.00000000000E+00  0.00000000000E+00  0.39999999673E+01  0.40000000000E+01  0.51109989000E-03 0. -1.
     -623   -1    0    0    0    0  0.00000000000E+00  0.00000000000E+00  0.12525980253E-10  0.17130000000E+03  0.17130000000E+03 0.  1.
       11    1    1    2    0    0 -0.83375551681E+00  0.69844701650E-01  0.14996268122E+00  0.85000918298E+00  0.51109989000E-03 0. -1.
     -623    1    1    2    0    0  0.98800771883E+00 -0.35413479398E+00  0.22973387761E+01  0.17131861935E+03  0.17130000000E+03 0.  1.
      622    1    1    2    0    0 -0.15425220201E+00  0.28429009233E+00  0.15526985100E+01  0.31313714665E+01  0.27000000000E+01 0. -1.
</event>
<event>
 5   0  0.6580500E-04  0.9118800E+02  0.7818608E-02  0.1180000E+00
       11   -1    0    0    0    0  0.00000000000E+00  0.00000000000E+00  0.39999999673E+01  0.40000000000E+01  0.51109989000E-03 0. -1.
     -623   -1    0    0    0    0  0.00000000000E+00  0.00000000000E+00  0.12525980253E-10  0.17130000000E+03  0.17130000000E+03 0.  1.
       11    1    1    2    0    0 -0.16189851653E+00 -0.29174499337E+00 -0.63883748661E+00  0.72072176763E+00  0.51109989000E-03 0. -1.
     -623    1    1    2    0    0  0.94705960900E-01  0.72957899410E+00  0.28783942024E+01  0.17132576107E+03  0.17130000000E+03 0.  1.
      622    1    1    2    0    0  0.67192555633E-01 -0.43783400073E+00  0.17604432515E+01  0.32535171574E+01  0.27000000000E+01 0. -1.
</event>
<event>
 5   0  0.6580500E-04  0.9118800E+02  0.7818608E-02  0.1180000E+00
       11   -1    0    0    0    0  0.00000000000E+00  0.00000000000E+00  0.39999999673E+01  0.40000000000E+01  0.51109989000E-03 0. -1.
     -623   -1    0    0    0    0  0.00000000000E+00  0.00000000000E+00  0.12525980253E-10  0.17130000000E+03  0.17130000000E+03 0. -1.
       11    1    1    2    0    0 -0.48906730919E-01 -0.39279301892E-01  0.29278744343E-01  0.69225992076E-01  0.51109989000E-03 0. -1.
     -623    1    1    2    0    0  0.27193780779E+00  0.13547468205E-01  0.11282426581E+01  0.17130393184E+03  0.17130000000E+03 0. -1.
      622    1    1    2    0    0 -0.22303107687E+00  0.25731833688E-01  0.28424785649E+01  0.39268421640E+01  0.27000000000E+01 0. -1.
</event>
<event>
 5   0  0.6580500E-04  0.9118800E+02  0.7818608E-02  0.1180000E+00
       11   -1    0    0    0    0  0.00000000000E+00  0.00000000000E+00  0.39999999673E+01  0.40000000000E+01  0.51109989000E-03 0.  1.
     -623   -1    0    0    0    0  0.00000000000E+00  0.00000000000E+00  0.12525980253E-10  0.17130000000E+03  0.17130000000E+03 0. -1.
       11    1    1    2    0    0 -0.61797707495E+00 -0.46448600486E+00  0.10071049345E+00  0.77960616890E+00  0.51109989000E-03 0.  1.
     -623    1    1    2    0    0  0.19818843894E+00  0.28020431937E+00  0.22334604166E+01  0.17131490343E+03  0.17130000000E+03 0. -1.
      622    1    1    2    0    0  0.41978863601E+00  0.18428168549E+00  0.16658290574E+01  0.32054903972E+01  0.27000000000E+01 0.  1.
</event>
<event>
 5   0  0.6580500E-04  0.9118800E+02  0.7818608E-02  0.1180000E+00
       11   -1    0    0    0    0  0.00000000000E+00  0.00000000000E+00  0.39999999673E+01  0.40000000000E+01  0.51109989000E-03 0. -1.
     -623   -1    0    0    0    0  0.00000000000E+00  0.00000000000E+00  0.12525980253E-10  0.17130000000E+03  0.17130000000E+03 0.  1.
       11    1    1    2    0    0  0.39325364020E+00  0.48331124780E+00  0.38384264804E+00  0.73182896052E+00  0.51109989000E-03 0. -1.
     -623    1    1    2    0    0 -0.48760680617E+00 -0.42995325362E+00  0.17969151726E+01  0.17131065794E+03  0.17130000000E+03 0.  1.
      622    1    1    2    0    0  0.94353165974E-01 -0.53357994179E-01  0.18192421467E+01  0.32575130980E+01  0.27000000000E+01 0. -1.
</event>
<event>
 5   0  0.6580500E-04  0.9118800E+02  0.7818608E-02  0.1180000E+00
       11   -1    0    0    0    0  0.00000000000E+00  0.00000000000E+00  0.39999999673E+01  0.40000000000E+01  0.51109989000E-03 0.  1.
     -623   -1    0    0    0    0  0.00000000000E+00  0.00000000000E+00  0.12525980253E-10  0.17130000000E+03  0.17130000000E+03 0.  1.
       11    1    1    2    0    0  0.33168105052E+00  0.64898945443E+00  0.28368688132E+00  0.78209854820E+00  0.51109989000E-03 0.  1.
     -623    1    1    2    0    0  0.53930116881E+00 -0.10502655404E+01  0.22948604838E+01  0.17131943932E+03  0.17130000000E+03 0. -1.
      622    1    1    2    0    0 -0.87098221933E+00  0.40127608602E+00  0.14214526022E+01  0.31984621342E+01  0.27000000000E+01 0.  1.
</event>
<event>
 5   0  0.6580500E-04  0.9118800E+02  0.7818608E-02  0.1180000E+00
       11   -1    0    0    0    0  0.00000000000E+00  0.00000000000E+00  0.39999999673E+01  0.40000000000E+01  0.51109989000E-03 0.  1.
     -623   -1    0    0    0    0  0.00000000000E+00  0.00000000000E+00  0.12525980253E-10  0.17130000000E+03  0.17130000000E+03 0. -1.
       11    1    1    2    0    0  0.35972474682E+00 -0.13282490303E+00 -0.31355589996E+00  0.49534019821E+00  0.51109989000E-03 0.  1.
     -623    1    1    2    0    0  0.26735121145E+00  0.72476401370E-01  0.21931779337E+01  0.17131426315E+03  0.17130000000E+03 0. -1.
      622    1    1    2    0    0 -0.62707595827E+00  0.60348501664E-01  0.21203779336E+01  0.34903966509E+01  0.27000000000E+01 0.  1.
</event>
<event>
 5   0  0.6580500E-04  0.9118800E+02  0.7818608E-02  0.1180000E+00
       11   -1    0    0    0    0  0.00000000000E+00  0.00000000000E+00  0.39999999673E+01  0.40000000000E+01  0.51109989000E-03 0.  1.
     -623   -1    0    0    0    0  0.00000000000E+00  0.00000000000E+00  0.12525980253E-10  0.17130000000E+03  0.17130000000E+03 0.  1.
       11    1    1    2    0    0  0.18323236548E-01 -0.17607298998E+00  0.64884620329E-01  0.18854101404E+00  0.51109989000E-03 0.  1.
     -623    1    1    2    0    0 -0.43657199340E+00  0.55485320916E+00  0.13141731001E+01  0.17130649581E+03  0.17130000000E+03 0.  1.
      622    1    1    2    0    0  0.41824875686E+00 -0.37878021918E+00  0.26209422469E+01  0.38049631718E+01  0.27000000000E+01 0.  1.
</event>
<event>
 5   0  0.6580500E-04  0.9118800E+02  0.7818608E-02  0.1180000E+00
       11   -1    0    0    0    0  0.00000000000E+00  0.00000000000E+00  0.39999999673E+01  0.40000000000E+01  0.51109989000E-03 0. -1.
     -623   -1    0    0    0    0  0.00000000000E+00  0.00000000000E+00  0.12525980253E-10  0.17130000000E+03  0.17130000000E+03 0.  1.
       11    1    1    2    0    0 -0.13434100384E+00  0.10456162086E+00  0.21364807584E+00  0.27317832894E+00  0.51109989000E-03 0. -1.
     -623    1    1    2    0    0  0.31199447490E+00 -0.21543581268E-01  0.12318207131E+01  0.17130471443E+03  0.17130000000E+03 0.  1.
      622    1    1    2    0    0 -0.17765347106E+00 -0.83018039590E-01  0.25545311784E+01  0.37221072381E+01  0.27000000000E+01 0.  1.
</event>
<event>
 5   0  0.6580500E-04  0.9118800E+02  0.7818608E-02  0.1180000E+00
       11   -1    0    0    0    0  0.00000000000E+00  0.00000000000E+00  0.39999999673E+01  0.40000000000E+01  0.51109989000E-03 0. -1.
     -623   -1    0    0    0    0  0.00000000000E+00  0.00000000000E+00  0.12525980253E-10  0.17130000000E+03  0.17130000000E+03 0.  1.
       11    1    1    2    0    0 -0.14459417426E+00 -0.33823796651E-01  0.41036332016E-01  0.15406416267E+00  0.51109989000E-03 0. -1.
     -623    1    1    2    0    0  0.26457752923E+00  0.10143015247E+00  0.12301358611E+01  0.17130465120E+03  0.17130000000E+03 0.  1.
      622    1    1    2    0    0 -0.11998335497E+00 -0.67606355824E-01  0.27288277743E+01  0.38412846349E+01  0.27000000000E+01 0. -1.
</event>
<event>
 5   0  0.6580500E-04  0.9118800E+02  0.7818608E-02  0.1180000E+00
       11   -1    0    0    0    0  0.00000000000E+00  0.00000000000E+00  0.39999999673E+01  0.40000000000E+01  0.51109989000E-03 0.  1.
     -623   -1    0    0    0    0  0.00000000000E+00  0.00000000000E+00  0.12525980253E-10  0.17130000000E+03  0.17130000000E+03 0. -1.
       11    1    1    2    0    0  0.13677574034E+00  0.35704273894E+00  0.29290452621E+00  0.48164348150E+00  0.51109989000E-03 0.  1.
     -623    1    1    2    0    0  0.35354456388E+00 -0.76527327418E+00  0.15582860266E+01  0.17130916173E+03  0.17130000000E+03 0.  1.
      622    1    1    2    0    0 -0.49032030422E+00  0.40823053524E+00  0.21488094146E+01  0.35091947895E+01  0.27000000000E+01 0.  1.
</event>
<event>
 5   0  0.6580500E-04  0.9118800E+02  0.7818608E-02  0.1180000E+00
       11   -1    0    0    0    0  0.00000000000E+00  0.00000000000E+00  0.39999999673E+01  0.40000000000E+01  0.51109989000E-03 0. -1.
     -623   -1    0    0    0    0  0.00000000000E+00  0.00000000000E+00  0.12525980253E-10  0.17130000000E+03  0.17130000000E+03 0. -1.
       11    1    1    2    0    0  0.30525461361E-01  0.22539839800E+00 -0.20017868949E+00  0.30299836726E+00  0.51109989000E-03 0. -1.
     -623    1    1    2    0    0 -0.10687107057E+01  0.29750130216E+00  0.19831167009E+01  0.17131507056E+03  0.17130000000E+03 0. -1.
      622    1    1    2    0    0  0.10381852443E+01 -0.52289970016E+00  0.22170619559E+01  0.36819310714E+01  0.27000000000E+01 0. -1.
</event>
<event>
 5   0  0.6580500E-04  0.9118800E+02  0.7818608E-02  0.1180000E+00
       11   -1    0    0    0    0  0.00000000000E+00  0.00000000000E+00  0.39999999673E+01  0.40000000000E+01  0.51109989000E-03 0.  1.
     -623   -1    0    0    0    0  0.00000000000E+00  0.00000000000E+00  0.12525980253E-10  0.17130000000E+03  0.17130000000E+03 0. -1.
       11    1    1    2    0    0  0.50630113792E+00 -0.20625491593E+00  0.88926497752E-01  0.55388637448E+00  0.51109989000E-03 0.  1.
     -623    1    1    2    0    0 -0.11647809622E+01  0.75149581952E+00  0.19777426532E+01  0.17131702463E+03  0.17130000000E+03 0. -1.
      622    1    1    2    0    0  0.65847982425E+00 -0.54524090358E+00  0.19333308164E+01  0.34290889997E+01  0.27000000000E+01 0.  1.
</event>
<event>
 5   0  0.6580500E-04  0.9118800E+02  0.7818608E-02  0.1180000E+00
       11   -1    0    0    0    0  0.00000000000E+00  0.00000000000E+00  0.39999999673E+01  0.40000000000E+01  0.51109989000E-03 0.  1.
     -623   -1    0    0    0    0  0.00000000000E+00  0.00000000000E+00  0.12525980253E-10  0.17130000000E+03  0.17130000000E+03 0. -1.
       11    1    1    2    0    0  0.19092162027E+00 -0.26254885183E+00 -0.48827183355E-01  0.32827933189E+00  0.51109989000E-03 0.  1.
     -623    1    1    2    0    0 -0.62518481285E+00  0.11554504241E+01  0.17904697326E+01  0.17131439433E+03  0.17130000000E+03 0. -1.
      622    1    1    2    0    0  0.43426319258E+00 -0.89290157223E+00  0.22583574181E+01  0.36573263412E+01  0.27000000000E+01 0.  0.
</event>
<event>
 5   0  0.6580500E-04  0.9118800E+02  0.7818608E-02  0.1180000E+00
       11   -1    0    0    0    0  0.00000000000E+00  0.00000000000E+00  0.39999999673E+01  0.40000000000E+01  0.51109989000E-03 0. -1.
     -623   -1    0    0    0    0  0.00000000000E+00  0.00000000000E+00  0.12525980253E-10  0.17130000000E+03  0.17130000000E+03 0. -1.
       11    1    1    2    0    0 -0.76014486308E-01  0.15604227797E-01  0.29248440942E+00  0.30260384173E+00  0.51109989000E-03 0. -1.
     -623    1    1    2    0    0  0.69190808874E+00  0.21799171673E+00  0.12784728153E+01  0.17130630680E+03  0.17130000000E+03 0. -1.
      622    1    1    2    0    0 -0.61589360243E+00 -0.23359594453E+00  0.24290427427E+01  0.36910893569E+01  0.27000000000E+01 0. -1.
</event>
<event>
 5   0  0.6580500E-04  0.9118800E+02  0.7818608E-02  0.1180000E+00
       11   -1    0    0    0    0  0.00000000000E+00  0.00000000000E+00  0.39999999673E+01  0.40000000000E+01  0.51109989000E-03 0.  1.
     -623   -1    0    0    0    0  0.00000000000E+00  0.00000000000E+00  0.12525980253E-10  0.17130000000E+03  0.17130000000E+03 0. -1.
       11    1    1    2    0    0 -0.28699519021E-01 -0.16645732961E+00 -0.53110754717E+00  0.55732144482E+00  0.51109989000E-03 0.  1.
     -623    1    1    2    0    0 -0.40789298519E+00 -0.10571808373E+00  0.24891458075E+01  0.17131860203E+03  0.17130000000E+03 0. -1.
      622    1    1    2    0    0  0.43659250421E+00  0.27217541334E+00  0.20419617071E+01  0.34240765300E+01  0.27000000000E+01 0.  1.
</event>
<event>
 5   0  0.6580500E-04  0.9118800E+02  0.7818608E-02  0.1180000E+00
       11   -1    0    0    0    0  0.00000000000E+00  0.00000000000E+00  0.39999999673E+01  0.40000000000E+01  0.51109989000E-03 0. -1.
     -623   -1    0    0    0    0  0.00000000000E+00  0.00000000000E+00  0.12525980253E-10  0.17130000000E+03  0.17130000000E+03 0. -1.
       11    1    1    2    0    0  0.52193667016E-01 -0.14689223950E+00  0.12877661687E+00  0.20220085849E+00  0.51109989000E-03 0. -1.
     -623    1    1    2    0    0 -0.25064945109E+00  0.56042787799E+00  0.12482452317E+01  0.17130564795E+03  0.17130000000E+03 0. -1.
      622    1    1    2    0    0  0.19845578408E+00 -0.41353563849E+00  0.26229781187E+01  0.37921511882E+01  0.27000000000E+01 0. -1.
</event>
<event>
 5   0  0.6580500E-04  0.9118800E+02  0.7818608E-02  0.1180000E+00
       11   -1    0    0    0    0  0.00000000000E+00  0.00000000000E+00  0.39999999673E+01  0.40000000000E+01  0.51109989000E-03 0. -1.
     -623   -1    0    0    0    0  0.00000000000E+00  0.00000000000E+00  0.12525980253E-10  0.17130000000E+03  0.17130000000E+03 0. -1.
       11    1    1    2    0    0 -0.40137890873E-01  0.51486696541E-01 -0.48875287666E-01  0.81553572405E-01  0.51109989000E-03 0. -1.
     -623    1    1    2    0    0  0.33334424216E+00  0.36972641512E+00  0.12634347829E+01  0.17130538253E+03  0.17130000000E+03 0. -1.
      622    1    1    2    0    0 -0.29320635128E+00 -0.42121311166E+00  0.27854404721E+01  0.39130638985E+01  0.27000000000E+01 0. -1.
</event>
<event>
 5   0  0.6580500E-04  0.9118800E+02  0.7818608E-02  0.1180000E+00
       11   -1    0    0    0    0  0.00000000000E+00  0.00000000000E+00  0.39999999673E+01  0.40000000000E+01  0.51109989000E-03 0.  1.
     -623   -1    0    0    0    0  0.00000000000E+00  0.00000000000E+00  0.12525980253E-10  0.17130000000E+03  0.17130000000E+03 0.  1.
       11    1    1    2    0    0 -0.16726099996E+00  0.12596390796E+00 -0.10943999652E+00  0.23626367109E+00  0.51109989000E-03 0.  1.
     -623    1    1    2    0    0 -0.78933259580E+00 -0.23155405012E+00  0.16861648167E+01  0.17131027352E+03  0.17130000000E+03 0.  1.
      622    1    1    2    0    0  0.95659359576E+00  0.10559014217E+00  0.24232751472E+01  0.37534628045E+01  0.27000000000E+01 0. -1.
</event>
<event>
 5   0  0.6580500E-04  0.9118800E+02  0.7818608E-02  0.1180000E+00
       11   -1    0    0    0    0  0.00000000000E+00  0.00000000000E+00  0.39999999673E+01  0.40000000000E+01  0.51109989000E-03 0. -1.
     -623   -1    0    0    0    0  0.00000000000E+00  0.00000000000E+00  0.12525980253E-10  0.17130000000E+03  0.17130000000E+03 0.  1.
       11    1    1    2    0    0 -0.32327153349E-01 -0.13826243298E-01 -0.21538737876E-01  0.41235764796E-01  0.51109989000E-03 0. -1.
     -623    1    1    2    0    0  0.35912802333E+00 -0.29379807915E+00  0.11677844525E+01  0.17130460884E+03  0.17130000000E+03 0.  1.
      622    1    1    2    0    0 -0.32680086998E+00  0.30762432245E+00  0.28537542528E+01  0.39541553924E+01  0.27000000000E+01 0. -1.
</event>
<event>
 5   0  0.6580500E-04  0.9118800E+02  0.7818608E-02  0.1180000E+00
       11   -1    0    0    0    0  0.00000000000E+00  0.00000000000E+00  0.39999999673E+01  0.40000000000E+01  0.51109989000E-03 0.  1.
     -623   -1    0    0    0    0  0.00000000000E+00  0.00000000000E+00  0.12525980253E-10  0.17130000000E+03  0.17130000000E+03 0. -1.
       11    1    1    2    0    0  0.31559872418E+00  0.11714460062E+00  0.55091632873E+00  0.64562719479E+00  0.51109989000E-03 0.  1.
     -623    1    1    2    0    0 -0.36415777873E+00 -0.25739392002E-03  0.14740654366E+01  0.17130672923E+03  0.17130000000E+03 0. -1.
      622    1    1    2    0    0  0.48559054553E-01 -0.11688720670E+00  0.19750182020E+01  0.33476435741E+01  0.27000000000E+01 0.  1.
</event>
<event>
 5   0  0.6580500E-04  0.9118800E+02  0.7818608E-02  0.1180000E+00
       11   -1    0    0    0    0  0.00000000000E+00  0.00000000000E+00  0.39999999673E+01  0.40000000000E+01  0.51109989000E-03 0. -1.
     -623   -1    0    0    0    0  0.00000000000E+00  0.00000000000E+00  0.12525980253E-10  0.17130000000E+03  0.17130000000E+03 0. -1.
       11    1    1    2    0    0 -0.39731181241E-01 -0.15089803700E+00 -0.53476401693E-01  0.16495081417E+00  0.51109989000E-03 0. -1.
     -623    1    1    2    0    0 -0.13606988948E+00 -0.25448633089E+00  0.13742510806E+01  0.17130575543E+03  0.17130000000E+03 0. -1.
      622    1    1    2    0    0  0.17580107072E+00  0.40538436789E+00  0.26792252884E+01  0.38292937532E+01  0.27000000000E+01 0. -1.
</event>
<event>
 5   0  0.6580500E-04  0.9118800E+02  0.7818608E-02  0.1180000E+00
       11   -1    0    0    0    0  0.00000000000E+00  0.00000000000E+00  0.39999999673E+01  0.40000000000E+01  0.51109989000E-03 0.  1.
     -623   -1    0    0    0    0  0.00000000000E+00  0.00000000000E+00  0.12525980253E-10  0.17130000000E+03  0.17130000000E+03 0. -1.
       11    1    1    2    0    0  0.82932344857E-01 -0.42726482120E-01  0.11437618452E+00  0.14759911553E+00  0.51109989000E-03 0.  1.
     -623    1    1    2    0    0  0.22901869727E-01  0.30690590104E+00  0.11584071800E+01  0.17130419324E+03  0.17130000000E+03 0. -1.
      622    1    1    2    0    0 -0.10583421458E+00 -0.26417941892E+00  0.27272166029E+01  0.38482076406E+01  0.27000000000E+01 0.  1.
</event>
<event>
 5   0  0.6580500E-04  0.9118800E+02  0.7818608E-02  0.1180000E+00
       11   -1    0    0    0    0  0.00000000000E+00  0.00000000000E+00  0.39999999673E+01  0.40000000000E+01  0.51109989000E-03 0. -1.
     -623   -1    0    0    0    0  0.00000000000E+00  0.00000000000E+00  0.12525980253E-10  0.17130000000E+03  0.17130000000E+03 0. -1.
       11    1    1    2    0    0  0.75881601629E-01  0.23576279420E+00  0.15714738165E+00  0.29332179152E+00  0.51109989000E-03 0. -1.
     -623    1    1    2    0    0 -0.12341387273E+00 -0.44685459506E+00  0.13208943576E+01  0.17130571990E+03  0.17130000000E+03 0. -1.
      622    1    1    2    0    0  0.47532271102E-01  0.21109180086E+00  0.25219582281E+01  0.37009583042E+01  0.27000000000E+01 0. -1.
</event>
<event>
 5   0  0.6580500E-04  0.9118800E+02  0.7818608E-02  0.1180000E+00
       11   -1    0    0    0    0  0.00000000000E+00  0.00000000000E+00  0.39999999673E+01  0.40000000000E+01  0.51109989000E-03 0. -1.
     -623   -1    0    0    0    0  0.00000000000E+00  0.00000000000E+00  0.12525980253E-10  0.17130000000E+03  0.17130000000E+03 0. -1.
       11    1    1    2    0    0  0.53461566720E+00 -0.94203951404E-01 -0.22581781277E+00  0.58794748223E+00  0.51109989000E-03 0. -1.
     -623    1    1    2    0    0 -0.83854862794E+00  0.45054951702E+00  0.22216523179E+01  0.17131705081E+03  0.17130000000E+03 0. -1.
      622    1    1    2    0    0  0.30393296074E+00 -0.35634556562E+00  0.20041654622E+01  0.33950017094E+01  0.27000000000E+01 0. -1.
</event>
<event>
 5   0  0.6580500E-04  0.9118800E+02  0.7818608E-02  0.1180000E+00
       11   -1    0    0    0    0  0.00000000000E+00  0.00000000000E+00  0.39999999673E+01  0.40000000000E+01  0.51109989000E-03 0.  1.
     -623   -1    0    0    0    0  0.00000000000E+00  0.00000000000E+00  0.12525980253E-10  0.17130000000E+03  0.17130000000E+03 0.  1.
       11    1    1    2    0    0 -0.53078325882E-01  0.74236072556E-01 -0.34435077618E-01  0.97541472919E-01  0.51109989000E-03 0.  1.
     -623    1    1    2    0    0 -0.30742321097E+00 -0.75212481531E+00  0.13336612068E+01  0.17130711851E+03  0.17130000000E+03 0.  1.
      622    1    1    2    0    0  0.36050153686E+00  0.67788874276E+00  0.27007738382E+01  0.38953400148E+01  0.27000000000E+01 0.  1.
</event>
<event>
 5   0  0.6580500E-04  0.9118800E+02  0.7818608E-02  0.1180000E+00
       11   -1    0    0    0    0  0.00000000000E+00  0.00000000000E+00  0.39999999673E+01  0.40000000000E+01  0.51109989000E-03 0.  1.
     -623   -1    0    0    0    0  0.00000000000E+00  0.00000000000E+00  0.12525980253E-10  0.17130000000E+03  0.17130000000E+03 0. -1.
       11    1    1    2    0    0 -0.37886564239E+00  0.22800105838E+00  0.24288427084E+00  0.50449646961E+00  0.51109989000E-03 0.  1.
     -623    1    1    2    0    0  0.50311469772E+00 -0.15855042359E+00  0.15540755981E+01  0.17130786151E+03  0.17130000000E+03 0. -1.
      622    1    1    2    0    0 -0.12424905533E+00 -0.69450634789E-01  0.22030400984E+01  0.34876420249E+01  0.27000000000E+01 0.  1.
</event>
<event>
 5   0  0.6580500E-04  0.9118800E+02  0.7818608E-02  0.1180000E+00
       11   -1    0    0    0    0  0.00000000000E+00  0.00000000000E+00  0.39999999673E+01  0.40000000000E+01  0.51109989000E-03 0. -1.
     -623   -1    0    0    0    0  0.00000000000E+00  0.00000000000E+00  0.12525980253E-10  0.17130000000E+03  0.17130000000E+03 0. -1.
       11    1    1    2    0    0 -0.15263068699E+00  0.10213205121E+01 -0.34937765856E+00  0.10901636228E+01  0.51109989000E-03 0. -1.
     -623    1    1    2    0    0  0.94685588301E+00 -0.14038058405E+01  0.40816963869E+01  0.17135698834E+03  0.17130000000E+03 0.  1.
      622    1    1    2    0    0 -0.79422519602E+00  0.38248532839E+00  0.26768123901E+00  0.28528480391E+01  0.27000000000E+01 0.  1.
</event>
<event>
 5   0  0.6580500E-04  0.9118800E+02  0.7818608E-02  0.1180000E+00
       11   -1    0    0    0    0  0.00000000000E+00  0.00000000000E+00  0.39999999673E+01  0.40000000000E+01  0.51109989000E-03 0.  1.
     -623   -1    0    0    0    0  0.00000000000E+00  0.00000000000E+00  0.12525980253E-10  0.17130000000E+03  0.17130000000E+03 0. -1.
       11    1    1    2    0    0  0.56570150148E-02  0.48878686722E+00  0.22237037991E+00  0.53702276532E+00  0.51109989000E-03 0.  1.
     -623    1    1    2    0    0  0.88051466660E+00 -0.15294546705E+00  0.18491576280E+01  0.17131231153E+03  0.17130000000E+03 0. -1.
      622    1    1    2    0    0 -0.88617168162E+00 -0.33584140018E+00  0.19284719595E+01  0.34506657030E+01  0.27000000000E+01 0.  1.
</event>
<event>
 5   0  0.6580500E-04  0.9118800E+02  0.7818608E-02  0.1180000E+00
       11   -1    0    0    0    0  0.00000000000E+00  0.00000000000E+00  0.39999999673E+01  0.40000000000E+01  0.51109989000E-03 0. -1.
     -623   -1    0    0    0    0  0.00000000000E+00  0.00000000000E+00  0.12525980253E-10  0.17130000000E+03  0.17130000000E+03 0. -1.
       11    1    1    2    0    0  0.18383766005E+00 -0.18688576712E+00  0.19648237696E+00  0.32760976921E+00  0.51109989000E-03 0. -1.
     -623    1    1    2    0    0 -0.19041493943E+00  0.63549239422E+00  0.13651126306E+01  0.17130672386E+03  0.17130000000E+03 0. -1.
      622    1    1    2    0    0  0.65772793764E-02 -0.44860662709E+00  0.24384049598E+01  0.36656663670E+01  0.27000000000E+01 0. -1.
</event>
<event>
 5   0  0.6580500E-04  0.9118800E+02  0.7818608E-02  0.1180000E+00
       11   -1    0    0    0    0  0.00000000000E+00  0.00000000000E+00  0.39999999673E+01  0.40000000000E+01  0.51109989000E-03 0. -1.
     -623   -1    0    0    0    0  0.00000000000E+00  0.00000000000E+00  0.12525980253E-10  0.17130000000E+03  0.17130000000E+03 0. -1.
       11    1    1    2    0    0  0.66656823179E-01  0.25529669086E-01  0.54075769445E-01  0.89550802030E-01  0.51109989000E-03 0. -1.
     -623    1    1    2    0    0 -0.22022710399E+00  0.46669931735E+00  0.11713317453E+01  0.17130478197E+03  0.17130000000E+03 0. -1.
      622    1    1    2    0    0  0.15357028081E+00 -0.49222898644E+00  0.27745924526E+01  0.39056672265E+01  0.27000000000E+01 0. -1.
</event>
<event>
 5   0  0.6580500E-04  0.9118800E+02  0.7818608E-02  0.1180000E+00
       11   -1    0    0    0    0  0.00000000000E+00  0.00000000000E+00  0.39999999673E+01  0.40000000000E+01  0.51109989000E-03 0. -1.
     -623   -1    0    0    0    0  0.00000000000E+00  0.00000000000E+00  0.12525980253E-10  0.17130000000E+03  0.17130000000E+03 0.  1.
       11    1    1    2    0    0  0.12050537922E+00 -0.34785452568E-01  0.51068741805E-01  0.13542470876E+00  0.51109989000E-03 0. -1.
     -623    1    1    2    0    0 -0.24875050600E+00  0.19446701210E+00  0.11978591493E+01  0.17130447910E+03  0.17130000000E+03 0.  1.
      622    1    1    2    0    0  0.12824512678E+00 -0.15968155953E+00  0.27510720763E+01  0.38600961882E+01  0.27000000000E+01 0. -1.
</event>
<event>
 5   0  0.6580500E-04  0.9118800E+02  0.7818608E-02  0.1180000E+00
       11   -1    0    0    0    0  0.00000000000E+00  0.00000000000E+00  0.39999999673E+01  0.40000000000E+01  0.51109989000E-03 0.  1.
     -623   -1    0    0    0    0  0.00000000000E+00  0.00000000000E+00  0.12525980253E-10  0.17130000000E+03  0.17130000000E+03 0.  1.
       11    1    1    2    0    0 -0.16633422687E-01 -0.17574826536E+00 -0.46077982315E-02  0.17659449752E+00  0.51109989000E-03 0.  1.
     -623    1    1    2    0    0  0.14155426432E+01  0.53917566309E+00  0.17417048527E+01  0.17131555098E+03  0.17130000000E+03 0.  1.
      622    1    1    2    0    0 -0.13989092205E+01 -0.36342739773E+00  0.22629029129E+01  0.38078545237E+01  0.27000000000E+01 0.  0.
</event>
<event>
 5   0  0.6580500E-04  0.9118800E+02  0.7818608E-02  0.1180000E+00
       11   -1    0    0    0    0  0.00000000000E+00  0.00000000000E+00  0.39999999673E+01  0.40000000000E+01  0.51109989000E-03 0.  1.
     -623   -1    0    0    0    0  0.00000000000E+00  0.00000000000E+00  0.12525980253E-10  0.17130000000E+03  0.17130000000E+03 0. -1.
       11    1    1    2    0    0 -0.11822981837E+00 -0.45116596730E+00  0.52964197953E+00  0.70572651055E+00  0.51109989000E-03 0.  1.
     -623    1    1    2    0    0 -0.27357452529E+00 -0.10206379650E-01  0.16986330605E+01  0.17130864048E+03  0.17130000000E+03 0. -1.
      622    1    1    2    0    0  0.39180434366E+00  0.46137234695E+00  0.17717249273E+01  0.32856330142E+01  0.27000000000E+01 0.  1.
</event>
<event>
 5   0  0.6580500E-04  0.9118800E+02  0.7818608E-02  0.1180000E+00
       11   -1    0    0    0    0  0.00000000000E+00  0.00000000000E+00  0.39999999673E+01  0.40000000000E+01  0.51109989000E-03 0. -1.
     -623   -1    0    0    0    0  0.00000000000E+00  0.00000000000E+00  0.12525980253E-10  0.17130000000E+03  0.17130000000E+03 0. -1.
       11    1    1    2    0    0 -0.46573170396E+00  0.17135827594E-02 -0.31239566931E-01  0.46678167081E+00  0.51109989000E-03 0. -1.
     -623    1    1    2    0    0  0.21747963688E+00  0.32143422983E-01  0.17807860744E+01  0.17130939709E+03  0.17130000000E+03 0. -1.
      622    1    1    2    0    0  0.24825206708E+00 -0.33857005743E-01  0.22504534599E+01  0.35238212442E+01  0.27000000000E+01 0. -1.
</event>
<event>
 5   0  0.6580500E-04  0.9118800E+02  0.7818608E-02  0.1180000E+00
       11   -1    0    0    0    0  0.00000000000E+00  0.00000000000E+00  0.39999999673E+01  0.40000000000E+01  0.51109989000E-03 0. -1.
     -623   -1    0    0    0    0  0.00000000000E+00  0.00000000000E+00  0.12525980253E-10  0.17130000000E+03  0.17130000000E+03 0.  1.
       11    1    1    2    0    0  0.17126415022E+00  0.19707343029E+00 -0.35384431504E+00  0.43974470614E+00  0.51109989000E-03 0. -1.
     -623    1    1    2    0    0 -0.72484404170E-01  0.34639186660E-01  0.20662114784E+01  0.17131247965E+03  0.17130000000E+03 0.  1.
      622    1    1    2    0    0 -0.98779746048E-01 -0.23171261695E+00  0.22876328040E+01  0.35477756441E+01  0.27000000000E+01 0. -1.
</event>
<event>
 5   0  0.6580500E-04  0.9118800E+02  0.7818608E-02  0.1180000E+00
       11   -1    0    0    0    0  0.00000000000E+00  0.00000000000E+00  0.39999999673E+01  0.40000000000E+01  0.51109989000E-03 0. -1.
     -623   -1    0    0    0    0  0.00000000000E+00  0.00000000000E+00  0.12525980253E-10  0.17130000000E+03  0.17130000000E+03 0. -1.
       11    1    1    2    0    0 -0.87193973938E-01  0.92607478788E-01  0.45441751243E-01  0.13507090063E+00  0.51109989000E-03 0. -1.
     -623    1    1    2    0    0  0.15758344956E+00  0.20412250533E+00  0.12122899763E+01  0.17130448373E+03  0.17130000000E+03 0. -1.
      622    1    1    2    0    0 -0.70389475619E-01 -0.29672998412E+00  0.27422682398E+01  0.38604453708E+01  0.27000000000E+01 0. -1.
</event>
<event>
 5   0  0.6580500E-04  0.9118800E+02  0.7818608E-02  0.1180000E+00
       11   -1    0    0    0    0  0.00000000000E+00  0.00000000000E+00  0.39999999673E+01  0.40000000000E+01  0.51109989000E-03 0. -1.
     -623   -1    0    0    0    0  0.00000000000E+00  0.00000000000E+00  0.12525980253E-10  0.17130000000E+03  0.17130000000E+03 0.  1.
       11    1    1    2    0    0  0.10278948389E+00  0.39260443183E+00 -0.50627935211E-01  0.40898333333E+00  0.51109989000E-03 0. -1.
     -623    1    1    2    0    0 -0.12687413247E+01 -0.11252534740E+01  0.21662122667E+01  0.17132208957E+03  0.17130000000E+03 0.  1.
      622    1    1    2    0    0  0.11659518408E+01  0.73264904218E+00  0.18844156359E+01  0.35689270941E+01  0.27000000000E+01 0. -1.
</event>
<event>
 5   0  0.6580500E-04  0.9118800E+02  0.7818608E-02  0.1180000E+00
       11   -1    0    0    0    0  0.00000000000E+00  0.00000000000E+00  0.39999999673E+01  0.40000000000E+01  0.51109989000E-03 0.  1.
     -623   -1    0    0    0    0  0.00000000000E+00  0.00000000000E+00  0.12525980253E-10  0.17130000000E+03  0.17130000000E+03 0. -1.
       11    1    1    2    0    0 -0.11125478673E+00 -0.67355858022E-01  0.54661130231E-01  0.14107636074E+00  0.51109989000E-03 0.  1.
     -623    1    1    2    0    0 -0.12196368072E+00 -0.56667750446E+00  0.12806775843E+01  0.17130576795E+03  0.17130000000E+03 0. -1.
      622    1    1    2    0    0  0.23321846745E+00  0.63403336248E+00  0.26646612528E+01  0.38531556873E+01  0.27000000000E+01 0.  1.
</event>
<event>
 5   0  0.6580500E-04  0.9118800E+02  0.7818608E-02  0.1180000E+00
       11   -1    0    0    0    0  0.00000000000E+00  0.00000000000E+00  0.39999999673E+01  0.40000000000E+01  0.51109989000E-03 0.  1.
     -623   -1    0    0    0    0  0.00000000000E+00  0.00000000000E+00  0.12525980253E-10  0.17130000000E+03  0.17130000000E+03 0. -1.
       11    1    1    2    0    0  0.41837944786E-01 -0.39551602285E-01 -0.13857233963E-01  0.59220157239E-01  0.51109989000E-03 0.  1.
     -623    1    1    2    0    0  0.54585107451E-01 -0.36301364217E+00  0.11795491961E+01  0.17130445439E+03  0.17130000000E+03 0. -1.
      622    1    1    2    0    0 -0.96423052237E-01  0.40256524445E+00  0.28343080052E+01  0.39363254502E+01  0.27000000000E+01 0.  1.
</event>
<event>
 5   0  0.6580500E-04  0.9118800E+02  0.7818608E-02  0.1180000E+00
       11   -1    0    0    0    0  0.00000000000E+00  0.00000000000E+00  0.39999999673E+01  0.40000000000E+01  0.51109989000E-03 0. -1.
     -623   -1    0    0    0    0  0.00000000000E+00  0.00000000000E+00  0.12525980253E-10  0.17130000000E+03  0.17130000000E+03 0. -1.
       11    1    1    2    0    0 -0.14423250908E+00 -0.97286334833E+00  0.60743778536E+00  0.11559615199E+01  0.51109989000E-03 0. -1.
     -623    1    1    2    0    0 -0.15895906760E+00  0.11145281056E+01  0.26513446390E+01  0.17132421624E+03  0.17130000000E+03 0. -1.
      622    1    1    2    0    0  0.30319157668E+00 -0.14166475729E+00  0.74121754302E+00  0.28198222429E+01  0.27000000000E+01 0. -1.
</event>
<event>
 5   0  0.6580500E-04  0.9118800E+02  0.7818608E-02  0.1180000E+00
       11   -1    0    0    0    0  0.00000000000E+00  0.00000000000E+00  0.39999999673E+01  0.40000000000E+01  0.51109989000E-03 0. -1.
     -623   -1    0    0    0    0  0.00000000000E+00  0.00000000000E+00  0.12525980253E-10  0.17130000000E+03  0.17130000000E+03 0. -1.
       11    1    1    2    0    0 -0.38756993736E-01 -0.11303626272E+00  0.18799029577E+00  0.22275527778E+00  0.51109989000E-03 0. -1.
     -623    1    1    2    0    0 -0.13163654541E+00 -0.42199852298E-01  0.11865579841E+01  0.17130416524E+03  0.17130000000E+03 0. -1.
      622    1    1    2    0    0  0.17039353915E+00  0.15523611501E+00  0.26254516875E+01  0.37730794814E+01  0.27000000000E+01 0. -1.
</event>
<event>
 5   0  0.6580500E-04  0.9118800E+02  0.7818608E-02  0.1180000E+00
       11   -1    0    0    0    0  0.00000000000E+00  0.00000000000E+00  0.39999999673E+01  0.40000000000E+01  0.51109989000E-03 0. -1.
     -623   -1    0    0    0    0  0.00000000000E+00  0.00000000000E+00  0.12525980253E-10  0.17130000000E+03  0.17130000000E+03 0. -1.
       11    1    1    2    0    0  0.92898106687E-02  0.10937917284E+00 -0.12957768715E-01  0.11053627923E+00  0.51109989000E-03 0. -1.
     -623    1    1    2    0    0 -0.24708790555E+00  0.40732070849E-01  0.12339520940E+01  0.17130462734E+03  0.17130000000E+03 0. -1.
      622    1    1    2    0    0  0.23779809488E+00 -0.15011124369E+00  0.27790056421E+01  0.38848363772E+01  0.27000000000E+01 0. -1.
</event>
<event>
 5   0  0.6580500E-04  0.9118800E+02  0.7818608E-02  0.1180000E+00
       11   -1    0    0    0    0  0.00000000000E+00  0.00000000000E+00  0.39999999673E+01  0.40000000000E+01  0.51109989000E-03 0. -1.
     -623   -1    0    0    0    0  0.00000000000E+00  0.00000000000E+00  0.12525980253E-10  0.17130000000E+03  0.17130000000E+03 0. -1.
       11    1    1    2    0    0 -0.99693378805E-01 -0.30880271912E-01  0.14736088215E-01  0.10540291498E+00  0.51109989000E-03 0. -1.
     -623    1    1    2    0    0  0.92830673334E-01  0.27779851584E+00  0.11955608708E+01  0.17130442246E+03  0.17130000000E+03 0. -1.
      622    1    1    2    0    0  0.68627054712E-02 -0.24691824393E+00  0.27897030083E+01  0.38901746221E+01  0.27000000000E+01 0. -1.
</event>
<event>
 5   0  0.6580500E-04  0.9118800E+02  0.7818608E-02  0.1180000E+00
       11   -1    0    0    0    0  0.00000000000E+00  0.00000000000E+00  0.39999999673E+01  0.40000000000E+01  0.51109989000E-03 0.  1.
     -623   -1    0    0    0    0  0.00000000000E+00  0.00000000000E+00  0.12525980253E-10  0.17130000000E+03  0.17130000000E+03 0.  1.
       11    1    1    2    0    0 -0.70070709215E-01  0.69739180902E-01  0.60813092336E+00  0.61611438776E+00  0.51109989000E-03 0.  1.
     -623    1    1    2    0    0  0.19710223022E+00 -0.48545579170E+00  0.14101873020E+01  0.17130660567E+03  0.17130000000E+03 0.  1.
      622    1    1    2    0    0 -0.12703152101E+00  0.41571661080E+00  0.19816817420E+01  0.33772799461E+01  0.27000000000E+01 0.  1.
</event>
<event>
 5   0  0.6580500E-04  0.9118800E+02  0.7818608E-02  0.1180000E+00
       11   -1    0    0    0    0  0.00000000000E+00  0.00000000000E+00  0.39999999673E+01  0.40000000000E+01  0.51109989000E-03 0. -1.
     -623   -1    0    0    0    0  0.00000000000E+00  0.00000000000E+00  0.12525980253E-10  0.17130000000E+03  0.17130000000E+03 0. -1.
       11    1    1    2    0    0  0.36566611303E+00 -0.71027068420E-01  0.52125630887E+00  0.64067538693E+00  0.51109989000E-03 0. -1.
     -623    1    1    2    0    0 -0.25840256467E+00  0.30076828869E+00  0.15081760488E+01  0.17130709801E+03  0.17130000000E+03 0. -1.
      622    1    1    2    0    0 -0.10726354836E+00 -0.22974122027E+00  0.19705676097E+01  0.33522266035E+01  0.27000000000E+01 0. -1.
</event>
<event>
 5   0  0.6580500E-04  0.9118800E+02  0.7818608E-02  0.1180000E+00
       11   -1    0    0    0    0  0.00000000000E+00  0.00000000000E+00  0.39999999673E+01  0.40000000000E+01  0.51109989000E-03 0.  1.
     -623   -1    0    0    0    0  0.00000000000E+00  0.00000000000E+00  0.12525980253E-10  0.17130000000E+03  0.17130000000E+03 0.  1.
       11    1    1    2    0    0  0.11031311389E+00  0.97330185358E-01  0.27189644378E+00  0.30914411759E+00  0.51109989000E-03 0.  1.
     -623    1    1    2    0    0 -0.86176914644E-01 -0.33716314445E+00  0.12302811595E+01  0.17130477138E+03  0.17130000000E+03 0.  1.
      622    1    1    2    0    0 -0.24136199245E-01  0.23983295909E+00  0.24978223641E+01  0.36860845035E+01  0.27000000000E+01 0.  1.
</event>
<event>
 5   0  0.6580500E-04  0.9118800E+02  0.7818608E-02  0.1180000E+00
       11   -1    0    0    0    0  0.00000000000E+00  0.00000000000E+00  0.39999999673E+01  0.40000000000E+01  0.51109989000E-03 0.  1.
     -623   -1    0    0    0    0  0.00000000000E+00  0.00000000000E+00  0.12525980253E-10  0.17130000000E+03  0.17130000000E+03 0. -1.
       11    1    1    2    0    0 -0.23668597433E+00  0.10814138307E+00  0.76280341590E-01  0.27117109159E+00  0.51109989000E-03 0.  1.
     -623    1    1    2    0    0  0.86182046912E+00 -0.20446835037E+00  0.14434509980E+01  0.17130837134E+03  0.17130000000E+03 0. -1.
      622    1    1    2    0    0 -0.62513449479E+00  0.96326967296E-01  0.24802686277E+01  0.37204575642E+01  0.27000000000E+01 0.  1.
</event>
<event>
 5   0  0.6580500E-04  0.9118800E+02  0.7818608E-02  0.1180000E+00
       11   -1    0    0    0    0  0.00000000000E+00  0.00000000000E+00  0.39999999673E+01  0.40000000000E+01  0.51109989000E-03 0.  1.
     -623   -1    0    0    0    0  0.00000000000E+00  0.00000000000E+00  0.12525980253E-10  0.17130000000E+03  0.17130000000E+03 0.  1.
       11    1    1    2    0    0  0.37233565911E+00 -0.19870498517E+00 -0.52734381323E+00  0.67543265597E+00  0.51109989000E-03 0.  1.
     -623    1    1    2    0    0 -0.13997709048E+01  0.52934336114E+00  0.29837666117E+01  0.17133252005E+03  0.17130000000E+03 0. -1.
      622    1    1    2    0    0  0.10274352457E+01 -0.33063837596E+00  0.15435771689E+01  0.32920472955E+01  0.27000000000E+01 0.  1.
</event>
<event>
 5   0  0.6580500E-04  0.9118800E+02  0.7818608E-02  0.1180000E+00
       11   -1    0    0    0    0  0.00000000000E+00  0.00000000000E+00  0.39999999673E+01  0.40000000000E+01  0.51109989000E-03 0.  1.
     -623   -1    0    0    0    0  0.00000000000E+00  0.00000000000E+00  0.12525980253E-10  0.17130000000E+03  0.17130000000E+03 0.  1.
       11    1    1    2    0    0 -0.27475053081E-02  0.44461464304E-01 -0.56922174724E-02  0.44911392278E-01  0.51109989000E-03 0.  1.
     -623    1    1    2    0    0  0.82507715529E+00  0.59641998442E+00  0.13221220716E+01  0.17130812729E+03  0.17130000000E+03 0.  1.
      622    1    1    2    0    0 -0.82232964998E+00 -0.64088144872E+00  0.26835701132E+01  0.39469613169E+01  0.27000000000E+01 0.  1.
</event>
<event>
 5   0  0.6580500E-04  0.9118800E+02  0.7818608E-02  0.1180000E+00
       11   -1    0    0    0    0  0.00000000000E+00  0.00000000000E+00  0.39999999673E+01  0.40000000000E+01  0.51109989000E-03 0.  1.
     -623   -1    0    0    0    0  0.00000000000E+00  0.00000000000E+00  0.12525980253E-10  0.17130000000E+03  0.17130000000E+03 0.  1.
       11    1    1    2    0    0  0.81890560782E-01 -0.64670987334E+00 -0.37576206378E+00  0.75242083572E+00  0.51109989000E-03 0.  1.
     -623    1    1    2    0    0  0.51579836295E+00  0.19347851698E+01  0.34026235275E+01  0.17134549101E+03  0.17130000000E+03 0.  1.
      622    1    1    2    0    0 -0.59768892373E+00 -0.12880752965E+01  0.97313850359E+00  0.32020881571E+01  0.27000000000E+01 0.  1.
</event>
<event>
 5   0  0.6580500E-04  0.9118800E+02  0.7818608E-02  0.1180000E+00
       11   -1    0    0    0    0  0.00000000000E+00  0.00000000000E+00  0.39999999673E+01  0.40000000000E+01  0.51109989000E-03 0.  1.
     -623   -1    0    0    0    0  0.00000000000E+00  0.00000000000E+00  0.12525980253E-10  0.17130000000E+03  0.17130000000E+03 0.  1.
       11    1    1    2    0    0 -0.43737414215E+00 -0.50671219768E+00  0.26699796954E+00  0.72065357035E+00  0.51109989000E-03 0.  1.
     -623    1    1    2    0    0  0.10787638855E+01  0.77584087356E+00  0.20397338884E+01  0.17131729678E+03  0.17130000000E+03 0.  1.
      622    1    1    2    0    0 -0.64138974330E+00 -0.26912867588E+00  0.16932681095E+01  0.32620496528E+01  0.27000000000E+01 0.  1.
</event>
<event>
 5   0  0.6580500E-04  0.9118800E+02  0.7818608E-02  0.1180000E+00
       11   -1    0    0    0    0  0.00000000000E+00  0.00000000000E+00  0.39999999673E+01  0.40000000000E+01  0.51109989000E-03 0.  1.
     -623   -1    0    0    0    0  0.00000000000E+00  0.00000000000E+00  0.12525980253E-10  0.17130000000E+03  0.17130000000E+03 0.  1.
       11    1    1    2    0    0 -0.26001326338E+00  0.19660140585E+00 -0.14469460687E+00  0.35664520240E+00  0.51109989000E-03 0.  1.
     -623    1    1    2    0    0  0.35317055214E+00 -0.50220683107E+00  0.17342853800E+01  0.17130987913E+03  0.17130000000E+03 0.  1.
      622    1    1    2    0    0 -0.93157288758E-01  0.30560542521E+00  0.24104091942E+01  0.36334756694E+01  0.27000000000E+01 0.  1.
</event>
<event>
 5   0  0.6580500E-04  0.9118800E+02  0.7818608E-02  0.1180000E+00
       11   -1    0    0    0    0  0.00000000000E+00  0.00000000000E+00  0.39999999673E+01  0.40000000000E+01  0.51109989000E-03 0. -1.
     -623   -1    0    0    0    0  0.00000000000E+00  0.00000000000E+00  0.12525980253E-10  0.17130000000E+03  0.17130000000E+03 0. -1.
       11    1    1    2    0    0  0.16694448677E-01  0.46985533741E-01 -0.29244775369E-01  0.57808849729E-01  0.51109989000E-03 0. -1.
     -623    1    1    2    0    0 -0.15989430262E+00 -0.36279638606E+00  0.11841147883E+01  0.17130455136E+03  0.17130000000E+03 0. -1.
      622    1    1    2    0    0  0.14319985394E+00  0.31581085232E+00  0.28451299545E+01  0.39376397944E+01  0.27000000000E+01 0. -1.
</event>
<event>
 5   0  0.6580500E-04  0.9118800E+02  0.7818608E-02  0.1180000E+00
       11   -1    0    0    0    0  0.00000000000E+00  0.00000000000E+00  0.39999999673E+01  0.40000000000E+01  0.51109989000E-03 0. -1.
     -623   -1    0    0    0    0  0.00000000000E+00  0.00000000000E+00  0.12525980253E-10  0.17130000000E+03  0.17130000000E+03 0. -1.
       11    1    1    2    0    0  0.25925252089E-01 -0.51502183302E-01 -0.35424614249E-01  0.67673910023E-01  0.51109989000E-03 0. -1.
     -623    1    1    2    0    0 -0.45388313547E+00  0.32265670221E+00  0.12292279654E+01  0.17130531550E+03  0.17130000000E+03 0. -1.
      622    1    1    2    0    0  0.42795788338E+00 -0.27115451890E+00  0.28061966162E+01  0.39270105897E+01  0.27000000000E+01 0. -1.
</event>
<event>
 5   0  0.6580500E-04  0.9118800E+02  0.7818608E-02  0.1180000E+00
       11   -1    0    0    0    0  0.00000000000E+00  0.00000000000E+00  0.39999999673E+01  0.40000000000E+01  0.51109989000E-03 0.  1.
     -623   -1    0    0    0    0  0.00000000000E+00  0.00000000000E+00  0.12525980253E-10  0.17130000000E+03  0.17130000000E+03 0.  1.
       11    1    1    2    0    0 -0.14923403930E+00  0.22713544733E+00  0.75532539716E-01  0.28207576234E+00  0.51109989000E-03 0.  1.
     -623    1    1    2    0    0  0.80165109127E+00  0.16988643538E+00  0.14982637246E+01  0.17130851205E+03  0.17130000000E+03 0.  1.
      622    1    1    2    0    0 -0.65241705197E+00 -0.39702188271E+00  0.24262037030E+01  0.37094121898E+01  0.27000000000E+01 0.  1.
</event>
<event>
 5   0  0.6580500E-04  0.9118800E+02  0.7818608E-02  0.1180000E+00
       11   -1    0    0    0    0  0.00000000000E+00  0.00000000000E+00  0.39999999673E+01  0.40000000000E+01  0.51109989000E-03 0.  1.
     -623   -1    0    0    0    0  0.00000000000E+00  0.00000000000E+00  0.12525980253E-10  0.17130000000E+03  0.17130000000E+03 0.  1.
       11    1    1    2    0    0 -0.95210193393E-01 -0.14991797637E+00  0.85554769441E-01  0.19713005951E+00  0.51109989000E-03 0.  1.
     -623    1    1    2    0    0  0.10502236727E+01  0.35210323219E+00  0.14353304358E+01  0.17130959436E+03  0.17130000000E+03 0.  1.
      622    1    1    2    0    0 -0.95501347926E+00 -0.20218525582E+00  0.24791147621E+01  0.37932755801E+01  0.27000000000E+01 0.  1.
</event>
<event>
 5   0  0.6580500E-04  0.9118800E+02  0.7818608E-02  0.1180000E+00
       11   -1    0    0    0    0  0.00000000000E+00  0.00000000000E+00  0.39999999673E+01  0.40000000000E+01  0.51109989000E-03 0.  1.
     -623   -1    0    0    0    0  0.00000000000E+00  0.00000000000E+00  0.12525980253E-10  0.17130000000E+03  0.17130000000E+03 0. -1.
       11    1    1    2    0    0  0.11151676867E+00 -0.12206255962E+00 -0.53914688840E-01  0.17390317148E+00  0.51109989000E-03 0.  1.
     -623    1    1    2    0    0  0.37784085899E+00  0.11138122324E+00  0.13963871344E+01  0.17130614428E+03  0.17130000000E+03 0. -1.
      622    1    1    2    0    0 -0.48935762766E+00  0.10681336378E-01  0.26575275218E+01  0.38199525531E+01  0.27000000000E+01 0.  1.
</event>
<event>
 5   0  0.6580500E-04  0.9118800E+02  0.7818608E-02  0.1180000E+00
       11   -1    0    0    0    0  0.00000000000E+00  0.00000000000E+00  0.39999999673E+01  0.40000000000E+01  0.51109989000E-03 0.  1.
     -623   -1    0    0    0    0  0.00000000000E+00  0.00000000000E+00  0.12525980253E-10  0.17130000000E+03  0.17130000000E+03 0.  1.
       11    1    1    2    0    0  0.13202708802E+00 -0.32590458631E+00 -0.11711982452E+00  0.37062415716E+00  0.51109989000E-03 0.  1.
     -623    1    1    2    0    0 -0.12938653445E+01  0.66081332961E+00  0.20465594422E+01  0.17131838537E+03  0.17130000000E+03 0.  1.
      622    1    1    2    0    0  0.11618382565E+01 -0.33490874329E+00  0.20705603497E+01  0.36109904683E+01  0.27000000000E+01 0.  1.
</event>
<event>
 5   0  0.6580500E-04  0.9118800E+02  0.7818608E-02  0.1180000E+00
       11   -1    0    0    0    0  0.00000000000E+00  0.00000000000E+00  0.39999999673E+01  0.40000000000E+01  0.51109989000E-03 0. -1.
     -623   -1    0    0    0    0  0.00000000000E+00  0.00000000000E+00  0.12525980253E-10  0.17130000000E+03  0.17130000000E+03 0. -1.
       11    1    1    2    0    0  0.41715595309E+00  0.13508864448E+00 -0.64274051740E-01  0.44316977110E+00  0.51109989000E-03 0. -1.
     -623    1    1    2    0    0 -0.37201055767E-01 -0.23190391287E+00  0.17972984867E+01  0.17130958947E+03  0.17130000000E+03 0. -1.
      622    1    1    2    0    0 -0.37995489732E+00  0.96815268386E-01  0.22669755324E+01  0.35472407565E+01  0.27000000000E+01 0.  0.
</event>
<event>
 5   0  0.6580500E-04  0.9118800E+02  0.7818608E-02  0.1180000E+00
       11   -1    0    0    0    0  0.00000000000E+00  0.00000000000E+00  0.39999999673E+01  0.40000000000E+01  0.51109989000E-03 0.  1.
     -623   -1    0    0    0    0  0.00000000000E+00  0.00000000000E+00  0.12525980253E-10  0.17130000000E+03  0.17130000000E+03 0.  1.
       11    1    1    2    0    0 -0.38228784246E-01  0.78707885816E-01  0.46236911189E-01  0.98967087530E-01  0.51109989000E-03 0.  1.
     -623    1    1    2    0    0  0.24841502529E+00 -0.98280883359E-01  0.11516776211E+01  0.17130407973E+03  0.17130000000E+03 0.  1.
      622    1    1    2    0    0 -0.21018624104E+00  0.19572997542E-01  0.28020854351E+01  0.38969531873E+01  0.27000000000E+01 0.  1.
</event>
<event>
 5   0  0.6580500E-04  0.9118800E+02  0.7818608E-02  0.1180000E+00
       11   -1    0    0    0    0  0.00000000000E+00  0.00000000000E+00  0.39999999673E+01  0.40000000000E+01  0.51109989000E-03 0.  1.
     -623   -1    0    0    0    0  0.00000000000E+00  0.00000000000E+00  0.12525980253E-10  0.17130000000E+03  0.17130000000E+03 0.  1.
       11    1    1    2    0    0 -0.10079110241E+00  0.65815248111E-01  0.92058415072E-01  0.15154374358E+00  0.51109989000E-03 0.  1.
     -623    1    1    2    0    0  0.11823678417E+00 -0.19794624801E+00  0.11746879530E+01  0.17130418283E+03  0.17130000000E+03 0.  1.
      622    1    1    2    0    0 -0.17445681762E-01  0.13213099990E+00  0.27332535993E+01  0.38442734282E+01  0.27000000000E+01 0.  1.
</event>
<event>
 5   0  0.6580500E-04  0.9118800E+02  0.7818608E-02  0.1180000E+00
       11   -1    0    0    0    0  0.00000000000E+00  0.00000000000E+00  0.39999999673E+01  0.40000000000E+01  0.51109989000E-03 0.  1.
     -623   -1    0    0    0    0  0.00000000000E+00  0.00000000000E+00  0.12525980253E-10  0.17130000000E+03  0.17130000000E+03 0.  1.
       11    1    1    2    0    0 -0.13144667917E-01 -0.15705600925E+00  0.24700728340E+00  0.29300551464E+00  0.51109989000E-03 0.  1.
     -623    1    1    2    0    0 -0.20311754383E+00 -0.73640115697E+00  0.13967278864E+01  0.17130739737E+03  0.17130000000E+03 0.  1.
      622    1    1    2    0    0  0.21626221175E+00  0.89345716623E+00  0.23562647975E+01  0.36995971197E+01  0.27000000000E+01 0.  1.
</event>
<event>
 5   0  0.6580500E-04  0.9118800E+02  0.7818608E-02  0.1180000E+00
       11   -1    0    0    0    0  0.00000000000E+00  0.00000000000E+00  0.39999999673E+01  0.40000000000E+01  0.51109989000E-03 0. -1.
     -623   -1    0    0    0    0  0.00000000000E+00  0.00000000000E+00  0.12525980253E-10  0.17130000000E+03  0.17130000000E+03 0. -1.
       11    1    1    2    0    0 -0.13742294932E+00 -0.10235824969E+00 -0.12048963163E+00  0.20947622976E+00  0.51109989000E-03 0. -1.
     -623    1    1    2    0    0  0.92865964354E-01 -0.78499723176E-01  0.14757018635E+01  0.17130639942E+03  0.17130000000E+03 0. -1.
      622    1    1    2    0    0  0.44556984968E-01  0.18085797287E+00  0.26447877355E+01  0.37841243501E+01  0.27000000000E+01 0. -1.
</event>
<event>
 5   0  0.6580500E-04  0.9118800E+02  0.7818608E-02  0.1180000E+00
       11   -1    0    0    0    0  0.00000000000E+00  0.00000000000E+00  0.39999999673E+01  0.40000000000E+01  0.51109989000E-03 0.  1.
     -623   -1    0    0    0    0  0.00000000000E+00  0.00000000000E+00  0.12525980253E-10  0.17130000000E+03  0.17130000000E+03 0.  1.
       11    1    1    2    0    0 -0.29429891520E+00 -0.24762550198E-01 -0.12370716791E+00  0.32020112429E+00  0.51109989000E-03 0.  1.
     -623    1    1    2    0    0  0.41546464861E-02  0.79505114195E+00  0.17802357944E+01  0.17131109527E+03  0.17130000000E+03 0.  1.
      622    1    1    2    0    0  0.29014426872E+00 -0.77028859175E+00  0.23434713409E+01  0.36687036044E+01  0.27000000000E+01 0.  1.
</event>
<event>
 5   0  0.6580500E-04  0.9118800E+02  0.7818608E-02  0.1180000E+00
       11   -1    0    0    0    0  0.00000000000E+00  0.00000000000E+00  0.39999999673E+01  0.40000000000E+01  0.51109989000E-03 0. -1.
     -623   -1    0    0    0    0  0.00000000000E+00  0.00000000000E+00  0.12525980253E-10  0.17130000000E+03  0.17130000000E+03 0. -1.
       11    1    1    2    0    0 -0.28010016290E-01  0.25964978936E+00 -0.92692860781E-01  0.27711875034E+00  0.51109989000E-03 0. -1.
     -623    1    1    2    0    0 -0.27132169946E+00 -0.54869956905E-01  0.15661550706E+01  0.17130738299E+03  0.17130000000E+03 0. -1.
      622    1    1    2    0    0  0.29933171575E+00 -0.20477983245E+00  0.25265377575E+01  0.37154982567E+01  0.27000000000E+01 0. -1.
</event>
<event>
 5   0  0.6580500E-04  0.9118800E+02  0.7818608E-02  0.1180000E+00
       11   -1    0    0    0    0  0.00000000000E+00  0.00000000000E+00  0.39999999673E+01  0.40000000000E+01  0.51109989000E-03 0. -1.
     -623   -1    0    0    0    0  0.00000000000E+00  0.00000000000E+00  0.12525980253E-10  0.17130000000E+03  0.17130000000E+03 0. -1.
       11    1    1    2    0    0  0.31035537623E+00  0.34467645440E+00  0.61699052177E+00  0.77188074399E+00  0.51109989000E-03 0. -1.
     -623    1    1    2    0    0 -0.11817361343E+01 -0.34219581538E-01  0.19063713472E+01  0.17131468683E+03  0.17130000000E+03 0. -1.
      622    1    1    2    0    0  0.87138075809E+00 -0.31045687286E+00  0.14766380984E+01  0.32134324280E+01  0.27000000000E+01 0. -1.
</event>
<event>
 5   0  0.6580500E-04  0.9118800E+02  0.7818608E-02  0.1180000E+00
       11   -1    0    0    0    0  0.00000000000E+00  0.00000000000E+00  0.39999999673E+01  0.40000000000E+01  0.51109989000E-03 0.  1.
     -623   -1    0    0    0    0  0.00000000000E+00  0.00000000000E+00  0.12525980253E-10  0.17130000000E+03  0.17130000000E+03 0. -1.
       11    1    1    2    0    0 -0.17896565528E+00 -0.17072395449E-01 -0.21770422774E+00  0.28233944898E+00  0.51109989000E-03 0.  1.
     -623    1    1    2    0    0 -0.10803287585E+01  0.79364448466E-01  0.20205543084E+01  0.17131534096E+03  0.17130000000E+03 0. -1.
      622    1    1    2    0    0  0.12592944138E+01 -0.62292053017E-01  0.21971498867E+01  0.37023195898E+01  0.27000000000E+01 0.  1.
</event>
<event>
 5   0  0.6580500E-04  0.9118800E+02  0.7818608E-02  0.1180000E+00
       11   -1    0    0    0    0  0.00000000000E+00  0.00000000000E+00  0.39999999673E+01  0.40000000000E+01  0.51109989000E-03 0. -1.
     -623   -1    0    0    0    0  0.00000000000E+00  0.00000000000E+00  0.12525980253E-10  0.17130000000E+03  0.17130000000E+03 0. -1.
       11    1    1    2    0    0  0.13560958844E+00 -0.22942508847E+00  0.16508277408E+00  0.31349388386E+00  0.51109989000E-03 0. -1.
     -623    1    1    2    0    0 -0.15004756797E+00  0.44934414061E+00  0.13433058753E+01  0.17130592195E+03  0.17130000000E+03 0. -1.
      622    1    1    2    0    0  0.14437979529E-01 -0.21991905214E+00  0.24916113180E+01  0.36805841662E+01  0.27000000000E+01 0. -1.
</event>
<event>
 5   0  0.6580500E-04  0.9118800E+02  0.7818608E-02  0.1180000E+00
       11   -1    0    0    0    0  0.00000000000E+00  0.00000000000E+00  0.39999999673E+01  0.40000000000E+01  0.51109989000E-03 0.  1.
     -623   -1    0    0    0    0  0.00000000000E+00  0.00000000000E+00  0.12525980253E-10  0.17130000000E+03  0.17130000000E+03 0. -1.
       11    1    1    2    0    0  0.18408464902E+00 -0.23421885133E+00  0.25489000450E+00  0.39206479559E+00  0.51109989000E-03 0.  1.
     -623    1    1    2    0    0 -0.62948432632E+00  0.30330173878E+00  0.14058396136E+01  0.17130719374E+03  0.17130000000E+03 0. -1.
      622    1    1    2    0    0  0.44539967730E+00 -0.69082887451E-01  0.23392703493E+01  0.36007414632E+01  0.27000000000E+01 0.  0.
</event>
<event>
 5   0  0.6580500E-04  0.9118800E+02  0.7818608E-02  0.1180000E+00
       11   -1    0    0    0    0  0.00000000000E+00  0.00000000000E+00  0.39999999673E+01  0.40000000000E+01  0.51109989000E-03 0.  1.
     -623   -1    0    0    0    0  0.00000000000E+00  0.00000000000E+00  0.12525980253E-10  0.17130000000E+03  0.17130000000E+03 0.  1.
       11    1    1    2    0    0 -0.61248630265E+00 -0.70317543499E+00  0.74681237806E+00  0.11947067224E+01  0.51109989000E-03 0.  1.
     -623    1    1    2    0    0  0.61164119761E+00  0.26026813444E+00  0.27502436053E+01  0.17132336584E+03  0.17130000000E+03 0.  1.
      622    1    1    2    0    0  0.84510504119E-03  0.44290730055E+00  0.50294398399E+00  0.27819274329E+01  0.27000000000E+01 0.  1.
</event>
<event>
 5   0  0.6580500E-04  0.9118800E+02  0.7818608E-02  0.1180000E+00
       11   -1    0    0    0    0  0.00000000000E+00  0.00000000000E+00  0.39999999673E+01  0.40000000000E+01  0.51109989000E-03 0. -1.
     -623   -1    0    0    0    0  0.00000000000E+00  0.00000000000E+00  0.12525980253E-10  0.17130000000E+03  0.17130000000E+03 0. -1.
       11    1    1    2    0    0 -0.16029646593E+00  0.20338330459E-01 -0.19615770857E-01  0.16276868361E+00  0.51109989000E-03 0. -1.
     -623    1    1    2    0    0  0.14610550549E+00 -0.78524473811E+00  0.14138427038E+01  0.17130769658E+03  0.17130000000E+03 0. -1.
      622    1    1    2    0    0  0.14190960441E-01  0.76490640765E+00  0.26057730344E+01  0.38295347371E+01  0.27000000000E+01 0. -1.
</event>
<event>
 5   0  0.6580500E-04  0.9118800E+02  0.7818608E-02  0.1180000E+00
       11   -1    0    0    0    0  0.00000000000E+00  0.00000000000E+00  0.39999999673E+01  0.40000000000E+01  0.51109989000E-03 0. -1.
     -623   -1    0    0    0    0  0.00000000000E+00  0.00000000000E+00  0.12525980253E-10  0.17130000000E+03  0.17130000000E+03 0. -1.
       11    1    1    2    0    0  0.19804117497E+00 -0.20963449763E+00 -0.10021453425E+00  0.30530336335E+00  0.51109989000E-03 0. -1.
     -623    1    1    2    0    0  0.11116432613E+00  0.33519944780E+00  0.16120968141E+01  0.17130794953E+03  0.17130000000E+03 0. -1.
      622    1    1    2    0    0 -0.30920550110E+00 -0.12556495018E+00  0.24881176875E+01  0.36867471062E+01  0.27000000000E+01 0. -1.
</event>
<event>
 5   0  0.6580500E-04  0.9118800E+02  0.7818608E-02  0.1180000E+00
       11   -1    0    0    0    0  0.00000000000E+00  0.00000000000E+00  0.39999999673E+01  0.40000000000E+01  0.51109989000E-03 0. -1.
     -623   -1    0    0    0    0  0.00000000000E+00  0.00000000000E+00  0.12525980253E-10  0.17130000000E+03  0.17130000000E+03 0.  1.
       11    1    1    2    0    0 -0.46281225518E-01 -0.32741300924E+00  0.10346202538E+00  0.34647638069E+00  0.51109989000E-03 0. -1.
     -623    1    1    2    0    0  0.77295154708E+00  0.25763031938E+00  0.15600158956E+01  0.17130904085E+03  0.17130000000E+03 0.  1.
      622    1    1    2    0    0 -0.72667032156E+00  0.69782689867E-01  0.23365220464E+01  0.36444827690E+01  0.27000000000E+01 0. -1.
</event>
<event>
 5   0  0.6580500E-04  0.9118800E+02  0.7818608E-02  0.1180000E+00
       11   -1    0    0    0    0  0.00000000000E+00  0.00000000000E+00  0.39999999673E+01  0.40000000000E+01  0.51109989000E-03 0. -1.
     -623   -1    0    0    0    0  0.00000000000E+00  0.00000000000E+00  0.12525980253E-10  0.17130000000E+03  0.17130000000E+03 0. -1.
       11    1    1    2    0    0 -0.66736561032E+00  0.17723876678E+00  0.44533675181E+00  0.82165413771E+00  0.51109989000E-03 0. -1.
     -623    1    1    2    0    0  0.11325778814E+01 -0.31137702003E+00  0.19800626939E+01  0.17131547022E+03  0.17130000000E+03 0. -1.
      622    1    1    2    0    0 -0.46521227106E+00  0.13413825325E+00  0.15746005216E+01  0.31628756426E+01  0.27000000000E+01 0. -1.
</event>
<event>
 5   0  0.6580500E-04  0.9118800E+02  0.7818608E-02  0.1180000E+00
       11   -1    0    0    0    0  0.00000000000E+00  0.00000000000E+00  0.39999999673E+01  0.40000000000E+01  0.51109989000E-03 0.  1.
     -623   -1    0    0    0    0  0.00000000000E+00  0.00000000000E+00  0.12525980253E-10  0.17130000000E+03  0.17130000000E+03 0.  1.
       11    1    1    2    0    0  0.12037212556E+00 -0.51329090800E-01  0.32922034654E-01  0.13493793299E+00  0.51109989000E-03 0.  1.
     -623    1    1    2    0    0  0.93418830897E-01 -0.21072599667E+00  0.12286316680E+01  0.17130456114E+03  0.17130000000E+03 0.  1.
      622    1    1    2    0    0 -0.21379095646E+00  0.26205508747E+00  0.27384462647E+01  0.38605009243E+01  0.27000000000E+01 0.  0.
</event>
<event>
 5   0  0.6580500E-04  0.9118800E+02  0.7818608E-02  0.1180000E+00
       11   -1    0    0    0    0  0.00000000000E+00  0.00000000000E+00  0.39999999673E+01  0.40000000000E+01  0.51109989000E-03 0. -1.
     -623   -1    0    0    0    0  0.00000000000E+00  0.00000000000E+00  0.12525980253E-10  0.17130000000E+03  0.17130000000E+03 0.  1.
       11    1    1    2    0    0 -0.24640236821E+00 -0.13334689211E+00  0.38725671309E+00  0.47797860177E+00  0.51109989000E-03 0. -1.
     -623    1    1    2    0    0  0.13151595271E+01  0.40442935540E+00  0.16625276131E+01  0.17131359317E+03  0.17130000000E+03 0.  1.
      622    1    1    2    0    0 -0.10687571589E+01 -0.27108246329E+00  0.19502156411E+01  0.35084282255E+01  0.27000000000E+01 0. -1.
</event>
<event>
 5   0  0.6580500E-04  0.9118800E+02  0.7818608E-02  0.1180000E+00
       11   -1    0    0    0    0  0.00000000000E+00  0.00000000000E+00  0.39999999673E+01  0.40000000000E+01  0.51109989000E-03 0. -1.
     -623   -1    0    0    0    0  0.00000000000E+00  0.00000000000E+00  0.12525980253E-10  0.17130000000E+03  0.17130000000E+03 0. -1.
       11    1    1    2    0    0 -0.17182140554E-01 -0.12148936316E+00  0.14736314095E+00  0.19175778432E+00  0.51109989000E-03 0. -1.
     -623    1    1    2    0    0 -0.19836879306E+00  0.80386151432E-01  0.11819630069E+01  0.17130421142E+03  0.17130000000E+03 0. -1.
      622    1    1    2    0    0  0.21555093362E+00  0.41103211725E-01  0.26706738195E+01  0.38040308003E+01  0.27000000000E+01 0. -1.
</event>
<event>
 5   0  0.6580500E-04  0.9118800E+02  0.7818608E-02  0.1180000E+00
       11   -1    0    0    0    0  0.00000000000E+00  0.00000000000E+00  0.39999999673E+01  0.40000000000E+01  0.51109989000E-03 0. -1.
     -623   -1    0    0    0    0  0.00000000000E+00  0.00000000000E+00  0.12525980253E-10  0.17130000000E+03  0.17130000000E+03 0. -1.
       11    1    1    2    0    0 -0.60176934211E+00 -0.15545032453E+00  0.21580963626E+00  0.65792492340E+00  0.51109989000E-03 0. -1.
     -623    1    1    2    0    0 -0.22199303033E+00  0.11544942798E+01  0.23458314825E+01  0.17132009533E+03  0.17130000000E+03 0. -1.
      622    1    1    2    0    0  0.82376237244E+00 -0.99904395530E+00  0.14383588486E+01  0.33219797483E+01  0.27000000000E+01 0. -1.
</event>
<event>
 5   0  0.6580500E-04  0.9118800E+02  0.7818608E-02  0.1180000E+00
       11   -1    0    0    0    0  0.00000000000E+00  0.00000000000E+00  0.39999999673E+01  0.40000000000E+01  0.51109989000E-03 0. -1.
     -623   -1    0    0    0    0  0.00000000000E+00  0.00000000000E+00  0.12525980253E-10  0.17130000000E+03  0.17130000000E+03 0. -1.
       11    1    1    2    0    0  0.13683866781E+00 -0.17436081607E+00  0.12469927570E+00  0.25431611387E+00  0.51109989000E-03 0. -1.
     -623    1    1    2    0    0  0.65673408371E-01  0.11976302604E+00  0.12947745133E+01  0.17130494767E+03  0.17130000000E+03 0. -1.
      622    1    1    2    0    0 -0.20251207618E+00  0.54597790028E-01  0.25805261784E+01  0.37407362132E+01  0.27000000000E+01 0. -1.
</event>
<event>
 5   0  0.6580500E-04  0.9118800E+02  0.7818608E-02  0.1180000E+00
       11   -1    0    0    0    0  0.00000000000E+00  0.00000000000E+00  0.39999999673E+01  0.40000000000E+01  0.51109989000E-03 0.  1.
     -623   -1    0    0    0    0  0.00000000000E+00  0.00000000000E+00  0.12525980253E-10  0.17130000000E+03  0.17130000000E+03 0.  1.
       11    1    1    2    0    0 -0.29336945437E+00  0.14430807542E+00  0.17117068519E+00  0.36903945871E+00  0.51109989000E-03 0.  1.
     -623    1    1    2    0    0 -0.32947699466E+00  0.40313362839E+00  0.15596887097E+01  0.17130789153E+03  0.17130000000E+03 0.  1.
      622    1    1    2    0    0  0.62284644903E+00 -0.54744170381E+00  0.22691405725E+01  0.36230690106E+01  0.27000000000E+01 0.  1.
</event>
<event>
 5   0  0.6580500E-04  0.9118800E+02  0.7818608E-02  0.1180000E+00
       11   -1    0    0    0    0  0.00000000000E+00  0.00000000000E+00  0.39999999673E+01  0.40000000000E+01  0.51109989000E-03 0. -1.
     -623   -1    0    0    0    0  0.00000000000E+00  0.00000000000E+00  0.12525980253E-10  0.17130000000E+03  0.17130000000E+03 0.  1.
       11    1    1    2    0    0  0.81349367055E-01  0.35028154566E+00  0.18611798646E+00  0.40491362888E+00  0.51109989000E-03 0. -1.
     -623    1    1    2    0    0 -0.10329922418E+01 -0.12786363346E+00  0.16694822991E+01  0.17131129733E+03  0.17130000000E+03 0.  1.
      622    1    1    2    0    0  0.95164287475E+00 -0.22241791220E+00  0.21443996818E+01  0.35837890401E+01  0.27000000000E+01 0. -1.
</event>
<event>
 5   0  0.6580500E-04  0.9118800E+02  0.7818608E-02  0.1180000E+00
       11   -1    0    0    0    0  0.00000000000E+00  0.00000000000E+00  0.39999999673E+01  0.40000000000E+01  0.51109989000E-03 0. -1.
     -623   -1    0    0    0    0  0.00000000000E+00  0.00000000000E+00  0.12525980253E-10  0.17130000000E+03  0.17130000000E+03 0. -1.
       11    1    1    2    0    0  0.49614776217E+00 -0.69198219745E-01  0.25952769421E+00  0.56418603386E+00  0.51109989000E-03 0. -1.
     -623    1    1    2    0    0 -0.72561004915E+00  0.23504298697E+00  0.16503873257E+01  0.17130964810E+03  0.17130000000E+03 0. -1.
      622    1    1    2    0    0  0.22946228698E+00 -0.16584476723E+00  0.20900849475E+01  0.34261658623E+01  0.27000000000E+01 0. -1.
</event>
<event>
 5   0  0.6580500E-04  0.9118800E+02  0.7818608E-02  0.1180000E+00
       11   -1    0    0    0    0  0.00000000000E+00  0.00000000000E+00  0.39999999673E+01  0.40000000000E+01  0.51109989000E-03 0.  1.
     -623   -1    0    0    0    0  0.00000000000E+00  0.00000000000E+00  0.12525980253E-10  0.17130000000E+03  0.17130000000E+03 0.  1.
       11    1    1    2    0    0 -0.18612057534E+00  0.21580502738E+00  0.33847233993E+00  0.44246634282E+00  0.51109989000E-03 0.  1.
     -623    1    1    2    0    0  0.68255805779E+00  0.84519382108E+00  0.16840010112E+01  0.17131172201E+03  0.17130000000E+03 0.  1.
      622    1    1    2    0    0 -0.49643748245E+00 -0.10609988485E+01  0.19775266162E+01  0.35458116487E+01  0.27000000000E+01 0. -1.
</event>
<event>
 5   0  0.6580500E-04  0.9118800E+02  0.7818608E-02  0.1180000E+00
       11   -1    0    0    0    0  0.00000000000E+00  0.00000000000E+00  0.39999999673E+01  0.40000000000E+01  0.51109989000E-03 0.  1.
     -623   -1    0    0    0    0  0.00000000000E+00  0.00000000000E+00  0.12525980253E-10  0.17130000000E+03  0.17130000000E+03 0.  1.
       11    1    1    2    0    0 -0.35467120627E+00  0.11213152502E+00  0.69890143824E+00  0.79172509437E+00  0.51109989000E-03 0.  1.
     -623    1    1    2    0    0  0.31699064793E+00 -0.39092927292E+00  0.16067389261E+01  0.17130827452E+03  0.17130000000E+03 0.  1.
      622    1    1    2    0    0  0.37680558342E-01  0.27879774790E+00  0.16943596031E+01  0.32000003864E+01  0.27000000000E+01 0.  1.
</event>
<event>
 5   0  0.6580500E-04  0.9118800E+02  0.7818608E-02  0.1180000E+00
       11   -1    0    0    0    0  0.00000000000E+00  0.00000000000E+00  0.39999999673E+01  0.40000000000E+01  0.51109989000E-03 0.  1.
     -623   -1    0    0    0    0  0.00000000000E+00  0.00000000000E+00  0.12525980253E-10  0.17130000000E+03  0.17130000000E+03 0. -1.
       11    1    1    2    0    0 -0.26978452697E+00  0.14369782108E-01  0.59952287282E-01  0.27673944353E+00  0.51109989000E-03 0.  1.
     -623    1    1    2    0    0 -0.42624205181E+00 -0.31980205618E+00  0.15028939407E+01  0.17130742146E+03  0.17130000000E+03 0. -1.
      622    1    1    2    0    0  0.69602657878E+00  0.30543227407E+00  0.24371537394E+01  0.37158391007E+01  0.27000000000E+01 0.  1.
</event>
<event>
 5   0  0.6580500E-04  0.9118800E+02  0.7818608E-02  0.1180000E+00
       11   -1    0    0    0    0  0.00000000000E+00  0.00000000000E+00  0.39999999673E+01  0.40000000000E+01  0.51109989000E-03 0. -1.
     -623   -1    0    0    0    0  0.00000000000E+00  0.00000000000E+00  0.12525980253E-10  0.17130000000E+03  0.17130000000E+03 0.  1.
       11    1    1    2    0    0  0.26200542800E-01 -0.16851170878E+00 -0.38356303641E-01  0.17479740183E+00  0.51109989000E-03 0. -1.
     -623    1    1    2    0    0 -0.78801950381E-01  0.21430037657E+00  0.13371995524E+01  0.17130537130E+03  0.17130000000E+03 0.  1.
      622    1    1    2    0    0  0.52601407581E-01 -0.45788667790E-01  0.27011567186E+01  0.38198312958E+01  0.27000000000E+01 0. -1.
</event>
<event>
 5   0  0.6580500E-04  0.9118800E+02  0.7818608E-02  0.1180000E+00
       11   -1    0    0    0    0  0.00000000000E+00  0.00000000000E+00  0.39999999673E+01  0.40000000000E+01  0.51109989000E-03 0. -1.
     -623   -1    0    0    0    0  0.00000000000E+00  0.00000000000E+00  0.12525980253E-10  0.17130000000E+03  0.17130000000E+03 0. -1.
       11    1    1    2    0    0 -0.23523518443E+00 -0.35927876001E+00  0.65537047282E-01  0.43441015777E+00  0.51109989000E-03 0. -1.
     -623    1    1    2    0    0  0.48404200398E+00 -0.29061258777E+00  0.17275402728E+01  0.17130964114E+03  0.17130000000E+03 0. -1.
      622    1    1    2    0    0 -0.24880681955E+00  0.64989134778E+00  0.22069226473E+01  0.35559487016E+01  0.27000000000E+01 0. -1.
</event>
<event>
 5   0  0.6580500E-04  0.9118800E+02  0.7818608E-02  0.1180000E+00
       11   -1    0    0    0    0  0.00000000000E+00  0.00000000000E+00  0.39999999673E+01  0.40000000000E+01  0.51109989000E-03 0. -1.
     -623   -1    0    0    0    0  0.00000000000E+00  0.00000000000E+00  0.12525980253E-10  0.17130000000E+03  0.17130000000E+03 0.  1.
       11    1    1    2    0    0  0.81700900436E-01  0.33346541716E+00  0.29073649335E+00  0.44989131061E+00  0.51109989000E-03 0. -1.
     -623    1    1    2    0    0 -0.20296660303E+00 -0.29206212681E+00  0.14174008836E+01  0.17130623316E+03  0.17130000000E+03 0.  1.
      622    1    1    2    0    0  0.12126570259E+00 -0.41403290345E-01  0.22918625904E+01  0.35438755249E+01  0.27000000000E+01 0. -1.
</event>
<event>
 5   0  0.6580500E-04  0.9118800E+02  0.7818608E-02  0.1180000E+00
       11   -1    0    0    0    0  0.00000000000E+00  0.00000000000E+00  0.39999999673E+01  0.40000000000E+01  0.51109989000E-03 0. -1.
     -623   -1    0    0    0    0  0.00000000000E+00  0.00000000000E+00  0.12525980253E-10  0.17130000000E+03  0.17130000000E+03 0.  1.
       11    1    1    2    0    0  0.91944254137E-01 -0.13999839195E+00  0.43413559834E-01  0.17302685923E+00  0.51109989000E-03 0. -1.
     -623    1    1    2    0    0 -0.33274880357E+00  0.44704987556E+00  0.12807869938E+01  0.17130569457E+03  0.17130000000E+03 0.  1.
      622    1    1    2    0    0  0.24080454943E+00 -0.30705148361E+00  0.26757994138E+01  0.38212785749E+01  0.27000000000E+01 0. -1.
</event>
<event>
 5   0  0.6580500E-04  0.9118800E+02  0.7818608E-02  0.1180000E+00
       11   -1    0    0    0    0  0.00000000000E+00  0.00000000000E+00  0.39999999673E+01  0.40000000000E+01  0.51109989000E-03 0. -1.
     -623   -1    0    0    0    0  0.00000000000E+00  0.00000000000E+00  0.12525980253E-10  0.17130000000E+03  0.17130000000E+03 0.  1.
       11    1    1    2    0    0 -0.10236128019E+00 -0.11689890849E+00  0.16506335817E+00  0.22669221407E+00  0.51109989000E-03 0. -1.
     -623    1    1    2    0    0  0.14727656636E+01  0.72876567863E-01  0.16070864993E+01  0.17131388466E+03  0.17130000000E+03 0.  1.
      622    1    1    2    0    0 -0.13704043834E+01  0.44022340629E-01  0.22278501099E+01  0.37594231276E+01  0.27000000000E+01 0. -1.
</event>
<event>
 5   0  0.6580500E-04  0.9118800E+02  0.7818608E-02  0.1180000E+00
       11   -1    0    0    0    0  0.00000000000E+00  0.00000000000E+00  0.39999999673E+01  0.40000000000E+01  0.51109989000E-03 0.  1.
     -623   -1    0    0    0    0  0.00000000000E+00  0.00000000000E+00  0.12525980253E-10  0.17130000000E+03  0.17130000000E+03 0. -1.
       11    1    1    2    0    0 -0.13492460395E+00 -0.21188967704E+00  0.19655334539E+00  0.31895981376E+00  0.51109989000E-03 0.  1.
     -623    1    1    2    0    0  0.13212167569E+00  0.50530790573E+00  0.13275105718E+01  0.17130593999E+03  0.17130000000E+03 0. -1.
      622    1    1    2    0    0  0.28029282595E-02 -0.29341822868E+00  0.24759360502E+01  0.36751001943E+01  0.27000000000E+01 0.  1.
</event>
<event>
 5   0  0.6580500E-04  0.9118800E+02  0.7818608E-02  0.1180000E+00
       11   -1    0    0    0    0  0.00000000000E+00  0.00000000000E+00  0.39999999673E+01  0.40000000000E+01  0.51109989000E-03 0.  1.
     -623   -1    0    0    0    0  0.00000000000E+00  0.00000000000E+00  0.12525980253E-10  0.17130000000E+03  0.17130000000E+03 0.  1.
       11    1    1    2    0    0  0.29538374978E-01 -0.56714921660E-01 -0.21320790741E-01  0.67408718101E-01  0.51109989000E-03 0.  1.
     -623    1    1    2    0    0 -0.21568017452E-02  0.14425422192E+00  0.11691249449E+01  0.17130405035E+03  0.17130000000E+03 0.  1.
      622    1    1    2    0    0 -0.27381573233E-01 -0.87539300265E-01  0.28521958132E+01  0.39285409297E+01  0.27000000000E+01 0.  1.
</event>
<event>
 5   0  0.6580500E-04  0.9118800E+02  0.7818608E-02  0.1180000E+00
       11   -1    0    0    0    0  0.00000000000E+00  0.00000000000E+00  0.39999999673E+01  0.40000000000E+01  0.51109989000E-03 0. -1.
     -623   -1    0    0    0    0  0.00000000000E+00  0.00000000000E+00  0.12525980253E-10  0.17130000000E+03  0.17130000000E+03 0.  1.
       11    1    1    2    0    0  0.17129809536E-01 -0.15684071906E+00  0.11586711661E+00  0.19574956313E+00  0.51109989000E-03 0. -1.
     -623    1    1    2    0    0  0.37966052831E+00 -0.26341241206E+00  0.12750237879E+01  0.17130536832E+03  0.17130000000E+03 0.  1.
      622    1    1    2    0    0 -0.39679033785E+00  0.42025313111E+00  0.26091090629E+01  0.37988821209E+01  0.27000000000E+01 0. -1.
</event>
<event>
 5   0  0.6580500E-04  0.9118800E+02  0.7818608E-02  0.1180000E+00
       11   -1    0    0    0    0  0.00000000000E+00  0.00000000000E+00  0.39999999673E+01  0.40000000000E+01  0.51109989000E-03 0.  1.
     -623   -1    0    0    0    0  0.00000000000E+00  0.00000000000E+00  0.12525980253E-10  0.17130000000E+03  0.17130000000E+03 0. -1.
       11    1    1    2    0    0 -0.99515874712E-01 -0.85074303734E-01  0.76826079272E-01  0.15180103476E+00  0.51109989000E-03 0.  1.
     -623    1    1    2    0    0  0.29253917458E+00  0.30756968663E+00  0.12037443088E+01  0.17130475527E+03  0.17130000000E+03 0. -1.
      622    1    1    2    0    0 -0.19302329986E+00 -0.22249538290E+00  0.27194295793E+01  0.38434436937E+01  0.27000000000E+01 0.  1.
</event>
<event>
 5   0  0.6580500E-04  0.9118800E+02  0.7818608E-02  0.1180000E+00
       11   -1    0    0    0    0  0.00000000000E+00  0.00000000000E+00  0.39999999673E+01  0.40000000000E+01  0.51109989000E-03 0. -1.
     -623   -1    0    0    0    0  0.00000000000E+00  0.00000000000E+00  0.12525980253E-10  0.17130000000E+03  0.17130000000E+03 0. -1.
       11    1    1    2    0    0  0.28336469555E+00 -0.20818632433E-01  0.11260642133E+00  0.30562956906E+00  0.51109989000E-03 0. -1.
     -623    1    1    2    0    0  0.16834940819E+00  0.42017564316E+00  0.14491196054E+01  0.17130672735E+03  0.17130000000E+03 0. -1.
      622    1    1    2    0    0 -0.45171410374E+00 -0.39935701073E+00  0.24382739406E+01  0.36876430770E+01  0.27000000000E+01 0. -1.
</event>
<event>
 5   0  0.6580500E-04  0.9118800E+02  0.7818608E-02  0.1180000E+00
       11   -1    0    0    0    0  0.00000000000E+00  0.00000000000E+00  0.39999999673E+01  0.40000000000E+01  0.51109989000E-03 0. -1.
     -623   -1    0    0    0    0  0.00000000000E+00  0.00000000000E+00  0.12525980253E-10  0.17130000000E+03  0.17130000000E+03 0.  1.
       11    1    1    2    0    0 -0.31592436374E-01  0.14363525504E-02  0.40119067604E-01  0.51087630118E-01  0.51109989000E-03 0. -1.
     -623    1    1    2    0    0  0.50332212366E+00 -0.63615435772E+00  0.11975774879E+01  0.17130610677E+03  0.17130000000E+03 0.  1.
      622    1    1    2    0    0 -0.47172968728E+00  0.63471800517E+00  0.27623034118E+01  0.39428055979E+01  0.27000000000E+01 0. -1.
</event>
<event>
 5   0  0.6580500E-04  0.9118800E+02  0.7818608E-02  0.1180000E+00
       11   -1    0    0    0    0  0.00000000000E+00  0.00000000000E+00  0.39999999673E+01  0.40000000000E+01  0.51109989000E-03 0. -1.
     -623   -1    0    0    0    0  0.00000000000E+00  0.00000000000E+00  0.12525980253E-10  0.17130000000E+03  0.17130000000E+03 0.  1.
       11    1    1    2    0    0 -0.11909106516E+00 -0.22800439961E+00  0.79603604480E-01  0.26926879341E+00  0.51109989000E-03 0. -1.
     -623    1    1    2    0    0  0.62941738299E+00  0.64984740778E+00  0.14451724837E+01  0.17130848488E+03  0.17130000000E+03 0.  1.
      622    1    1    2    0    0 -0.51032631784E+00 -0.42184300817E+00  0.24752238792E+01  0.37222463280E+01  0.27000000000E+01 0. -1.
</event>
<event>
 5   0  0.6580500E-04  0.9118800E+02  0.7818608E-02  0.1180000E+00
       11   -1    0    0    0    0  0.00000000000E+00  0.00000000000E+00  0.39999999673E+01  0.40000000000E+01  0.51109989000E-03 0.  1.
     -623   -1    0    0    0    0  0.00000000000E+00  0.00000000000E+00  0.12525980253E-10  0.17130000000E+03  0.17130000000E+03 0.  1.
       11    1    1    2    0    0  0.10102849581E+00  0.16841641545E+00  0.54309822670E-02  0.19647036099E+00  0.51109989000E-03 0.  1.
     -623    1    1    2    0    0  0.15984182060E+00  0.44085950129E+00  0.14083191259E+01  0.17130643090E+03  0.17130000000E+03 0.  1.
      622    1    1    2    0    0 -0.26087031640E+00 -0.60927591673E+00  0.25862498592E+01  0.37970987344E+01  0.27000000000E+01 0.  1.
</event>
<event>
 5   0  0.6580500E-04  0.9118800E+02  0.7818608E-02  0.1180000E+00
       11   -1    0    0    0    0  0.00000000000E+00  0.00000000000E+00  0.39999999673E+01  0.40000000000E+01  0.51109989000E-03 0. -1.
     -623   -1    0    0    0    0  0.00000000000E+00  0.00000000000E+00  0.12525980253E-10  0.17130000000E+03  0.17130000000E+03 0. -1.
       11    1    1    2    0    0  0.35747893823E+00 -0.82784539769E-01  0.23258522393E+00  0.43444288338E+00  0.51109989000E-03 0. -1.
     -623    1    1    2    0    0 -0.36923118969E+00 -0.25322507053E+00  0.14737660577E+01  0.17130692467E+03  0.17130000000E+03 0. -1.
      622    1    1    2    0    0  0.11752251454E-01  0.33600961030E+00  0.22936486857E+01  0.35586324434E+01  0.27000000000E+01 0. -1.
</event>
<event>
 5   0  0.6580500E-04  0.9118800E+02  0.7818608E-02  0.1180000E+00
       11   -1    0    0    0    0  0.00000000000E+00  0.00000000000E+00  0.39999999673E+01  0.40000000000E+01  0.51109989000E-03 0.  1.
     -623   -1    0    0    0    0  0.00000000000E+00  0.00000000000E+00  0.12525980253E-10  0.17130000000E+03  0.17130000000E+03 0. -1.
       11    1    1    2    0    0 -0.70104103722E-01  0.59889637026E-01 -0.32601896020E-02  0.92261823314E-01  0.51109989000E-03 0.  1.
     -623    1    1    2    0    0  0.63640091481E+00  0.27142606844E+00  0.12641697033E+01  0.17130606178E+03  0.17130000000E+03 0. -1.
      622    1    1    2    0    0 -0.56629681109E+00 -0.33131570547E+00  0.27390904537E+01  0.39016763946E+01  0.27000000000E+01 0.  1.
</event>
<event>
 5   0  0.6580500E-04  0.9118800E+02  0.7818608E-02  0.1180000E+00
       11   -1    0    0    0    0  0.00000000000E+00  0.00000000000E+00  0.39999999673E+01  0.40000000000E+01  0.51109989000E-03 0.  1.
     -623   -1    0    0    0    0  0.00000000000E+00  0.00000000000E+00  0.12525980253E-10  0.17130000000E+03  0.17130000000E+03 0.  1.
       11    1    1    2    0    0 -0.16874291816E+00  0.89776270852E-01  0.23332124562E-01  0.19255804448E+00  0.51109989000E-03 0.  1.
     -623    1    1    2    0    0  0.35566798674E+00 -0.60932158117E+00  0.13594841298E+01  0.17130684741E+03  0.17130000000E+03 0.  1.
      622    1    1    2    0    0 -0.18692506858E+00  0.51954531032E+00  0.26171837130E+01  0.38005945454E+01  0.27000000000E+01 0.  1.
</event>
<event>
 5   0  0.6580500E-04  0.9118800E+02  0.7818608E-02  0.1180000E+00
       11   -1    0    0    0    0  0.00000000000E+00  0.00000000000E+00  0.39999999673E+01  0.40000000000E+01  0.51109989000E-03 0. -1.
     -623   -1    0    0    0    0  0.00000000000E+00  0.00000000000E+00  0.12525980253E-10  0.17130000000E+03  0.17130000000E+03 0. -1.
       11    1    1    2    0    0 -0.96640650296E-01  0.19011971592E+00  0.36923342456E+00  0.42640181133E+00  0.51109989000E-03 0. -1.
     -623    1    1    2    0    0  0.87582798851E-01  0.27723124754E+00  0.13454640210E+01  0.17130553056E+03  0.17130000000E+03 0. -1.
      622    1    1    2    0    0  0.90578514445E-02 -0.46735096345E+00  0.22853025218E+01  0.35680676260E+01  0.27000000000E+01 0. -1.
</event>
<event>
 5   0  0.6580500E-04  0.9118800E+02  0.7818608E-02  0.1180000E+00
       11   -1    0    0    0    0  0.00000000000E+00  0.00000000000E+00  0.39999999673E+01  0.40000000000E+01  0.51109989000E-03 0. -1.
     -623   -1    0    0    0    0  0.00000000000E+00  0.00000000000E+00  0.12525980253E-10  0.17130000000E+03  0.17130000000E+03 0.  1.
       11    1    1    2    0    0  0.36798365338E-01  0.15992059612E+00  0.14476715859E+00  0.21882986127E+00  0.51109989000E-03 0. -1.
     -623    1    1    2    0    0 -0.34682200282E+00  0.90114366678E-01  0.12453337612E+01  0.17130490145E+03  0.17130000000E+03 0.  1.
      622    1    1    2    0    0  0.31002363748E+00 -0.25003496280E+00  0.26098990475E+01  0.37762686844E+01  0.27000000000E+01 0. -1.
</event>
<event>
 5   0  0.6580500E-04  0.9118800E+02  0.7818608E-02  0.1180000E+00
       11   -1    0    0    0    0  0.00000000000E+00  0.00000000000E+00  0.39999999673E+01  0.40000000000E+01  0.51109989000E-03 0. -1.
     -623   -1    0    0    0    0  0.00000000000E+00  0.00000000000E+00  0.12525980253E-10  0.17130000000E+03  0.17130000000E+03 0. -1.
       11    1    1    2    0    0  0.31617111597E+00 -0.58880656643E+00  0.42345756498E+00  0.79118513497E+00  0.51109989000E-03 0. -1.
     -623    1    1    2    0    0 -0.10106166409E+01 -0.55600421131E+00  0.25430489218E+01  0.17132275851E+03  0.17130000000E+03 0.  1.
      622    1    1    2    0    0  0.69444552493E+00  0.11448107777E+01  0.10334934806E+01  0.31860563520E+01  0.27000000000E+01 0.  0.
</event>
<event>
 5   0  0.6580500E-04  0.9118800E+02  0.7818608E-02  0.1180000E+00
       11   -1    0    0    0    0  0.00000000000E+00  0.00000000000E+00  0.39999999673E+01  0.40000000000E+01  0.51109989000E-03 0. -1.
     -623   -1    0    0    0    0  0.00000000000E+00  0.00000000000E+00  0.12525980253E-10  0.17130000000E+03  0.17130000000E+03 0. -1.
       11    1    1    2    0    0 -0.17219815620E-01 -0.15171729187E+00  0.13275629491E+00  0.20233426245E+00  0.51109989000E-03 0. -1.
     -623    1    1    2    0    0  0.26574017449E+00  0.26240775659E-01  0.12176535194E+01  0.17130453580E+03  0.17130000000E+03 0. -1.
      622    1    1    2    0    0 -0.24852035887E+00  0.12547651621E+00  0.26495901531E+01  0.37931299350E+01  0.27000000000E+01 0. -1.
</event>
<event>
 5   0  0.6580500E-04  0.9118800E+02  0.7818608E-02  0.1180000E+00
       11   -1    0    0    0    0  0.00000000000E+00  0.00000000000E+00  0.39999999673E+01  0.40000000000E+01  0.51109989000E-03 0.  1.
     -623   -1    0    0    0    0  0.00000000000E+00  0.00000000000E+00  0.12525980253E-10  0.17130000000E+03  0.17130000000E+03 0. -1.
       11    1    1    2    0    0 -0.12645453983E+00  0.11449180767E+00 -0.33669196617E-01  0.17387639487E+00  0.51109989000E-03 0.  1.
     -623    1    1    2    0    0 -0.47926795005E+00  0.27732296278E-01  0.14044233099E+01  0.17130642974E+03  0.17130000000E+03 0. -1.
      622    1    1    2    0    0  0.60572248988E+00 -0.14222410395E+00  0.26292458541E+01  0.38196938610E+01  0.27000000000E+01 0.  1.
</event>
<event>
 5   0  0.6580500E-04  0.9118800E+02  0.7818608E-02  0.1180000E+00
       11   -1    0    0    0    0  0.00000000000E+00  0.00000000000E+00  0.39999999673E+01  0.40000000000E+01  0.51109989000E-03 0.  1.
     -623   -1    0    0    0    0  0.00000000000E+00  0.00000000000E+00  0.12525980253E-10  0.17130000000E+03  0.17130000000E+03 0. -1.
       11    1    1    2    0    0  0.16933504210E+00 -0.92069081467E-01  0.27971848620E+00  0.33969657783E+00  0.51109989000E-03 0.  1.
     -623    1    1    2    0    0 -0.15505090489E+00  0.54085721563E+00  0.12988293691E+01  0.17130584790E+03  0.17130000000E+03 0. -1.
      622    1    1    2    0    0 -0.14284137215E-01 -0.44878813416E+00  0.24214521121E+01  0.36544555213E+01  0.27000000000E+01 0.  1.
</event>
<event>
 5   0  0.6580500E-04  0.9118800E+02  0.7818608E-02  0.1180000E+00
       11   -1    0    0    0    0  0.00000000000E+00  0.00000000000E+00  0.39999999673E+01  0.40000000000E+01  0.51109989000E-03 0. -1.
     -623   -1    0    0    0    0  0.00000000000E+00  0.00000000000E+00  0.12525980253E-10  0.17130000000E+03  0.17130000000E+03 0. -1.
       11    1    1    2    0    0 -0.70710825701E-01  0.13260660374E+00  0.14350698937E+00  0.20779569160E+00  0.51109989000E-03 0. -1.
     -623    1    1    2    0    0  0.89395650306E-01 -0.34233327268E+00  0.12085894092E+01  0.17130462887E+03  0.17130000000E+03 0. -1.
      622    1    1    2    0    0 -0.18684824605E-01  0.20972666894E+00  0.26479035687E+01  0.37875754392E+01  0.27000000000E+01 0. -1.
</event>
<event>
 5   0  0.6580500E-04  0.9118800E+02  0.7818608E-02  0.1180000E+00
       11   -1    0    0    0    0  0.00000000000E+00  0.00000000000E+00  0.39999999673E+01  0.40000000000E+01  0.51109989000E-03 0. -1.
     -623   -1    0    0    0    0  0.00000000000E+00  0.00000000000E+00  0.12525980253E-10  0.17130000000E+03  0.17130000000E+03 0. -1.
       11    1    1    2    0    0  0.13130287180E+00  0.10480253092E-01  0.42201646097E-02  0.13178903922E+00  0.51109989000E-03 0. -1.
     -623    1    1    2    0    0 -0.25603762188E+00 -0.32282350291E+00  0.12533983557E+01  0.17130508100E+03  0.17130000000E+03 0. -1.
      622    1    1    2    0    0  0.12473475008E+00  0.31234324981E+00  0.27423814470E+01  0.38631299570E+01  0.27000000000E+01 0. -1.
</event>
<event>
 5   0  0.6580500E-04  0.9118800E+02  0.7818608E-02  0.1180000E+00
       11   -1    0    0    0    0  0.00000000000E+00  0.00000000000E+00  0.39999999673E+01  0.40000000000E+01  0.51109989000E-03 0.  1.
     -623   -1    0    0    0    0  0.00000000000E+00  0.00000000000E+00  0.12525980253E-10  0.17130000000E+03  0.17130000000E+03 0.  1.
       11    1    1    2    0    0  0.51650539881E+00  0.64161957974E+00  0.16303496038E+00  0.83966312986E+00  0.51109989000E-03 0.  1.
     -623    1    1    2    0    0 -0.62534115199E+00 -0.61511632538E+00  0.22308973590E+01  0.17131677187E+03  0.17130000000E+03 0.  1.
      622    1    1    2    0    0  0.10883575318E+00 -0.26503254358E-01  0.16060676480E+01  0.31435650039E+01  0.27000000000E+01 0.  1.
</event>
<event>
 5   0  0.6580500E-04  0.9118800E+02  0.7818608E-02  0.1180000E+00
       11   -1    0    0    0    0  0.00000000000E+00  0.00000000000E+00  0.39999999673E+01  0.40000000000E+01  0.51109989000E-03 0. -1.
     -623   -1    0    0    0    0  0.00000000000E+00  0.00000000000E+00  0.12525980253E-10  0.17130000000E+03  0.17130000000E+03 0.  1.
       11    1    1    2    0    0 -0.10567739781E+00 -0.11782085225E+00  0.19405436462E+00  0.25041330492E+00  0.51109989000E-03 0. -1.
     -623    1    1    2    0    0  0.28233631904E+00 -0.26719108050E+00  0.12461241720E+01  0.17130497345E+03  0.17130000000E+03 0.  1.
      622    1    1    2    0    0 -0.17665892123E+00  0.38501193275E+00  0.25598214307E+01  0.37446132404E+01  0.27000000000E+01 0. -1.
</event>
<event>
 5   0  0.6580500E-04  0.9118800E+02  0.7818608E-02  0.1180000E+00
       11   -1    0    0    0    0  0.00000000000E+00  0.00000000000E+00  0.39999999673E+01  0.40000000000E+01  0.51109989000E-03 0.  1.
     -623   -1    0    0    0    0  0.00000000000E+00  0.00000000000E+00  0.12525980253E-10  0.17130000000E+03  0.17130000000E+03 0. -1.
       11    1    1    2    0    0  0.16564835731E+00 -0.13689851423E+00  0.10134970988E-01  0.21513614373E+00  0.51109989000E-03 0.  1.
     -623    1    1    2    0    0 -0.20577939161E+00  0.37251074833E+00  0.13567234031E+01  0.17130590126E+03  0.17130000000E+03 0. -1.
      622    1    1    2    0    0  0.40131034303E-01 -0.23561223409E+00  0.26331415933E+01  0.37789625925E+01  0.27000000000E+01 0.  1.
</event>
<event>
 5   0  0.6580500E-04  0.9118800E+02  0.7818608E-02  0.1180000E+00
       11   -1    0    0    0    0  0.00000000000E+00  0.00000000000E+00  0.39999999673E+01  0.40000000000E+01  0.51109989000E-03 0. -1.
     -623   -1    0    0    0    0  0.00000000000E+00  0.00000000000E+00  0.12525980253E-10  0.17130000000E+03  0.17130000000E+03 0.  1.
       11    1    1    2    0    0 -0.14347517834E+00  0.21321221816E+00  0.39470736059E-01  0.26000534032E+00  0.51109989000E-03 0. -1.
     -623    1    1    2    0    0  0.92679579494E-01  0.12071186362E+00  0.14031837536E+01  0.17130581451E+03  0.17130000000E+03 0.  1.
      622    1    1    2    0    0  0.50795598844E-01 -0.33392408178E+00  0.25573454777E+01  0.37341801480E+01  0.27000000000E+01 0. -1.
</event>
<event>
 5   0  0.6580500E-04  0.9118800E+02  0.7818608E-02  0.1180000E+00
       11   -1    0    0    0    0  0.00000000000E+00  0.00000000000E+00  0.39999999673E+01  0.40000000000E+01  0.51109989000E-03 0. -1.
     -623   -1    0    0    0    0  0.00000000000E+00  0.00000000000E+00  0.12525980253E-10  0.17130000000E+03  0.17130000000E+03 0.  1.
       11    1    1    2    0    0 -0.33100433704E-01 -0.28704566972E+00  0.34934829078E+00  0.45336006078E+00  0.51109989000E-03 0. -1.
     -623    1    1    2    0    0 -0.57893500544E+00 -0.15415673302E-01  0.14663494640E+01  0.17130725491E+03  0.17130000000E+03 0.  1.
      622    1    1    2    0    0  0.61203543914E+00  0.30246134303E+00  0.21843022126E+01  0.35393850312E+01  0.27000000000E+01 0. -1.
</event>
<event>
 5   0  0.6580500E-04  0.9118800E+02  0.7818608E-02  0.1180000E+00
       11   -1    0    0    0    0  0.00000000000E+00  0.00000000000E+00  0.39999999673E+01  0.40000000000E+01  0.51109989000E-03 0. -1.
     -623   -1    0    0    0    0  0.00000000000E+00  0.00000000000E+00  0.12525980253E-10  0.17130000000E+03  0.17130000000E+03 0.  1.
       11    1    1    2    0    0  0.97820420461E-01  0.54218289387E-01 -0.54013444477E-02  0.11197273466E+00  0.51109989000E-03 0. -1.
     -623    1    1    2    0    0  0.34082406044E+00 -0.26039806639E+00  0.12573463471E+01  0.17130515138E+03  0.17130000000E+03 0.  1.
      622    1    1    2    0    0 -0.43864448090E+00  0.20617977700E+00  0.27480549647E+01  0.38828758891E+01  0.27000000000E+01 0. -1.
</event>
<event>
 5   0  0.6580500E-04  0.9118800E+02  0.7818608E-02  0.1180000E+00
       11   -1    0    0    0    0  0.00000000000E+00  0.00000000000E+00  0.39999999673E+01  0.40000000000E+01  0.51109989000E-03 0. -1.
     -623   -1    0    0    0    0  0.00000000000E+00  0.00000000000E+00  0.12525980253E-10  0.17130000000E+03  0.17130000000E+03 0. -1.
       11    1    1    2    0    0  0.10531968281E+00 -0.11037182281E+00  0.83706947139E-02  0.15278908538E+00  0.51109989000E-03 0. -1.
     -623    1    1    2    0    0  0.92159479548E-01  0.70420571551E+00  0.13330198584E+01  0.17130665878E+03  0.17130000000E+03 0. -1.
      622    1    1    2    0    0 -0.19747916235E+00 -0.59383389270E+00  0.26586094143E+01  0.38405521386E+01  0.27000000000E+01 0. -1.
</event>
<event>
 5   0  0.6580500E-04  0.9118800E+02  0.7818608E-02  0.1180000E+00
       11   -1    0    0    0    0  0.00000000000E+00  0.00000000000E+00  0.39999999673E+01  0.40000000000E+01  0.51109989000E-03 0.  1.
     -623   -1    0    0    0    0  0.00000000000E+00  0.00000000000E+00  0.12525980253E-10  0.17130000000E+03  0.17130000000E+03 0. -1.
       11    1    1    2    0    0 -0.27066139691E+00  0.21814766584E+00  0.67387843263E+00  0.75826011308E+00  0.51109989000E-03 0.  1.
     -623    1    1    2    0    0 -0.38738653436E+00 -0.10151525115E+01  0.18905560096E+01  0.17131387803E+03  0.17130000000E+03 0. -1.
      622    1    1    2    0    0  0.65804793127E+00  0.79700484564E+00  0.14355655251E+01  0.32278618590E+01  0.27000000000E+01 0.  1.
</event>
<event>
 5   0  0.6580500E-04  0.9118800E+02  0.7818608E-02  0.1180000E+00
       11   -1    0    0    0    0  0.00000000000E+00  0.00000000000E+00  0.39999999673E+01  0.40000000000E+01  0.51109989000E-03 0. -1.
     -623   -1    0    0    0    0  0.00000000000E+00  0.00000000000E+00  0.12525980253E-10  0.17130000000E+03  0.17130000000E+03 0.  1.
       11    1    1    2    0    0  0.16982018701E+00 -0.22779901849E+00  0.28482908370E+00  0.40231723413E+00  0.51109989000E-03 0. -1.
     -623    1    1    2    0    0  0.27668921573E+00  0.57182305991E+00  0.14162476600E+01  0.17130703224E+03  0.17130000000E+03 0.  1.
      622    1    1    2    0    0 -0.44650940274E+00 -0.34402404143E+00  0.22989232236E+01  0.35906505227E+01  0.27000000000E+01 0. -1.
</event>
<event>
 5   0  0.6580500E-04  0.9118800E+02  0.7818608E-02  0.1180000E+00
       11   -1    0    0    0    0  0.00000000000E+00  0.00000000000E+00  0.39999999673E+01  0.40000000000E+01  0.51109989000E-03 0. -1.
     -623   -1    0    0    0    0  0.00000000000E+00  0.00000000000E+00  0.12525980253E-10  0.17130000000E+03  0.17130000000E+03 0. -1.
       11    1    1    2    0    0 -0.33959355460E+00  0.69086018028E-01  0.71139034902E-01  0.35377631877E+00  0.51109989000E-03 0. -1.
     -623    1    1    2    0    0  0.45035130812E+00  0.64182487313E+00  0.16008273311E+01  0.17130927413E+03  0.17130000000E+03 0. -1.
      622    1    1    2    0    0 -0.11075775351E+00 -0.71091089116E+00  0.23280336013E+01  0.36369495493E+01  0.27000000000E+01 0. -1.
</event>
<event>
 5   0  0.6580500E-04  0.9118800E+02  0.7818608E-02  0.1180000E+00
       11   -1    0    0    0    0  0.00000000000E+00  0.00000000000E+00  0.39999999673E+01  0.40000000000E+01  0.51109989000E-03 0.  1.
     -623   -1    0    0    0    0  0.00000000000E+00  0.00000000000E+00  0.12525980253E-10  0.17130000000E+03  0.17130000000E+03 0. -1.
       11    1    1    2    0    0  0.21513673064E+00  0.11138305557E+00 -0.10451484465E+00  0.26384391581E+00  0.51109989000E-03 0.  1.
     -623    1    1    2    0    0 -0.25444769292E+00  0.67933096846E+00  0.16610485253E+01  0.17130958910E+03  0.17130000000E+03 0. -1.
      622    1    1    2    0    0  0.39310962280E-01 -0.79071402402E+00  0.24434662868E+01  0.37265669877E+01  0.27000000000E+01 0.  1.
</event>
<event>
 5   0  0.6580500E-04  0.9118800E+02  0.7818608E-02  0.1180000E+00
       11   -1    0    0    0    0  0.00000000000E+00  0.00000000000E+00  0.39999999673E+01  0.40000000000E+01  0.51109989000E-03 0.  1.
     -623   -1    0    0    0    0  0.00000000000E+00  0.00000000000E+00  0.12525980253E-10  0.17130000000E+03  0.17130000000E+03 0. -1.
       11    1    1    2    0    0  0.36331018371E+00 -0.37783205196E+00  0.34572112679E+00  0.62791297789E+00  0.51109989000E-03 0.  1.
     -623    1    1    2    0    0 -0.30274688015E+00 -0.17028265152E+00  0.17266128460E+01  0.17130905360E+03  0.17130000000E+03 0. -1.
      622    1    1    2    0    0 -0.60563303555E-01  0.54811470348E+00  0.19276659946E+01  0.33630334266E+01  0.27000000000E+01 0.  1.
</event>
<event>
 5   0  0.6580500E-04  0.9118800E+02  0.7818608E-02  0.1180000E+00
       11   -1    0    0    0    0  0.00000000000E+00  0.00000000000E+00  0.39999999673E+01  0.40000000000E+01  0.51109989000E-03 0. -1.
     -623   -1    0    0    0    0  0.00000000000E+00  0.00000000000E+00  0.12525980253E-10  0.17130000000E+03  0.17130000000E+03 0.  1.
       11    1    1    2    0    0  0.61834238006E-01 -0.89777629240E-01  0.35173112482E-01  0.11454651791E+00  0.51109989000E-03 0. -1.
     -623    1    1    2    0    0 -0.15655726251E+00 -0.13371798845E+00  0.11872540406E+01  0.17130423802E+03  0.17130000000E+03 0.  1.
      622    1    1    2    0    0  0.94723024507E-01  0.22349561769E+00  0.27775728142E+01  0.38812154644E+01  0.27000000000E+01 0. -1.
</event>
<event>
 5   0  0.6580500E-04  0.9118800E+02  0.7818608E-02  0.1180000E+00
       11   -1    0    0    0    0  0.00000000000E+00  0.00000000000E+00  0.39999999673E+01  0.40000000000E+01  0.51109989000E-03 0. -1.
     -623   -1    0    0    0    0  0.00000000000E+00  0.00000000000E+00  0.12525980253E-10  0.17130000000E+03  0.17130000000E+03 0. -1.
       11    1    1    2    0    0  0.99534321859E-01  0.15216313941E+00 -0.26502987045E-01  0.18374812045E+00  0.51109989000E-03 0. -1.
     -623    1    1    2    0    0 -0.65655949744E+00 -0.13402104865E+01  0.16944026482E+01  0.17131488037E+03  0.17130000000E+03 0. -1.
      622    1    1    2    0    0  0.55702517558E+00  0.11880473471E+01  0.23321003062E+01  0.38013715134E+01  0.27000000000E+01 0. -1.
</event>
<event>
 5   0  0.6580500E-04  0.9118800E+02  0.7818608E-02  0.1180000E+00
       11   -1    0    0    0    0  0.00000000000E+00  0.00000000000E+00  0.39999999673E+01  0.40000000000E+01  0.51109989000E-03 0. -1.
     -623   -1    0    0    0    0  0.00000000000E+00  0.00000000000E+00  0.12525980253E-10  0.17130000000E+03  0.17130000000E+03 0.  1.
       11    1    1    2    0    0  0.29559247077E+00  0.12455881350E+00  0.74646617863E+00  0.81246650630E+00  0.51109989000E-03 0. -1.
     -623    1    1    2    0    0 -0.17200425327E+00 -0.61527685567E+00  0.16548390008E+01  0.17130918435E+03  0.17130000000E+03 0.  1.
      622    1    1    2    0    0 -0.12358821750E+00  0.49071804217E+00  0.15986947880E+01  0.31783491422E+01  0.27000000000E+01 0. -1.
</event>
<event>
 5   0  0.6580500E-04  0.9118800E+02  0.7818608E-02  0.1180000E+00
       11   -1    0    0    0    0  0.00000000000E+00  0.00000000000E+00  0.39999999673E+01  0.40000000000E+01  0.51109989000E-03 0.  1.
     -623   -1    0    0    0    0  0.00000000000E+00  0.00000000000E+00  0.12525980253E-10  0.17130000000E+03  0.17130000000E+03 0.  1.
       11    1    1    2    0    0  0.92391885407E-01  0.57864648461E-01 -0.37907913579E-01  0.11542031521E+00  0.51109989000E-03 0.  1.
     -623    1    1    2    0    0 -0.80850153979E+00  0.52831659012E+00  0.14154999591E+01  0.17130857081E+03  0.17130000000E+03 0.  1.
      622    1    1    2    0    0  0.71610965438E+00 -0.58618123858E+00  0.26224079218E+01  0.38760088738E+01  0.27000000000E+01 0.  1.
</event>
<event>
 5   0  0.6580500E-04  0.9118800E+02  0.7818608E-02  0.1180000E+00
       11   -1    0    0    0    0  0.00000000000E+00  0.00000000000E+00  0.39999999673E+01  0.40000000000E+01  0.51109989000E-03 0. -1.
     -623   -1    0    0    0    0  0.00000000000E+00  0.00000000000E+00  0.12525980253E-10  0.17130000000E+03  0.17130000000E+03 0.  1.
       11    1    1    2    0    0  0.85485239332E+00  0.40132467034E+00 -0.10056191885E+00  0.94970893758E+00  0.51109989000E-03 0. -1.
     -623    1    1    2    0    0 -0.13904991977E+01 -0.75539589805E+00  0.29143009481E+01  0.17133209641E+03  0.17130000000E+03 0. -1.
      622    1    1    2    0    0  0.53564680434E+00  0.35407122771E+00  0.11862609381E+01  0.30181946502E+01  0.27000000000E+01 0. -1.
</event>
<event>
 5   0  0.6580500E-04  0.9118800E+02  0.7818608E-02  0.1180000E+00
       11   -1    0    0    0    0  0.00000000000E+00  0.00000000000E+00  0.39999999673E+01  0.40000000000E+01  0.51109989000E-03 0.  1.
     -623   -1    0    0    0    0  0.00000000000E+00  0.00000000000E+00  0.12525980253E-10  0.17130000000E+03  0.17130000000E+03 0.  1.
       11    1    1    2    0    0  0.31324802720E+00 -0.52300194359E+00  0.30076325168E+00  0.67978978687E+00  0.51109989000E-03 0.  1.
     -623    1    1    2    0    0 -0.14105048812E+00  0.37102033291E+00  0.17978042138E+01  0.17130989362E+03  0.17130000000E+03 0.  1.
      622    1    1    2    0    0 -0.17219753907E+00  0.15198161068E+00  0.19014325019E+01  0.33103165954E+01  0.27000000000E+01 0.  0.
</event>
<event>
 5   0  0.6580500E-04  0.9118800E+02  0.7818608E-02  0.1180000E+00
       11   -1    0    0    0    0  0.00000000000E+00  0.00000000000E+00  0.39999999673E+01  0.40000000000E+01  0.51109989000E-03 0.  1.
     -623   -1    0    0    0    0  0.00000000000E+00  0.00000000000E+00  0.12525980253E-10  0.17130000000E+03  0.17130000000E+03 0.  1.
       11    1    1    2    0    0  0.26597072665E-01  0.42572333604E+00  0.43031717054E+00  0.60590501864E+00  0.51109989000E-03 0.  1.
     -623    1    1    2    0    0 -0.84029789482E-01 -0.27524990400E+00  0.15310796922E+01  0.17130708400E+03  0.17130000000E+03 0.  1.
      622    1    1    2    0    0  0.57432716818E-01 -0.15047343204E+00  0.20386031046E+01  0.33870109815E+01  0.27000000000E+01 0.  1.
</event>
<event>
 5   0  0.6580500E-04  0.9118800E+02  0.7818608E-02  0.1180000E+00
       11   -1    0    0    0    0  0.00000000000E+00  0.00000000000E+00  0.39999999673E+01  0.40000000000E+01  0.51109989000E-03 0.  1.
     -623   -1    0    0    0    0  0.00000000000E+00  0.00000000000E+00  0.12525980253E-10  0.17130000000E+03  0.17130000000E+03 0. -1.
       11    1    1    2    0    0 -0.42795631366E-01  0.63252454800E-01  0.82338933607E-01  0.11230449818E+00  0.51109989000E-03 0.  1.
     -623    1    1    2    0    0  0.71333582036E-01  0.25484571643E-01  0.11272248278E+01  0.17130372551E+03  0.17130000000E+03 0. -1.
      622    1    1    2    0    0 -0.28537950669E-01 -0.88737026443E-01  0.27904362059E+01  0.38839699914E+01  0.27000000000E+01 0.  1.
</event>
<event>
 5   0  0.6580500E-04  0.9118800E+02  0.7818608E-02  0.1180000E+00
       11   -1    0    0    0    0  0.00000000000E+00  0.00000000000E+00  0.39999999673E+01  0.40000000000E+01  0.51109989000E-03 0.  1.
     -623   -1    0    0    0    0  0.00000000000E+00  0.00000000000E+00  0.12525980253E-10  0.17130000000E+03  0.17130000000E+03 0.  1.
       11    1    1    2    0    0 -0.11514885507E+00  0.22040323352E+00  0.38656229810E+00  0.45963846195E+00  0.51109989000E-03 0.  1.
     -623    1    1    2    0    0  0.23299167562E+00 -0.79214238330E+00  0.14115799625E+01  0.17130780581E+03  0.17130000000E+03 0.  1.
      622    1    1    2    0    0 -0.11784282055E+00  0.57173914978E+00  0.22018577067E+01  0.35325557245E+01  0.27000000000E+01 0.  1.
</event>
<event>
 5   0  0.6580500E-04  0.9118800E+02  0.7818608E-02  0.1180000E+00
       11   -1    0    0    0    0  0.00000000000E+00  0.00000000000E+00  0.39999999673E+01  0.40000000000E+01  0.51109989000E-03 0.  1.
     -623   -1    0    0    0    0  0.00000000000E+00  0.00000000000E+00  0.12525980253E-10  0.17130000000E+03  0.17130000000E+03 0. -1.
       11    1    1    2    0    0 -0.23062574783E+00  0.15087969716E-01  0.36668341660E+00  0.43344304312E+00  0.51109989000E-03 0.  1.
     -623    1    1    2    0    0 -0.15071555920E+00  0.16438395655E+00  0.13499529544E+01  0.17130546433E+03  0.17130000000E+03 0. -1.
      622    1    1    2    0    0  0.38134130703E+00 -0.17947192627E+00  0.22833635964E+01  0.35610926242E+01  0.27000000000E+01 0.  1.
</event>
<event>
 5   0  0.6580500E-04  0.9118800E+02  0.7818608E-02  0.1180000E+00
       11   -1    0    0    0    0  0.00000000000E+00  0.00000000000E+00  0.39999999673E+01  0.40000000000E+01  0.51109989000E-03 0.  1.
     -623   -1    0    0    0    0  0.00000000000E+00  0.00000000000E+00  0.12525980253E-10  0.17130000000E+03  0.17130000000E+03 0. -1.
       11    1    1    2    0    0  0.23177435085E-01 -0.26942221731E+00  0.77788015303E-01  0.28138365487E+00  0.51109989000E-03 0.  1.
     -623    1    1    2    0    0  0.24763501864E+00 -0.84208140041E-01  0.14132462983E+01  0.17130602931E+03  0.17130000000E+03 0. -1.
      622    1    1    2    0    0 -0.27081245372E+00  0.35363035735E+00  0.25089656537E+01  0.37125870315E+01  0.27000000000E+01 0.  1.
</event>
<event>
 5   0  0.6580500E-04  0.9118800E+02  0.7818608E-02  0.1180000E+00
       11   -1    0    0    0    0  0.00000000000E+00  0.00000000000E+00  0.39999999673E+01  0.40000000000E+01  0.51109989000E-03 0. -1.
     -623   -1    0    0    0    0  0.00000000000E+00  0.00000000000E+00  0.12525980253E-10  0.17130000000E+03  0.17130000000E+03 0. -1.
       11    1    1    2    0    0  0.21633125949E+00 -0.91083479578E-01  0.25767889820E+00  0.34856002336E+00  0.51109989000E-03 0. -1.
     -623    1    1    2    0    0  0.11898955314E+00 -0.62727543866E+00  0.14266107470E+01  0.17130713018E+03  0.17130000000E+03 0. -1.
      622    1    1    2    0    0 -0.33532081263E+00  0.71835891824E+00  0.23157103221E+01  0.36443097946E+01  0.27000000000E+01 0.  1.
</event>
<event>
 5   0  0.6580500E-04  0.9118800E+02  0.7818608E-02  0.1180000E+00
       11   -1    0    0    0    0  0.00000000000E+00  0.00000000000E+00  0.39999999673E+01  0.40000000000E+01  0.51109989000E-03 0.  1.
     -623   -1    0    0    0    0  0.00000000000E+00  0.00000000000E+00  0.12525980253E-10  0.17130000000E+03  0.17130000000E+03 0. -1.
       11    1    1    2    0    0 -0.49993259873E-02 -0.28670188158E-01 -0.11720795002E-01  0.31378515069E-01  0.51109989000E-03 0.  1.
     -623    1    1    2    0    0  0.13001723001E+00 -0.53684790892E-01  0.11119875292E+01  0.17130366693E+03  0.17130000000E+03 0. -1.
      622    1    1    2    0    0 -0.12501790402E+00  0.82354979050E-01  0.28997332332E+01  0.39649545574E+01  0.27000000000E+01 0.  1.
</event>
<event>
 5   0  0.6580500E-04  0.9118800E+02  0.7818608E-02  0.1180000E+00
       11   -1    0    0    0    0  0.00000000000E+00  0.00000000000E+00  0.39999999673E+01  0.40000000000E+01  0.51109989000E-03 0.  1.
     -623   -1    0    0    0    0  0.00000000000E+00  0.00000000000E+00  0.12525980253E-10  0.17130000000E+03  0.17130000000E+03 0.  1.
       11    1    1    2    0    0  0.18111684267E+00  0.42967262583E-01 -0.12272673109E+00  0.22296100130E+00  0.51109989000E-03 0.  1.
     -623    1    1    2    0    0 -0.29915526170E+00 -0.40485907886E+00  0.15199093536E+01  0.17130748241E+03  0.17130000000E+03 0.  1.
      622    1    1    2    0    0  0.11803841903E+00  0.36189181627E+00  0.26028173448E+01  0.37695565901E+01  0.27000000000E+01 0.  1.
</event>
<event>
 5   0  0.6580500E-04  0.9118800E+02  0.7818608E-02  0.1180000E+00
       11   -1    0    0    0    0  0.00000000000E+00  0.00000000000E+00  0.39999999673E+01  0.40000000000E+01  0.51109989000E-03 0.  1.
     -623   -1    0    0    0    0  0.00000000000E+00  0.00000000000E+00  0.12525980253E-10  0.17130000000E+03  0.17130000000E+03 0. -1.
       11    1    1    2    0    0  0.11933583501E+00  0.25141825671E+00  0.40686282023E+00  0.49293995276E+00  0.51109989000E-03 0.  1.
     -623    1    1    2    0    0 -0.15628403760E+00 -0.83633062954E+00  0.14464189809E+01  0.17130821931E+03  0.17130000000E+03 0. -1.
      622    1    1    2    0    0  0.36948202589E-01  0.58491237283E+00  0.21467181662E+01  0.34988407421E+01  0.27000000000E+01 0.  1.
</event>
<event>
 5   0  0.6580500E-04  0.9118800E+02  0.7818608E-02  0.1180000E+00
       11   -1    0    0    0    0  0.00000000000E+00  0.00000000000E+00  0.39999999673E+01  0.40000000000E+01  0.51109989000E-03 0.  1.
     -623   -1    0    0    0    0  0.00000000000E+00  0.00000000000E+00  0.12525980253E-10  0.17130000000E+03  0.17130000000E+03 0. -1.
       11    1    1    2    0    0  0.10348091623E+00 -0.64761793061E-01  0.25634920807E+00  0.28393232920E+00  0.51109989000E-03 0.  1.
     -623    1    1    2    0    0 -0.37387881850E+00  0.40655906077E+00  0.12357628936E+01  0.17130534780E+03  0.17130000000E+03 0. -1.
      622    1    1    2    0    0  0.27039790227E+00 -0.34179726770E+00  0.25078878657E+01  0.37107198688E+01  0.27000000000E+01 0.  1.
</event>
<event>
 5   0  0.6580500E-04  0.9118800E+02  0.7818608E-02  0.1180000E+00
       11   -1    0    0    0    0  0.00000000000E+00  0.00000000000E+00  0.39999999673E+01  0.40000000000E+01  0.51109989000E-03 0. -1.
     -623   -1    0    0    0    0  0.00000000000E+00  0.00000000000E+00  0.12525980253E-10  0.17130000000E+03  0.17130000000E+03 0. -1.
       11    1    1    2    0    0  0.28117136182E+00  0.32281536977E+00 -0.31328997652E-02  0.42810883423E+00  0.51109989000E-03 0. -1.
     -623    1    1    2    0    0 -0.64057137795E-01 -0.12934420116E+01  0.19131302845E+01  0.17131557770E+03  0.17130000000E+03 0. -1.
      622    1    1    2    0    0 -0.21711422402E+00  0.97062664184E+00  0.20900025826E+01  0.35563134647E+01  0.27000000000E+01 0. -1.
</event>
<event>
 5   0  0.6580500E-04  0.9118800E+02  0.7818608E-02  0.1180000E+00
       11   -1    0    0    0    0  0.00000000000E+00  0.00000000000E+00  0.39999999673E+01  0.40000000000E+01  0.51109989000E-03 0.  1.
     -623   -1    0    0    0    0  0.00000000000E+00  0.00000000000E+00  0.12525980253E-10  0.17130000000E+03  0.17130000000E+03 0. -1.
       11    1    1    2    0    0 -0.25934268293E-01  0.10916168281E+00 -0.15638440732E+00  0.19247130524E+00  0.51109989000E-03 0.  1.
     -623    1    1    2    0    0 -0.11360047978E+00 -0.11626865251E+01  0.17104308777E+01  0.17131252236E+03  0.17130000000E+03 0. -1.
      622    1    1    2    0    0  0.13953474807E+00  0.10535248423E+01  0.24459534969E+01  0.37950063305E+01  0.27000000000E+01 0.  1.
</event>
<event>
 5   0  0.6580500E-04  0.9118800E+02  0.7818608E-02  0.1180000E+00
       11   -1    0    0    0    0  0.00000000000E+00  0.00000000000E+00  0.39999999673E+01  0.40000000000E+01  0.51109989000E-03 0. -1.
     -623   -1    0    0    0    0  0.00000000000E+00  0.00000000000E+00  0.12525980253E-10  0.17130000000E+03  0.17130000000E+03 0. -1.
       11    1    1    2    0    0  0.12948555704E+00 -0.48856750002E-01  0.57528606482E+00  0.59169908661E+00  0.51109989000E-03 0. -1.
     -623    1    1    2    0    0 -0.49406138276E+00  0.24894636926E+00  0.13977341435E+01  0.17130659570E+03  0.17130000000E+03 0. -1.
      622    1    1    2    0    0  0.36457582571E+00 -0.20008961925E+00  0.20269797590E+01  0.34017052094E+01  0.27000000000E+01 0. -1.
</event>
<event>
 5   0  0.6580500E-04  0.9118800E+02  0.7818608E-02  0.1180000E+00
       11   -1    0    0    0    0  0.00000000000E+00  0.00000000000E+00  0.39999999673E+01  0.40000000000E+01  0.51109989000E-03 0. -1.
     -623   -1    0    0    0    0  0.00000000000E+00  0.00000000000E+00  0.12525980253E-10  0.17130000000E+03  0.17130000000E+03 0.  1.
       11    1    1    2    0    0  0.28314238891E-01  0.52186033420E+00  0.12260184613E+00  0.53681596328E+00  0.51109989000E-03 0. -1.
     -623    1    1    2    0    0 -0.11399480204E+01 -0.26734220955E+00  0.20636743711E+01  0.17131643151E+03  0.17130000000E+03 0.  1.
      622    1    1    2    0    0  0.11116337816E+01 -0.25451812466E+00  0.18137237501E+01  0.34467525269E+01  0.27000000000E+01 0.  0.
</event>
<event>
 5   0  0.6580500E-04  0.9118800E+02  0.7818608E-02  0.1180000E+00
       11   -1    0    0    0    0  0.00000000000E+00  0.00000000000E+00  0.39999999673E+01  0.40000000000E+01  0.51109989000E-03 0. -1.
     -623   -1    0    0    0    0  0.00000000000E+00  0.00000000000E+00  0.12525980253E-10  0.17130000000E+03  0.17130000000E+03 0.  1.
       11    1    1    2    0    0 -0.10412597505E+00  0.37362263345E+00  0.20117400073E+00  0.43692943446E+00  0.51109989000E-03 0. -1.
     -623    1    1    2    0    0  0.38681934617E+00 -0.60233165001E+00  0.15152095149E+01  0.17130819680E+03  0.17130000000E+03 0.  1.
      622    1    1    2    0    0 -0.28269337112E+00  0.22870901656E+00  0.22836164518E+01  0.35548737608E+01  0.27000000000E+01 0. -1.
</event>
<event>
 5   0  0.6580500E-04  0.9118800E+02  0.7818608E-02  0.1180000E+00
       11   -1    0    0    0    0  0.00000000000E+00  0.00000000000E+00  0.39999999673E+01  0.40000000000E+01  0.51109989000E-03 0.  1.
     -623   -1    0    0    0    0  0.00000000000E+00  0.00000000000E+00  0.12525980253E-10  0.17130000000E+03  0.17130000000E+03 0. -1.
       11    1    1    2    0    0  0.33425503223E+00  0.38448317489E+00  0.46152515553E+00  0.68742961004E+00  0.51109989000E-03 0.  1.
     -623    1    1    2    0    0 -0.83945876127E+00  0.59956240072E+00  0.20016896467E+01  0.17131480067E+03  0.17130000000E+03 0. -1.
      622    1    1    2    0    0  0.50520372903E+00 -0.98404557561E+00  0.15367851652E+01  0.32977697231E+01  0.27000000000E+01 0.  0.
</event>
<event>
 5   0  0.6580500E-04  0.9118800E+02  0.7818608E-02  0.1180000E+00
       11   -1    0    0    0    0  0.00000000000E+00  0.00000000000E+00  0.39999999673E+01  0.40000000000E+01  0.51109989000E-03 0.  1.
     -623   -1    0    0    0    0  0.00000000000E+00  0.00000000000E+00  0.12525980253E-10  0.17130000000E+03  0.17130000000E+03 0. -1.
       11    1    1    2    0    0  0.12713347164E-02  0.25545020139E+00  0.23385892710E-01  0.25652209044E+00  0.51109989000E-03 0.  1.
     -623    1    1    2    0    0 -0.46011825555E+00 -0.83841773148E-01  0.14401643765E+01  0.17130669226E+03  0.17130000000E+03 0. -1.
      622    1    1    2    0    0  0.45884692084E+00 -0.17160842824E+00  0.25364496982E+01  0.37367856536E+01  0.27000000000E+01 0.  1.
</event>
<event>
 5   0  0.6580500E-04  0.9118800E+02  0.7818608E-02  0.1180000E+00
       11   -1    0    0    0    0  0.00000000000E+00  0.00000000000E+00  0.39999999673E+01  0.40000000000E+01  0.51109989000E-03 0.  1.
     -623   -1    0    0    0    0  0.00000000000E+00  0.00000000000E+00  0.12525980253E-10  0.17130000000E+03  0.17130000000E+03 0. -1.
       11    1    1    2    0    0  0.16977902191E+00  0.41443266170E+00  0.19267724248E+00  0.48754910353E+00  0.51109989000E-03 0.  1.
     -623    1    1    2    0    0  0.26525014544E+00 -0.56700307764E+00  0.16226396823E+01  0.17130882876E+03  0.17130000000E+03 0. -1.
      622    1    1    2    0    0 -0.43502916735E+00  0.15257041595E+00  0.21846830426E+01  0.35036221407E+01  0.27000000000E+01 0.  1.
</event>
<event>
 5   0  0.6580500E-04  0.9118800E+02  0.7818608E-02  0.1180000E+00
       11   -1    0    0    0    0  0.00000000000E+00  0.00000000000E+00  0.39999999673E+01  0.40000000000E+01  0.51109989000E-03 0. -1.
     -623   -1    0    0    0    0  0.00000000000E+00  0.00000000000E+00  0.12525980253E-10  0.17130000000E+03  0.17130000000E+03 0.  1.
       11    1    1    2    0    0  0.95105124897E-01 -0.84972505705E-01  0.25021258644E+00  0.28084143416E+00  0.51109989000E-03 0. -1.
     -623    1    1    2    0    0  0.55048994667E-01  0.37961102588E+00  0.12205050386E+01  0.17130477742E+03  0.17130000000E+03 0.  1.
      622    1    1    2    0    0 -0.15015411956E+00 -0.29463852017E+00  0.25292823424E+01  0.37143811442E+01  0.27000000000E+01 0. -1.
</event>
<event>
 5   0  0.6580500E-04  0.9118800E+02  0.7818608E-02  0.1180000E+00
       11   -1    0    0    0    0  0.00000000000E+00  0.00000000000E+00  0.39999999673E+01  0.40000000000E+01  0.51109989000E-03 0. -1.
     -623   -1    0    0    0    0  0.00000000000E+00  0.00000000000E+00  0.12525980253E-10  0.17130000000E+03  0.17130000000E+03 0.  1.
       11    1    1    2    0    0 -0.19280927862E+00  0.10926020215E-01  0.15510110710E-01  0.19374111746E+00  0.51109989000E-03 0. -1.
     -623    1    1    2    0    0  0.26628888913E+00 -0.45622860319E+00  0.13487105622E+01  0.17130612387E+03  0.17130000000E+03 0.  1.
      622    1    1    2    0    0 -0.73479610510E-01  0.44530258297E+00  0.26357792945E+01  0.38001350151E+01  0.27000000000E+01 0. -1.
</event>
<event>
 5   0  0.6580500E-04  0.9118800E+02  0.7818608E-02  0.1180000E+00
       11   -1    0    0    0    0  0.00000000000E+00  0.00000000000E+00  0.39999999673E+01  0.40000000000E+01  0.51109989000E-03 0.  1.
     -623   -1    0    0    0    0  0.00000000000E+00  0.00000000000E+00  0.12525980253E-10  0.17130000000E+03  0.17130000000E+03 0. -1.
       11    1    1    2    0    0 -0.98675681625E-01  0.20279437997E+00 -0.80000651350E-01  0.23929650255E+00  0.51109989000E-03 0.  1.
     -623    1    1    2    0    0  0.16588719164E+00 -0.75869389289E-01  0.14754307668E+01  0.17130645105E+03  0.17130000000E+03 0. -1.
      622    1    1    2    0    0 -0.67211510019E-01 -0.12692499068E+00  0.26045698519E+01  0.37542524494E+01  0.27000000000E+01 0.  1.
</event>
<event>
 5   0  0.6580500E-04  0.9118800E+02  0.7818608E-02  0.1180000E+00
       11   -1    0    0    0    0  0.00000000000E+00  0.00000000000E+00  0.39999999673E+01  0.40000000000E+01  0.51109989000E-03 0.  1.
     -623   -1    0    0    0    0  0.00000000000E+00  0.00000000000E+00  0.12525980253E-10  0.17130000000E+03  0.17130000000E+03 0.  1.
       11    1    1    2    0    0  0.18708541628E+00 -0.81484040749E-01  0.45334412363E+00  0.49715365586E+00  0.51109989000E-03 0.  1.
     -623    1    1    2    0    0 -0.55308921396E+00 -0.30204661819E+00  0.13899692261E+01  0.17130679833E+03  0.17130000000E+03 0.  1.
      622    1    1    2    0    0  0.36600379767E+00  0.38353065894E+00  0.21566866176E+01  0.34960480135E+01  0.27000000000E+01 0.  1.
</event>
<event>
 5   0  0.6580500E-04  0.9118800E+02  0.7818608E-02  0.1180000E+00
       11   -1    0    0    0    0  0.00000000000E+00  0.00000000000E+00  0.39999999673E+01  0.40000000000E+01  0.51109989000E-03 0.  1.
     -623   -1    0    0    0    0  0.00000000000E+00  0.00000000000E+00  0.12525980253E-10  0.17130000000E+03  0.17130000000E+03 0.  1.
       11    1    1    2    0    0 -0.17687098048E+00 -0.31909918733E+00  0.10748626617E+00  0.38034352069E+00  0.51109989000E-03 0.  1.
     -623    1    1    2    0    0  0.23760444411E+00  0.55248823402E+00  0.15054057706E+01  0.17130767042E+03  0.17130000000E+03 0.  1.
      622    1    1    2    0    0 -0.60733463627E-01 -0.23338904669E+00  0.23871079306E+01  0.36119860566E+01  0.27000000000E+01 0.  1.
</event>
<event>
 5   0  0.6580500E-04  0.9118800E+02  0.7818608E-02  0.1180000E+00
       11   -1    0    0    0    0  0.00000000000E+00  0.00000000000E+00  0.39999999673E+01  0.40000000000E+01  0.51109989000E-03 0. -1.
     -623   -1    0    0    0    0  0.00000000000E+00  0.00000000000E+00  0.12525980253E-10  0.17130000000E+03  0.17130000000E+03 0. -1.
       11    1    1    2    0    0  0.14212605710E+00 -0.67941791417E-01 -0.21225730543E+00  0.26432806900E+00  0.51109989000E-03 0. -1.
     -623    1    1    2    0    0  0.71455750741E+00 -0.26523891364E+00  0.18173109098E+01  0.17131133519E+03  0.17130000000E+03 0. -1.
      622    1    1    2    0    0 -0.85668356451E+00  0.33318070505E+00  0.23949463630E+01  0.37243367455E+01  0.27000000000E+01 0. -1.
</event>
<event>
 5   0  0.6580500E-04  0.9118800E+02  0.7818608E-02  0.1180000E+00
       11   -1    0    0    0    0  0.00000000000E+00  0.00000000000E+00  0.39999999673E+01  0.40000000000E+01  0.51109989000E-03 0.  1.
     -623   -1    0    0    0    0  0.00000000000E+00  0.00000000000E+00  0.12525980253E-10  0.17130000000E+03  0.17130000000E+03 0.  1.
       11    1    1    2    0    0 -0.18646991036E+00 -0.53316314353E-02 -0.26585779161E-01  0.18843173469E+00  0.51109989000E-03 0.  1.
     -623    1    1    2    0    0 -0.43857690604E+00  0.25402121010E+00  0.14315415610E+01  0.17130673130E+03  0.17130000000E+03 0.  1.
      622    1    1    2    0    0  0.62504681639E+00 -0.24868957867E+00  0.25950441855E+01  0.38048369681E+01  0.27000000000E+01 0.  1.
</event>
<event>
 5   0  0.6580500E-04  0.9118800E+02  0.7818608E-02  0.1180000E+00
       11   -1    0    0    0    0  0.00000000000E+00  0.00000000000E+00  0.39999999673E+01  0.40000000000E+01  0.51109989000E-03 0. -1.
     -623   -1    0    0    0    0  0.00000000000E+00  0.00000000000E+00  0.12525980253E-10  0.17130000000E+03  0.17130000000E+03 0.  1.
       11    1    1    2    0    0 -0.11274363499E-01  0.16574695423E+00 -0.15215319765E-01  0.16682605099E+00  0.51109989000E-03 0. -1.
     -623    1    1    2    0    0  0.18617499618E+00 -0.40539046322E-01  0.13100787068E+01  0.17130511554E+03  0.17130000000E+03 0.  1.
      622    1    1    2    0    0 -0.17490063268E+00 -0.12520790791E+00  0.27051365803E+01  0.38280584073E+01  0.27000000000E+01 0. -1.
</event>
<event>
 5   0  0.6580500E-04  0.9118800E+02  0.7818608E-02  0.1180000E+00
       11   -1    0    0    0    0  0.00000000000E+00  0.00000000000E+00  0.39999999673E+01  0.40000000000E+01  0.51109989000E-03 0. -1.
     -623   -1    0    0    0    0  0.00000000000E+00  0.00000000000E+00  0.12525980253E-10  0.17130000000E+03  0.17130000000E+03 0.  1.
       11    1    1    2    0    0 -0.18018232084E+00 -0.61863694577E+00  0.42959598818E-01  0.64577327892E+00  0.51109989000E-03 0. -1.
     -623    1    1    2    0    0  0.94373329558E-01  0.57815681233E+00  0.19903927054E+01  0.17131256473E+03  0.17130000000E+03 0.  1.
      622    1    1    2    0    0  0.85808991279E-01  0.40480133435E-01  0.19666476632E+01  0.33416619900E+01  0.27000000000E+01 0. -1.
</event>
<event>
 5   0  0.6580500E-04  0.9118800E+02  0.7818608E-02  0.1180000E+00
       11   -1    0    0    0    0  0.00000000000E+00  0.00000000000E+00  0.39999999673E+01  0.40000000000E+01  0.51109989000E-03 0. -1.
     -623   -1    0    0    0    0  0.00000000000E+00  0.00000000000E+00  0.12525980253E-10  0.17130000000E+03  0.17130000000E+03 0. -1.
       11    1    1    2    0    0 -0.52101402659E+00  0.32413026137E-01  0.11245189943E+00  0.53399617141E+00  0.51109989000E-03 0. -1.
     -623    1    1    2    0    0  0.54686644007E+00 -0.45948332334E+00  0.17742029654E+01  0.17131067680E+03  0.17130000000E+03 0. -1.
      622    1    1    2    0    0 -0.25852413476E-01  0.42707029720E+00  0.21133451025E+01  0.34553270335E+01  0.27000000000E+01 0. -1.
</event>
<event>
 5   0  0.6580500E-04  0.9118800E+02  0.7818608E-02  0.1180000E+00
       11   -1    0    0    0    0  0.00000000000E+00  0.00000000000E+00  0.39999999673E+01  0.40000000000E+01  0.51109989000E-03 0.  1.
     -623   -1    0    0    0    0  0.00000000000E+00  0.00000000000E+00  0.12525980253E-10  0.17130000000E+03  0.17130000000E+03 0. -1.
       11    1    1    2    0    0  0.63668982552E-01 -0.59796539130E+00 -0.17486027275E+00  0.62625292394E+00  0.51109989000E-03 0.  1.
     -623    1    1    2    0    0 -0.64083154717E+00  0.63783324073E+00  0.22668599066E+01  0.17131738426E+03  0.17130000000E+03 0.  1.
      622    1    1    2    0    0  0.57716256462E+00 -0.39867849435E-01  0.19080003335E+01  0.33563628147E+01  0.27000000000E+01 0.  1.
</event>
<event>
 5   0  0.6580500E-04  0.9118800E+02  0.7818608E-02  0.1180000E+00
       11   -1    0    0    0    0  0.00000000000E+00  0.00000000000E+00  0.39999999673E+01  0.40000000000E+01  0.51109989000E-03 0.  1.
     -623   -1    0    0    0    0  0.00000000000E+00  0.00000000000E+00  0.12525980253E-10  0.17130000000E+03  0.17130000000E+03 0. -1.
       11    1    1    2    0    0 -0.14573228617E+00  0.30586471859E+00  0.51091755409E+00  0.61304823107E+00  0.51109989000E-03 0.  1.
     -623    1    1    2    0    0  0.24902798325E-01 -0.50953379404E+00  0.14697870622E+01  0.17130706500E+03  0.17130000000E+03 0. -1.
      622    1    1    2    0    0  0.12082948785E+00  0.20366907544E+00  0.20192953510E+01  0.33798867691E+01  0.27000000000E+01 0.  1.
</event>
<event>
 5   0  0.6580500E-04  0.9118800E+02  0.7818608E-02  0.1180000E+00
       11   -1    0    0    0    0  0.00000000000E+00  0.00000000000E+00  0.39999999673E+01  0.40000000000E+01  0.51109989000E-03 0.  1.
     -623   -1    0    0    0    0  0.00000000000E+00  0.00000000000E+00  0.12525980253E-10  0.17130000000E+03  0.17130000000E+03 0. -1.
       11    1    1    2    0    0 -0.60952925386E-01 -0.43063095081E+00  0.41957093031E+00  0.60431639204E+00  0.51109989000E-03 0.  1.
     -623    1    1    2    0    0 -0.20360353478E+00  0.49632407302E+00  0.15523885846E+01  0.17130787402E+03  0.17130000000E+03 0. -1.
      622    1    1    2    0    0  0.26455646017E+00 -0.65693122214E-01  0.20280404524E+01  0.33878095849E+01  0.27000000000E+01 0.  1.
</event>
<event>
 5   0  0.6580500E-04  0.9118800E+02  0.7818608E-02  0.1180000E+00
       11   -1    0    0    0    0  0.00000000000E+00  0.00000000000E+00  0.39999999673E+01  0.40000000000E+01  0.51109989000E-03 0.  1.
     -623   -1    0    0    0    0  0.00000000000E+00  0.00000000000E+00  0.12525980253E-10  0.17130000000E+03  0.17130000000E+03 0.  1.
       11    1    1    2    0    0  0.23741918033E+00 -0.14749707987E-01 -0.19618852902E-01  0.23868510989E+00  0.51109989000E-03 0.  1.
     -623    1    1    2    0    0  0.67553262286E-01  0.30119357792E+00  0.14438459026E+01  0.17130636291E+03  0.17130000000E+03 0.  1.
      622    1    1    2    0    0 -0.30497244261E+00 -0.28644386994E+00  0.25757729176E+01  0.37549519843E+01  0.27000000000E+01 0.  1.
</event>
<event>
 5   0  0.6580500E-04  0.9118800E+02  0.7818608E-02  0.1180000E+00
       11   -1    0    0    0    0  0.00000000000E+00  0.00000000000E+00  0.39999999673E+01  0.40000000000E+01  0.51109989000E-03 0. -1.
     -623   -1    0    0    0    0  0.00000000000E+00  0.00000000000E+00  0.12525980253E-10  0.17130000000E+03  0.17130000000E+03 0. -1.
       11    1    1    2    0    0  0.56015621016E-01 -0.67878122816E-01  0.17029556278E+00  0.19169253840E+00  0.51109989000E-03 0. -1.
     -623    1    1    2    0    0 -0.10030764428E+01 -0.35529882158E+00  0.13658391506E+01  0.17130875026E+03  0.17130000000E+03 0. -1.
      622    1    1    2    0    0  0.94706082183E+00  0.42317694440E+00  0.24638652540E+01  0.37995572000E+01  0.27000000000E+01 0. -1.
</event>
<event>
 5   0  0.6580500E-04  0.9118800E+02  0.7818608E-02  0.1180000E+00
       11   -1    0    0    0    0  0.00000000000E+00  0.00000000000E+00  0.39999999673E+01  0.40000000000E+01  0.51109989000E-03 0. -1.
     -623   -1    0    0    0    0  0.00000000000E+00  0.00000000000E+00  0.12525980253E-10  0.17130000000E+03  0.17130000000E+03 0. -1.
       11    1    1    2    0    0 -0.26000962552E+00 -0.31610553098E+00 -0.18356679841E+00  0.44858080964E+00  0.51109989000E-03 0. -1.
     -623    1    1    2    0    0  0.17140344348E+00  0.66355067224E+00  0.19235416412E+01  0.17131217029E+03  0.17130000000E+03 0. -1.
      622    1    1    2    0    0  0.88606182039E-01 -0.34744514126E+00  0.22600251246E+01  0.35392488957E+01  0.27000000000E+01 0. -1.
</event>
<event>
 5   0  0.6580500E-04  0.9118800E+02  0.7818608E-02  0.1180000E+00
       11   -1    0    0    0    0  0.00000000000E+00  0.00000000000E+00  0.39999999673E+01  0.40000000000E+01  0.51109989000E-03 0. -1.
     -623   -1    0    0    0    0  0.00000000000E+00  0.00000000000E+00  0.12525980253E-10  0.17130000000E+03  0.17130000000E+03 0.  1.
       11    1    1    2    0    0 -0.38882455171E-01 -0.22258017018E-01  0.10836897019E+00  0.11726619106E+00  0.51109989000E-03 0. -1.
     -623    1    1    2    0    0 -0.25786980298E-01 -0.39031065464E+00  0.11387443765E+01  0.17130423155E+03  0.17130000000E+03 0.  1.
      622    1    1    2    0    0  0.64669435468E-01  0.41256867165E+00  0.27528866206E+01  0.38785022613E+01  0.27000000000E+01 0. -1.
</event>
<event>
 5   0  0.6580500E-04  0.9118800E+02  0.7818608E-02  0.1180000E+00
       11   -1    0    0    0    0  0.00000000000E+00  0.00000000000E+00  0.39999999673E+01  0.40000000000E+01  0.51109989000E-03 0. -1.
     -623   -1    0    0    0    0  0.00000000000E+00  0.00000000000E+00  0.12525980253E-10  0.17130000000E+03  0.17130000000E+03 0.  1.
       11    1    1    2    0    0 -0.68507802328E-01 -0.31653434150E+00  0.29955109036E+00  0.44115578347E+00  0.51109989000E-03 0. -1.
     -623    1    1    2    0    0 -0.10677555003E-01  0.70260443834E+00  0.14272287324E+01  0.17130738673E+03  0.17130000000E+03 0.  1.
      622    1    1    2    0    0  0.79185357331E-01 -0.38607009684E+00  0.22732201446E+01  0.35514574848E+01  0.27000000000E+01 0. -1.
</event>
<event>
 5   0  0.6580500E-04  0.9118800E+02  0.7818608E-02  0.1180000E+00
       11   -1    0    0    0    0  0.00000000000E+00  0.00000000000E+00  0.39999999673E+01  0.40000000000E+01  0.51109989000E-03 0.  1.
     -623   -1    0    0    0    0  0.00000000000E+00  0.00000000000E+00  0.12525980253E-10  0.17130000000E+03  0.17130000000E+03 0. -1.
       11    1    1    2    0    0 -0.22578594827E-01  0.50675647645E-01 -0.38201397181E-01  0.67360390267E-01  0.51109989000E-03 0.  1.
     -623    1    1    2    0    0  0.55624297486E-01 -0.11435988801E+00  0.11855030099E+01  0.17130414936E+03  0.17130000000E+03 0. -1.
      622    1    1    2    0    0 -0.33045702658E-01  0.63684240364E-01  0.28526983547E+01  0.39284902448E+01  0.27000000000E+01 0.  1.
</event>
<event>
 5   0  0.6580500E-04  0.9118800E+02  0.7818608E-02  0.1180000E+00
       11   -1    0    0    0    0  0.00000000000E+00  0.00000000000E+00  0.39999999673E+01  0.40000000000E+01  0.51109989000E-03 0.  1.
     -623   -1    0    0    0    0  0.00000000000E+00  0.00000000000E+00  0.12525980253E-10  0.17130000000E+03  0.17130000000E+03 0.  1.
       11    1    1    2    0    0  0.53470087479E+00 -0.26761254542E+00  0.56610671212E+00  0.82340668609E+00  0.51109989000E-03 0.  1.
     -623    1    1    2    0    0 -0.17965884056E+00  0.28802276883E+00  0.18180515366E+01  0.17130998379E+03  0.17130000000E+03 0.  1.
      622    1    1    2    0    0 -0.35504203423E+00 -0.20410223407E-01  0.16158417186E+01  0.31666095249E+01  0.27000000000E+01 0.  1.
</event>
<event>
 5   0  0.6580500E-04  0.9118800E+02  0.7818608E-02  0.1180000E+00
       11   -1    0    0    0    0  0.00000000000E+00  0.00000000000E+00  0.39999999673E+01  0.40000000000E+01  0.51109989000E-03 0.  1.
     -623   -1    0    0    0    0  0.00000000000E+00  0.00000000000E+00  0.12525980253E-10  0.17130000000E+03  0.17130000000E+03 0.  1.
       11    1    1    2    0    0  0.33739096405E+00  0.53673737765E+00 -0.51174034994E+00  0.81473806967E+00  0.51109989000E-03 0.  1.
     -623    1    1    2    0    0  0.23326459037E+00 -0.48343706176E+00  0.29761385217E+01  0.17132669239E+03  0.17130000000E+03 0.  1.
      622    1    1    2    0    0 -0.57065555441E+00 -0.53300315887E-01  0.15356017956E+01  0.31585695434E+01  0.27000000000E+01 0.  1.
</event>
<event>
 5   0  0.6580500E-04  0.9118800E+02  0.7818608E-02  0.1180000E+00
       11   -1    0    0    0    0  0.00000000000E+00  0.00000000000E+00  0.39999999673E+01  0.40000000000E+01  0.51109989000E-03 0. -1.
     -623   -1    0    0    0    0  0.00000000000E+00  0.00000000000E+00  0.12525980253E-10  0.17130000000E+03  0.17130000000E+03 0.  1.
       11    1    1    2    0    0  0.32711533632E+00 -0.59196731329E+00  0.35468238558E+00  0.76369470282E+00  0.51109989000E-03 0. -1.
     -623    1    1    2    0    0 -0.13311025997E+00  0.32070296525E+00  0.19129313828E+01  0.17131103256E+03  0.17130000000E+03 0.  1.
      622    1    1    2    0    0 -0.19400507635E+00  0.27126434804E+00  0.17323861990E+01  0.32252727417E+01  0.27000000000E+01 0. -1.
</event>
<event>
 5   0  0.6580500E-04  0.9118800E+02  0.7818608E-02  0.1180000E+00
       11   -1    0    0    0    0  0.00000000000E+00  0.00000000000E+00  0.39999999673E+01  0.40000000000E+01  0.51109989000E-03 0.  1.
     -623   -1    0    0    0    0  0.00000000000E+00  0.00000000000E+00  0.12525980253E-10  0.17130000000E+03  0.17130000000E+03 0. -1.
       11    1    1    2    0    0 -0.11761622716E+00 -0.39301369591E-01  0.46694157022E-01  0.13250954708E+00  0.51109989000E-03 0.  1.
     -623    1    1    2    0    0  0.32062362397E+00  0.25506487453E+00  0.12068414178E+01  0.17130474110E+03  0.17130000000E+03 0. -1.
      622    1    1    2    0    0 -0.20300739681E+00 -0.21576350493E+00  0.27464643926E+01  0.38627493516E+01  0.27000000000E+01 0.  1.
</event>
<event>
 5   0  0.6580500E-04  0.9118800E+02  0.7818608E-02  0.1180000E+00
       11   -1    0    0    0    0  0.00000000000E+00  0.00000000000E+00  0.39999999673E+01  0.40000000000E+01  0.51109989000E-03 0. -1.
     -623   -1    0    0    0    0  0.00000000000E+00  0.00000000000E+00  0.12525980253E-10  0.17130000000E+03  0.17130000000E+03 0. -1.
       11    1    1    2    0    0  0.16759347097E+00  0.21188406801E+00 -0.11976609713E+00  0.29551075959E+00  0.51109989000E-03 0. -1.
     -623    1    1    2    0    0 -0.68620577290E+00  0.90853235463E+00  0.19287189674E+01  0.17131464113E+03  0.17130000000E+03 0. -1.
      622    1    1    2    0    0  0.51861230192E+00 -0.11204164226E+01  0.21910470971E+01  0.36898481082E+01  0.27000000000E+01 0. -1.
</event>
<event>
 5   0  0.6580500E-04  0.9118800E+02  0.7818608E-02  0.1180000E+00
       11   -1    0    0    0    0  0.00000000000E+00  0.00000000000E+00  0.39999999673E+01  0.40000000000E+01  0.51109989000E-03 0.  1.
     -623   -1    0    0    0    0  0.00000000000E+00  0.00000000000E+00  0.12525980253E-10  0.17130000000E+03  0.17130000000E+03 0.  1.
       11    1    1    2    0    0 -0.13169541338E+00  0.18747349488E-01 -0.63405546254E-01  0.14736237490E+00  0.51109989000E-03 0.  1.
     -623    1    1    2    0    0  0.78923512899E+00  0.14989147776E+00  0.14114706795E+01  0.17130769863E+03  0.17130000000E+03 0.  1.
      622    1    1    2    0    0 -0.65753971562E+00 -0.16863882725E+00  0.26519348341E+01  0.38449389977E+01  0.27000000000E+01 0.  1.
</event>
<event>
 5   0  0.6580500E-04  0.9118800E+02  0.7818608E-02  0.1180000E+00
       11   -1    0    0    0    0  0.00000000000E+00  0.00000000000E+00  0.39999999673E+01  0.40000000000E+01  0.51109989000E-03 0.  1.
     -623   -1    0    0    0    0  0.00000000000E+00  0.00000000000E+00  0.12525980253E-10  0.17130000000E+03  0.17130000000E+03 0. -1.
       11    1    1    2    0    0  0.27979157396E+00  0.86342077627E-01  0.18263077885E+00  0.34509787283E+00  0.51109989000E-03 0.  1.
     -623    1    1    2    0    0 -0.42795555938E+00  0.11547389783E+00  0.13758358166E+01  0.17130609856E+03  0.17130000000E+03 0. -1.
      622    1    1    2    0    0  0.14816398542E+00 -0.20181597545E+00  0.24415333719E+01  0.36488035656E+01  0.27000000000E+01 0.  1.
</event>
<event>
 5   0  0.6580500E-04  0.9118800E+02  0.7818608E-02  0.1180000E+00
       11   -1    0    0    0    0  0.00000000000E+00  0.00000000000E+00  0.39999999673E+01  0.40000000000E+01  0.51109989000E-03 0. -1.
     -623   -1    0    0    0    0  0.00000000000E+00  0.00000000000E+00  0.12525980253E-10  0.17130000000E+03  0.17130000000E+03 0.  1.
       11    1    1    2    0    0 -0.16835466603E+00  0.57344652265E-01  0.23637863786E+00  0.29581552424E+00  0.51109989000E-03 0. -1.
     -623    1    1    2    0    0  0.53334486166E-01 -0.22161827608E+00  0.12424539350E+01  0.17130465741E+03  0.17130000000E+03 0.  1.
      622    1    1    2    0    0  0.11502017987E+00  0.16427362381E+00  0.25211673945E+01  0.36995270639E+01  0.27000000000E+01 0. -1.
</event>
<event>
 5   0  0.6580500E-04  0.9118800E+02  0.7818608E-02  0.1180000E+00
       11   -1    0    0    0    0  0.00000000000E+00  0.00000000000E+00  0.39999999673E+01  0.40000000000E+01  0.51109989000E-03 0.  1.
     -623   -1    0    0    0    0  0.00000000000E+00  0.00000000000E+00  0.12525980253E-10  0.17130000000E+03  0.17130000000E+03 0. -1.
       11    1    1    2    0    0  0.50051918778E+00  0.46813947694E+00  0.58791450482E+00  0.90294947444E+00  0.51109989000E-03 0.  1.
     -623    1    1    2    0    0 -0.16487631862E+01  0.21223421872E+00  0.28416347479E+01  0.17133163266E+03  0.17130000000E+03 0. -1.
      622    1    1    2    0    0  0.11482439984E+01 -0.68037369566E+00  0.57045071464E+00  0.30654178612E+01  0.27000000000E+01 0.  0.
</event>
<event>
 5   0  0.6580500E-04  0.9118800E+02  0.7818608E-02  0.1180000E+00
       11   -1    0    0    0    0  0.00000000000E+00  0.00000000000E+00  0.39999999673E+01  0.40000000000E+01  0.51109989000E-03 0. -1.
     -623   -1    0    0    0    0  0.00000000000E+00  0.00000000000E+00  0.12525980253E-10  0.17130000000E+03  0.17130000000E+03 0.  1.
       11    1    1    2    0    0  0.18483696701E-01  0.54301562457E-01  0.34689216543E-01  0.67036629513E-01  0.51109989000E-03 0. -1.
     -623    1    1    2    0    0  0.13337290065E+00 -0.42326439320E+00  0.11395917459E+01  0.17130436542E+03  0.17130000000E+03 0.  1.
      622    1    1    2    0    0 -0.15185659736E+00  0.36896283074E+00  0.28257190049E+01  0.39285979549E+01  0.27000000000E+01 0. -1.
</event>
<event>
 5   0  0.6580500E-04  0.9118800E+02  0.7818608E-02  0.1180000E+00
       11   -1    0    0    0    0  0.00000000000E+00  0.00000000000E+00  0.39999999673E+01  0.40000000000E+01  0.51109989000E-03 0.  1.
     -623   -1    0    0    0    0  0.00000000000E+00  0.00000000000E+00  0.12525980253E-10  0.17130000000E+03  0.17130000000E+03 0. -1.
       11    1    1    2    0    0  0.12378618668E+00  0.57907853604E-01  0.78357920548E-01  0.15753274090E+00  0.51109989000E-03 0.  1.
     -623    1    1    2    0    0  0.16792027819E+00 -0.59994494071E+00  0.12662665249E+01  0.17130581298E+03  0.17130000000E+03 0. -1.
      622    1    1    2    0    0 -0.29170646487E+00  0.54203708710E+00  0.26553755219E+01  0.38366542752E+01  0.27000000000E+01 0.  1.
</event>
<event>
 5   0  0.6580500E-04  0.9118800E+02  0.7818608E-02  0.1180000E+00
       11   -1    0    0    0    0  0.00000000000E+00  0.00000000000E+00  0.39999999673E+01  0.40000000000E+01  0.51109989000E-03 0.  1.
     -623   -1    0    0    0    0  0.00000000000E+00  0.00000000000E+00  0.12525980253E-10  0.17130000000E+03  0.17130000000E+03 0.  1.
       11    1    1    2    0    0 -0.16359514287E-01  0.29020186780E+00  0.26422739557E+00  0.39281183227E+00  0.51109989000E-03 0.  1.
     -623    1    1    2    0    0  0.73378118804E-01 -0.64660034496E+00  0.13815265692E+01  0.17130680691E+03  0.17130000000E+03 0.  1.
      622    1    1    2    0    0 -0.57018604517E-01  0.35639847715E+00  0.23542460026E+01  0.36003812626E+01  0.27000000000E+01 0.  1.
</event>
<event>
 5   0  0.6580500E-04  0.9118800E+02  0.7818608E-02  0.1180000E+00
       11   -1    0    0    0    0  0.00000000000E+00  0.00000000000E+00  0.39999999673E+01  0.40000000000E+01  0.51109989000E-03 0.  1.
     -623   -1    0    0    0    0  0.00000000000E+00  0.00000000000E+00  0.12525980253E-10  0.17130000000E+03  0.17130000000E+03 0. -1.
       11    1    1    2    0    0 -0.77125244595E+00  0.41080850648E+00  0.48545269540E+00  0.99962920379E+00  0.51109989000E-03 0.  1.
     -623    1    1    2    0    0  0.74826402703E+00  0.22276729343E+00  0.24203068519E+01  0.17131887640E+03  0.17130000000E+03 0. -1.
      622    1    1    2    0    0  0.22988418928E-01 -0.63357579990E+00  0.10942404201E+01  0.29814944002E+01  0.27000000000E+01 0.  1.
</event>
<event>
 5   0  0.6580500E-04  0.9118800E+02  0.7818608E-02  0.1180000E+00
       11   -1    0    0    0    0  0.00000000000E+00  0.00000000000E+00  0.39999999673E+01  0.40000000000E+01  0.51109989000E-03 0.  1.
     -623   -1    0    0    0    0  0.00000000000E+00  0.00000000000E+00  0.12525980253E-10  0.17130000000E+03  0.17130000000E+03 0.  1.
       11    1    1    2    0    0 -0.37578705492E-01 -0.12531127466E+00  0.64208571941E-01  0.14573289470E+00  0.51109989000E-03 0.  1.
     -623    1    1    2    0    0  0.46079745500E+00  0.28544217276E+00  0.12302447556E+01  0.17130527521E+03  0.17130000000E+03 0.  1.
      622    1    1    2    0    0 -0.42321874951E+00 -0.16013089809E+00  0.27055466398E+01  0.38489918985E+01  0.27000000000E+01 0.  1.
</event>
<event>
 5   0  0.6580500E-04  0.9118800E+02  0.7818608E-02  0.1180000E+00
       11   -1    0    0    0    0  0.00000000000E+00  0.00000000000E+00  0.39999999673E+01  0.40000000000E+01  0.51109989000E-03 0. -1.
     -623   -1    0    0    0    0  0.00000000000E+00  0.00000000000E+00  0.12525980253E-10  0.17130000000E+03  0.17130000000E+03 0.  1.
       11    1    1    2    0    0 -0.14391397250E+00  0.54651399857E+00 -0.31131638161E+00  0.64521851553E+00  0.51109989000E-03 0. -1.
     -623    1    1    2    0    0 -0.25403751137E+00 -0.85736334688E+00  0.24193167753E+01  0.17131941717E+03  0.17130000000E+03 0.  1.
      622    1    1    2    0    0  0.39795148388E+00  0.31084934832E+00  0.18919995737E+01  0.33353643111E+01  0.27000000000E+01 0. -1.
</event>
<event>
 5   0  0.6580500E-04  0.9118800E+02  0.7818608E-02  0.1180000E+00
       11   -1    0    0    0    0  0.00000000000E+00  0.00000000000E+00  0.39999999673E+01  0.40000000000E+01  0.51109989000E-03 0.  1.
     -623   -1    0    0    0    0  0.00000000000E+00  0.00000000000E+00  0.12525980253E-10  0.17130000000E+03  0.17130000000E+03 0.  1.
       11    1    1    2    0    0  0.11007360252E+00  0.15663795307E+00 -0.31360543362E-01  0.19399843097E+00  0.51109989000E-03 0.  1.
     -623    1    1    2    0    0 -0.12292437797E-01 -0.11342058220E+00  0.13587323092E+01  0.17130542656E+03  0.17130000000E+03 0.  1.
      622    1    1    2    0    0 -0.97781164721E-01 -0.43217370876E-01  0.26726282016E+01  0.38005750093E+01  0.27000000000E+01 0.  1.
</event>
<event>
 5   0  0.6580500E-04  0.9118800E+02  0.7818608E-02  0.1180000E+00
       11   -1    0    0    0    0  0.00000000000E+00  0.00000000000E+00  0.39999999673E+01  0.40000000000E+01  0.51109989000E-03 0.  1.
     -623   -1    0    0    0    0  0.00000000000E+00  0.00000000000E+00  0.12525980253E-10  0.17130000000E+03  0.17130000000E+03 0.  1.
       11    1    1    2    0    0  0.12056587778E+00  0.20835347094E+00  0.18579416925E+00  0.30408392639E+00  0.51109989000E-03 0.  1.
     -623    1    1    2    0    0  0.45077139142E+00  0.32436056796E+00  0.14248172256E+01  0.17130682563E+03  0.17130000000E+03 0.  1.
      622    1    1    2    0    0 -0.57133726920E+00 -0.53271403890E+00  0.23893885725E+01  0.36890904397E+01  0.27000000000E+01 0.  1.
</event>
<event>
 5   0  0.6580500E-04  0.9118800E+02  0.7818608E-02  0.1180000E+00
       11   -1    0    0    0    0  0.00000000000E+00  0.00000000000E+00  0.39999999673E+01  0.40000000000E+01  0.51109989000E-03 0. -1.
     -623   -1    0    0    0    0  0.00000000000E+00  0.00000000000E+00  0.12525980253E-10  0.17130000000E+03  0.17130000000E+03 0.  1.
       11    1    1    2    0    0  0.54497759139E-01  0.18118739732E+00 -0.80224639121E-02  0.18937660851E+00  0.51109989000E-03 0. -1.
     -623    1    1    2    0    0  0.63022273987E+00 -0.45842662862E+00  0.14339287006E+01  0.17130777416E+03  0.17130000000E+03 0.  1.
      622    1    1    2    0    0 -0.68472049901E+00  0.27723923129E+00  0.25740937307E+01  0.38028492328E+01  0.27000000000E+01 0. -1.
</event>
<event>
 5   0  0.6580500E-04  0.9118800E+02  0.7818608E-02  0.1180000E+00
       11   -1    0    0    0    0  0.00000000000E+00  0.00000000000E+00  0.39999999673E+01  0.40000000000E+01  0.51109989000E-03 0. -1.
     -623   -1    0    0    0    0  0.00000000000E+00  0.00000000000E+00  0.12525980253E-10  0.17130000000E+03  0.17130000000E+03 0. -1.
       11    1    1    2    0    0 -0.19301613376E+00  0.23177213723E+00  0.19259139880E+00  0.35786206784E+00  0.51109989000E-03 0. -1.
     -623    1    1    2    0    0  0.49016507001E+00 -0.49477034959E+00  0.14062849383E+01  0.17130718811E+03  0.17130000000E+03 0. -1.
      622    1    1    2    0    0 -0.29714893626E+00  0.26299821236E+00  0.24011236303E+01  0.36349498260E+01  0.27000000000E+01 0. -1.
</event>
<event>
 5   0  0.6580500E-04  0.9118800E+02  0.7818608E-02  0.1180000E+00
       11   -1    0    0    0    0  0.00000000000E+00  0.00000000000E+00  0.39999999673E+01  0.40000000000E+01  0.51109989000E-03 0.  1.
     -623   -1    0    0    0    0  0.00000000000E+00  0.00000000000E+00  0.12525980253E-10  0.17130000000E+03  0.17130000000E+03 0.  1.
       11    1    1    2    0    0 -0.40304167235E+00  0.15035058141E+00 -0.17045764871E+00  0.46271368924E+00  0.51109989000E-03 0.  1.
     -623    1    1    2    0    0  0.65210615288E+00 -0.42539942355E+00  0.19355082607E+01  0.17131270356E+03  0.17130000000E+03 0.  1.
      622    1    1    2    0    0 -0.24906448052E+00  0.27504884213E+00  0.22349493554E+01  0.35245827557E+01  0.27000000000E+01 0.  1.
</event>
<event>
 5   0  0.6580500E-04  0.9118800E+02  0.7818608E-02  0.1180000E+00
       11   -1    0    0    0    0  0.00000000000E+00  0.00000000000E+00  0.39999999673E+01  0.40000000000E+01  0.51109989000E-03 0. -1.
     -623   -1    0    0    0    0  0.00000000000E+00  0.00000000000E+00  0.12525980253E-10  0.17130000000E+03  0.17130000000E+03 0.  1.
       11    1    1    2    0    0  0.11710122901E+00 -0.18498654688E-01  0.29134712350E+00  0.31454460042E+00  0.51109989000E-03 0. -1.
     -623    1    1    2    0    0 -0.17223015386E-01  0.62774164235E-01  0.12088259324E+01  0.17130427752E+03  0.17130000000E+03 0.  1.
      622    1    1    2    0    0 -0.99878213621E-01 -0.44275509547E-01  0.24998269115E+01  0.36811778775E+01  0.27000000000E+01 0. -1.
</event>
<event>
 5   0  0.6580500E-04  0.9118800E+02  0.7818608E-02  0.1180000E+00
       11   -1    0    0    0    0  0.00000000000E+00  0.00000000000E+00  0.39999999673E+01  0.40000000000E+01  0.51109989000E-03 0.  1.
     -623   -1    0    0    0    0  0.00000000000E+00  0.00000000000E+00  0.12525980253E-10  0.17130000000E+03  0.17130000000E+03 0.  1.
       11    1    1    2    0    0  0.23308734112E+00 -0.19979856573E+00  0.60721093112E+00  0.68040763631E+00  0.51109989000E-03 0.  1.
     -623    1    1    2    0    0 -0.29041540053E+00  0.17658958327E+00  0.14740476757E+01  0.17130667921E+03  0.17130000000E+03 0.  1.
      622    1    1    2    0    0  0.57328059409E-01  0.23208982453E-01  0.19187413606E+01  0.33129131549E+01  0.27000000000E+01 0.  1.
</event>
<event>
 5   0  0.6580500E-04  0.9118800E+02  0.7818608E-02  0.1180000E+00
       11   -1    0    0    0    0  0.00000000000E+00  0.00000000000E+00  0.39999999673E+01  0.40000000000E+01  0.51109989000E-03 0. -1.
     -623   -1    0    0    0    0  0.00000000000E+00  0.00000000000E+00  0.12525980253E-10  0.17130000000E+03  0.17130000000E+03 0. -1.
       11    1    1    2    0    0  0.37244494361E+00  0.69162621204E-01  0.45506757150E+00  0.59210257561E+00  0.51109989000E-03 0. -1.
     -623    1    1    2    0    0  0.87141878185E-01 -0.38144062135E+00  0.15539530634E+01  0.17130749505E+03  0.17130000000E+03 0. -1.
      622    1    1    2    0    0 -0.45958682179E+00  0.31227800015E+00  0.19909793324E+01  0.34004023730E+01  0.27000000000E+01 0. -1.
</event>
<event>
 5   0  0.6580500E-04  0.9118800E+02  0.7818608E-02  0.1180000E+00
       11   -1    0    0    0    0  0.00000000000E+00  0.00000000000E+00  0.39999999673E+01  0.40000000000E+01  0.51109989000E-03 0. -1.
     -623   -1    0    0    0    0  0.00000000000E+00  0.00000000000E+00  0.12525980253E-10  0.17130000000E+03  0.17130000000E+03 0.  1.
       11    1    1    2    0    0 -0.10184834972E+00 -0.38622221150E+00  0.66831731457E+00  0.77858138763E+00  0.51109989000E-03 0. -1.
     -623    1    1    2    0    0  0.14013252757E-01  0.66021799699E+00  0.16148280782E+01  0.17130888405E+03  0.17130000000E+03 0.  1.
      622    1    1    2    0    0  0.87835096958E-01 -0.27399578549E+00  0.17168545746E+01  0.32125345640E+01  0.27000000000E+01 0. -1.
</event>
<event>
 5   0  0.6580500E-04  0.9118800E+02  0.7818608E-02  0.1180000E+00
       11   -1    0    0    0    0  0.00000000000E+00  0.00000000000E+00  0.39999999673E+01  0.40000000000E+01  0.51109989000E-03 0. -1.
     -623   -1    0    0    0    0  0.00000000000E+00  0.00000000000E+00  0.12525980253E-10  0.17130000000E+03  0.17130000000E+03 0. -1.
       11    1    1    2    0    0 -0.16831256009E-01  0.46442625032E-01 -0.36376993478E-01  0.61349453748E-01  0.51109989000E-03 0. -1.
     -623    1    1    2    0    0  0.10725417786E+00 -0.43487096329E+00  0.12033518091E+01  0.17130481217E+03  0.17130000000E+03 0. -1.
      622    1    1    2    0    0 -0.90422921849E-01  0.38842833826E+00  0.28330251517E+01  0.39338383786E+01  0.27000000000E+01 0.  0.
</event>
<event>
 5   0  0.6580500E-04  0.9118800E+02  0.7818608E-02  0.1180000E+00
       11   -1    0    0    0    0  0.00000000000E+00  0.00000000000E+00  0.39999999673E+01  0.40000000000E+01  0.51109989000E-03 0. -1.
     -623   -1    0    0    0    0  0.00000000000E+00  0.00000000000E+00  0.12525980253E-10  0.17130000000E+03  0.17130000000E+03 0.  1.
       11    1    1    2    0    0  0.46559307678E-01  0.89486468584E-01 -0.30974572581E-01  0.10552384830E+00  0.51109989000E-03 0. -1.
     -623    1    1    2    0    0  0.50706514430E+00 -0.52540264529E-01  0.12877092431E+01  0.17130559848E+03  0.17130000000E+03 0.  1.
      622    1    1    2    0    0 -0.55362445198E+00 -0.36946204055E-01  0.27432652968E+01  0.38888776716E+01  0.27000000000E+01 0. -1.
</event>
<event>
 5   0  0.6580500E-04  0.9118800E+02  0.7818608E-02  0.1180000E+00
       11   -1    0    0    0    0  0.00000000000E+00  0.00000000000E+00  0.39999999673E+01  0.40000000000E+01  0.51109989000E-03 0. -1.
     -623   -1    0    0    0    0  0.00000000000E+00  0.00000000000E+00  0.12525980253E-10  0.17130000000E+03  0.17130000000E+03 0.  1.
       11    1    1    2    0    0  0.35991531561E+00 -0.26560589812E+00  0.13074633935E+00  0.46602617309E+00  0.51109989000E-03 0. -1.
     -623    1    1    2    0    0  0.17711389908E+00  0.14592208513E+00  0.16697741895E+01  0.17130829171E+03  0.17130000000E+03 0.  1.
      622    1    1    2    0    0 -0.53702921469E+00  0.11968381300E+00  0.21994794385E+01  0.35256821174E+01  0.27000000000E+01 0. -1.
</event>
<event>
 5   0  0.6580500E-04  0.9118800E+02  0.7818608E-02  0.1180000E+00
       11   -1    0    0    0    0  0.00000000000E+00  0.00000000000E+00  0.39999999673E+01  0.40000000000E+01  0.51109989000E-03 0.  1.
     -623   -1    0    0    0    0  0.00000000000E+00  0.00000000000E+00  0.12525980253E-10  0.17130000000E+03  0.17130000000E+03 0.  1.
       11    1    1    2    0    0  0.11341216271E-01  0.28997440796E+00  0.31421202707E+00  0.42771864542E+00  0.51109989000E-03 0.  1.
     -623    1    1    2    0    0 -0.29244200301E+00 -0.10750998932E+01  0.15173874147E+01  0.17131034361E+03  0.17130000000E+03 0.  1.
      622    1    1    2    0    0  0.28110078674E+00  0.78512548520E+00  0.21684005256E+01  0.35619377478E+01  0.27000000000E+01 0.  1.
</event>
<event>
 5   0  0.6580500E-04  0.9118800E+02  0.7818608E-02  0.1180000E+00
       11   -1    0    0    0    0  0.00000000000E+00  0.00000000000E+00  0.39999999673E+01  0.40000000000E+01  0.51109989000E-03 0.  1.
     -623   -1    0    0    0    0  0.00000000000E+00  0.00000000000E+00  0.12525980253E-10  0.17130000000E+03  0.17130000000E+03 0.  1.
       11    1    1    2    0    0  0.13572678086E+00 -0.13870855523E+00  0.23555961248E+00  0.30520552844E+00  0.51109989000E-03 0.  1.
     -623    1    1    2    0    0 -0.29982648131E+00 -0.51481984647E-01  0.12620254709E+01  0.17130491894E+03  0.17130000000E+03 0.  1.
      622    1    1    2    0    0  0.16409970044E+00  0.19019053987E+00  0.25024148840E+01  0.36898755270E+01  0.27000000000E+01 0.  1.
</event>
<event>
 5   0  0.6580500E-04  0.9118800E+02  0.7818608E-02  0.1180000E+00
       11   -1    0    0    0    0  0.00000000000E+00  0.00000000000E+00  0.39999999673E+01  0.40000000000E+01  0.51109989000E-03 0.  1.
     -623   -1    0    0    0    0  0.00000000000E+00  0.00000000000E+00  0.12525980253E-10  0.17130000000E+03  0.17130000000E+03 0.  1.
       11    1    1    2    0    0  0.13422367861E+00  0.45533807175E-01  0.41660390561E-01  0.14773345207E+00  0.51109989000E-03 0.  1.
     -623    1    1    2    0    0  0.67430778545E+00  0.11562514911E+01  0.16451234276E+01  0.17131312863E+03  0.17130000000E+03 0.  1.
      622    1    1    2    0    0 -0.80853146406E+00 -0.12017852982E+01  0.23132161492E+01  0.38391379220E+01  0.27000000000E+01 0.  1.
</event>
<event>
 5   0  0.6580500E-04  0.9118800E+02  0.7818608E-02  0.1180000E+00
       11   -1    0    0    0    0  0.00000000000E+00  0.00000000000E+00  0.39999999673E+01  0.40000000000E+01  0.51109989000E-03 0.  1.
     -623   -1    0    0    0    0  0.00000000000E+00  0.00000000000E+00  0.12525980253E-10  0.17130000000E+03  0.17130000000E+03 0.  1.
       11    1    1    2    0    0  0.21244827777E+00  0.30081582533E+00  0.47006927354E+00  0.59715141685E+00  0.51109989000E-03 0.  1.
     -623    1    1    2    0    0 -0.11884717179E+00 -0.36959913044E+00  0.14732777823E+01  0.17130677533E+03  0.17130000000E+03 0.  1.
      622    1    1    2    0    0 -0.93601105983E-01  0.68783305111E-01  0.20566529115E+01  0.33960732484E+01  0.27000000000E+01 0.  1.
</event>
<event>
 5   0  0.6580500E-04  0.9118800E+02  0.7818608E-02  0.1180000E+00
       11   -1    0    0    0    0  0.00000000000E+00  0.00000000000E+00  0.39999999673E+01  0.40000000000E+01  0.51109989000E-03 0.  1.
     -623   -1    0    0    0    0  0.00000000000E+00  0.00000000000E+00  0.12525980253E-10  0.17130000000E+03  0.17130000000E+03 0. -1.
       11    1    1    2    0    0 -0.47788489095E-01 -0.10843537856E+00  0.42372780568E-01  0.12584786358E+00  0.51109989000E-03 0.  1.
     -623    1    1    2    0    0  0.57947204851E+00  0.10872605894E+00  0.12384640841E+01  0.17130549145E+03  0.17130000000E+03 0. -1.
      622    1    1    2    0    0 -0.53168355942E+00 -0.29068038074E-03  0.27191631027E+01  0.38686606818E+01  0.27000000000E+01 0.  1.
</event>
<event>
 5   0  0.6580500E-04  0.9118800E+02  0.7818608E-02  0.1180000E+00
       11   -1    0    0    0    0  0.00000000000E+00  0.00000000000E+00  0.39999999673E+01  0.40000000000E+01  0.51109989000E-03 0. -1.
     -623   -1    0    0    0    0  0.00000000000E+00  0.00000000000E+00  0.12525980253E-10  0.17130000000E+03  0.17130000000E+03 0. -1.
       11    1    1    2    0    0 -0.34448730389E+00 -0.11670609251E+00  0.18029859722E+00  0.40595524377E+00  0.51109989000E-03 0. -1.
     -623    1    1    2    0    0  0.12530838405E+01 -0.74124496192E+00  0.18320142285E+01  0.17131598273E+03  0.17130000000E+03 0. -1.
      622    1    1    2    0    0 -0.90859653658E+00  0.85795105443E+00  0.19876871416E+01  0.35780620245E+01  0.27000000000E+01 0.  0.
</event>
<event>
 5   0  0.6580500E-04  0.9118800E+02  0.7818608E-02  0.1180000E+00
       11   -1    0    0    0    0  0.00000000000E+00  0.00000000000E+00  0.39999999673E+01  0.40000000000E+01  0.51109989000E-03 0.  1.
     -623   -1    0    0    0    0  0.00000000000E+00  0.00000000000E+00  0.12525980253E-10  0.17130000000E+03  0.17130000000E+03 0. -1.
       11    1    1    2    0    0  0.20060586492E+00 -0.35246530364E+00  0.47295053635E+00  0.62302245093E+00  0.51109989000E-03 0.  1.
     -623    1    1    2    0    0 -0.19493138958E+00  0.58681871620E+00  0.15256337558E+01  0.17130790966E+03  0.17130000000E+03 0. -1.
      622    1    1    2    0    0 -0.56744753376E-02 -0.23435341256E+00  0.20014156753E+01  0.33690678869E+01  0.27000000000E+01 0.  1.
</event>
<event>
 5   0  0.6580500E-04  0.9118800E+02  0.7818608E-02  0.1180000E+00
       11   -1    0    0    0    0  0.00000000000E+00  0.00000000000E+00  0.39999999673E+01  0.40000000000E+01  0.51109989000E-03 0. -1.
     -623   -1    0    0    0    0  0.00000000000E+00  0.00000000000E+00  0.12525980253E-10  0.17130000000E+03  0.17130000000E+03 0.  1.
       11    1    1    2    0    0  0.49637764872E+00  0.31541836278E+00  0.99762440985E-01  0.59651682255E+00  0.51109989000E-03 0. -1.
     -623    1    1    2    0    0 -0.86478856132E-01  0.25432971333E+00  0.19708342776E+01  0.17131154763E+03  0.17130000000E+03 0.  1.
      622    1    1    2    0    0 -0.40989879259E+00 -0.56974807610E+00  0.19294032487E+01  0.33919355517E+01  0.27000000000E+01 0. -1.
</event>
<event>
 5   0  0.6580500E-04  0.9118800E+02  0.7818608E-02  0.1180000E+00
       11   -1    0    0    0    0  0.00000000000E+00  0.00000000000E+00  0.39999999673E+01  0.40000000000E+01  0.51109989000E-03 0.  1.
     -623   -1    0    0    0    0  0.00000000000E+00  0.00000000000E+00  0.12525980253E-10  0.17130000000E+03  0.17130000000E+03 0.  1.
       11    1    1    2    0    0 -0.70515837116E-01 -0.37805282150E-01  0.18720283961E+00  0.20358508547E+00  0.51109989000E-03 0.  1.
     -623    1    1    2    0    0  0.30247277479E+00 -0.75192890876E+00  0.12841165527E+01  0.17130673029E+03  0.17130000000E+03 0.  1.
      622    1    1    2    0    0 -0.23195693768E+00  0.78973419091E+00  0.25286805750E+01  0.37896846259E+01  0.27000000000E+01 0.  0.
</event>
<event>
 5   0  0.6580500E-04  0.9118800E+02  0.7818608E-02  0.1180000E+00
       11   -1    0    0    0    0  0.00000000000E+00  0.00000000000E+00  0.39999999673E+01  0.40000000000E+01  0.51109989000E-03 0. -1.
     -623   -1    0    0    0    0  0.00000000000E+00  0.00000000000E+00  0.12525980253E-10  0.17130000000E+03  0.17130000000E+03 0.  1.
       11    1    1    2    0    0  0.45185775978E+00  0.34231698156E+00  0.75938026927E-01  0.57194684726E+00  0.51109989000E-03 0. -1.
     -623    1    1    2    0    0 -0.61913709219E+00 -0.15341960712E+00  0.18451841354E+01  0.17131112507E+03  0.17130000000E+03 0.  1.
      622    1    1    2    0    0  0.16727933241E+00 -0.18889737444E+00  0.20788778050E+01  0.34169280826E+01  0.27000000000E+01 0. -1.
</event>
<event>
 5   0  0.6580500E-04  0.9118800E+02  0.7818608E-02  0.1180000E+00
       11   -1    0    0    0    0  0.00000000000E+00  0.00000000000E+00  0.39999999673E+01  0.40000000000E+01  0.51109989000E-03 0.  1.
     -623   -1    0    0    0    0  0.00000000000E+00  0.00000000000E+00  0.12525980253E-10  0.17130000000E+03  0.17130000000E+03 0. -1.
       11    1    1    2    0    0  0.31311712783E+00 -0.16928023871E-01 -0.24470226603E+00  0.39775413757E+00  0.51109989000E-03 0.  1.
     -623    1    1    2    0    0 -0.81735046195E+00  0.21537135747E+00  0.19428953656E+01  0.17131310309E+03  0.17130000000E+03 0.  1.
      622    1    1    2    0    0  0.50423333412E+00 -0.19844333360E+00  0.23018068678E+01  0.35891427763E+01  0.27000000000E+01 0.  1.
</event>
<event>
 5   0  0.6580500E-04  0.9118800E+02  0.7818608E-02  0.1180000E+00
       11   -1    0    0    0    0  0.00000000000E+00  0.00000000000E+00  0.39999999673E+01  0.40000000000E+01  0.51109989000E-03 0.  1.
     -623   -1    0    0    0    0  0.00000000000E+00  0.00000000000E+00  0.12525980253E-10  0.17130000000E+03  0.17130000000E+03 0. -1.
       11    1    1    2    0    0 -0.10116522736E-03  0.68746039624E-02 -0.32962644298E-01  0.33675919512E-01  0.51109989000E-03 0.  1.
     -623    1    1    2    0    0 -0.14572492791E+00 -0.74324979308E+00  0.12348088764E+01  0.17130612484E+03  0.17130000000E+03 0. -1.
      622    1    1    2    0    0  0.14582609314E+00  0.73637518912E+00  0.27981537353E+01  0.39601992368E+01  0.27000000000E+01 0.  0.
</event>
<event>
 5   0  0.6580500E-04  0.9118800E+02  0.7818608E-02  0.1180000E+00
       11   -1    0    0    0    0  0.00000000000E+00  0.00000000000E+00  0.39999999673E+01  0.40000000000E+01  0.51109989000E-03 0. -1.
     -623   -1    0    0    0    0  0.00000000000E+00  0.00000000000E+00  0.12525980253E-10  0.17130000000E+03  0.17130000000E+03 0. -1.
       11    1    1    2    0    0  0.57435448045E-01 -0.90912604432E-01 -0.84572124563E-01  0.13680876366E+00  0.51109989000E-03 0. -1.
     -623    1    1    2    0    0  0.28603301633E+00  0.16850428803E+00  0.13520686018E+01  0.17130565752E+03  0.17130000000E+03 0. -1.
      622    1    1    2    0    0 -0.34346846438E+00 -0.77591683597E-01  0.27325034901E+01  0.38575337171E+01  0.27000000000E+01 0. -1.
</event>
<event>
 5   0  0.6580500E-04  0.9118800E+02  0.7818608E-02  0.1180000E+00
       11   -1    0    0    0    0  0.00000000000E+00  0.00000000000E+00  0.39999999673E+01  0.40000000000E+01  0.51109989000E-03 0.  1.
     -623   -1    0    0    0    0  0.00000000000E+00  0.00000000000E+00  0.12525980253E-10  0.17130000000E+03  0.17130000000E+03 0.  1.
       11    1    1    2    0    0 -0.13789554417E+00  0.17036025006E+00 -0.27567018309E-01  0.22090268813E+00  0.51109989000E-03 0.  1.
     -623    1    1    2    0    0  0.85074283877E-01 -0.15859010456E+00  0.13921907147E+01  0.17130575175E+03  0.17130000000E+03 0.  1.
      622    1    1    2    0    0  0.52821260291E-01 -0.11770145496E-01  0.26353762710E+01  0.37733455595E+01  0.27000000000E+01 0.  1.
</event>
<event>
 5   0  0.6580500E-04  0.9118800E+02  0.7818608E-02  0.1180000E+00
       11   -1    0    0    0    0  0.00000000000E+00  0.00000000000E+00  0.39999999673E+01  0.40000000000E+01  0.51109989000E-03 0.  1.
     -623   -1    0    0    0    0  0.00000000000E+00  0.00000000000E+00  0.12525980253E-10  0.17130000000E+03  0.17130000000E+03 0.  1.
       11    1    1    2    0    0 -0.40104350774E-01 -0.11640616961E+00 -0.40463523753E-02  0.12318843072E+00  0.51109989000E-03 0.  1.
     -623    1    1    2    0    0  0.19036430430E+00  0.41357658297E+00  0.12492695694E+01  0.17130516034E+03  0.17130000000E+03 0.  1.
      622    1    1    2    0    0 -0.15025995353E+00 -0.29717041337E+00  0.27547767503E+01  0.38716512307E+01  0.27000000000E+01 0.  1.
</event>
<event>
 5   0  0.6580500E-04  0.9118800E+02  0.7818608E-02  0.1180000E+00
       11   -1    0    0    0    0  0.00000000000E+00  0.00000000000E+00  0.39999999673E+01  0.40000000000E+01  0.51109989000E-03 0. -1.
     -623   -1    0    0    0    0  0.00000000000E+00  0.00000000000E+00  0.12525980253E-10  0.17130000000E+03  0.17130000000E+03 0.  1.
       11    1    1    2    0    0  0.22973622555E+00 -0.16779259475E+00  0.11956851063E+00  0.30859354844E+00  0.51109989000E-03 0. -1.
     -623    1    1    2    0    0 -0.28286565388E+00  0.24504926840E+00  0.13736312920E+01  0.17130591620E+03  0.17130000000E+03 0.  1.
      622    1    1    2    0    0  0.53129428329E-01 -0.77256673657E-01  0.25068001648E+01  0.36854902518E+01  0.27000000000E+01 0. -1.
</event>
<event>
 5   0  0.6580500E-04  0.9118800E+02  0.7818608E-02  0.1180000E+00
       11   -1    0    0    0    0  0.00000000000E+00  0.00000000000E+00  0.39999999673E+01  0.40000000000E+01  0.51109989000E-03 0. -1.
     -623   -1    0    0    0    0  0.00000000000E+00  0.00000000000E+00  0.12525980253E-10  0.17130000000E+03  0.17130000000E+03 0.  1.
       11    1    1    2    0    0  0.88508154089E-01  0.28780215824E+00 -0.13084361131E-01  0.30138884743E+00  0.51109989000E-03 0. -1.
     -623    1    1    2    0    0 -0.82056017117E+00  0.37787249125E+00  0.17042998276E+01  0.17131085997E+03  0.17130000000E+03 0. -1.
      622    1    1    2    0    0  0.73205201709E+00 -0.66567464949E+00  0.23087845009E+01  0.36877511801E+01  0.27000000000E+01 0. -1.
</event>
<event>
 5   0  0.6580500E-04  0.9118800E+02  0.7818608E-02  0.1180000E+00
       11   -1    0    0    0    0  0.00000000000E+00  0.00000000000E+00  0.39999999673E+01  0.40000000000E+01  0.51109989000E-03 0.  1.
     -623   -1    0    0    0    0  0.00000000000E+00  0.00000000000E+00  0.12525980253E-10  0.17130000000E+03  0.17130000000E+03 0.  1.
       11    1    1    2    0    0 -0.97451949095E-01 -0.82387198515E-01 -0.46799058305E-01  0.13592257334E+00  0.51109989000E-03 0.  1.
     -623    1    1    2    0    0  0.77466449608E+00 -0.63182869102E+00  0.14776224009E+01  0.17130928953E+03  0.17130000000E+03 0.  1.
      622    1    1    2    0    0 -0.67721254698E+00  0.71421588953E+00  0.25691766248E+01  0.38547878930E+01  0.27000000000E+01 0.  0.
</event>
<event>
 5   0  0.6580500E-04  0.9118800E+02  0.7818608E-02  0.1180000E+00
       11   -1    0    0    0    0  0.00000000000E+00  0.00000000000E+00  0.39999999673E+01  0.40000000000E+01  0.51109989000E-03 0. -1.
     -623   -1    0    0    0    0  0.00000000000E+00  0.00000000000E+00  0.12525980253E-10  0.17130000000E+03  0.17130000000E+03 0.  1.
       11    1    1    2    0    0 -0.19300701694E+00  0.96484981305E-01  0.89591964480E-02  0.21596663777E+00  0.51109989000E-03 0. -1.
     -623    1    1    2    0    0  0.18577867423E+00 -0.14007595868E+00  0.13480026423E+01  0.17130546181E+03  0.17130000000E+03 0.  1.
      622    1    1    2    0    0  0.72283427088E-02  0.43590977379E-01  0.26430381286E+01  0.37785715517E+01  0.27000000000E+01 0. -1.
</event>
<event>
 5   0  0.6580500E-04  0.9118800E+02  0.7818608E-02  0.1180000E+00
       11   -1    0    0    0    0  0.00000000000E+00  0.00000000000E+00  0.39999999673E+01  0.40000000000E+01  0.51109989000E-03 0.  1.
     -623   -1    0    0    0    0  0.00000000000E+00  0.00000000000E+00  0.12525980253E-10  0.17130000000E+03  0.17130000000E+03 0.  1.
       11    1    1    2    0    0  0.29924396194E+00  0.13747802418E+00 -0.73236536884E-01  0.33735887041E+00  0.51109989000E-03 0.  1.
     -623    1    1    2    0    0  0.25567580417E+00 -0.62980218163E+00  0.17278122387E+01  0.17131006204E+03  0.17130000000E+03 0.  1.
      622    1    1    2    0    0 -0.55491976610E+00  0.49232415745E+00  0.23454242655E+01  0.36525790899E+01  0.27000000000E+01 0.  1.
</event>
<event>
 5   0  0.6580500E-04  0.9118800E+02  0.7818608E-02  0.1180000E+00
       11   -1    0    0    0    0  0.00000000000E+00  0.00000000000E+00  0.39999999673E+01  0.40000000000E+01  0.51109989000E-03 0. -1.
     -623   -1    0    0    0    0  0.00000000000E+00  0.00000000000E+00  0.12525980253E-10  0.17130000000E+03  0.17130000000E+03 0.  1.
       11    1    1    2    0    0  0.19541384639E+00 -0.15424770064E-01 -0.18476313808E+00  0.26937366856E+00  0.51109989000E-03 0. -1.
     -623    1    1    2    0    0  0.16085320180E+00 -0.29557290175E+00  0.16666205944E+01  0.17130843780E+03  0.17130000000E+03 0.  1.
      622    1    1    2    0    0 -0.35626704820E+00  0.31099767181E+00  0.25181425111E+01  0.37221885320E+01  0.27000000000E+01 0. -1.
</event>
<event>
 5   0  0.6580500E-04  0.9118800E+02  0.7818608E-02  0.1180000E+00
       11   -1    0    0    0    0  0.00000000000E+00  0.00000000000E+00  0.39999999673E+01  0.40000000000E+01  0.51109989000E-03 0.  1.
     -623   -1    0    0    0    0  0.00000000000E+00  0.00000000000E+00  0.12525980253E-10  0.17130000000E+03  0.17130000000E+03 0.  1.
       11    1    1    2    0    0 -0.44933291537E-01 -0.16078467711E-02 -0.12519348323E-01  0.46675273594E-01  0.51109989000E-03 0.  1.
     -623    1    1    2    0    0 -0.39984709811E+00  0.41988164472E+00  0.11973503283E+01  0.17130516579E+03  0.17130000000E+03 0.  1.
      622    1    1    2    0    0  0.44478038964E+00 -0.41827379795E+00  0.28151689874E+01  0.39481589371E+01  0.27000000000E+01 0.  1.
</event>
<event>
 5   0  0.6580500E-04  0.9118800E+02  0.7818608E-02  0.1180000E+00
       11   -1    0    0    0    0  0.00000000000E+00  0.00000000000E+00  0.39999999673E+01  0.40000000000E+01  0.51109989000E-03 0.  1.
     -623   -1    0    0    0    0  0.00000000000E+00  0.00000000000E+00  0.12525980253E-10  0.17130000000E+03  0.17130000000E+03 0. -1.
       11    1    1    2    0    0  0.43799950135E+00  0.50693417994E-01  0.20910148363E+00  0.48799290722E+00  0.51109989000E-03 0.  1.
     -623    1    1    2    0    0 -0.38803878042E+00 -0.37182676002E+00  0.15815007109E+01  0.17130814334E+03  0.17130000000E+03 0. -1.
      622    1    1    2    0    0 -0.49960720931E-01  0.32113334203E+00  0.22093977729E+01  0.35038637553E+01  0.27000000000E+01 0.  1.
</event>
<event>
 5   0  0.6580500E-04  0.9118800E+02  0.7818608E-02  0.1180000E+00
       11   -1    0    0    0    0  0.00000000000E+00  0.00000000000E+00  0.39999999673E+01  0.40000000000E+01  0.51109989000E-03 0. -1.
     -623   -1    0    0    0    0  0.00000000000E+00  0.00000000000E+00  0.12525980253E-10  0.17130000000E+03  0.17130000000E+03 0. -1.
       11    1    1    2    0    0 -0.48844640003E-03  0.12194666765E+00 -0.78764163850E-01  0.14517328632E+00  0.51109989000E-03 0. -1.
     -623    1    1    2    0    0  0.19102501949E+00 -0.19197666633E+00  0.13426549555E+01  0.17130547588E+03  0.17130000000E+03 0. -1.
      622    1    1    2    0    0 -0.19053657309E+00  0.70029998678E-01  0.27361091758E+01  0.38493508294E+01  0.27000000000E+01 0. -1.
</event>
<event>
 5   0  0.6580500E-04  0.9118800E+02  0.7818608E-02  0.1180000E+00
       11   -1    0    0    0    0  0.00000000000E+00  0.00000000000E+00  0.39999999673E+01  0.40000000000E+01  0.51109989000E-03 0. -1.
     -623   -1    0    0    0    0  0.00000000000E+00  0.00000000000E+00  0.12525980253E-10  0.17130000000E+03  0.17130000000E+03 0.  1.
       11    1    1    2    0    0  0.53161973462E+00  0.79582325132E-01  0.71721469360E-01  0.54230721837E+00  0.51109989000E-03 0. -1.
     -623    1    1    2    0    0 -0.13428857280E+00 -0.25948855530E+00  0.18291730378E+01  0.17131001501E+03  0.17130000000E+03 0.  1.
      622    1    1    2    0    0 -0.39733116182E+00  0.17990623016E+00  0.20991054602E+01  0.34476777745E+01  0.27000000000E+01 0. -1.
</event>
<event>
 5   0  0.6580500E-04  0.9118800E+02  0.7818608E-02  0.1180000E+00
       11   -1    0    0    0    0  0.00000000000E+00  0.00000000000E+00  0.39999999673E+01  0.40000000000E+01  0.51109989000E-03 0. -1.
     -623   -1    0    0    0    0  0.00000000000E+00  0.00000000000E+00  0.12525980253E-10  0.17130000000E+03  0.17130000000E+03 0.  1.
       11    1    1    2    0    0  0.26907309181E-01 -0.64981513672E-03 -0.29920243708E-02  0.27085770798E-01  0.51109989000E-03 0. -1.
     -623    1    1    2    0    0 -0.29288038198E+00  0.45108482924E+00  0.11423165980E+01  0.17130465301E+03  0.17130000000E+03 0.  1.
      622    1    1    2    0    0  0.26597307280E+00 -0.45043501410E+00  0.28606753938E+01  0.39682612169E+01  0.27000000000E+01 0. -1.
</event>
<event>
 5   0  0.6580500E-04  0.9118800E+02  0.7818608E-02  0.1180000E+00
       11   -1    0    0    0    0  0.00000000000E+00  0.00000000000E+00  0.39999999673E+01  0.40000000000E+01  0.51109989000E-03 0.  1.
     -623   -1    0    0    0    0  0.00000000000E+00  0.00000000000E+00  0.12525980253E-10  0.17130000000E+03  0.17130000000E+03 0. -1.
       11    1    1    2    0    0  0.17798176970E+00  0.25579937506E+00  0.15365067793E+00  0.34744729481E+00  0.51109989000E-03 0.  1.
     -623    1    1    2    0    0 -0.43830711161E+00 -0.90220317472E+00  0.15019790090E+01  0.17130952111E+03  0.17130000000E+03 0. -1.
      622    1    1    2    0    0  0.26032534191E+00  0.64640379966E+00  0.23443702804E+01  0.36430315902E+01  0.27000000000E+01 0.  1.
</event>
<event>
 5   0  0.6580500E-04  0.9118800E+02  0.7818608E-02  0.1180000E+00
       11   -1    0    0    0    0  0.00000000000E+00  0.00000000000E+00  0.39999999673E+01  0.40000000000E+01  0.51109989000E-03 0. -1.
     -623   -1    0    0    0    0  0.00000000000E+00  0.00000000000E+00  0.12525980253E-10  0.17130000000E+03  0.17130000000E+03 0.  1.
       11    1    1    2    0    0  0.15647155852E-01 -0.57073228456E-01 -0.66086614291E-01  0.88712393183E-01  0.51109989000E-03 0. -1.
     -623    1    1    2    0    0 -0.34173177754E+00 -0.15546598334E+00  0.12702624385E+01  0.17130512111E+03  0.17130000000E+03 0.  1.
      622    1    1    2    0    0  0.32608462169E+00  0.21253921180E+00  0.27958241432E+01  0.39061665014E+01  0.27000000000E+01 0. -1.
</event>
<event>
 5   0  0.6580500E-04  0.9118800E+02  0.7818608E-02  0.1180000E+00
       11   -1    0    0    0    0  0.00000000000E+00  0.00000000000E+00  0.39999999673E+01  0.40000000000E+01  0.51109989000E-03 0.  1.
     -623   -1    0    0    0    0  0.00000000000E+00  0.00000000000E+00  0.12525980253E-10  0.17130000000E+03  0.17130000000E+03 0.  1.
       11    1    1    2    0    0 -0.31188700605E-04  0.10896205745E+00 -0.17818155421E+00  0.20885798625E+00  0.51109989000E-03 0.  1.
     -623    1    1    2    0    0  0.11598684852E+00 -0.30198392082E-01  0.15303508704E+01  0.17130687767E+03  0.17130000000E+03 0.  1.
      622    1    1    2    0    0 -0.11595565982E+00 -0.78763665366E-01  0.26478306512E+01  0.37842643390E+01  0.27000000000E+01 0.  1.
</event>
<event>
 5   0  0.6580500E-04  0.9118800E+02  0.7818608E-02  0.1180000E+00
       11   -1    0    0    0    0  0.00000000000E+00  0.00000000000E+00  0.39999999673E+01  0.40000000000E+01  0.51109989000E-03 0.  1.
     -623   -1    0    0    0    0  0.00000000000E+00  0.00000000000E+00  0.12525980253E-10  0.17130000000E+03  0.17130000000E+03 0. -1.
       11    1    1    2    0    0 -0.16717427463E+00 -0.14131408944E+00  0.90526129409E-01  0.23688003568E+00  0.51109989000E-03 0.  1.
     -623    1    1    2    0    0  0.45693258189E+00  0.19440183145E+00  0.13131242261E+01  0.17130575260E+03  0.17130000000E+03 0. -1.
      622    1    1    2    0    0 -0.28975830725E+00 -0.53087742006E-01  0.25963496119E+01  0.37573673619E+01  0.27000000000E+01 0.  1.
</event>
<event>
 5   0  0.6580500E-04  0.9118800E+02  0.7818608E-02  0.1180000E+00
       11   -1    0    0    0    0  0.00000000000E+00  0.00000000000E+00  0.39999999673E+01  0.40000000000E+01  0.51109989000E-03 0.  1.
     -623   -1    0    0    0    0  0.00000000000E+00  0.00000000000E+00  0.12525980253E-10  0.17130000000E+03  0.17130000000E+03 0. -1.
       11    1    1    2    0    0  0.37093680970E+00 -0.38334934543E+00  0.83695804389E+00  0.99249678381E+00  0.51109989000E-03 0.  1.
     -623    1    1    2    0    0 -0.41876875549E+00  0.40236605390E+00  0.18647427601E+01  0.17131113370E+03  0.17130000000E+03 0. -1.
      622    1    1    2    0    0  0.47831945791E-01 -0.19016708469E-01  0.12982991634E+01  0.29963695112E+01  0.27000000000E+01 0.  1.
</event>
<event>
 5   0  0.6580500E-04  0.9118800E+02  0.7818608E-02  0.1180000E+00
       11   -1    0    0    0    0  0.00000000000E+00  0.00000000000E+00  0.39999999673E+01  0.40000000000E+01  0.51109989000E-03 0. -1.
     -623   -1    0    0    0    0  0.00000000000E+00  0.00000000000E+00  0.12525980253E-10  0.17130000000E+03  0.17130000000E+03 0.  1.
       11    1    1    2    0    0 -0.17948559061E+00 -0.53343931063E-01 -0.10043576244E+00  0.21248118933E+00  0.51109989000E-03 0. -1.
     -623    1    1    2    0    0  0.95443329512E+00  0.32020271476E+00  0.15893825751E+01  0.17131033130E+03  0.17130000000E+03 0.  1.
      622    1    1    2    0    0 -0.77494770452E+00 -0.26685878370E+00  0.25110531547E+01  0.37771875120E+01  0.27000000000E+01 0. -1.
</event>
<event>
 5   0  0.6580500E-04  0.9118800E+02  0.7818608E-02  0.1180000E+00
       11   -1    0    0    0    0  0.00000000000E+00  0.00000000000E+00  0.39999999673E+01  0.40000000000E+01  0.51109989000E-03 0. -1.
     -623   -1    0    0    0    0  0.00000000000E+00  0.00000000000E+00  0.12525980253E-10  0.17130000000E+03  0.17130000000E+03 0. -1.
       11    1    1    2    0    0 -0.56755673154E-01  0.21072792382E+00  0.23391378421E-01  0.21948777214E+00  0.51109989000E-03 0. -1.
     -623    1    1    2    0    0  0.11555556657E+00 -0.30908292801E+00  0.13408752315E+01  0.17130556568E+03  0.17130000000E+03 0. -1.
      622    1    1    2    0    0 -0.58799893414E-01  0.98355004193E-01  0.26357333575E+01  0.37749465514E+01  0.27000000000E+01 0. -1.
</event>
<event>
 5   0  0.6580500E-04  0.9118800E+02  0.7818608E-02  0.1180000E+00
       11   -1    0    0    0    0  0.00000000000E+00  0.00000000000E+00  0.39999999673E+01  0.40000000000E+01  0.51109989000E-03 0.  1.
     -623   -1    0    0    0    0  0.00000000000E+00  0.00000000000E+00  0.12525980253E-10  0.17130000000E+03  0.17130000000E+03 0. -1.
       11    1    1    2    0    0 -0.78118890089E-01 -0.18760711036E+00 -0.34798121498E+00  0.40297664454E+00  0.51109989000E-03 0.  1.
     -623    1    1    2    0    0  0.21625693274E+00  0.59886717836E+00  0.20316581944E+01  0.17131323079E+03  0.17130000000E+03 0. -1.
      622    1    1    2    0    0 -0.13813804265E+00 -0.41126006800E+00  0.23163229879E+01  0.35837925647E+01  0.27000000000E+01 0.  1.
</event>
<event>
 5   0  0.6580500E-04  0.9118800E+02  0.7818608E-02  0.1180000E+00
       11   -1    0    0    0    0  0.00000000000E+00  0.00000000000E+00  0.39999999673E+01  0.40000000000E+01  0.51109989000E-03 0.  1.
     -623   -1    0    0    0    0  0.00000000000E+00  0.00000000000E+00  0.12525980253E-10  0.17130000000E+03  0.17130000000E+03 0. -1.
       11    1    1    2    0    0  0.98375357339E-01  0.51830093827E+00 -0.48700980638E-01  0.52979771638E+00  0.51109989000E-03 0.  1.
     -623    1    1    2    0    0 -0.10315991717E+00  0.59517734417E-01  0.19654356387E+01  0.17131131639E+03  0.17130000000E+03 0. -1.
      622    1    1    2    0    0  0.47845598337E-02 -0.57781867269E+00  0.20832653093E+01  0.34588858986E+01  0.27000000000E+01 0.  1.
</event>
<event>
 5   0  0.6580500E-04  0.9118800E+02  0.7818608E-02  0.1180000E+00
       11   -1    0    0    0    0  0.00000000000E+00  0.00000000000E+00  0.39999999673E+01  0.40000000000E+01  0.51109989000E-03 0.  1.
     -623   -1    0    0    0    0  0.00000000000E+00  0.00000000000E+00  0.12525980253E-10  0.17130000000E+03  0.17130000000E+03 0.  1.
       11    1    1    2    0    0  0.95211063757E-01  0.91125562034E-01  0.39312846275E-01  0.13753099950E+00  0.51109989000E-03 0.  1.
     -623    1    1    2    0    0 -0.56079620099E+00 -0.50323723157E-01  0.12462638411E+01  0.17130545875E+03  0.17130000000E+03 0.  1.
      622    1    1    2    0    0  0.46558513723E+00 -0.40801838877E-01  0.27144232800E+01  0.38570102480E+01  0.27000000000E+01 0.  1.
</event>
<event>
 5   0  0.6580500E-04  0.9118800E+02  0.7818608E-02  0.1180000E+00
       11   -1    0    0    0    0  0.00000000000E+00  0.00000000000E+00  0.39999999673E+01  0.40000000000E+01  0.51109989000E-03 0. -1.
     -623   -1    0    0    0    0  0.00000000000E+00  0.00000000000E+00  0.12525980253E-10  0.17130000000E+03  0.17130000000E+03 0.  1.
       11    1    1    2    0    0 -0.27481510880E+00 -0.51255021285E-01 -0.14802101076E+00  0.31632404601E+00  0.51109989000E-03 0. -1.
     -623    1    1    2    0    0  0.30190375007E+00 -0.16436583477E+00  0.16640264018E+01  0.17130842696E+03  0.17130000000E+03 0.  1.
      622    1    1    2    0    0 -0.27088641272E-01  0.21562085606E+00  0.24839945763E+01  0.36752489988E+01  0.27000000000E+01 0. -1.
</event>
<event>
 5   0  0.6580500E-04  0.9118800E+02  0.7818608E-02  0.1180000E+00
       11   -1    0    0    0    0  0.00000000000E+00  0.00000000000E+00  0.39999999673E+01  0.40000000000E+01  0.51109989000E-03 0. -1.
     -623   -1    0    0    0    0  0.00000000000E+00  0.00000000000E+00  0.12525980253E-10  0.17130000000E+03  0.17130000000E+03 0. -1.
       11    1    1    2    0    0  0.14245964452E+00 -0.55567987048E-01 -0.13818209554E-01  0.15353747308E+00  0.51109989000E-03 0. -1.
     -623    1    1    2    0    0  0.20293135228E+00  0.21089099949E+00  0.13079832117E+01  0.17130524357E+03  0.17130000000E+03 0. -1.
      622    1    1    2    0    0 -0.34539099681E+00 -0.15532301244E+00  0.27058349652E+01  0.38412189521E+01  0.27000000000E+01 0. -1.
</event>
<event>
 5   0  0.6580500E-04  0.9118800E+02  0.7818608E-02  0.1180000E+00
       11   -1    0    0    0    0  0.00000000000E+00  0.00000000000E+00  0.39999999673E+01  0.40000000000E+01  0.51109989000E-03 0.  1.
     -623   -1    0    0    0    0  0.00000000000E+00  0.00000000000E+00  0.12525980253E-10  0.17130000000E+03  0.17130000000E+03 0. -1.
       11    1    1    2    0    0  0.49595466110E-01  0.14703318975E+00  0.42422272821E-01  0.16086758406E+00  0.51109989000E-03 0.  1.
     -623    1    1    2    0    0 -0.60319604661E+00 -0.15198815174E+00  0.12936904373E+01  0.17130601443E+03  0.17130000000E+03 0. -1.
      622    1    1    2    0    0  0.55360058050E+00  0.49549619878E-02  0.26638872572E+01  0.38331179832E+01  0.27000000000E+01 0.  1.
</event>
<event>
 5   0  0.6580500E-04  0.9118800E+02  0.7818608E-02  0.1180000E+00
       11   -1    0    0    0    0  0.00000000000E+00  0.00000000000E+00  0.39999999673E+01  0.40000000000E+01  0.51109989000E-03 0. -1.
     -623   -1    0    0    0    0  0.00000000000E+00  0.00000000000E+00  0.12525980253E-10  0.17130000000E+03  0.17130000000E+03 0.  1.
       11    1    1    2    0    0  0.25974796774E+00 -0.24922944686E+00  0.12500338114E+00  0.38106486383E+00  0.51109989000E-03 0. -1.
     -623    1    1    2    0    0 -0.22821140199E+00 -0.20071144301E+00  0.15185949099E+01  0.17130700072E+03  0.17130000000E+03 0.  1.
      622    1    1    2    0    0 -0.31536565753E-01  0.44994088987E+00  0.23564016763E+01  0.36119344152E+01  0.27000000000E+01 0. -1.
</event>
<event>
 5   0  0.6580500E-04  0.9118800E+02  0.7818608E-02  0.1180000E+00
       11   -1    0    0    0    0  0.00000000000E+00  0.00000000000E+00  0.39999999673E+01  0.40000000000E+01  0.51109989000E-03 0.  1.
     -623   -1    0    0    0    0  0.00000000000E+00  0.00000000000E+00  0.12525980253E-10  0.17130000000E+03  0.17130000000E+03 0. -1.
       11    1    1    2    0    0  0.84808860063E-02 -0.36947637194E+00 -0.20113294956E-01  0.37012095416E+00  0.51109989000E-03 0.  1.
     -623    1    1    2    0    0 -0.24097521568E+00 -0.12735567737E+00  0.16696773910E+01  0.17130835389E+03  0.17130000000E+03 0. -1.
      622    1    1    2    0    0  0.23249432967E+00  0.49683204931E+00  0.23504358713E+01  0.36215251599E+01  0.27000000000E+01 0.  1.
</event>
<event>
 5   0  0.6580500E-04  0.9118800E+02  0.7818608E-02  0.1180000E+00
       11   -1    0    0    0    0  0.00000000000E+00  0.00000000000E+00  0.39999999673E+01  0.40000000000E+01  0.51109989000E-03 0.  1.
     -623   -1    0    0    0    0  0.00000000000E+00  0.00000000000E+00  0.12525980253E-10  0.17130000000E+03  0.17130000000E+03 0.  1.
       11    1    1    2    0    0  0.54019112230E-01 -0.14289419922E+00 -0.18151958932E+00  0.23724763263E+00  0.51109989000E-03 0.  1.
     -623    1    1    2    0    0  0.10054264550E+01  0.36693665558E+00  0.18154471602E+01  0.17131296324E+03  0.17130000000E+03 0.  1.
      622    1    1    2    0    0 -0.10594455672E+01 -0.22404245635E+00  0.23660723965E+01  0.37497891297E+01  0.27000000000E+01 0.  1.
</event>
<event>
 5   0  0.6580500E-04  0.9118800E+02  0.7818608E-02  0.1180000E+00
       11   -1    0    0    0    0  0.00000000000E+00  0.00000000000E+00  0.39999999673E+01  0.40000000000E+01  0.51109989000E-03 0. -1.
     -623   -1    0    0    0    0  0.00000000000E+00  0.00000000000E+00  0.12525980253E-10  0.17130000000E+03  0.17130000000E+03 0.  1.
       11    1    1    2    0    0 -0.13443785876E+00 -0.48484042368E-02  0.85700729385E+00  0.86750147425E+00  0.51109989000E-03 0. -1.
     -623    1    1    2    0    0  0.84288634074E+00 -0.15020404639E+00  0.17548225529E+01  0.17131112755E+03  0.17130000000E+03 0.  1.
      622    1    1    2    0    0 -0.70844848199E+00  0.15505245063E+00  0.13881701206E+01  0.31213709805E+01  0.27000000000E+01 0. -1.
</event>
<event>
 5   0  0.6580500E-04  0.9118800E+02  0.7818608E-02  0.1180000E+00
       11   -1    0    0    0    0  0.00000000000E+00  0.00000000000E+00  0.39999999673E+01  0.40000000000E+01  0.51109989000E-03 0.  1.
     -623   -1    0    0    0    0  0.00000000000E+00  0.00000000000E+00  0.12525980253E-10  0.17130000000E+03  0.17130000000E+03 0. -1.
       11    1    1    2    0    0  0.20219084685E-01  0.10645634364E+00 -0.73216567575E-01  0.13077725902E+00  0.51109989000E-03 0.  1.
     -623    1    1    2    0    0 -0.24037761834E+00 -0.55543653854E+00  0.13564090111E+01  0.17130643927E+03  0.17130000000E+03 0. -1.
      622    1    1    2    0    0  0.22015853366E+00  0.44898019490E+00  0.27168075238E+01  0.38627834675E+01  0.27000000000E+01 0.  1.
</event>
<event>
 5   0  0.6580500E-04  0.9118800E+02  0.7818608E-02  0.1180000E+00
       11   -1    0    0    0    0  0.00000000000E+00  0.00000000000E+00  0.39999999673E+01  0.40000000000E+01  0.51109989000E-03 0.  1.
     -623   -1    0    0    0    0  0.00000000000E+00  0.00000000000E+00  0.12525980253E-10  0.17130000000E+03  0.17130000000E+03 0. -1.
       11    1    1    2    0    0 -0.26781440370E+00  0.30094963571E+00 -0.25448989885E+00  0.47650877002E+00  0.51109989000E-03 0.  1.
     -623    1    1    2    0    0  0.44990955066E+00 -0.42178527881E+00  0.20216637144E+01  0.17131303933E+03  0.17130000000E+03 0. -1.
      622    1    1    2    0    0 -0.18209514696E+00  0.12083564311E+00  0.22328261518E+01  0.35104518967E+01  0.27000000000E+01 0.  1.
</event>
<event>
 5   0  0.6580500E-04  0.9118800E+02  0.7818608E-02  0.1180000E+00
       11   -1    0    0    0    0  0.00000000000E+00  0.00000000000E+00  0.39999999673E+01  0.40000000000E+01  0.51109989000E-03 0.  1.
     -623   -1    0    0    0    0  0.00000000000E+00  0.00000000000E+00  0.12525980253E-10  0.17130000000E+03  0.17130000000E+03 0.  1.
       11    1    1    2    0    0  0.96020239555E-01 -0.10121667865E+00  0.10734590174E+00  0.17603438949E+00  0.51109989000E-03 0.  1.
     -623    1    1    2    0    0 -0.36705308760E+00 -0.29389999628E+00  0.12347994971E+01  0.17130509576E+03  0.17130000000E+03 0.  1.
      622    1    1    2    0    0  0.27103284805E+00  0.39511667493E+00  0.26578545685E+01  0.38188698457E+01  0.27000000000E+01 0.  1.
</event>
<event>
 5   0  0.6580500E-04  0.9118800E+02  0.7818608E-02  0.1180000E+00
       11   -1    0    0    0    0  0.00000000000E+00  0.00000000000E+00  0.39999999673E+01  0.40000000000E+01  0.51109989000E-03 0. -1.
     -623   -1    0    0    0    0  0.00000000000E+00  0.00000000000E+00  0.12525980253E-10  0.17130000000E+03  0.17130000000E+03 0. -1.
       11    1    1    2    0    0  0.13123430027E+00  0.42687691163E+00  0.94170640356E+00  0.10422368018E+01  0.51109989000E-03 0. -1.
     -623    1    1    2    0    0 -0.97828640576E+00 -0.43096232854E+00  0.22626427879E+01  0.17131827785E+03  0.17130000000E+03 0. -1.
      622    1    1    2    0    0  0.84705210549E+00  0.40854169149E-02  0.79565077594E+00  0.29394853491E+01  0.27000000000E+01 0.  0.
</event>
<event>
 5   0  0.6580500E-04  0.9118800E+02  0.7818608E-02  0.1180000E+00
       11   -1    0    0    0    0  0.00000000000E+00  0.00000000000E+00  0.39999999673E+01  0.40000000000E+01  0.51109989000E-03 0. -1.
     -623   -1    0    0    0    0  0.00000000000E+00  0.00000000000E+00  0.12525980253E-10  0.17130000000E+03  0.17130000000E+03 0. -1.
       11    1    1    2    0    0 -0.31543528577E+00 -0.34133320757E-01  0.12855785707E+00  0.34233300591E+00  0.51109989000E-03 0. -1.
     -623    1    1    2    0    0  0.42274575030E+00  0.54226803166E+00  0.14709046858E+01  0.17130769489E+03  0.17130000000E+03 0. -1.
      622    1    1    2    0    0 -0.10731046453E+00 -0.50813471090E+00  0.24005374245E+01  0.36499721022E+01  0.27000000000E+01 0. -1.
</event>
<event>
 5   0  0.6580500E-04  0.9118800E+02  0.7818608E-02  0.1180000E+00
       11   -1    0    0    0    0  0.00000000000E+00  0.00000000000E+00  0.39999999673E+01  0.40000000000E+01  0.51109989000E-03 0.  1.
     -623   -1    0    0    0    0  0.00000000000E+00  0.00000000000E+00  0.12525980253E-10  0.17130000000E+03  0.17130000000E+03 0. -1.
       11    1    1    2    0    0  0.17509604626E+00  0.11580553465E+00  0.10216755238E+00  0.23346952104E+00  0.51109989000E-03 0.  1.
     -623    1    1    2    0    0 -0.18999391843E+00 -0.50208250119E+00  0.13087482329E+01  0.17130584055E+03  0.17130000000E+03 0. -1.
      622    1    1    2    0    0  0.14897872168E-01  0.38627696654E+00  0.25890841821E+01  0.37606899292E+01  0.27000000000E+01 0.  1.
</event>
<event>
 5   0  0.6580500E-04  0.9118800E+02  0.7818608E-02  0.1180000E+00
       11   -1    0    0    0    0  0.00000000000E+00  0.00000000000E+00  0.39999999673E+01  0.40000000000E+01  0.51109989000E-03 0.  1.
     -623   -1    0    0    0    0  0.00000000000E+00  0.00000000000E+00  0.12525980253E-10  0.17130000000E+03  0.17130000000E+03 0.  1.
       11    1    1    2    0    0 -0.87359352962E-01  0.10747738333E+00 -0.72920948531E-02  0.13869563925E+00  0.51109989000E-03 0.  1.
     -623    1    1    2    0    0  0.61116482788E-01 -0.23815033564E+00  0.12568447008E+01  0.17130478718E+03  0.17130000000E+03 0.  1.
      622    1    1    2    0    0  0.26242870174E-01  0.13067295231E+00  0.27504473614E+01  0.38565171848E+01  0.27000000000E+01 0.  1.
</event>
<event>
 5   0  0.6580500E-04  0.9118800E+02  0.7818608E-02  0.1180000E+00
       11   -1    0    0    0    0  0.00000000000E+00  0.00000000000E+00  0.39999999673E+01  0.40000000000E+01  0.51109989000E-03 0. -1.
     -623   -1    0    0    0    0  0.00000000000E+00  0.00000000000E+00  0.12525980253E-10  0.17130000000E+03  0.17130000000E+03 0. -1.
       11    1    1    2    0    0  0.42922815491E+00 -0.41946076299E+00  0.46308068879E+00  0.75804229843E+00  0.51109989000E-03 0. -1.
     -623    1    1    2    0    0 -0.57014107689E+00  0.11996812981E+01  0.19602621794E+01  0.17131636502E+03  0.17130000000E+03 0. -1.
      622    1    1    2    0    0  0.14091292199E+00 -0.78022053508E+00  0.15766570992E+01  0.32255926810E+01  0.27000000000E+01 0. -1.
</event>
<event>
 5   0  0.6580500E-04  0.9118800E+02  0.7818608E-02  0.1180000E+00
       11   -1    0    0    0    0  0.00000000000E+00  0.00000000000E+00  0.39999999673E+01  0.40000000000E+01  0.51109989000E-03 0. -1.
     -623   -1    0    0    0    0  0.00000000000E+00  0.00000000000E+00  0.12525980253E-10  0.17130000000E+03  0.17130000000E+03 0. -1.
       11    1    1    2    0    0  0.19749643066E+00  0.58983872340E-01 -0.15297697588E+00  0.25668298286E+00  0.51109989000E-03 0. -1.
     -623    1    1    2    0    0  0.88710075946E+00 -0.24753541576E+00  0.18250268630E+01  0.17131219730E+03  0.17130000000E+03 0. -1.
      622    1    1    2    0    0 -0.10845971901E+01  0.18855154342E+00  0.23279500802E+01  0.37311197147E+01  0.27000000000E+01 0. -1.
</event>
<event>
 5   0  0.6580500E-04  0.9118800E+02  0.7818608E-02  0.1180000E+00
       11   -1    0    0    0    0  0.00000000000E+00  0.00000000000E+00  0.39999999673E+01  0.40000000000E+01  0.51109989000E-03 0.  1.
     -623   -1    0    0    0    0  0.00000000000E+00  0.00000000000E+00  0.12525980253E-10  0.17130000000E+03  0.17130000000E+03 0. -1.
       11    1    1    2    0    0  0.22193451268E+00  0.45017646302E-01  0.24322829474E+00  0.33232782156E+00  0.51109989000E-03 0.  1.
     -623    1    1    2    0    0 -0.71077252094E+00 -0.40747572962E+00  0.13614684455E+01  0.17130736946E+03  0.17130000000E+03 0. -1.
      622    1    1    2    0    0  0.48883800826E+00  0.36245808332E+00  0.23953032271E+01  0.36603027212E+01  0.27000000000E+01 0.  1.
</event>
<event>
 5   0  0.6580500E-04  0.9118800E+02  0.7818608E-02  0.1180000E+00
       11   -1    0    0    0    0  0.00000000000E+00  0.00000000000E+00  0.39999999673E+01  0.40000000000E+01  0.51109989000E-03 0. -1.
     -623   -1    0    0    0    0  0.00000000000E+00  0.00000000000E+00  0.12525980253E-10  0.17130000000E+03  0.17130000000E+03 0.  1.
       11    1    1    2    0    0  0.45531246136E-01  0.47052147810E+00  0.88276210062E+00  0.10013654394E+01  0.51109989000E-03 0. -1.
     -623    1    1    2    0    0  0.10868573930E+01 -0.86873526939E+00  0.28193350098E+01  0.17132884932E+03  0.17130000000E+03 0.  1.
      622    1    1    2    0    0 -0.11323886391E+01  0.39821379129E+00  0.29790285689E+00  0.29697852390E+01  0.27000000000E+01 0.  0.
</event>
<event>
 5   0  0.6580500E-04  0.9118800E+02  0.7818608E-02  0.1180000E+00
       11   -1    0    0    0    0  0.00000000000E+00  0.00000000000E+00  0.39999999673E+01  0.40000000000E+01  0.51109989000E-03 0.  1.
     -623   -1    0    0    0    0  0.00000000000E+00  0.00000000000E+00  0.12525980253E-10  0.17130000000E+03  0.17130000000E+03 0. -1.
       11    1    1    2    0    0  0.27683242799E+00 -0.80938795591E-01 -0.12307891863E+00  0.31358565537E+00  0.51109989000E-03 0.  1.
     -623    1    1    2    0    0  0.35301249319E+00  0.10789034939E+01  0.19323846679E+01  0.17131466009E+03  0.17130000000E+03 0. -1.
      622    1    1    2    0    0 -0.62984492118E+00 -0.99796469836E+00  0.21906942181E+01  0.36717542566E+01  0.27000000000E+01 0.  1.
</event>
<event>
 5   0  0.6580500E-04  0.9118800E+02  0.7818608E-02  0.1180000E+00
       11   -1    0    0    0    0  0.00000000000E+00  0.00000000000E+00  0.39999999673E+01  0.40000000000E+01  0.51109989000E-03 0.  1.
     -623   -1    0    0    0    0  0.00000000000E+00  0.00000000000E+00  0.12525980253E-10  0.17130000000E+03  0.17130000000E+03 0. -1.
       11    1    1    2    0    0  0.26162609388E+00 -0.69438393335E-01  0.61142274511E+00  0.66866130285E+00  0.51109989000E-03 0.  1.
     -623    1    1    2    0    0 -0.54405332707E+00  0.54116711942E+00  0.15315552912E+01  0.17130856522E+03  0.17130000000E+03 0. -1.
      622    1    1    2    0    0  0.28242723318E+00 -0.47172872608E+00  0.18570219310E+01  0.33227734779E+01  0.27000000000E+01 0.  1.
</event>
<event>
 5   0  0.6580500E-04  0.9118800E+02  0.7818608E-02  0.1180000E+00
       11   -1    0    0    0    0  0.00000000000E+00  0.00000000000E+00  0.39999999673E+01  0.40000000000E+01  0.51109989000E-03 0. -1.
     -623   -1    0    0    0    0  0.00000000000E+00  0.00000000000E+00  0.12525980253E-10  0.17130000000E+03  0.17130000000E+03 0.  1.
       11    1    1    2    0    0 -0.12688322212E+00  0.10930984392E+00 -0.11325737103E+00  0.20217687144E+00  0.51109989000E-03 0. -1.
     -623    1    1    2    0    0  0.87410237598E-01  0.80486834504E+00  0.16185302467E+01  0.17130955926E+03  0.17130000000E+03 0.  1.
      622    1    1    2    0    0  0.39472984520E-01 -0.91417818896E+00  0.24947270917E+01  0.37882638688E+01  0.27000000000E+01 0. -1.
</event>
<event>
 5   0  0.6580500E-04  0.9118800E+02  0.7818608E-02  0.1180000E+00
       11   -1    0    0    0    0  0.00000000000E+00  0.00000000000E+00  0.39999999673E+01  0.40000000000E+01  0.51109989000E-03 0.  1.
     -623   -1    0    0    0    0  0.00000000000E+00  0.00000000000E+00  0.12525980253E-10  0.17130000000E+03  0.17130000000E+03 0.  1.
       11    1    1    2    0    0 -0.23667732383E+00  0.89964803654E-01  0.58211913231E-01  0.25980513771E+00  0.51109989000E-03 0.  1.
     -623    1    1    2    0    0  0.88462924692E-02  0.17401354807E+00  0.13854377369E+01  0.17130569108E+03  0.17130000000E+03 0.  1.
      622    1    1    2    0    0  0.22783103136E+00 -0.26397835172E+00  0.25563503172E+01  0.37345037814E+01  0.27000000000E+01 0.  1.
</event>
<event>
 5   0  0.6580500E-04  0.9118800E+02  0.7818608E-02  0.1180000E+00
       11   -1    0    0    0    0  0.00000000000E+00  0.00000000000E+00  0.39999999673E+01  0.40000000000E+01  0.51109989000E-03 0. -1.
     -623   -1    0    0    0    0  0.00000000000E+00  0.00000000000E+00  0.12525980253E-10  0.17130000000E+03  0.17130000000E+03 0. -1.
       11    1    1    2    0    0 -0.39177066586E+00 -0.26765699118E+00  0.15848267736E+00  0.50024148149E+00  0.51109989000E-03 0. -1.
     -623    1    1    2    0    0  0.15960463571E+00  0.37735068686E+00  0.16429103547E+01  0.17130836822E+03  0.17130000000E+03 0. -1.
      622    1    1    2    0    0  0.23216603016E+00 -0.10969369568E+00  0.21986069353E+01  0.34913903002E+01  0.27000000000E+01 0. -1.
</event>
<event>
 5   0  0.6580500E-04  0.9118800E+02  0.7818608E-02  0.1180000E+00
       11   -1    0    0    0    0  0.00000000000E+00  0.00000000000E+00  0.39999999673E+01  0.40000000000E+01  0.51109989000E-03 0.  1.
     -623   -1    0    0    0    0  0.00000000000E+00  0.00000000000E+00  0.12525980253E-10  0.17130000000E+03  0.17130000000E+03 0. -1.
       11    1    1    2    0    0  0.10365136350E-01  0.19901846622E+00  0.30773634546E-01  0.20165084615E+00  0.51109989000E-03 0.  1.
     -623    1    1    2    0    0 -0.15538739980E+00 -0.61488723918E+00  0.13434731498E+01  0.17130644224E+03  0.17130000000E+03 0. -1.
      622    1    1    2    0    0  0.14502226345E+00  0.41586877296E+00  0.26257531830E+01  0.37919069175E+01  0.27000000000E+01 0.  1.
</event>
<event>
 5   0  0.6580500E-04  0.9118800E+02  0.7818608E-02  0.1180000E+00
       11   -1    0    0    0    0  0.00000000000E+00  0.00000000000E+00  0.39999999673E+01  0.40000000000E+01  0.51109989000E-03 0.  1.
     -623   -1    0    0    0    0  0.00000000000E+00  0.00000000000E+00  0.12525980253E-10  0.17130000000E+03  0.17130000000E+03 0.  1.
       11    1    1    2    0    0 -0.34785554595E+00  0.21765993411E+00  0.21557954458E+00  0.46352360137E+00  0.51109989000E-03 0.  1.
     -623    1    1    2    0    0 -0.26227198747E+00 -0.40716106407E+00  0.16048439575E+01  0.17130820205E+03  0.17130000000E+03 0.  1.
      622    1    1    2    0    0  0.61012753343E+00  0.18950112997E+00  0.21795764653E+01  0.35282743450E+01  0.27000000000E+01 0.  1.
</event>
<event>
 5   0  0.6580500E-04  0.9118800E+02  0.7818608E-02  0.1180000E+00
       11   -1    0    0    0    0  0.00000000000E+00  0.00000000000E+00  0.39999999673E+01  0.40000000000E+01  0.51109989000E-03 0.  1.
     -623   -1    0    0    0    0  0.00000000000E+00  0.00000000000E+00  0.12525980253E-10  0.17130000000E+03  0.17130000000E+03 0. -1.
       11    1    1    2    0    0 -0.11551296177E+00  0.13876801320E+00 -0.27033668943E+00  0.32508766925E+00  0.51109989000E-03 0.  1.
     -623    1    1    2    0    0  0.23962849927E+00 -0.71603801724E-01  0.17955328946E+01  0.17130959251E+03  0.17130000000E+03 0. -1.
      622    1    1    2    0    0 -0.12411553750E+00 -0.67164211475E-01  0.24748037622E+01  0.36653198168E+01  0.27000000000E+01 0.  1.
</event>
<event>
 5   0  0.6580500E-04  0.9118800E+02  0.7818608E-02  0.1180000E+00
       11   -1    0    0    0    0  0.00000000000E+00  0.00000000000E+00  0.39999999673E+01  0.40000000000E+01  0.51109989000E-03 0.  1.
     -623   -1    0    0    0    0  0.00000000000E+00  0.00000000000E+00  0.12525980253E-10  0.17130000000E+03  0.17130000000E+03 0. -1.
       11    1    1    2    0    0 -0.66400242722E-01  0.10466678417E+00 -0.24143233816E-01  0.12628255978E+00  0.51109989000E-03 0.  1.
     -623    1    1    2    0    0  0.15271294777E+00  0.52126194231E+00  0.13278600971E+01  0.17130600762E+03  0.17130000000E+03 0. -1.
      622    1    1    2    0    0 -0.86312705046E-01 -0.62592872648E+00  0.26962831041E+01  0.38677098173E+01  0.27000000000E+01 0.  1.
</event>
<event>
 5   0  0.6580500E-04  0.9118800E+02  0.7818608E-02  0.1180000E+00
       11   -1    0    0    0    0  0.00000000000E+00  0.00000000000E+00  0.39999999673E+01  0.40000000000E+01  0.51109989000E-03 0.  1.
     -623   -1    0    0    0    0  0.00000000000E+00  0.00000000000E+00  0.12525980253E-10  0.17130000000E+03  0.17130000000E+03 0.  1.
       11    1    1    2    0    0 -0.37103536494E+00  0.25054609035E+00  0.52963214345E-01  0.45082807003E+00  0.51109989000E-03 0.  1.
     -623    1    1    2    0    0 -0.14568254759E+00  0.28241768726E+00  0.17819067972E+01  0.17130956242E+03  0.17130000000E+03 0.  1.
      622    1    1    2    0    0  0.51671791254E+00 -0.53296377761E+00  0.21651299558E+01  0.35396095145E+01  0.27000000000E+01 0.  1.
</event>
<event>
 5   0  0.6580500E-04  0.9118800E+02  0.7818608E-02  0.1180000E+00
       11   -1    0    0    0    0  0.00000000000E+00  0.00000000000E+00  0.39999999673E+01  0.40000000000E+01  0.51109989000E-03 0.  1.
     -623   -1    0    0    0    0  0.00000000000E+00  0.00000000000E+00  0.12525980253E-10  0.17130000000E+03  0.17130000000E+03 0. -1.
       11    1    1    2    0    0 -0.15631990895E+00 -0.10891663527E+00  0.36296753463E+00  0.40993223805E+00  0.51109989000E-03 0.  1.
     -623    1    1    2    0    0  0.67924418762E-01  0.29858136495E+00  0.12879697402E+01  0.17130511560E+03  0.17130000000E+03 0. -1.
      622    1    1    2    0    0  0.88395490188E-01 -0.18966472968E+00  0.23490626926E+01  0.35849521623E+01  0.27000000000E+01 0.  1.
</event>
<event>
 5   0  0.6580500E-04  0.9118800E+02  0.7818608E-02  0.1180000E+00
       11   -1    0    0    0    0  0.00000000000E+00  0.00000000000E+00  0.39999999673E+01  0.40000000000E+01  0.51109989000E-03 0.  1.
     -623   -1    0    0    0    0  0.00000000000E+00  0.00000000000E+00  0.12525980253E-10  0.17130000000E+03  0.17130000000E+03 0. -1.
       11    1    1    2    0    0  0.38142885779E+00  0.36670064119E-02  0.34028899682E+00  0.51117343737E+00  0.51109989000E-03 0.  1.
     -623    1    1    2    0    0 -0.29474145716E+00  0.50173864643E+00  0.15231540874E+01  0.17130775993E+03  0.17130000000E+03 0. -1.
      622    1    1    2    0    0 -0.86687400627E-01 -0.50540565285E+00  0.21365568831E+01  0.34810666317E+01  0.27000000000E+01 0.  1.
</event>
<event>
 5   0  0.6580500E-04  0.9118800E+02  0.7818608E-02  0.1180000E+00
       11   -1    0    0    0    0  0.00000000000E+00  0.00000000000E+00  0.39999999673E+01  0.40000000000E+01  0.51109989000E-03 0.  1.
     -623   -1    0    0    0    0  0.00000000000E+00  0.00000000000E+00  0.12525980253E-10  0.17130000000E+03  0.17130000000E+03 0. -1.
       11    1    1    2    0    0 -0.27304453249E+00 -0.10776598050E+00 -0.29647045805E-01  0.29503564501E+00  0.51109989000E-03 0.  1.
     -623    1    1    2    0    0 -0.84599212040E-01  0.63161357162E-01  0.15284186062E+01  0.17130685103E+03  0.17130000000E+03 0. -1.
      622    1    1    2    0    0  0.35764374453E+00  0.44604623334E-01  0.25012284070E+01  0.36981133250E+01  0.27000000000E+01 0.  1.
</event>
<event>
 5   0  0.6580500E-04  0.9118800E+02  0.7818608E-02  0.1180000E+00
       11   -1    0    0    0    0  0.00000000000E+00  0.00000000000E+00  0.39999999673E+01  0.40000000000E+01  0.51109989000E-03 0.  1.
     -623   -1    0    0    0    0  0.00000000000E+00  0.00000000000E+00  0.12525980253E-10  0.17130000000E+03  0.17130000000E+03 0.  1.
       11    1    1    2    0    0  0.71867872215E+00  0.27580662981E+00  0.22046802795E-01  0.77010046452E+00  0.51109989000E-03 0.  1.
     -623    1    1    2    0    0 -0.13700993097E+01  0.16333813682E+00  0.24359393562E+01  0.17132287545E+03  0.17130000000E+03 0. -1.
      622    1    1    2    0    0  0.65142058753E+00 -0.43914476663E+00  0.15420138084E+01  0.32070240868E+01  0.27000000000E+01 0.  1.
</event>
<event>
 5   0  0.6580500E-04  0.9118800E+02  0.7818608E-02  0.1180000E+00
       11   -1    0    0    0    0  0.00000000000E+00  0.00000000000E+00  0.39999999673E+01  0.40000000000E+01  0.51109989000E-03 0.  1.
     -623   -1    0    0    0    0  0.00000000000E+00  0.00000000000E+00  0.12525980253E-10  0.17130000000E+03  0.17130000000E+03 0.  1.
       11    1    1    2    0    0  0.58457176206E-01 -0.54661677936E-01  0.12699915990E+00  0.15011391782E+00  0.51109989000E-03 0.  1.
     -623    1    1    2    0    0  0.38129108000E+00  0.33278760107E+00  0.11853287457E+01  0.17130484854E+03  0.17130000000E+03 0.  1.
      622    1    1    2    0    0 -0.43974825621E+00 -0.27812592314E+00  0.26876720617E+01  0.38450375381E+01  0.27000000000E+01 0.  1.
</event>
<event>
 5   0  0.6580500E-04  0.9118800E+02  0.7818608E-02  0.1180000E+00
       11   -1    0    0    0    0  0.00000000000E+00  0.00000000000E+00  0.39999999673E+01  0.40000000000E+01  0.51109989000E-03 0. -1.
     -623   -1    0    0    0    0  0.00000000000E+00  0.00000000000E+00  0.12525980253E-10  0.17130000000E+03  0.17130000000E+03 0. -1.
       11    1    1    2    0    0  0.19531736274E+00  0.16025250821E+00 -0.77864255055E-01  0.26437254398E+00  0.51109989000E-03 0. -1.
     -623    1    1    2    0    0 -0.41848208408E+00 -0.44047558124E+00  0.15327977942E+01  0.17130793506E+03  0.17130000000E+03 0. -1.
      622    1    1    2    0    0  0.22316472134E+00  0.28022307304E+00  0.25450664282E+01  0.37276923944E+01  0.27000000000E+01 0. -1.
</event>
<event>
 5   0  0.6580500E-04  0.9118800E+02  0.7818608E-02  0.1180000E+00
       11   -1    0    0    0    0  0.00000000000E+00  0.00000000000E+00  0.39999999673E+01  0.40000000000E+01  0.51109989000E-03 0. -1.
     -623   -1    0    0    0    0  0.00000000000E+00  0.00000000000E+00  0.12525980253E-10  0.17130000000E+03  0.17130000000E+03 0.  1.
       11    1    1    2    0    0 -0.66656343560E-01 -0.24972987754E-01  0.10023652505E+00  0.12294039381E+00  0.51109989000E-03 0. -1.
     -623    1    1    2    0    0 -0.40786319050E-01  0.17442863690E+00  0.11288142891E+01  0.17130381289E+03  0.17130000000E+03 0.  1.
      622    1    1    2    0    0  0.10744266261E+00 -0.14945564914E+00  0.27709491532E+01  0.38732467164E+01  0.27000000000E+01 0. -1.
</event>
<event>
 5   0  0.6580500E-04  0.9118800E+02  0.7818608E-02  0.1180000E+00
       11   -1    0    0    0    0  0.00000000000E+00  0.00000000000E+00  0.39999999673E+01  0.40000000000E+01  0.51109989000E-03 0. -1.
     -623   -1    0    0    0    0  0.00000000000E+00  0.00000000000E+00  0.12525980253E-10  0.17130000000E+03  0.17130000000E+03 0.  1.
       11    1    1    2    0    0  0.61594546940E-01  0.84607768940E-01  0.23584850215E-01  0.10727939764E+00  0.51109989000E-03 0. -1.
     -623    1    1    2    0    0 -0.21823134052E+00 -0.93781921010E+00  0.13212137526E+01  0.17130780115E+03  0.17130000000E+03 0.  1.
      622    1    1    2    0    0  0.15663679358E+00  0.85321144116E+00  0.26552013646E+01  0.38849194503E+01  0.27000000000E+01 0. -1.
</event>
<event>
 5   0  0.6580500E-04  0.9118800E+02  0.7818608E-02  0.1180000E+00
       11   -1    0    0    0    0  0.00000000000E+00  0.00000000000E+00  0.39999999673E+01  0.40000000000E+01  0.51109989000E-03 0.  1.
     -623   -1    0    0    0    0  0.00000000000E+00  0.00000000000E+00  0.12525980253E-10  0.17130000000E+03  0.17130000000E+03 0. -1.
       11    1    1    2    0    0 -0.99585197477E-01  0.20038726773E+00  0.15790422613E+00  0.27387273408E+00  0.51109989000E-03 0.  1.
     -623    1    1    2    0    0 -0.30735255071E+00  0.88523731323E-01  0.13312770145E+01  0.17130547160E+03  0.17130000000E+03 0. -1.
      622    1    1    2    0    0  0.40693774819E+00 -0.28891099905E+00  0.25108187268E+01  0.37206556647E+01  0.27000000000E+01 0.  1.
</event>
<event>
 5   0  0.6580500E-04  0.9118800E+02  0.7818608E-02  0.1180000E+00
       11   -1    0    0    0    0  0.00000000000E+00  0.00000000000E+00  0.39999999673E+01  0.40000000000E+01  0.51109989000E-03 0.  1.
     -623   -1    0    0    0    0  0.00000000000E+00  0.00000000000E+00  0.12525980253E-10  0.17130000000E+03  0.17130000000E+03 0. -1.
       11    1    1    2    0    0  0.45751328691E+00 -0.51531132689E-01  0.31898080745E+00  0.56010970540E+00  0.51109989000E-03 0.  1.
     -623    1    1    2    0    0 -0.35601796685E-01  0.43507763992E+00  0.16414435999E+01  0.17130842039E+03  0.17130000000E+03 0. -1.
      622    1    1    2    0    0 -0.42191149022E+00 -0.38354650723E+00  0.20395755600E+01  0.34314699028E+01  0.27000000000E+01 0.  1.
</event>
<event>
 5   0  0.6580500E-04  0.9118800E+02  0.7818608E-02  0.1180000E+00
       11   -1    0    0    0    0  0.00000000000E+00  0.00000000000E+00  0.39999999673E+01  0.40000000000E+01  0.51109989000E-03 0.  1.
     -623   -1    0    0    0    0  0.00000000000E+00  0.00000000000E+00  0.12525980253E-10  0.17130000000E+03  0.17130000000E+03 0.  1.
       11    1    1    2    0    0 -0.99644614345E-01  0.12334259629E-01  0.14149459908E+00  0.17349975769E+00  0.51109989000E-03 0.  1.
     -623    1    1    2    0    0  0.60839334677E+00 -0.16013460197E-01  0.12028129209E+01  0.17130530394E+03  0.17130000000E+03 0. -1.
      622    1    1    2    0    0 -0.50874873243E+00  0.36792005676E-02  0.26556924474E+01  0.38211963028E+01  0.27000000000E+01 0.  1.
</event>
<event>
 5   0  0.6580500E-04  0.9118800E+02  0.7818608E-02  0.1180000E+00
       11   -1    0    0    0    0  0.00000000000E+00  0.00000000000E+00  0.39999999673E+01  0.40000000000E+01  0.51109989000E-03 0. -1.
     -623   -1    0    0    0    0  0.00000000000E+00  0.00000000000E+00  0.12525980253E-10  0.17130000000E+03  0.17130000000E+03 0. -1.
       11    1    1    2    0    0  0.31472757493E-01 -0.22828202207E+00 -0.33039603042E-01  0.23279839488E+00  0.51109989000E-03 0. -1.
     -623    1    1    2    0    0 -0.41618811977E+00  0.19561797271E+00  0.14441665205E+01  0.17130670476E+03  0.17130000000E+03 0. -1.
      622    1    1    2    0    0  0.38471536228E+00  0.32664049362E-01  0.25888730500E+01  0.37604968447E+01  0.27000000000E+01 0. -1.
</event>
<event>
 5   0  0.6580500E-04  0.9118800E+02  0.7818608E-02  0.1180000E+00
       11   -1    0    0    0    0  0.00000000000E+00  0.00000000000E+00  0.39999999673E+01  0.40000000000E+01  0.51109989000E-03 0.  1.
     -623   -1    0    0    0    0  0.00000000000E+00  0.00000000000E+00  0.12525980253E-10  0.17130000000E+03  0.17130000000E+03 0.  1.
       11    1    1    2    0    0 -0.90613983036E-01  0.26477818839E-01 -0.24272618016E-01  0.97475073842E-01  0.51109989000E-03 0.  1.
     -623    1    1    2    0    0 -0.17331546037E+00  0.93333202916E-01  0.12277597125E+01  0.17130451291E+03  0.17130000000E+03 0.  1.
      622    1    1    2    0    0  0.26392944341E+00 -0.11981102175E+00  0.27965128728E+01  0.38980120164E+01  0.27000000000E+01 0.  1.
</event>
<event>
 5   0  0.6580500E-04  0.9118800E+02  0.7818608E-02  0.1180000E+00
       11   -1    0    0    0    0  0.00000000000E+00  0.00000000000E+00  0.39999999673E+01  0.40000000000E+01  0.51109989000E-03 0. -1.
     -623   -1    0    0    0    0  0.00000000000E+00  0.00000000000E+00  0.12525980253E-10  0.17130000000E+03  0.17130000000E+03 0.  1.
       11    1    1    2    0    0 -0.50130223840E-01 -0.49806861393E-01  0.88258905286E-02  0.71217416048E-01  0.51109989000E-03 0. -1.
     -623    1    1    2    0    0  0.24843944998E+00 -0.28991097979E+00  0.11705627010E+01  0.17130442489E+03  0.17130000000E+03 0.  1.
      622    1    1    2    0    0 -0.19830922614E+00  0.33971784118E+00  0.28206113759E+01  0.39243576920E+01  0.27000000000E+01 0.  0.
</event>
<event>
 5   0  0.6580500E-04  0.9118800E+02  0.7818608E-02  0.1180000E+00
       11   -1    0    0    0    0  0.00000000000E+00  0.00000000000E+00  0.39999999673E+01  0.40000000000E+01  0.51109989000E-03 0. -1.
     -623   -1    0    0    0    0  0.00000000000E+00  0.00000000000E+00  0.12525980253E-10  0.17130000000E+03  0.17130000000E+03 0. -1.
       11    1    1    2    0    0 -0.38208616818E+00  0.27828623775E+00  0.25158988108E+00  0.53547250118E+00  0.51109989000E-03 0. -1.
     -623    1    1    2    0    0 -0.44031240847E+00 -0.71663333382E-01  0.17667802291E+01  0.17130969185E+03  0.17130000000E+03 0. -1.
      622    1    1    2    0    0  0.82239857665E+00 -0.20662290437E+00  0.19816298572E+01  0.34548356451E+01  0.27000000000E+01 0. -1.
</event>
<event>
 5   0  0.6580500E-04  0.9118800E+02  0.7818608E-02  0.1180000E+00
       11   -1    0    0    0    0  0.00000000000E+00  0.00000000000E+00  0.39999999673E+01  0.40000000000E+01  0.51109989000E-03 0. -1.
     -623   -1    0    0    0    0  0.00000000000E+00  0.00000000000E+00  0.12525980253E-10  0.17130000000E+03  0.17130000000E+03 0.  1.
       11    1    1    2    0    0 -0.11782882688E+00  0.16762229226E-01  0.18192123774E+00  0.21739411845E+00  0.51109989000E-03 0. -1.
     -623    1    1    2    0    0  0.42170728431E+00 -0.43719801677E+00  0.12281804425E+01  0.17130547979E+03  0.17130000000E+03 0.  1.
      622    1    1    2    0    0 -0.30387845743E+00  0.42043578755E+00  0.25898982871E+01  0.37771260908E+01  0.27000000000E+01 0. -1.
</event>
<event>
 5   0  0.6580500E-04  0.9118800E+02  0.7818608E-02  0.1180000E+00
       11   -1    0    0    0    0  0.00000000000E+00  0.00000000000E+00  0.39999999673E+01  0.40000000000E+01  0.51109989000E-03 0. -1.
     -623   -1    0    0    0    0  0.00000000000E+00  0.00000000000E+00  0.12525980253E-10  0.17130000000E+03  0.17130000000E+03 0. -1.
       11    1    1    2    0    0  0.22945565292E+00  0.39402756128E+00  0.26045099267E+00  0.52511198474E+00  0.51109989000E-03 0. -1.
     -623    1    1    2    0    0 -0.21384799504E+00 -0.27154828013E+00  0.15675941327E+01  0.17130752120E+03  0.17130000000E+03 0. -1.
      622    1    1    2    0    0 -0.15607657876E-01 -0.12247928115E+00  0.21719548420E+01  0.34673668120E+01  0.27000000000E+01 0. -1.
</event>
<event>
 5   0  0.6580500E-04  0.9118800E+02  0.7818608E-02  0.1180000E+00
       11   -1    0    0    0    0  0.00000000000E+00  0.00000000000E+00  0.39999999673E+01  0.40000000000E+01  0.51109989000E-03 0.  1.
     -623   -1    0    0    0    0  0.00000000000E+00  0.00000000000E+00  0.12525980253E-10  0.17130000000E+03  0.17130000000E+03 0.  1.
       11    1    1    2    0    0  0.19103881783E+00 -0.55191550475E+00 -0.15030455823E+00  0.60307402178E+00  0.51109989000E-03 0.  1.
     -623    1    1    2    0    0  0.33028518346E+00  0.45971871963E+00  0.21835432603E+01  0.17131485134E+03  0.17130000000E+03 0.  1.
      622    1    1    2    0    0 -0.52132400130E+00  0.92196785122E-01  0.19667612653E+01  0.33820746349E+01  0.27000000000E+01 0.  1.
</event>
<event>
 5   0  0.6580500E-04  0.9118800E+02  0.7818608E-02  0.1180000E+00
       11   -1    0    0    0    0  0.00000000000E+00  0.00000000000E+00  0.39999999673E+01  0.40000000000E+01  0.51109989000E-03 0.  1.
     -623   -1    0    0    0    0  0.00000000000E+00  0.00000000000E+00  0.12525980253E-10  0.17130000000E+03  0.17130000000E+03 0.  1.
       11    1    1    2    0    0  0.14543377767E+00  0.65382411804E-02 -0.85016182902E-02  0.14582959583E+00  0.51109989000E-03 0.  1.
     -623    1    1    2    0    0 -0.67549340333E+00  0.25959498682E+00  0.13324680284E+01  0.17130671076E+03  0.17130000000E+03 0.  1.
      622    1    1    2    0    0  0.53005962566E+00 -0.26613322800E+00  0.26760335573E+01  0.38474596426E+01  0.27000000000E+01 0.  1.
</event>
<event>
 5   0  0.6580500E-04  0.9118800E+02  0.7818608E-02  0.1180000E+00
       11   -1    0    0    0    0  0.00000000000E+00  0.00000000000E+00  0.39999999673E+01  0.40000000000E+01  0.51109989000E-03 0.  1.
     -623   -1    0    0    0    0  0.00000000000E+00  0.00000000000E+00  0.12525980253E-10  0.17130000000E+03  0.17130000000E+03 0. -1.
       11    1    1    2    0    0 -0.24932796005E+00 -0.11770744859E+00  0.44973746561E+00  0.52752585179E+00  0.51109989000E-03 0.  1.
     -623    1    1    2    0    0  0.14709168067E+00  0.35731850298E+00  0.13920361265E+01  0.17130609177E+03  0.17130000000E+03 0. -1.
      622    1    1    2    0    0  0.10223627938E+00 -0.23961105439E+00  0.21582263753E+01  0.34663823795E+01  0.27000000000E+01 0.  1.
</event>
<event>
 5   0  0.6580500E-04  0.9118800E+02  0.7818608E-02  0.1180000E+00
       11   -1    0    0    0    0  0.00000000000E+00  0.00000000000E+00  0.39999999673E+01  0.40000000000E+01  0.51109989000E-03 0. -1.
     -623   -1    0    0    0    0  0.00000000000E+00  0.00000000000E+00  0.12525980253E-10  0.17130000000E+03  0.17130000000E+03 0. -1.
       11    1    1    2    0    0  0.64494996983E-01 -0.10396167743E+00  0.39782066550E-02  0.12240801591E+00  0.51109989000E-03 0. -1.
     -623    1    1    2    0    0  0.10295995705E-01  0.40101284941E-01  0.12207205668E+01  0.17130435451E+03  0.17130000000E+03 0. -1.
      622    1    1    2    0    0 -0.74790992688E-01  0.63860392489E-01  0.27753011939E+01  0.38732374778E+01  0.27000000000E+01 0. -1.
</event>
<event>
 5   0  0.6580500E-04  0.9118800E+02  0.7818608E-02  0.1180000E+00
       11   -1    0    0    0    0  0.00000000000E+00  0.00000000000E+00  0.39999999673E+01  0.40000000000E+01  0.51109989000E-03 0. -1.
     -623   -1    0    0    0    0  0.00000000000E+00  0.00000000000E+00  0.12525980253E-10  0.17130000000E+03  0.17130000000E+03 0. -1.
       11    1    1    2    0    0  0.13318134411E+00  0.32947220513E+00 -0.35403207365E+00  0.50162553241E+00  0.51109989000E-03 0. -1.
     -623    1    1    2    0    0 -0.25531799694E-01 -0.82269366437E+00  0.22139143618E+01  0.17131628321E+03  0.17130000000E+03 0. -1.
      622    1    1    2    0    0 -0.10764954442E+00  0.49322145923E+00  0.21401176792E+01  0.34820912557E+01  0.27000000000E+01 0. -1.
</event>
<event>
 5   0  0.6580500E-04  0.9118800E+02  0.7818608E-02  0.1180000E+00
       11   -1    0    0    0    0  0.00000000000E+00  0.00000000000E+00  0.39999999673E+01  0.40000000000E+01  0.51109989000E-03 0.  1.
     -623   -1    0    0    0    0  0.00000000000E+00  0.00000000000E+00  0.12525980253E-10  0.17130000000E+03  0.17130000000E+03 0. -1.
       11    1    1    2    0    0  0.13087508741E+00  0.86490663379E-01  0.30493221119E+00  0.34291812143E+00  0.51109989000E-03 0.  1.
     -623    1    1    2    0    0 -0.88025516116E+00 -0.29141836212E+00  0.13664351636E+01  0.17130795930E+03  0.17130000000E+03 0.  1.
      622    1    1    2    0    0  0.74938007375E+00  0.20492769874E+00  0.23286325925E+01  0.36491225805E+01  0.27000000000E+01 0.  1.
</event>
<event>
 5   0  0.6580500E-04  0.9118800E+02  0.7818608E-02  0.1180000E+00
       11   -1    0    0    0    0  0.00000000000E+00  0.00000000000E+00  0.39999999673E+01  0.40000000000E+01  0.51109989000E-03 0. -1.
     -623   -1    0    0    0    0  0.00000000000E+00  0.00000000000E+00  0.12525980253E-10  0.17130000000E+03  0.17130000000E+03 0. -1.
       11    1    1    2    0    0 -0.54657445479E+00  0.63243778368E+00  0.52600176878E+00  0.98762305909E+00  0.51109989000E-03 0. -1.
     -623    1    1    2    0    0  0.12819600500E+01 -0.72778164501E+00  0.24284480841E+01  0.17132355485E+03  0.17130000000E+03 0. -1.
      622    1    1    2    0    0 -0.73538559525E+00  0.95343861328E-01  0.10455501145E+01  0.29888220870E+01  0.27000000000E+01 0.  0.
</event>
<event>
 5   0  0.6580500E-04  0.9118800E+02  0.7818608E-02  0.1180000E+00
       11   -1    0    0    0    0  0.00000000000E+00  0.00000000000E+00  0.39999999673E+01  0.40000000000E+01  0.51109989000E-03 0.  1.
     -623   -1    0    0    0    0  0.00000000000E+00  0.00000000000E+00  0.12525980253E-10  0.17130000000E+03  0.17130000000E+03 0.  1.
       11    1    1    2    0    0  0.12652845946E+00 -0.12127206547E+00  0.16953645438E-01  0.17607967581E+00  0.51109989000E-03 0.  1.
     -623    1    1    2    0    0 -0.15552941078E-01 -0.20066797015E+00  0.13039471109E+01  0.17130508103E+03  0.17130000000E+03 0.  1.
      622    1    1    2    0    0 -0.11097551839E+00  0.32194003562E+00  0.26790992110E+01  0.38188392916E+01  0.27000000000E+01 0.  1.
</event>
<event>
 5   0  0.6580500E-04  0.9118800E+02  0.7818608E-02  0.1180000E+00
       11   -1    0    0    0    0  0.00000000000E+00  0.00000000000E+00  0.39999999673E+01  0.40000000000E+01  0.51109989000E-03 0. -1.
     -623   -1    0    0    0    0  0.00000000000E+00  0.00000000000E+00  0.12525980253E-10  0.17130000000E+03  0.17130000000E+03 0. -1.
       11    1    1    2    0    0 -0.20135379580E+00  0.15746760992E+00 -0.14117570114E-01  0.25600579342E+00  0.51109989000E-03 0. -1.
     -623    1    1    2    0    0  0.50942614318E+00 -0.16655595002E+00  0.14488904576E+01  0.17130696582E+03  0.17130000000E+03 0. -1.
      622    1    1    2    0    0 -0.30807234738E+00  0.90883401037E-02  0.25652270799E+01  0.37370283837E+01  0.27000000000E+01 0. -1.
</event>
<event>
 5   0  0.6580500E-04  0.9118800E+02  0.7818608E-02  0.1180000E+00
       11   -1    0    0    0    0  0.00000000000E+00  0.00000000000E+00  0.39999999673E+01  0.40000000000E+01  0.51109989000E-03 0.  1.
     -623   -1    0    0    0    0  0.00000000000E+00  0.00000000000E+00  0.12525980253E-10  0.17130000000E+03  0.17130000000E+03 0.  1.
       11    1    1    2    0    0  0.13372115013E+00  0.58705263138E-01  0.27879699968E+00  0.31473112678E+00  0.51109989000E-03 0.  1.
     -623    1    1    2    0    0 -0.20329133162E+00 -0.12459889575E+01  0.15321233138E+01  0.17131150346E+03  0.17130000000E+03 0.  1.
      622    1    1    2    0    0  0.69570181495E-01  0.11872836943E+01  0.21890796539E+01  0.36737654133E+01  0.27000000000E+01 0.  1.
</event>
<event>
 5   0  0.6580500E-04  0.9118800E+02  0.7818608E-02  0.1180000E+00
       11   -1    0    0    0    0  0.00000000000E+00  0.00000000000E+00  0.39999999673E+01  0.40000000000E+01  0.51109989000E-03 0.  1.
     -623   -1    0    0    0    0  0.00000000000E+00  0.00000000000E+00  0.12525980253E-10  0.17130000000E+03  0.17130000000E+03 0.  1.
       11    1    1    2    0    0 -0.70115690553E-01 -0.19246974072E-01  0.75451900225E-02  0.73101622322E-01  0.51109989000E-03 0.  1.
     -623    1    1    2    0    0  0.33754184927E+00 -0.85780051537E-01  0.11615017278E+01  0.17130429177E+03  0.17130000000E+03 0.  1.
      622    1    1    2    0    0 -0.26742615871E+00  0.10502702561E+00  0.28309530495E+01  0.39226066072E+01  0.27000000000E+01 0.  1.
</event>
<event>
 5   0  0.6580500E-04  0.9118800E+02  0.7818608E-02  0.1180000E+00
       11   -1    0    0    0    0  0.00000000000E+00  0.00000000000E+00  0.39999999673E+01  0.40000000000E+01  0.51109989000E-03 0. -1.
     -623   -1    0    0    0    0  0.00000000000E+00  0.00000000000E+00  0.12525980253E-10  0.17130000000E+03  0.17130000000E+03 0.  1.
       11    1    1    2    0    0  0.19107727858E+00  0.94743686489E-01  0.13523675425E+00  0.25253937008E+00  0.51109989000E-03 0. -1.
     -623    1    1    2    0    0 -0.78476155737E+00  0.85405788183E+00  0.15367159561E+01  0.17131081916E+03  0.17130000000E+03 0. -1.
      622    1    1    2    0    0  0.59368427878E+00 -0.94880156831E+00  0.23280472570E+01  0.37366414693E+01  0.27000000000E+01 0. -1.
</event>
<event>
 5   0  0.6580500E-04  0.9118800E+02  0.7818608E-02  0.1180000E+00
       11   -1    0    0    0    0  0.00000000000E+00  0.00000000000E+00  0.39999999673E+01  0.40000000000E+01  0.51109989000E-03 0. -1.
     -623   -1    0    0    0    0  0.00000000000E+00  0.00000000000E+00  0.12525980253E-10  0.17130000000E+03  0.17130000000E+03 0.  1.
       11    1    1    2    0    0 -0.16373074822E+00  0.27620714254E+00  0.37538685038E+00  0.49397742070E+00  0.51109989000E-03 0. -1.
     -623    1    1    2    0    0  0.32835154800E+00 -0.10578959410E+01  0.15534618481E+01  0.17131062490E+03  0.17130000000E+03 0.  1.
      622    1    1    2    0    0 -0.16462079978E+00  0.78168879844E+00  0.20711512689E+01  0.34953976832E+01  0.27000000000E+01 0. -1.
</event>
<event>
 5   0  0.6580500E-04  0.9118800E+02  0.7818608E-02  0.1180000E+00
       11   -1    0    0    0    0  0.00000000000E+00  0.00000000000E+00  0.39999999673E+01  0.40000000000E+01  0.51109989000E-03 0. -1.
     -623   -1    0    0    0    0  0.00000000000E+00  0.00000000000E+00  0.12525980253E-10  0.17130000000E+03  0.17130000000E+03 0.  1.
       11    1    1    2    0    0  0.99880362774E-02 -0.10659427093E+00  0.55175914859E-01  0.12044393828E+00  0.51109989000E-03 0. -1.
     -623    1    1    2    0    0 -0.84891183128E-01  0.71427490292E+00  0.12356156343E+01  0.17130596645E+03  0.17130000000E+03 0.  1.
      622    1    1    2    0    0  0.74903146850E-01 -0.60768063199E+00  0.27092084182E+01  0.38735896124E+01  0.27000000000E+01 0. -1.
</event>
<event>
 5   0  0.6580500E-04  0.9118800E+02  0.7818608E-02  0.1180000E+00
       11   -1    0    0    0    0  0.00000000000E+00  0.00000000000E+00  0.39999999673E+01  0.40000000000E+01  0.51109989000E-03 0. -1.
     -623   -1    0    0    0    0  0.00000000000E+00  0.00000000000E+00  0.12525980253E-10  0.17130000000E+03  0.17130000000E+03 0.  1.
       11    1    1    2    0    0 -0.88665531752E-01 -0.55628023923E-01  0.13509334719E+00  0.17089917274E+00  0.51109989000E-03 0. -1.
     -623    1    1    2    0    0  0.49337180754E+00  0.60104313017E+00  0.12452481081E+01  0.17130629093E+03  0.17130000000E+03 0.  1.
      622    1    1    2    0    0 -0.40470627579E+00 -0.54541510625E+00  0.26196585120E+01  0.38228098995E+01  0.27000000000E+01 0.  0.
</event>
<event>
 5   0  0.6580500E-04  0.9118800E+02  0.7818608E-02  0.1180000E+00
       11   -1    0    0    0    0  0.00000000000E+00  0.00000000000E+00  0.39999999673E+01  0.40000000000E+01  0.51109989000E-03 0. -1.
     -623   -1    0    0    0    0  0.00000000000E+00  0.00000000000E+00  0.12525980253E-10  0.17130000000E+03  0.17130000000E+03 0. -1.
       11    1    1    2    0    0 -0.60104680209E+00  0.55556741471E+00  0.59593895157E+00  0.10124504461E+01  0.51109989000E-03 0. -1.
     -623    1    1    2    0    0  0.94698822445E+00 -0.24904116119E+00  0.22566288635E+01  0.17131766162E+03  0.17130000000E+03 0. -1.
      622    1    1    2    0    0 -0.34594142237E+00 -0.30652625353E+00  0.11474321523E+01  0.29698879366E+01  0.27000000000E+01 0. -1.
</event>
<event>
 5   0  0.6580500E-04  0.9118800E+02  0.7818608E-02  0.1180000E+00
       11   -1    0    0    0    0  0.00000000000E+00  0.00000000000E+00  0.39999999673E+01  0.40000000000E+01  0.51109989000E-03 0. -1.
     -623   -1    0    0    0    0  0.00000000000E+00  0.00000000000E+00  0.12525980253E-10  0.17130000000E+03  0.17130000000E+03 0. -1.
       11    1    1    2    0    0  0.65978863382E-01 -0.59311601270E-01 -0.43340241956E-01  0.98740641345E-01  0.51109989000E-03 0. -1.
     -623    1    1    2    0    0  0.37742555962E-01  0.32760615594E+00  0.12488614088E+01  0.17130486976E+03  0.17130000000E+03 0. -1.
      622    1    1    2    0    0 -0.10372141934E+00 -0.26829455467E+00  0.27944788005E+01  0.38963895939E+01  0.27000000000E+01 0. -1.
</event>
<event>
 5   0  0.6580500E-04  0.9118800E+02  0.7818608E-02  0.1180000E+00
       11   -1    0    0    0    0  0.00000000000E+00  0.00000000000E+00  0.39999999673E+01  0.40000000000E+01  0.51109989000E-03 0.  1.
     -623   -1    0    0    0    0  0.00000000000E+00  0.00000000000E+00  0.12525980253E-10  0.17130000000E+03  0.17130000000E+03 0.  1.
       11    1    1    2    0    0 -0.78928097864E-01 -0.22999935339E+00  0.38961839699E-01  0.24626740216E+00  0.51109989000E-03 0.  1.
     -623    1    1    2    0    0  0.12516258147E+00  0.10835251077E+00  0.13644622517E+01  0.17130551411E+03  0.17130000000E+03 0.  1.
      622    1    1    2    0    0 -0.46234483611E-01  0.12164684262E+00  0.25965758760E+01  0.37482184917E+01  0.27000000000E+01 0.  1.
</event>
<event>
 5   0  0.6580500E-04  0.9118800E+02  0.7818608E-02  0.1180000E+00
       11   -1    0    0    0    0  0.00000000000E+00  0.00000000000E+00  0.39999999673E+01  0.40000000000E+01  0.51109989000E-03 0. -1.
     -623   -1    0    0    0    0  0.00000000000E+00  0.00000000000E+00  0.12525980253E-10  0.17130000000E+03  0.17130000000E+03 0.  1.
       11    1    1    2    0    0  0.14377545962E+00 -0.77223398452E-02 -0.90952258243E-02  0.14427058492E+00  0.51109989000E-03 0. -1.
     -623    1    1    2    0    0 -0.11451580802E+00 -0.24778549083E+00  0.12755563753E+01  0.17130496652E+03  0.17130000000E+03 0.  1.
      622    1    1    2    0    0 -0.29259651603E-01  0.25550783068E+00  0.27335388179E+01  0.38507628917E+01  0.27000000000E+01 0. -1.
</event>
<event>
 5   0  0.6580500E-04  0.9118800E+02  0.7818608E-02  0.1180000E+00
       11   -1    0    0    0    0  0.00000000000E+00  0.00000000000E+00  0.39999999673E+01  0.40000000000E+01  0.51109989000E-03 0.  1.
     -623   -1    0    0    0    0  0.00000000000E+00  0.00000000000E+00  0.12525980253E-10  0.17130000000E+03  0.17130000000E+03 0. -1.
       11    1    1    2    0    0 -0.10615110702E+00  0.66556247630E-01 -0.56912662297E-01  0.13761215053E+00  0.51109989000E-03 0.  1.
     -623    1    1    2    0    0 -0.15040764742E-01 -0.36637261248E+00  0.13217581016E+01  0.17130549174E+03  0.17130000000E+03 0. -1.
      622    1    1    2    0    0  0.12119187176E+00  0.29981636485E+00  0.27351545281E+01  0.38568961115E+01  0.27000000000E+01 0.  1.
</event>
<event>
 5   0  0.6580500E-04  0.9118800E+02  0.7818608E-02  0.1180000E+00
       11   -1    0    0    0    0  0.00000000000E+00  0.00000000000E+00  0.39999999673E+01  0.40000000000E+01  0.51109989000E-03 0.  1.
     -623   -1    0    0    0    0  0.00000000000E+00  0.00000000000E+00  0.12525980253E-10  0.17130000000E+03  0.17130000000E+03 0. -1.
       11    1    1    2    0    0 -0.16341825637E-02  0.15837277997E+00 -0.45381584478E-01  0.16475544732E+00  0.51109989000E-03 0.  1.
     -623    1    1    2    0    0 -0.79037953507E-01 -0.11759978715E+00  0.13304454128E+01  0.17130522514E+03  0.17130000000E+03 0. -1.
      622    1    1    2    0    0  0.80672136071E-01 -0.40772992822E-01  0.27149361390E+01  0.38300194085E+01  0.27000000000E+01 0.  1.
</event>
<event>
 5   0  0.6580500E-04  0.9118800E+02  0.7818608E-02  0.1180000E+00
       11   -1    0    0    0    0  0.00000000000E+00  0.00000000000E+00  0.39999999673E+01  0.40000000000E+01  0.51109989000E-03 0.  1.
     -623   -1    0    0    0    0  0.00000000000E+00  0.00000000000E+00  0.12525980253E-10  0.17130000000E+03  0.17130000000E+03 0. -1.
       11    1    1    2    0    0 -0.28225133544E+00 -0.34539868359E+00  0.52088560371E+00  0.68577557580E+00  0.51109989000E-03 0.  1.
     -623    1    1    2    0    0 -0.28217165586E+00  0.32474044748E+00  0.16574594913E+01  0.17130855860E+03  0.17130000000E+03 0. -1.
      622    1    1    2    0    0  0.56442299130E+00  0.20658236112E-01  0.18216548724E+01  0.33056658255E+01  0.27000000000E+01 0.  1.
</event>
<event>
 5   0  0.6580500E-04  0.9118800E+02  0.7818608E-02  0.1180000E+00
       11   -1    0    0    0    0  0.00000000000E+00  0.00000000000E+00  0.39999999673E+01  0.40000000000E+01  0.51109989000E-03 0. -1.
     -623   -1    0    0    0    0  0.00000000000E+00  0.00000000000E+00  0.12525980253E-10  0.17130000000E+03  0.17130000000E+03 0.  1.
       11    1    1    2    0    0 -0.26854599894E+00 -0.42892490795E+00  0.67295756205E+00  0.84200099272E+00  0.51109989000E-03 0. -1.
     -623    1    1    2    0    0  0.90577836908E+00  0.68438095598E+00  0.18697771872E+01  0.17131396580E+03  0.17130000000E+03 0.  1.
      622    1    1    2    0    0 -0.63723237014E+00 -0.25545604802E+00  0.14572652181E+01  0.31440332062E+01  0.27000000000E+01 0. -1.
</event>
<event>
 5   0  0.6580500E-04  0.9118800E+02  0.7818608E-02  0.1180000E+00
       11   -1    0    0    0    0  0.00000000000E+00  0.00000000000E+00  0.39999999673E+01  0.40000000000E+01  0.51109989000E-03 0.  1.
     -623   -1    0    0    0    0  0.00000000000E+00  0.00000000000E+00  0.12525980253E-10  0.17130000000E+03  0.17130000000E+03 0. -1.
       11    1    1    2    0    0  0.53925660014E-01 -0.81019981505E-01  0.53167280513E-01  0.11090191681E+00  0.51109989000E-03 0.  1.
     -623    1    1    2    0    0  0.68005231895E+00  0.32374616042E+00  0.12657447403E+01  0.17130633203E+03  0.17130000000E+03 0. -1.
      622    1    1    2    0    0 -0.73397797896E+00 -0.24272617891E+00  0.26810879465E+01  0.38827660564E+01  0.27000000000E+01 0.  1.
</event>
<event>
 5   0  0.6580500E-04  0.9118800E+02  0.7818608E-02  0.1180000E+00
       11   -1    0    0    0    0  0.00000000000E+00  0.00000000000E+00  0.39999999673E+01  0.40000000000E+01  0.51109989000E-03 0. -1.
     -623   -1    0    0    0    0  0.00000000000E+00  0.00000000000E+00  0.12525980253E-10  0.17130000000E+03  0.17130000000E+03 0. -1.
       11    1    1    2    0    0  0.15568275466E+00  0.25361443516E+00  0.14469153586E+00  0.33089772376E+00  0.51109989000E-03 0. -1.
     -623    1    1    2    0    0  0.23027950925E+00 -0.42350516563E+00  0.14167523701E+01  0.17130653686E+03  0.17130000000E+03 0. -1.
      622    1    1    2    0    0 -0.38596226391E+00  0.16989073047E+00  0.24385560614E+01  0.36625654116E+01  0.27000000000E+01 0. -1.
</event>
<event>
 5   0  0.6580500E-04  0.9118800E+02  0.7818608E-02  0.1180000E+00
       11   -1    0    0    0    0  0.00000000000E+00  0.00000000000E+00  0.39999999673E+01  0.40000000000E+01  0.51109989000E-03 0. -1.
     -623   -1    0    0    0    0  0.00000000000E+00  0.00000000000E+00  0.12525980253E-10  0.17130000000E+03  0.17130000000E+03 0. -1.
       11    1    1    2    0    0 -0.25053249682E+00 -0.16330262742E+00  0.82208250752E+00  0.87478808318E+00  0.51109989000E-03 0. -1.
     -623    1    1    2    0    0  0.81216689197E+00  0.23212524564E+00  0.17325388589E+01  0.17131084376E+03  0.17130000000E+03 0. -1.
      622    1    1    2    0    0 -0.56163439515E+00 -0.68822618221E-01  0.14453786009E+01  0.31143681617E+01  0.27000000000E+01 0. -1.
</event>
<event>
 5   0  0.6580500E-04  0.9118800E+02  0.7818608E-02  0.1180000E+00
       11   -1    0    0    0    0  0.00000000000E+00  0.00000000000E+00  0.39999999673E+01  0.40000000000E+01  0.51109989000E-03 0.  1.
     -623   -1    0    0    0    0  0.00000000000E+00  0.00000000000E+00  0.12525980253E-10  0.17130000000E+03  0.17130000000E+03 0.  1.
       11    1    1    2    0    0 -0.66878472440E-01 -0.72604322335E-01  0.64875348196E+00  0.65622058736E+00  0.51109989000E-03 0.  1.
     -623    1    1    2    0    0 -0.10975350659E+00  0.29093954204E+00  0.14092434551E+01  0.17130607887E+03  0.17130000000E+03 0.  1.
      622    1    1    2    0    0  0.17663197903E+00 -0.21833521971E+00  0.19420030303E+01  0.33377005399E+01  0.27000000000E+01 0.  1.
</event>
<event>
 5   0  0.6580500E-04  0.9118800E+02  0.7818608E-02  0.1180000E+00
       11   -1    0    0    0    0  0.00000000000E+00  0.00000000000E+00  0.39999999673E+01  0.40000000000E+01  0.51109989000E-03 0. -1.
     -623   -1    0    0    0    0  0.00000000000E+00  0.00000000000E+00  0.12525980253E-10  0.17130000000E+03  0.17130000000E+03 0. -1.
       11    1    1    2    0    0 -0.23820950806E+00 -0.51057843819E+00  0.41275823423E+00  0.69842947562E+00  0.51109989000E-03 0. -1.
     -623    1    1    2    0    0 -0.55169948480E+00  0.40599494230E+00  0.18848617075E+01  0.17131173897E+03  0.17130000000E+03 0. -1.
      622    1    1    2    0    0  0.78990899286E+00  0.10458349589E+00  0.17023800257E+01  0.32898315575E+01  0.27000000000E+01 0. -1.
</event>
<event>
 5   0  0.6580500E-04  0.9118800E+02  0.7818608E-02  0.1180000E+00
       11   -1    0    0    0    0  0.00000000000E+00  0.00000000000E+00  0.39999999673E+01  0.40000000000E+01  0.51109989000E-03 0.  1.
     -623   -1    0    0    0    0  0.00000000000E+00  0.00000000000E+00  0.12525980253E-10  0.17130000000E+03  0.17130000000E+03 0.  1.
       11    1    1    2    0    0 -0.50616135237E-01 -0.46215647842E+00  0.41671260899E+00  0.62433986210E+00  0.51109989000E-03 0.  1.
     -623    1    1    2    0    0 -0.28075415301E+00  0.59069429164E+00  0.16034549661E+01  0.17130875287E+03  0.17130000000E+03 0.  1.
      622    1    1    2    0    0  0.33137028825E+00 -0.12853781322E+00  0.19798323923E+01  0.33669072662E+01  0.27000000000E+01 0.  1.
</event>
<event>
 5   0  0.6580500E-04  0.9118800E+02  0.7818608E-02  0.1180000E+00
       11   -1    0    0    0    0  0.00000000000E+00  0.00000000000E+00  0.39999999673E+01  0.40000000000E+01  0.51109989000E-03 0. -1.
     -623   -1    0    0    0    0  0.00000000000E+00  0.00000000000E+00  0.12525980253E-10  0.17130000000E+03  0.17130000000E+03 0.  1.
       11    1    1    2    0    0 -0.31161259002E-01 -0.10263149447E+00 -0.46860528539E-02  0.10736138987E+00  0.51109989000E-03 0. -1.
     -623    1    1    2    0    0  0.68004472134E+00  0.49813440059E+00  0.13158721415E+01  0.17130712804E+03  0.17130000000E+03 0.  1.
      622    1    1    2    0    0 -0.64888346234E+00 -0.39550290612E+00  0.26888138787E+01  0.38855105676E+01  0.27000000000E+01 0.  0.
</event>
<event>
 5   0  0.6580500E-04  0.9118800E+02  0.7818608E-02  0.1180000E+00
       11   -1    0    0    0    0  0.00000000000E+00  0.00000000000E+00  0.39999999673E+01  0.40000000000E+01  0.51109989000E-03 0.  1.
     -623   -1    0    0    0    0  0.00000000000E+00  0.00000000000E+00  0.12525980253E-10  0.17130000000E+03  0.17130000000E+03 0. -1.
       11    1    1    2    0    0 -0.15904759287E+00 -0.59624358200E-01  0.15618283616E+00  0.23074778530E+00  0.51109989000E-03 0.  1.
     -623    1    1    2    0    0 -0.42575264405E+00  0.29020456673E+00  0.12983896945E+01  0.17130569547E+03  0.17130000000E+03 0. -1.
      622    1    1    2    0    0  0.58480023691E+00 -0.23058020853E+00  0.25454274367E+01  0.37635567466E+01  0.27000000000E+01 0.  1.
</event>
<event>
 5   0  0.6580500E-04  0.9118800E+02  0.7818608E-02  0.1180000E+00
       11   -1    0    0    0    0  0.00000000000E+00  0.00000000000E+00  0.39999999673E+01  0.40000000000E+01  0.51109989000E-03 0.  1.
     -623   -1    0    0    0    0  0.00000000000E+00  0.00000000000E+00  0.12525980253E-10  0.17130000000E+03  0.17130000000E+03 0.  1.
       11    1    1    2    0    0  0.11138768718E+00 -0.17772014039E+00 -0.81638539037E-01  0.22507060545E+00  0.51109989000E-03 0.  1.
     -623    1    1    2    0    0  0.13694112970E+00  0.32025580193E-01  0.14683473709E+01  0.17130635079E+03  0.17130000000E+03 0.  1.
      622    1    1    2    0    0 -0.24832881688E+00  0.14569456020E+00  0.26132911355E+01  0.37685786001E+01  0.27000000000E+01 0.  1.
</event>
<event>
 5   0  0.6580500E-04  0.9118800E+02  0.7818608E-02  0.1180000E+00
       11   -1    0    0    0    0  0.00000000000E+00  0.00000000000E+00  0.39999999673E+01  0.40000000000E+01  0.51109989000E-03 0.  1.
     -623   -1    0    0    0    0  0.00000000000E+00  0.00000000000E+00  0.12525980253E-10  0.17130000000E+03  0.17130000000E+03 0.  1.
       11    1    1    2    0    0 -0.58547726127E-01  0.89097491681E-01 -0.54723297804E-01  0.11983780622E+00  0.51109989000E-03 0.  1.
     -623    1    1    2    0    0  0.61105728377E+00  0.14745466833E+00  0.13427708816E+01  0.17130641601E+03  0.17130000000E+03 0.  1.
      622    1    1    2    0    0 -0.55250955764E+00 -0.23655216001E+00  0.27119523835E+01  0.38737461799E+01  0.27000000000E+01 0.  1.
</event>
<event>
 5   0  0.6580500E-04  0.9118800E+02  0.7818608E-02  0.1180000E+00
       11   -1    0    0    0    0  0.00000000000E+00  0.00000000000E+00  0.39999999673E+01  0.40000000000E+01  0.51109989000E-03 0.  1.
     -623   -1    0    0    0    0  0.00000000000E+00  0.00000000000E+00  0.12525980253E-10  0.17130000000E+03  0.17130000000E+03 0.  1.
       11    1    1    2    0    0 -0.96794625895E-01 -0.42896626563E-01 -0.11141712051E+00  0.15369891391E+00  0.51109989000E-03 0.  1.
     -623    1    1    2    0    0 -0.59976650851E+00 -0.26897655045E-01  0.14737748614E+01  0.17130739171E+03  0.17130000000E+03 0.  1.
      622    1    1    2    0    0  0.69656113441E+00  0.69794281608E-01  0.26376422265E+01  0.38389093726E+01  0.27000000000E+01 0.  1.
</event>
<event>
 5   0  0.6580500E-04  0.9118800E+02  0.7818608E-02  0.1180000E+00
       11   -1    0    0    0    0  0.00000000000E+00  0.00000000000E+00  0.39999999673E+01  0.40000000000E+01  0.51109989000E-03 0.  1.
     -623   -1    0    0    0    0  0.00000000000E+00  0.00000000000E+00  0.12525980253E-10  0.17130000000E+03  0.17130000000E+03 0. -1.
       11    1    1    2    0    0 -0.74070679995E-02 -0.90514997539E-01 -0.61653874418E-03  0.90821092148E-01  0.51109989000E-03 0.  1.
     -623    1    1    2    0    0  0.58570456062E+00  0.49516696705E+00  0.12723972287E+01  0.17130644248E+03  0.17130000000E+03 0. -1.
      622    1    1    2    0    0 -0.57829749262E+00 -0.40465196951E+00  0.27282192774E+01  0.39027364287E+01  0.27000000000E+01 0.  1.
</event>
<event>
 5   0  0.6580500E-04  0.9118800E+02  0.7818608E-02  0.1180000E+00
       11   -1    0    0    0    0  0.00000000000E+00  0.00000000000E+00  0.39999999673E+01  0.40000000000E+01  0.51109989000E-03 0. -1.
     -623   -1    0    0    0    0  0.00000000000E+00  0.00000000000E+00  0.12525980253E-10  0.17130000000E+03  0.17130000000E+03 0.  1.
       11    1    1    2    0    0  0.73109301390E-01 -0.38600846028E+00  0.11196588766E+00  0.40851453166E+00  0.51109989000E-03 0. -1.
     -623    1    1    2    0    0  0.28084549169E+00 -0.67684996561E-01  0.16028440429E+01  0.17130774228E+03  0.17130000000E+03 0.  1.
      622    1    1    2    0    0 -0.35395479308E+00  0.45369345684E+00  0.22851900368E+01  0.35837431901E+01  0.27000000000E+01 0. -1.
</event>
<event>
 5   0  0.6580500E-04  0.9118800E+02  0.7818608E-02  0.1180000E+00
       11   -1    0    0    0    0  0.00000000000E+00  0.00000000000E+00  0.39999999673E+01  0.40000000000E+01  0.51109989000E-03 0.  1.
     -623   -1    0    0    0    0  0.00000000000E+00  0.00000000000E+00  0.12525980253E-10  0.17130000000E+03  0.17130000000E+03 0. -1.
       11    1    1    2    0    0 -0.34441852639E+00 -0.31865168539E+00 -0.19897782513E+00  0.50966209790E+00  0.51109989000E-03 0.  1.
     -623    1    1    2    0    0  0.16266603332E+00 -0.18497194264E-01  0.20401460301E+01  0.17131222665E+03  0.17130000000E+03 0. -1.
      622    1    1    2    0    0  0.18175249307E+00  0.33714887965E+00  0.21588317623E+01  0.34781112567E+01  0.27000000000E+01 0.  1.
</event>
<event>
 5   0  0.6580500E-04  0.9118800E+02  0.7818608E-02  0.1180000E+00
       11   -1    0    0    0    0  0.00000000000E+00  0.00000000000E+00  0.39999999673E+01  0.40000000000E+01  0.51109989000E-03 0. -1.
     -623   -1    0    0    0    0  0.00000000000E+00  0.00000000000E+00  0.12525980253E-10  0.17130000000E+03  0.17130000000E+03 0. -1.
       11    1    1    2    0    0  0.29733975114E+00 -0.17127193736E+00  0.32872463890E+00  0.47518959750E+00  0.51109989000E-03 0. -1.
     -623    1    1    2    0    0 -0.78152367164E+00 -0.82460584424E+00  0.17165248380E+01  0.17131236736E+03  0.17130000000E+03 0. -1.
      622    1    1    2    0    0  0.48418392050E+00  0.99587778160E+00  0.19547504904E+01  0.35124430393E+01  0.27000000000E+01 0. -1.
</event>
<event>
 5   0  0.6580500E-04  0.9118800E+02  0.7818608E-02  0.1180000E+00
       11   -1    0    0    0    0  0.00000000000E+00  0.00000000000E+00  0.39999999673E+01  0.40000000000E+01  0.51109989000E-03 0.  1.
     -623   -1    0    0    0    0  0.00000000000E+00  0.00000000000E+00  0.12525980253E-10  0.17130000000E+03  0.17130000000E+03 0.  1.
       11    1    1    2    0    0  0.52674728435E-01 -0.76033690916E-01  0.11592941113E+00  0.14830926726E+00  0.51109989000E-03 0.  1.
     -623    1    1    2    0    0  0.12026030891E+00  0.45879618393E+00  0.11761249677E+01  0.17130469412E+03  0.17130000000E+03 0.  1.
      622    1    1    2    0    0 -0.17293503735E+00 -0.38276249301E+00  0.27079455885E+01  0.38469966160E+01  0.27000000000E+01 0.  1.
</event>
<event>
 5   0  0.6580500E-04  0.9118800E+02  0.7818608E-02  0.1180000E+00
       11   -1    0    0    0    0  0.00000000000E+00  0.00000000000E+00  0.39999999673E+01  0.40000000000E+01  0.51109989000E-03 0. -1.
     -623   -1    0    0    0    0  0.00000000000E+00  0.00000000000E+00  0.12525980253E-10  0.17130000000E+03  0.17130000000E+03 0. -1.
       11    1    1    2    0    0 -0.31044022673E-01  0.29564450759E-01  0.25167541589E-02  0.42946284670E-01  0.51109989000E-03 0. -1.
     -623    1    1    2    0    0 -0.12732678381E+00 -0.28349367654E+00  0.11256847858E+01  0.17130398053E+03  0.17130000000E+03 0. -1.
      622    1    1    2    0    0  0.15837080648E+00  0.25392922578E+00  0.28717984274E+01  0.39530731807E+01  0.27000000000E+01 0. -1.
</event>
<event>
 5   0  0.6580500E-04  0.9118800E+02  0.7818608E-02  0.1180000E+00
       11   -1    0    0    0    0  0.00000000000E+00  0.00000000000E+00  0.39999999673E+01  0.40000000000E+01  0.51109989000E-03 0. -1.
     -623   -1    0    0    0    0  0.00000000000E+00  0.00000000000E+00  0.12525980253E-10  0.17130000000E+03  0.17130000000E+03 0.  1.
       11    1    1    2    0    0  0.30552242792E+00 -0.14364460079E-01  0.80887593252E-01  0.31637533981E+00  0.51109989000E-03 0. -1.
     -623    1    1    2    0    0  0.50841137272E+00 -0.61582483421E+00  0.16503507563E+01  0.17130981110E+03  0.17130000000E+03 0.  1.
      622    1    1    2    0    0 -0.81393380064E+00  0.63018929429E+00  0.22687616178E+01  0.36738135577E+01  0.27000000000E+01 0.  1.
</event>
<event>
 5   0  0.6580500E-04  0.9118800E+02  0.7818608E-02  0.1180000E+00
       11   -1    0    0    0    0  0.00000000000E+00  0.00000000000E+00  0.39999999673E+01  0.40000000000E+01  0.51109989000E-03 0.  1.
     -623   -1    0    0    0    0  0.00000000000E+00  0.00000000000E+00  0.12525980253E-10  0.17130000000E+03  0.17130000000E+03 0.  1.
       11    1    1    2    0    0 -0.78852880452E-01 -0.14402930144E+00  0.15970418306E+00  0.22905873426E+00  0.51109989000E-03 0.  1.
     -623    1    1    2    0    0 -0.39005069366E+00  0.11678292989E+01  0.14779617073E+01  0.17131080041E+03  0.17130000000E+03 0.  1.
      622    1    1    2    0    0  0.46890357411E+00 -0.10237999974E+01  0.23623340770E+01  0.37601408601E+01  0.27000000000E+01 0.  0.
</event>
<event>
 5   0  0.6580500E-04  0.9118800E+02  0.7818608E-02  0.1180000E+00
       11   -1    0    0    0    0  0.00000000000E+00  0.00000000000E+00  0.39999999673E+01  0.40000000000E+01  0.51109989000E-03 0. -1.
     -623   -1    0    0    0    0  0.00000000000E+00  0.00000000000E+00  0.12525980253E-10  0.17130000000E+03  0.17130000000E+03 0. -1.
       11    1    1    2    0    0 -0.69394003437E-01  0.20248412307E+00  0.11950530098E+00  0.24514715171E+00  0.51109989000E-03 0. -1.
     -623    1    1    2    0    0 -0.18647429640E+00 -0.50840768949E+00  0.13103127969E+01  0.17130586730E+03  0.17130000000E+03 0. -1.
      622    1    1    2    0    0  0.25586829984E+00  0.30592356642E+00  0.25701818695E+01  0.37489855504E+01  0.27000000000E+01 0. -1.
</event>
<event>
 5   0  0.6580500E-04  0.9118800E+02  0.7818608E-02  0.1180000E+00
       11   -1    0    0    0    0  0.00000000000E+00  0.00000000000E+00  0.39999999673E+01  0.40000000000E+01  0.51109989000E-03 0.  1.
     -623   -1    0    0    0    0  0.00000000000E+00  0.00000000000E+00  0.12525980253E-10  0.17130000000E+03  0.17130000000E+03 0.  1.
       11    1    1    2    0    0  0.15744667720E+00 -0.53717534615E-01  0.35887070148E-01  0.17018570067E+00  0.51109989000E-03 0.  1.
     -623    1    1    2    0    0  0.37379526716E-01  0.24677750378E+00  0.12687669919E+01  0.17130488045E+03  0.17130000000E+03 0.  1.
      622    1    1    2    0    0 -0.19482620391E+00 -0.19305996917E+00  0.26953459053E+01  0.38249338492E+01  0.27000000000E+01 0.  1.
</event>
<event>
 5   0  0.6580500E-04  0.9118800E+02  0.7818608E-02  0.1180000E+00
       11   -1    0    0    0    0  0.00000000000E+00  0.00000000000E+00  0.39999999673E+01  0.40000000000E+01  0.51109989000E-03 0. -1.
     -623   -1    0    0    0    0  0.00000000000E+00  0.00000000000E+00  0.12525980253E-10  0.17130000000E+03  0.17130000000E+03 0.  1.
       11    1    1    2    0    0  0.56665526718E-01  0.50194990501E+00  0.41473440347E+00  0.65358211091E+00  0.51109989000E-03 0. -1.
     -623    1    1    2    0    0 -0.31257164297E+00 -0.78994433693E+00  0.16638046825E+01  0.17131018638E+03  0.17130000000E+03 0.  1.
      622    1    1    2    0    0  0.25590611625E+00  0.28799443192E+00  0.19214608814E+01  0.33362315045E+01  0.27000000000E+01 0. -1.
</event>
<event>
 5   0  0.6580500E-04  0.9118800E+02  0.7818608E-02  0.1180000E+00
       11   -1    0    0    0    0  0.00000000000E+00  0.00000000000E+00  0.39999999673E+01  0.40000000000E+01  0.51109989000E-03 0.  1.
     -623   -1    0    0    0    0  0.00000000000E+00  0.00000000000E+00  0.12525980253E-10  0.17130000000E+03  0.17130000000E+03 0.  1.
       11    1    1    2    0    0 -0.57024644615E-01  0.24704220676E-01  0.20201902964E-01  0.65348961118E-01  0.51109989000E-03 0.  1.
     -623    1    1    2    0    0 -0.56541218024E-01 -0.83572974606E-01  0.11257152247E+01  0.17130372855E+03  0.17130000000E+03 0.  1.
      622    1    1    2    0    0  0.11356586264E+00  0.58868753931E-01  0.28540828397E+01  0.39309224860E+01  0.27000000000E+01 0.  1.
</event>
<event>
 5   0  0.6580500E-04  0.9118800E+02  0.7818608E-02  0.1180000E+00
       11   -1    0    0    0    0  0.00000000000E+00  0.00000000000E+00  0.39999999673E+01  0.40000000000E+01  0.51109989000E-03 0.  1.
     -623   -1    0    0    0    0  0.00000000000E+00  0.00000000000E+00  0.12525980253E-10  0.17130000000E+03  0.17130000000E+03 0.  1.
       11    1    1    2    0    0 -0.41560308737E+00 -0.25677337262E+00  0.47716856628E+00  0.68289720528E+00  0.51109989000E-03 0.  1.
     -623    1    1    2    0    0  0.48982652038E+00  0.91480562145E+00  0.17351946669E+01  0.17131193099E+03  0.17130000000E+03 0.  1.
      622    1    1    2    0    0 -0.74223433010E-01 -0.65803224883E+00  0.17876367342E+01  0.33051718037E+01  0.27000000000E+01 0.  1.
</event>
<event>
 5   0  0.6580500E-04  0.9118800E+02  0.7818608E-02  0.1180000E+00
       11   -1    0    0    0    0  0.00000000000E+00  0.00000000000E+00  0.39999999673E+01  0.40000000000E+01  0.51109989000E-03 0. -1.
     -623   -1    0    0    0    0  0.00000000000E+00  0.00000000000E+00  0.12525980253E-10  0.17130000000E+03  0.17130000000E+03 0.  1.
       11    1    1    2    0    0 -0.83427541009E-01  0.75368417745E-01 -0.97370057512E-02  0.11285221972E+00  0.51109989000E-03 0. -1.
     -623    1    1    2    0    0  0.73467805055E+00  0.19830768926E+00  0.13136961777E+01  0.17130672747E+03  0.17130000000E+03 0.  1.
      622    1    1    2    0    0 -0.65125050955E+00 -0.27367610701E+00  0.26960407954E+01  0.38804203134E+01  0.27000000000E+01 0.  0.
</event>
<event>
 5   0  0.6580500E-04  0.9118800E+02  0.7818608E-02  0.1180000E+00
       11   -1    0    0    0    0  0.00000000000E+00  0.00000000000E+00  0.39999999673E+01  0.40000000000E+01  0.51109989000E-03 0. -1.
     -623   -1    0    0    0    0  0.00000000000E+00  0.00000000000E+00  0.12525980253E-10  0.17130000000E+03  0.17130000000E+03 0. -1.
       11    1    1    2    0    0 -0.57136623985E-01  0.32074171244E+00 -0.24920662809E+00  0.41017562654E+00  0.51109989000E-03 0. -1.
     -623    1    1    2    0    0 -0.34541774045E+00 -0.33461321995E+00  0.19359084058E+01  0.17131161379E+03  0.17130000000E+03 0. -1.
      622    1    1    2    0    0  0.40255436443E+00  0.13871507510E-01  0.23132981897E+01  0.35782105792E+01  0.27000000000E+01 0. -1.
</event>
<event>
 5   0  0.6580500E-04  0.9118800E+02  0.7818608E-02  0.1180000E+00
       11   -1    0    0    0    0  0.00000000000E+00  0.00000000000E+00  0.39999999673E+01  0.40000000000E+01  0.51109989000E-03 0. -1.
     -623   -1    0    0    0    0  0.00000000000E+00  0.00000000000E+00  0.12525980253E-10  0.17130000000E+03  0.17130000000E+03 0. -1.
       11    1    1    2    0    0  0.53696513297E-01 -0.56389239704E-01 -0.57051239794E-01  0.96530653576E-01  0.51109989000E-03 0. -1.
     -623    1    1    2    0    0  0.15792227645E+00 -0.89772330604E-01  0.12562953887E+01  0.17130470302E+03  0.17130000000E+03 0. -1.
      622    1    1    2    0    0 -0.21161878975E+00  0.14616157031E+00  0.28007558185E+01  0.38987663269E+01  0.27000000000E+01 0. -1.
</event>
<event>
 5   0  0.6580500E-04  0.9118800E+02  0.7818608E-02  0.1180000E+00
       11   -1    0    0    0    0  0.00000000000E+00  0.00000000000E+00  0.39999999673E+01  0.40000000000E+01  0.51109989000E-03 0. -1.
     -623   -1    0    0    0    0  0.00000000000E+00  0.00000000000E+00  0.12525980253E-10  0.17130000000E+03  0.17130000000E+03 0. -1.
       11    1    1    2    0    0 -0.10803119513E+00  0.18743131224E-02  0.35472011466E-01  0.11372236803E+00  0.51109989000E-03 0. -1.
     -623    1    1    2    0    0  0.16591581557E+00 -0.31977321781E+00  0.11944280185E+01  0.17130454297E+03  0.17130000000E+03 0. -1.
      622    1    1    2    0    0 -0.57884620433E-01  0.31789890469E+00  0.27700999374E+01  0.38817346646E+01  0.27000000000E+01 0. -1.
</event>
<event>
 5   0  0.6580500E-04  0.9118800E+02  0.7818608E-02  0.1180000E+00
       11   -1    0    0    0    0  0.00000000000E+00  0.00000000000E+00  0.39999999673E+01  0.40000000000E+01  0.51109989000E-03 0. -1.
     -623   -1    0    0    0    0  0.00000000000E+00  0.00000000000E+00  0.12525980253E-10  0.17130000000E+03  0.17130000000E+03 0.  1.
       11    1    1    2    0    0 -0.18822806866E-01 -0.44683650670E+00  0.34336799444E+00  0.56384306559E+00  0.51109989000E-03 0. -1.
     -623    1    1    2    0    0 -0.55957573685E-01  0.71484381285E+00  0.15636745258E+01  0.17130863729E+03  0.17130000000E+03 0.  1.
      622    1    1    2    0    0  0.74780380551E-01 -0.26800730614E+00  0.20929574471E+01  0.34275196421E+01  0.27000000000E+01 0. -1.
</event>
<event>
 5   0  0.6580500E-04  0.9118800E+02  0.7818608E-02  0.1180000E+00
       11   -1    0    0    0    0  0.00000000000E+00  0.00000000000E+00  0.39999999673E+01  0.40000000000E+01  0.51109989000E-03 0.  1.
     -623   -1    0    0    0    0  0.00000000000E+00  0.00000000000E+00  0.12525980253E-10  0.17130000000E+03  0.17130000000E+03 0. -1.
       11    1    1    2    0    0  0.30477241947E+00  0.10686826413E+00 -0.23835631007E+00  0.40139886064E+00  0.51109989000E-03 0.  1.
     -623    1    1    2    0    0 -0.42610655039E+00 -0.56079657056E-01  0.18794017368E+01  0.17131084864E+03  0.17130000000E+03 0. -1.
      622    1    1    2    0    0  0.12133413092E+00 -0.50788607073E-01  0.23589545407E+01  0.35877524969E+01  0.27000000000E+01 0.  1.
</event>
<event>
 5   0  0.6580500E-04  0.9118800E+02  0.7818608E-02  0.1180000E+00
       11   -1    0    0    0    0  0.00000000000E+00  0.00000000000E+00  0.39999999673E+01  0.40000000000E+01  0.51109989000E-03 0.  1.
     -623   -1    0    0    0    0  0.00000000000E+00  0.00000000000E+00  0.12525980253E-10  0.17130000000E+03  0.17130000000E+03 0. -1.
       11    1    1    2    0    0  0.17457727139E+00  0.16323140329E+00 -0.14660178320E+00  0.28038198723E+00  0.51109989000E-03 0.  1.
     -623    1    1    2    0    0  0.32001885031E+00 -0.15362091121E+00  0.16487734907E+01  0.17130830238E+03  0.17130000000E+03 0. -1.
      622    1    1    2    0    0 -0.49459612170E+00 -0.96104920795E-02  0.24978282599E+01  0.37113156294E+01  0.27000000000E+01 0.  1.
</event>
<event>
 5   0  0.6580500E-04  0.9118800E+02  0.7818608E-02  0.1180000E+00
       11   -1    0    0    0    0  0.00000000000E+00  0.00000000000E+00  0.39999999673E+01  0.40000000000E+01  0.51109989000E-03 0. -1.
     -623   -1    0    0    0    0  0.00000000000E+00  0.00000000000E+00  0.12525980253E-10  0.17130000000E+03  0.17130000000E+03 0.  1.
       11    1    1    2    0    0 -0.20175052595E-02 -0.53710741180E-01 -0.27732689328E-01  0.60483694701E-01  0.51109989000E-03 0. -1.
     -623    1    1    2    0    0 -0.15153152139E+00 -0.19118218194E+00  0.11794177035E+01  0.17130423386E+03  0.17130000000E+03 0.  1.
      622    1    1    2    0    0  0.15354902665E+00  0.24489292312E+00  0.28483149532E+01  0.39352824448E+01  0.27000000000E+01 0. -1.
</event>
<event>
 5   0  0.6580500E-04  0.9118800E+02  0.7818608E-02  0.1180000E+00
       11   -1    0    0    0    0  0.00000000000E+00  0.00000000000E+00  0.39999999673E+01  0.40000000000E+01  0.51109989000E-03 0. -1.
     -623   -1    0    0    0    0  0.00000000000E+00  0.00000000000E+00  0.12525980253E-10  0.17130000000E+03  0.17130000000E+03 0.  1.
       11    1    1    2    0    0  0.75157099911E-01 -0.12653054397E+00 -0.25904696572E-01  0.14943186659E+00  0.51109989000E-03 0. -1.
     -623    1    1    2    0    0  0.11061516861E+00  0.76347468225E-01  0.12942733830E+01  0.17130494216E+03  0.17130000000E+03 0.  1.
      622    1    1    2    0    0 -0.18577226852E+00  0.50183075743E-01  0.27316312809E+01  0.38456259740E+01  0.27000000000E+01 0. -1.
</event>
<event>
 5   0  0.6580500E-04  0.9118800E+02  0.7818608E-02  0.1180000E+00
       11   -1    0    0    0    0  0.00000000000E+00  0.00000000000E+00  0.39999999673E+01  0.40000000000E+01  0.51109989000E-03 0.  1.
     -623   -1    0    0    0    0  0.00000000000E+00  0.00000000000E+00  0.12525980253E-10  0.17130000000E+03  0.17130000000E+03 0.  1.
       11    1    1    2    0    0  0.93544686754E-01  0.13801761549E+00  0.11668390249E+00  0.20350642478E+00  0.51109989000E-03 0.  1.
     -623    1    1    2    0    0 -0.20384167475E+00 -0.27563231300E-01  0.12253461654E+01  0.17130450602E+03  0.17130000000E+03 0.  1.
      622    1    1    2    0    0  0.11029698800E+00 -0.11045438419E+00  0.26579698994E+01  0.37919875505E+01  0.27000000000E+01 0.  1.
</event>
<event>
 5   0  0.6580500E-04  0.9118800E+02  0.7818608E-02  0.1180000E+00
       11   -1    0    0    0    0  0.00000000000E+00  0.00000000000E+00  0.39999999673E+01  0.40000000000E+01  0.51109989000E-03 0. -1.
     -623   -1    0    0    0    0  0.00000000000E+00  0.00000000000E+00  0.12525980253E-10  0.17130000000E+03  0.17130000000E+03 0.  1.
       11    1    1    2    0    0  0.19065525615E+00  0.20191613399E+00  0.12599008800E+00  0.30494805354E+00  0.51109989000E-03 0. -1.
     -623    1    1    2    0    0 -0.25130603058E+00  0.54250125563E+00  0.14758999015E+01  0.17130740131E+03  0.17130000000E+03 0.  1.
      622    1    1    2    0    0  0.60650774436E-01 -0.74441738962E+00  0.23981099779E+01  0.36876506386E+01  0.27000000000E+01 0. -1.
</event>
<event>
 5   0  0.6580500E-04  0.9118800E+02  0.7818608E-02  0.1180000E+00
       11   -1    0    0    0    0  0.00000000000E+00  0.00000000000E+00  0.39999999673E+01  0.40000000000E+01  0.51109989000E-03 0.  1.
     -623   -1    0    0    0    0  0.00000000000E+00  0.00000000000E+00  0.12525980253E-10  0.17130000000E+03  0.17130000000E+03 0. -1.
       11    1    1    2    0    0  0.22516315996E+00 -0.14343453630E+00  0.25372201834E+00  0.36830291693E+00  0.51109989000E-03 0.  1.
     -623    1    1    2    0    0  0.36318792560E+00  0.29838503193E+00  0.14047876989E+01  0.17130640492E+03  0.17130000000E+03 0. -1.
      622    1    1    2    0    0 -0.58835108556E+00 -0.15495049563E+00  0.23414902501E+01  0.36252921603E+01  0.27000000000E+01 0.  0.
</event>
<event>
 5   0  0.6580500E-04  0.9118800E+02  0.7818608E-02  0.1180000E+00
       11   -1    0    0    0    0  0.00000000000E+00  0.00000000000E+00  0.39999999673E+01  0.40000000000E+01  0.51109989000E-03 0. -1.
     -623   -1    0    0    0    0  0.00000000000E+00  0.00000000000E+00  0.12525980253E-10  0.17130000000E+03  0.17130000000E+03 0. -1.
       11    1    1    2    0    0  0.10277584229E+00  0.35791717617E-01  0.48475696233E-01  0.11913889019E+00  0.51109989000E-03 0. -1.
     -623    1    1    2    0    0  0.16823659491E-01 -0.25475277312E+00  0.11810048682E+01  0.17130426134E+03  0.17130000000E+03 0. -1.
      622    1    1    2    0    0 -0.11959950178E+00  0.21896105550E+00  0.27705194029E+01  0.38765997661E+01  0.27000000000E+01 0. -1.
</event>
<event>
 5   0  0.6580500E-04  0.9118800E+02  0.7818608E-02  0.1180000E+00
       11   -1    0    0    0    0  0.00000000000E+00  0.00000000000E+00  0.39999999673E+01  0.40000000000E+01  0.51109989000E-03 0.  1.
     -623   -1    0    0    0    0  0.00000000000E+00  0.00000000000E+00  0.12525980253E-10  0.17130000000E+03  0.17130000000E+03 0. -1.
       11    1    1    2    0    0  0.16997212083E+00 -0.13733639960E+00  0.84510736959E-01  0.23429497305E+00  0.51109989000E-03 0.  1.
     -623    1    1    2    0    0 -0.17611204681E+00 -0.38164228926E+00  0.13508855176E+01  0.17130584216E+03  0.17130000000E+03 0. -1.
      622    1    1    2    0    0  0.61399259801E-02  0.51897868885E+00  0.25646037128E+01  0.37598628675E+01  0.27000000000E+01 0.  1.
</event>
<event>
 5   0  0.6580500E-04  0.9118800E+02  0.7818608E-02  0.1180000E+00
       11   -1    0    0    0    0  0.00000000000E+00  0.00000000000E+00  0.39999999673E+01  0.40000000000E+01  0.51109989000E-03 0. -1.
     -623   -1    0    0    0    0  0.00000000000E+00  0.00000000000E+00  0.12525980253E-10  0.17130000000E+03  0.17130000000E+03 0.  1.
       11    1    1    2    0    0  0.10863543548E+00  0.37737268337E-01 -0.75928131726E-03  0.11500694324E+00  0.51109989000E-03 0. -1.
     -623    1    1    2    0    0  0.11646728192E+00  0.16269095715E-01  0.12231053527E+01  0.17130440688E+03  0.17130000000E+03 0.  1.
      622    1    1    2    0    0 -0.22510271740E+00 -0.54006364053E-01  0.27776538959E+01  0.38805861782E+01  0.27000000000E+01 0. -1.
</event>
</LesHouchesEvents>
