<LesHouchesEvents version="1.0">
<header>
<!--
#*********************************************************************
#                                                                    *
#                       MadGraph/MadEvent                            *
#                                                                    *
#                      The new web generation                        *
#                                                                    *
#                   http://madgraph.hep.uiuc.edu                     *
#                   http://madgraph.phys.ucl.ac.be                   *
#                   http://madgraph.roma2.infn.it                    *
#                                                                    *
#            CP3 team                      Tim Stelzer               *
#      Universite de Louvain          University of Illinois         *
#                                                                    *
#....................................................................*
#                                                                    *
# This file contains all the information necessary to reproduce      *
# the events generated:                                              *
#                                                                    *
# 1. software version                                                *
# 2. proc_card.dat      : code generation info including model       *
# 3. param_card.dat     : model primary parameters in the LH format  *
# 4. run_card.dat       : running parameters (collider and cuts)     *
# 5. pythia_card.dat    : present only in the pythia event file      *
# 6. pgs_card.dat       : present only in the pgs event file         *
#                                                                    *
#                                                                    *
#*********************************************************************
-->
<MGVersion>
# MG/ME version    : 4.4.17
# madgraph version : 4.4.2
# template version : 2.4.8
# helas version    : 3.5
# model version    : usrmod_1.0.4
</MGVersion>
<MGProcCard>
#*********************************************************************
#                        MadGraph/MadEvent                           *
#                   http://madgraph.hep.uiuc.edu                     *
#                                                                    *
#                          proc_card.dat                             *
#                                                                    *
# This file is used to generate the code for a specific process.     *
# Some notation/conventions:                                         *
#                                                                    *
# 0. Do not modify the TAGS and their order.                         *
# 1. hash/pound is a comment.                                        *
# 2. The number after the @ is used as an identifier for the class   *
#    of processes. It can be any positive integer.                   *
# 3. The number of lines for the max couplings depends on how many   *
#    different classes of couplings are present in the model         *
#    In the SM these are just two: QED (which include EW) and QCD    *
# 4. Write "end_coup" after  the couplings list,                     *
#    to tell MG that the couplings input is over.                    *
# 5. Write "done" after the proc list to                             *
#    to tell MG that the proc input is over.                         *
# 6. Some model names available at present are:                      *
#    sm     =  Standard Model                                        *
#    smckm =  Standard Model with Cabibbo matrix                     *
#    mssm   =  Minimal Supersymmetric Standard Model                 *
#    2hdm   =  Generic Two Higgs Doublet model                       *
#    heft   =  Higgs EFT (+Standard Model)                           *
#    usrmod =  User Model                                            *
# 7. Don't leave spaces between the particles name in the            *
#    definition of the multiparticles.                               *
#*********************************************************************
#*********************************************************************
# Process(es) requested : mg2 input                                  *
#*********************************************************************
# Begin PROCESS # This is TAG. Do not modify this line
e- N+ > e- N+ x      # Radiative
QCD=0             # Max QCD couplings
QED=1             # Max QED couplings
QFD=0 
QND=1
QWD=9
QDS=2
end_coup           # End the couplings input
done               # this tells MG there are no more procs
# End PROCESS  # This is TAG. Do not modify this line
#*********************************************************************
# Model information                                                  *
#*********************************************************************
# Begin MODEL  # This is TAG. Do not modify this line
fixedAP2     
# End   MODEL  # This is TAG. Do not modify this line
#*********************************************************************
# Start multiparticle definitions                                    *
#*********************************************************************
# Begin MULTIPARTICLES # This is TAG. Do not modify this line
P uu~cc~dd~ss~gf+f-
J uu~cc~dd~ss~gf+f-
L+ e+mu+
L- e-mu-
vl vevm
vl~ ve~vm~
# End  MULTIPARTICLES # This is TAG. Do not modify this line
</MGProcCard>
<slha>
#*********************************************************************
#                        MadGraph/MadEvent                           *
#                   http://madgraph.hep.uiuc.edu                     *
#                                                                    *
#                         param_card.dat                             *
#                                                                    *
#   Les Houches friendly file for the SM parameters of MadGraph      *
#        Spectrum and decay widths produced by SMCalc                *
#                                                                    *
#  Please note the following IMPORTANT issues:                       *
#                                                                    *
# 0. REFRAIN from editing this file by hand! Some of the parame-     *
#    ters are not independent                                        *
#    (such as G_Fermi, alpha_em, sin(theta_W),MZ,MW) and serious     *
#    problems might be encountered (such as violation of unitarity   *
#    or gauge invariance).  Always use a calculator.                 *
#                                                                    *
# 1. alpha_S(MZ) has been used in the calculation of the parameters  *
#    but, for consistency, it will be reset by madgraph to the       *
#    value expected IF the pdfs for collisions with hadrons are      *
#    used. This value is KEPT by madgraph when no pdf are used       *
#    lpp(i)=0 .                                                      *
#                                                                    *
#  2. Values of the charm and bottom kinematic (pole) masses are     *
#     those used in the matrix elements and phase space UNLESS they  *
#     are set to ZERO from the start in the model (particles.dat)    *
#     This happens, for example,  when using 5-flavor QCD where      *
#     charm and bottom are treated as partons in the initial state   *
#     and a zero mass might be hardwired in the model definition.    *
#                                                                    *
##********************************************************************
Block MODSEL # Select Model
     0   1   #  0 1 = SM
Block SMINPUTS      # Standard Model inputs
     1         1.27900000E+02   # alpha_em(MZ)(-1) SM MSbar
     2         1.16600000E-05   # G_Fermi
     3         1.18000000E-01   # alpha_s(MZ) SM MSbar
     4         9.15445065E+01   # Z mass (as input parameter)
Block MGYUKAWA     # Yukawa masses m/v=y/sqrt(2)
#    PDG          YMASS
     5         4.20000000E+00   # mbottom for the Yukawa  y_b
     4         1.25000000E+00   # mcharm  for the Yukawa  y_c
     6         1.74300000E+02   # mtop    for the Yukawa  y_t
    15         1.77700000E+00   # mtau    for the Yukawa  y_ta
Block MGCKM     # CKM elements for MadGraph
     1   1     9.75000000E-01   # Vud for Cabibbo matrix
#===========================================================
# QUANTUM NUMBERS OF NEW STATE(S) (NON SM PDG CODE) IF ANY
# (see below for masses and decay tables)
# These blocks are automatically created by the MadGraph
# qnumbers.pl script from the particles.dat model file
#===========================================================
BLOCK QNUMBERS 611 # f-
         1  -3 # 3 times electric charge
         2  2 # number of spin states (2S+1)
         3  1 # colour rep (1: singlet, 3: triplet, 8: octet)
         4  1 # Particle/Antiparticle distinction (0=own anti)
BLOCK QNUMBERS 622 # x
         1  0 # 3 times electric charge
         2  3 # number of spin states (2S+1)
         3  1 # colour rep (1: singlet, 3: triplet, 8: octet)
         4  0 # Particle/Antiparticle distinction (0=own anti)
BLOCK QNUMBERS 623 # N-
         1  0 # 3 times electric charge
         2  2 # number of spin states (2S+1)
         3  1 # colour rep (1: singlet, 3: triplet, 8: octet)
         4  1 # Particle/Antiparticle distinction (0=own anti)
# END of QNUMBERS blocks
#===========================================================
Block MASS      #  Mass spectrum (kinematic masses)
#       PDG       Mass
         4     1.40000000E+00   # charm    pole mass
         5     4.20000000E+00   # bottom   pole mass
         6     1.74300000E+02   # top      pole mass
        11     0.51109989E-03   # electron mass
        13     0.10565837E+00   # muon     mass
        15     1.77700000E+00   # tau      mass
        23     9.15445065E+01   # Z        mass
        24     8.02673592E+01   # W        mass
        25     1.20000000E+02   # H        mass
       611 0.5 # FMASS
       622 1.5 # APMASS
       623     1.71300000e+02   # HPMASS (tungsten)
#            PDG       Width
DECAY       611     0.00000000e+00   # ELWIDTH
DECAY 622 0.045549532875 # APWIDTH
DECAY       623     0.00000000e+00   # HPWIDTH
DECAY         6     1.51013490E+00   # top width
DECAY        23     2.44639985E+00   # Z   width
DECAY        24     2.03535570E+00   # W   width
DECAY        25     6.79485838E-03   # H   width
#        BR           NDA        ID1       ID2
     7.00588389E-02    2           4        -4   # BR( H -> c  cbar  )
     7.61074375E-01    2           5        -5   # BR( H -> b  bbar  )
     0.00000000E+00    2           6        -6   # BR( H -> t  tbar  )
     3.65529942E-02    2          15       -15   # BR( H -> tau- tau+)
     5.84716539E-03    2          23        23   # BR( H -> Z   Z^(*))
     6.31545979E-02    2          24       -24   # BR( H -> W   W^(*))
     2.55499652E-02    2          21        21   # BR( H -> g   g    )
     1.20906932E-03    2          22        22   # BR( H -> A   A    )
BLOCK MGUSER
         1     1.00000000e-00   # epsilon ,mixing coefficient
         2     74.0000000e+00   # Znuc    ,nuclear charge
</slha>
<MGRunCard>
#*********************************************************************
#                       MadGraph/MadEvent                            *
#                  http://madgraph.hep.uiuc.edu                      *
#                                                                    *
#                        run_card.dat                                *
#                                                                    *
#  This file is used to set the parameters of the run.               *
#                                                                    *
#  Some notation/conventions:                                        *
#                                                                    *
#   Lines starting with a '# ' are info or comments                  *
#                                                                    *
#   mind the format:   value    = variable     ! comment             *
#*********************************************************************
#
#*******************                                                 
# Running parameters
#*******************                                                 
#                                                                    
#*********************************************************************
# Tag name for the run (one word)                                    *
#*********************************************************************
  'HPS'     = run_tag ! name of the run 
#*********************************************************************
# Run to generate the grid pack                                      *
#*********************************************************************
  .false.     = gridpack  !True = setting up the grid pack
#*********************************************************************
# Number of events and rnd seed                                      *
#*********************************************************************
   1000      = nevents ! Number of unweighted events requested 
188720 = iseed ! rnd seed (0=assigned automatically=default))
#*********************************************************************
# Collider type and energy                                           *
#*********************************************************************
        0     = lpp1  ! beam 1 type (0=NO PDF)
        0     = lpp2  ! beam 2 type (0=NO PDF)
4 = ebeam1  ! beam 1 energy in GeV
    171.3    = ebeam2  ! beam 2 energy in GeV
    0.000511  = mbeam1  ! beam 1 energy in GeV
    171.3    = mbeam2  ! beam 2 energy in GeV
#*********************************************************************
# Beam polarization from -100 (left-handed) to 100 (right-handed)    *
#*********************************************************************
        0     = polbeam1 ! beam polarization for beam 1
        0     = polbeam2 ! beam polarization for beam 2
#*********************************************************************
# PDF CHOICE: this automatically fixes also alpha_s and its evol.    *
#*********************************************************************
 'cteq6l1'    = pdlabel     ! PDF set                                     
#*********************************************************************
# Renormalization and factorization scales                           *
#*********************************************************************
 F        = fixed_ren_scale  ! if .true. use fixed ren scale
 F        = fixed_fac_scale  ! if .true. use fixed fac scale
 91.1880  = scale            ! fixed ren scale
 91.1880  = dsqrt_q2fact1    ! fixed fact scale for pdf1
 91.1880  = dsqrt_q2fact2    ! fixed fact scale for pdf2
 1        = scalefact        ! scale factor for event-by-event scales
 F        = fixed_couplings  ! if .false. calc. coupl. for every event
#*********************************************************************
# Matching - Warning! ickkw > 0 is still beta
#*********************************************************************
 0        = ickkw            ! 0 no matching, 1 MLM, 2 CKKW matching
#*********************************************************************
#                                                                    
#**********************************
32.9311829414 = bwcutoff*Gamma)
#**********************************
32.9311829414 = bwcutoff
#*******************                                                 
# Fixed-Target Cuts
#*******************                                                 
#
 0.0 = ef        ! minimum E for all f's
 100.0 = efmax     ! maximum E for all f's
 0.0 = thetafmin ! min angle for both f's
 100.0 = thetafmax ! max angle for both f's
 0.0 = thetaxfmin ! min angle (x direction) for both f's
 100.0 = thetaxfmax ! max angle (x direction) for both f's 
 0.0 = thetayfmin ! min angle (y direction) for both f's
 100.0 = thetayfmax ! max angle (y direction) for both f's 
 0.0 = xthetaxfmin ! min angle (x direction) for >=1 f's
 100.0 = xthetaxfmax ! max angle (x direction) for >=1 f's 
 0.0 = xthetayfmin ! min angle (y direction) for >=1 f's
 100.0 = xthetayfmax ! max angle (y direction) for >=1 f's 
 0.0 = mmff      ! min invariant mass of f+f- lepton pair
 100.0 = mmffmax  ! max invariant mass of f+f- lepton pair
 0.0 = xef       ! min. energy for at least one f
 0.0 = xthetaf   ! minimum angle for at least one f
 0.0 = eftot     ! minimum energy for the two f's
 0d0 = efrat     ! min. ratio Emin/Emax for the two f's
 0.0  = el     !!! 0.2 = el  !!! was 0.05 with normal cuts! minimum E for the charged leptons 
 0.0  = drll  !!! was 0.1  ! min distance between leptons 
 0.0  = mmll    ! min invariant mass of l+l- (same flavour) lepton pair
#
#*******************                                                 
# Standard Cuts
#*******************                                                 
#                                                                    
#*********************************************************************
# Minimum and maximum pt's                                           *
#*********************************************************************
  0  = ptj       ! minimum pt for the jets 
  0  = ptb       ! minimum pt for the b 
  0  = pta       ! minimum pt for the photons 
  0  = ptl       ! minimum pt for the charged leptons 
  0  = misset    ! minimum missing Et (sum of neutrino's momenta)
  0  = ptheavy   ! minimum pt for one heavy final state
 1.0 = ptonium   ! minimum pt for the quarkonium states
 1d5 = ptjmax    ! maximum pt for the jets
 1d5 = ptbmax    ! maximum pt for the b
 1d5 = ptamax    ! maximum pt for the photons
 1d9 = ptlmax    ! maximum pt for the charged leptons
 1d9 = missetmax ! maximum missing Et (sum of neutrino's momenta)
#*********************************************************************
# Minimum and maximum E's (in the lab frame)                         *
#*********************************************************************
  0  = ej     ! minimum E for the jets 
  0  = eb     ! minimum E for the b 
  0  = ea     ! minimum E for the photons 
 1d5  = ejmax ! maximum E for the jets
 1d5  = ebmax ! maximum E for the b
 1d5  = eamax ! maximum E for the photons
 1.2  = elmax ! maximum E for the charged leptons
#*********************************************************************
# Maximum and minimum rapidity                                       *
#*********************************************************************
 1d5  = etaj    ! max rap for the jets 
 1d5  = etab    ! max rap for the b 
 1d5  = etaa    ! max rap for the photons 
 1d5  = etal     !!! 1(2) wth cuts ! max rap for the charged leptons 
 1d5  = etafl     !!! 0(1) wth cuts ! max rap for the charged leptons 
 0.0  = etaonium ! max rap for the quarkonium states
 0d0  = etajmin ! min rap for the jets
 0d0  = etabmin ! min rap for the b
 0d0  = etaamin ! min rap for the photons
 0d0  = etalmin ! main rap for the charged lepton
#*********************************************************************
# Minimum and maximum DeltaR distance                                *
#*********************************************************************
 0   = drjj    ! min distance between jets 
 0   = drbb    ! min distance between b's 
 0   = draa    ! min distance between gammas 
 0   = drbj    ! min distance between b and jet 
 0   = draj    ! min distance between gamma and jet 
 0   = drjl    ! min distance between jet and lepton 
 0   = drab    ! min distance between gamma and b 
 0   = drbl    ! min distance between b and lepton 
 0   = dral    ! min distance between gamma and lepton 
 1d2 = drjjmax ! max distance between jets
 1d2 = drbbmax ! max distance between b's
 1d9 = drllmax ! max distance between leptons
 1d2 = draamax ! max distance between gammas
 1d2 = drbjmax ! max distance between b and jet
 1d2 = drajmax ! max distance between gamma and jet
 1d2 = drjlmax ! max distance between jet and lepton
 1d2 = drabmax ! max distance between gamma and b
 1d2 = drblmax ! max distance between b and lepton
 1d2 = dralmax ! maxdistance between gamma and lepton
#*********************************************************************
# Minimum and maximum invariant mass for pairs                       *
#*********************************************************************
 0   = mmjj    ! min invariant mass of a jet pair 
 0   = mmbb    ! min invariant mass of a b pair 
 0   = mmaa    ! min invariant mass of gamma gamma pair
 1d5 = mmjjmax ! max invariant mass of a jet pair
 1d5 = mmbbmax ! max invariant mass of a b pair
 1d5 = mmaamax ! max invariant mass of gamma gamma pair
 1d5 = mmllmax ! max invariant mass of l+l- (same flavour) lepton pair
#*********************************************************************
# Minimum and maximum invariant mass for all letpons                 *
#*********************************************************************
 0   = mmnl    ! min invariant mass for all letpons (l+- and vl) 
 1d9 = mmnlmax ! max invariant mass for all letpons (l+- and vl) 
#*********************************************************************
# Inclusive cuts                                                     *
#*********************************************************************
 0  = xptj ! minimum pt for at least one jet  
 0  = xptb ! minimum pt for at least one b 
 0  = xpta ! minimum pt for at least one photon 
 0  = xptl ! minimum pt for at least one charged lepton 
#*********************************************************************
# Control the pt's of the jets sorted by pt                          *
#*********************************************************************
 0   = ptj1min ! minimum pt for the leading jet in pt
 0   = ptj2min ! minimum pt for the second jet in pt
 0   = ptj3min ! minimum pt for the third jet in pt
 0   = ptj4min ! minimum pt for the fourth jet in pt
 1d5 = ptj1max ! maximum pt for the leading jet in pt 
 1d5 = ptj2max ! maximum pt for the second jet in pt
 1d5 = ptj3max ! maximum pt for the third jet in pt
 1d5 = ptj4max ! maximum pt for the fourth jet in pt
 0   = cutuse  ! reject event if fails any (0) / all (1) jet pt cuts
#*********************************************************************
# Control the Ht(k)=Sum of k leading jets                            *
#*********************************************************************
 0   = htjmin ! minimum jet HT=Sum(jet pt)
 1d5 = htjmax ! maximum jet HT=Sum(jet pt)
 0   = ht2min ! minimum Ht for the two leading jets
 0   = ht3min ! minimum Ht for the three leading jets
 0   = ht4min ! minimum Ht for the four leading jets
 1d5 = ht2max ! maximum Ht for the two leading jets
 1d5 = ht3max ! maximum Ht for the three leading jets
 1d5 = ht4max ! maximum Ht for the four leading jets
#*********************************************************************
# WBF cuts                                                           *
#*********************************************************************
 0   = xetamin ! minimum rapidity for two jets in the WBF case  
 0   = deltaeta ! minimum rapidity for two jets in the WBF case 
#*********************************************************************
# maximal pdg code for quark to be considered as a jet               *
# otherwise b cuts are applied                                       *
#*********************************************************************
 4 = maxjetflavor
#*********************************************************************
# Jet measure cuts                                                   *
#*********************************************************************
 0   = xqcut   ! minimum kt jet measure between partons
#*********************************************************************
</MGRunCard>
<MGGenerationInfo>
#  Number of Events        :        1000
#  Integrated weight (pb)  :  .65961E+03
#  Truncated wgt (pb)      :  .00000E+00
#  Unit wgt                :  .65961E+00
</MGGenerationInfo>
</header>
<init>
       11     -623  0.40000000000E+01  0.17130000000E+03 0 0     0     0 3  1
  0.65780988880E+03  0.79831539241E+01  0.65961000000E+00   0
</init>
<event>
 5   0  0.6596100E+00  0.9118800E+02  0.7818608E-02  0.1180000E+00
       11   -1    0    0    0    0  0.00000000000E+00  0.00000000000E+00  0.39999999673E+01  0.40000000000E+01  0.51109989000E-03 0.  1.
     -623   -1    0    0    0    0  0.00000000000E+00  0.00000000000E+00  0.12525980253E-10  0.17130000000E+03  0.17130000000E+03 0. -1.
       11    1    1    2    0    0 -0.84291471763E-01  0.94882528352E-01 -0.88134807104E-01  0.15451780430E+00  0.51109989000E-03 0.  1.
     -623    1    1    2    0    0  0.66548500265E-01 -0.26107219411E+00  0.55241409393E+00  0.17130110259E+03  0.17130000000E+03 0. -1.
      622    1    1    2    0    0  0.17742971498E-01  0.16618966576E+00  0.35357206805E+01  0.38443796052E+01  0.15000000000E+01 0.  1.
</event>
<event>
 5   0  0.6596100E+00  0.9118800E+02  0.7818608E-02  0.1180000E+00
       11   -1    0    0    0    0  0.00000000000E+00  0.00000000000E+00  0.39999999673E+01  0.40000000000E+01  0.51109989000E-03 0.  1.
     -623   -1    0    0    0    0  0.00000000000E+00  0.00000000000E+00  0.12525980253E-10  0.17130000000E+03  0.17130000000E+03 0.  1.
       11    1    1    2    0    0  0.20786029110E+00 -0.32253614292E+00  0.49097305225E+00  0.62312941141E+00  0.51109989000E-03 0.  1.
     -623    1    1    2    0    0 -0.19549952356E+00  0.14920413482E+00  0.48956637990E+00  0.17130087611E+03  0.17130000000E+03 0.  1.
      622    1    1    2    0    0 -0.12360767546E-01  0.17333200811E+00  0.30194605352E+01  0.33759944753E+01  0.15000000000E+01 0.  1.
</event>
<event>
 5   0  0.6596100E+00  0.9118800E+02  0.7818608E-02  0.1180000E+00
       11   -1    0    0    0    0  0.00000000000E+00  0.00000000000E+00  0.39999999673E+01  0.40000000000E+01  0.51109989000E-03 0. -1.
     -623   -1    0    0    0    0  0.00000000000E+00  0.00000000000E+00  0.12525980253E-10  0.17130000000E+03  0.17130000000E+03 0. -1.
       11    1    1    2    0    0  0.37006400508E-01 -0.24411767692E-01 -0.29463798687E-01  0.53233304768E-01  0.51109989000E-03 0. -1.
     -623    1    1    2    0    0  0.10668314886E+00  0.59158963623E-01  0.38235500652E+00  0.17130047016E+03  0.17130000000E+03 0. -1.
      622    1    1    2    0    0 -0.14368954936E+00 -0.34747195931E-01  0.36471087595E+01  0.39462965370E+01  0.15000000000E+01 0. -1.
</event>
<event>
 5   0  0.6596100E+00  0.9118800E+02  0.7818608E-02  0.1180000E+00
       11   -1    0    0    0    0  0.00000000000E+00  0.00000000000E+00  0.39999999673E+01  0.40000000000E+01  0.51109989000E-03 0.  1.
     -623   -1    0    0    0    0  0.00000000000E+00  0.00000000000E+00  0.12525980253E-10  0.17130000000E+03  0.17130000000E+03 0. -1.
       11    1    1    2    0    0  0.69462971452E-01 -0.11593212316E+00  0.14875997881E+00  0.20098545744E+00  0.51109989000E-03 0.  1.
     -623    1    1    2    0    0  0.97822971905E-01 -0.19883808464E-01  0.36801497216E+00  0.17130042440E+03  0.17130000000E+03 0. -1.
      622    1    1    2    0    0 -0.16728594336E+00  0.13581593163E+00  0.34832250164E+01  0.37985901423E+01  0.15000000000E+01 0.  1.
</event>
<event>
 5   0  0.6596100E+00  0.9118800E+02  0.7818608E-02  0.1180000E+00
       11   -1    0    0    0    0  0.00000000000E+00  0.00000000000E+00  0.39999999673E+01  0.40000000000E+01  0.51109989000E-03 0.  1.
     -623   -1    0    0    0    0  0.00000000000E+00  0.00000000000E+00  0.12525980253E-10  0.17130000000E+03  0.17130000000E+03 0.  1.
       11    1    1    2    0    0  0.78770460066E-02 -0.24847414875E-01  0.26751568089E+00  0.26878307726E+00  0.51109989000E-03 0.  1.
     -623    1    1    2    0    0  0.28115086409E-01  0.43540153565E+00  0.34199223152E+00  0.17130089703E+03  0.17130000000E+03 0.  1.
      622    1    1    2    0    0 -0.35992132415E-01 -0.41055412077E+00  0.33904920550E+01  0.37303198917E+01  0.15000000000E+01 0.  1.
</event>
<event>
 5   0  0.6596100E+00  0.9118800E+02  0.7818608E-02  0.1180000E+00
       11   -1    0    0    0    0  0.00000000000E+00  0.00000000000E+00  0.39999999673E+01  0.40000000000E+01  0.51109989000E-03 0. -1.
     -623   -1    0    0    0    0  0.00000000000E+00  0.00000000000E+00  0.12525980253E-10  0.17130000000E+03  0.17130000000E+03 0.  1.
       11    1    1    2    0    0 -0.40582995194E-01  0.43252869392E-01  0.22305362698E-01  0.63368609246E-01  0.51109989000E-03 0. -1.
     -623    1    1    2    0    0  0.48497229984E-01  0.86520558179E-01  0.34076341912E+00  0.17130036765E+03  0.17130000000E+03 0.  1.
      622    1    1    2    0    0 -0.79142347894E-02 -0.12977342757E+00  0.36369311855E+01  0.39362637394E+01  0.15000000000E+01 0. -1.
</event>
<event>
 5   0  0.6596100E+00  0.9118800E+02  0.7818608E-02  0.1180000E+00
       11   -1    0    0    0    0  0.00000000000E+00  0.00000000000E+00  0.39999999673E+01  0.40000000000E+01  0.51109989000E-03 0.  1.
     -623   -1    0    0    0    0  0.00000000000E+00  0.00000000000E+00  0.12525980253E-10  0.17130000000E+03  0.17130000000E+03 0.  1.
       11    1    1    2    0    0 -0.16151637204E+00 -0.22805899447E+00  0.82333595829E+00  0.86947156642E+00  0.51109989000E-03 0.  1.
     -623    1    1    2    0    0  0.30330523586E+00  0.46442972230E+00  0.44444837598E+00  0.17130147467E+03  0.17130000000E+03 0.  1.
      622    1    1    2    0    0 -0.14178886382E+00 -0.23637072784E+00  0.27322156331E+01  0.31290537657E+01  0.15000000000E+01 0.  1.
</event>
<event>
 5   0  0.6596100E+00  0.9118800E+02  0.7818608E-02  0.1180000E+00
       11   -1    0    0    0    0  0.00000000000E+00  0.00000000000E+00  0.39999999673E+01  0.40000000000E+01  0.51109989000E-03 0.  1.
     -623   -1    0    0    0    0  0.00000000000E+00  0.00000000000E+00  0.12525980253E-10  0.17130000000E+03  0.17130000000E+03 0. -1.
       11    1    1    2    0    0 -0.15874062526E+00  0.11281923743E+00  0.15408367514E+00  0.24833204910E+00  0.51109989000E-03 0.  1.
     -623    1    1    2    0    0  0.23277706739E+00 -0.11697662689E-01  0.41015848180E+00  0.17130064960E+03  0.17130000000E+03 0. -1.
      622    1    1    2    0    0 -0.74036442126E-01 -0.10112157475E+00  0.34357578104E+01  0.37510183550E+01  0.15000000000E+01 0.  1.
</event>
<event>
 5   0  0.6596100E+00  0.9118800E+02  0.7818608E-02  0.1180000E+00
       11   -1    0    0    0    0  0.00000000000E+00  0.00000000000E+00  0.39999999673E+01  0.40000000000E+01  0.51109989000E-03 0.  1.
     -623   -1    0    0    0    0  0.00000000000E+00  0.00000000000E+00  0.12525980253E-10  0.17130000000E+03  0.17130000000E+03 0. -1.
       11    1    1    2    0    0 -0.28524450942E+00 -0.18831345949E-01  0.10151929963E+01  0.10546734711E+01  0.51109989000E-03 0.  1.
     -623    1    1    2    0    0  0.36223437904E+00 -0.51991727162E-01  0.45337075510E+00  0.17130099084E+03  0.17130000000E+03 0. -1.
      622    1    1    2    0    0 -0.76989869613E-01  0.70823073111E-01  0.25314362160E+01  0.29443356913E+01  0.15000000000E+01 0.  1.
</event>
<event>
 5   0  0.6596100E+00  0.9118800E+02  0.7818608E-02  0.1180000E+00
       11   -1    0    0    0    0  0.00000000000E+00  0.00000000000E+00  0.39999999673E+01  0.40000000000E+01  0.51109989000E-03 0. -1.
     -623   -1    0    0    0    0  0.00000000000E+00  0.00000000000E+00  0.12525980253E-10  0.17130000000E+03  0.17130000000E+03 0. -1.
       11    1    1    2    0    0 -0.37088879447E+00 -0.32996199656E+00  0.19347727403E+00  0.53279182973E+00  0.51109989000E-03 0. -1.
     -623    1    1    2    0    0 -0.20239951669E+00  0.49877789383E+00  0.74100448683E+00  0.17130244841E+03  0.17130000000E+03 0. -1.
      622    1    1    2    0    0  0.57328831117E+00 -0.16881589726E+00  0.30655182065E+01  0.34647597564E+01  0.15000000000E+01 0. -1.
</event>
<event>
 5   0  0.6596100E+00  0.9118800E+02  0.7818608E-02  0.1180000E+00
       11   -1    0    0    0    0  0.00000000000E+00  0.00000000000E+00  0.39999999673E+01  0.40000000000E+01  0.51109989000E-03 0.  1.
     -623   -1    0    0    0    0  0.00000000000E+00  0.00000000000E+00  0.12525980253E-10  0.17130000000E+03  0.17130000000E+03 0. -1.
       11    1    1    2    0    0  0.39876705627E-01  0.85040158274E-01  0.26103478283E+00  0.27741917605E+00  0.51109989000E-03 0.  1.
     -623    1    1    2    0    0  0.26992200769E+00  0.24518787196E-01  0.34847929853E+00  0.17130056887E+03  0.17130000000E+03 0. -1.
      622    1    1    2    0    0 -0.30979871332E+00 -0.10955894547E+00  0.33904858860E+01  0.37220119490E+01  0.15000000000E+01 0.  1.
</event>
<event>
 5   0  0.6596100E+00  0.9118800E+02  0.7818608E-02  0.1180000E+00
       11   -1    0    0    0    0  0.00000000000E+00  0.00000000000E+00  0.39999999673E+01  0.40000000000E+01  0.51109989000E-03 0.  1.
     -623   -1    0    0    0    0  0.00000000000E+00  0.00000000000E+00  0.12525980253E-10  0.17130000000E+03  0.17130000000E+03 0. -1.
       11    1    1    2    0    0 -0.59017853370E-01 -0.25396929283E-01  0.13188689249E+00  0.14670557135E+00  0.51109989000E-03 0.  1.
     -623    1    1    2    0    0  0.14146864368E+00  0.81727390266E-01  0.32057947676E+00  0.17130037789E+03  0.17130000000E+03 0. -1.
      622    1    1    2    0    0 -0.82450790307E-01 -0.56330460984E-01  0.35475335981E+01  0.38529165425E+01  0.15000000000E+01 0.  1.
</event>
<event>
 5   0  0.6596100E+00  0.9118800E+02  0.7818608E-02  0.1180000E+00
       11   -1    0    0    0    0  0.00000000000E+00  0.00000000000E+00  0.39999999673E+01  0.40000000000E+01  0.51109989000E-03 0. -1.
     -623   -1    0    0    0    0  0.00000000000E+00  0.00000000000E+00  0.12525980253E-10  0.17130000000E+03  0.17130000000E+03 0. -1.
       11    1    1    2    0    0 -0.36024666226E-01 -0.10905370756E+00  0.43078183195E+00  0.44582926739E+00  0.51109989000E-03 0. -1.
     -623    1    1    2    0    0  0.20040723524E+00  0.11834245831E+00  0.35186997530E+00  0.17130051950E+03  0.17130000000E+03 0. -1.
      622    1    1    2    0    0 -0.16438256901E+00 -0.92887507547E-02  0.32173481601E+01  0.35536512340E+01  0.15000000000E+01 0. -1.
</event>
<event>
 5   0  0.6596100E+00  0.9118800E+02  0.7818608E-02  0.1180000E+00
       11   -1    0    0    0    0  0.00000000000E+00  0.00000000000E+00  0.39999999673E+01  0.40000000000E+01  0.51109989000E-03 0.  1.
     -623   -1    0    0    0    0  0.00000000000E+00  0.00000000000E+00  0.12525980253E-10  0.17130000000E+03  0.17130000000E+03 0. -1.
       11    1    1    2    0    0  0.31786794004E-01  0.67148796310E-02  0.34364379973E-01  0.47293358035E-01  0.51109989000E-03 0.  1.
     -623    1    1    2    0    0 -0.15872248448E+00  0.75969694988E-01  0.31214715415E+00  0.17130037478E+03  0.17130000000E+03 0. -1.
      622    1    1    2    0    0  0.12693569048E+00 -0.82684574619E-01  0.36534884332E+01  0.39523318611E+01  0.15000000000E+01 0.  1.
</event>
<event>
 5   0  0.6596100E+00  0.9118800E+02  0.7818608E-02  0.1180000E+00
       11   -1    0    0    0    0  0.00000000000E+00  0.00000000000E+00  0.39999999673E+01  0.40000000000E+01  0.51109989000E-03 0. -1.
     -623   -1    0    0    0    0  0.00000000000E+00  0.00000000000E+00  0.12525980253E-10  0.17130000000E+03  0.17130000000E+03 0. -1.
       11    1    1    2    0    0 -0.15930728485E+00 -0.13456230602E+00  0.20366675669E+00  0.29148968114E+00  0.51109989000E-03 0. -1.
     -623    1    1    2    0    0 -0.38830634360E+00 -0.23043384253E+00  0.47056415519E+00  0.17130124142E+03  0.17130000000E+03 0. -1.
      622    1    1    2    0    0  0.54761362845E+00  0.36499614855E+00  0.33257690555E+01  0.37072688984E+01  0.15000000000E+01 0. -1.
</event>
<event>
 5   0  0.6596100E+00  0.9118800E+02  0.7818608E-02  0.1180000E+00
       11   -1    0    0    0    0  0.00000000000E+00  0.00000000000E+00  0.39999999673E+01  0.40000000000E+01  0.51109989000E-03 0. -1.
     -623   -1    0    0    0    0  0.00000000000E+00  0.00000000000E+00  0.12525980253E-10  0.17130000000E+03  0.17130000000E+03 0. -1.
       11    1    1    2    0    0  0.25481645528E+00 -0.24324187102E-01  0.18991968310E+00  0.31873631611E+00  0.51109989000E-03 0. -1.
     -623    1    1    2    0    0 -0.21617776407E+00  0.35864099775E+00  0.46642970189E+00  0.17130114685E+03  0.17130000000E+03 0. -1.
      622    1    1    2    0    0 -0.38638691209E-01 -0.33431681065E+00  0.33436505824E+01  0.36801168317E+01  0.15000000000E+01 0. -1.
</event>
<event>
 5   0  0.6596100E+00  0.9118800E+02  0.7818608E-02  0.1180000E+00
       11   -1    0    0    0    0  0.00000000000E+00  0.00000000000E+00  0.39999999673E+01  0.40000000000E+01  0.51109989000E-03 0.  1.
     -623   -1    0    0    0    0  0.00000000000E+00  0.00000000000E+00  0.12525980253E-10  0.17130000000E+03  0.17130000000E+03 0.  1.
       11    1    1    2    0    0 -0.59937307834E-02 -0.10096473645E-01 -0.10512299573E+00  0.10577792321E+00  0.51109989000E-03 0.  1.
     -623    1    1    2    0    0  0.10600552126E+00  0.64273269019E-01  0.51406855680E+00  0.17130081621E+03  0.17130000000E+03 0.  1.
      622    1    1    2    0    0 -0.10001179048E+00 -0.54176795374E-01  0.35910544063E+01  0.38934058653E+01  0.15000000000E+01 0.  1.
</event>
<event>
 5   0  0.6596100E+00  0.9118800E+02  0.7818608E-02  0.1180000E+00
       11   -1    0    0    0    0  0.00000000000E+00  0.00000000000E+00  0.39999999673E+01  0.40000000000E+01  0.51109989000E-03 0. -1.
     -623   -1    0    0    0    0  0.00000000000E+00  0.00000000000E+00  0.12525980253E-10  0.17130000000E+03  0.17130000000E+03 0. -1.
       11    1    1    2    0    0  0.17104061940E+00  0.16700237572E+00  0.96852196260E-01  0.25792498158E+00  0.51109989000E-03 0. -1.
     -623    1    1    2    0    0 -0.21189277075E+00 -0.44873825494E+00  0.48825449651E+00  0.17130141464E+03  0.17130000000E+03 0. -1.
      622    1    1    2    0    0  0.40852151356E-01  0.28173587922E+00  0.34148932746E+01  0.37406603803E+01  0.15000000000E+01 0. -1.
</event>
<event>
 5   0  0.6596100E+00  0.9118800E+02  0.7818608E-02  0.1180000E+00
       11   -1    0    0    0    0  0.00000000000E+00  0.00000000000E+00  0.39999999673E+01  0.40000000000E+01  0.51109989000E-03 0.  1.
     -623   -1    0    0    0    0  0.00000000000E+00  0.00000000000E+00  0.12525980253E-10  0.17130000000E+03  0.17130000000E+03 0.  1.
       11    1    1    2    0    0 -0.12802319143E+00  0.15229413368E+00 -0.76406999923E-02  0.19910319489E+00  0.51109989000E-03 0.  1.
     -623    1    1    2    0    0 -0.40837284142E-01 -0.51907425840E-02  0.52331148160E+00  0.17130080429E+03  0.17130000000E+03 0.  1.
      622    1    1    2    0    0  0.16886047558E+00 -0.14710339109E+00  0.34843291858E+01  0.38000925176E+01  0.15000000000E+01 0.  1.
</event>
<event>
 5   0  0.6596100E+00  0.9118800E+02  0.7818608E-02  0.1180000E+00
       11   -1    0    0    0    0  0.00000000000E+00  0.00000000000E+00  0.39999999673E+01  0.40000000000E+01  0.51109989000E-03 0. -1.
     -623   -1    0    0    0    0  0.00000000000E+00  0.00000000000E+00  0.12525980253E-10  0.17130000000E+03  0.17130000000E+03 0.  1.
       11    1    1    2    0    0 -0.21693908502E+00  0.25142005462E+00  0.37682395410E+00  0.50226602920E+00  0.51109989000E-03 0. -1.
     -623    1    1    2    0    0  0.30010680422E+00 -0.50937170888E+00  0.47692289238E+00  0.17130168411E+03  0.17130000000E+03 0.  1.
      622    1    1    2    0    0 -0.83167719198E-01  0.25795165425E+00  0.31462531209E+01  0.34960498603E+01  0.15000000000E+01 0. -1.
</event>
<event>
 5   0  0.6596100E+00  0.9118800E+02  0.7818608E-02  0.1180000E+00
       11   -1    0    0    0    0  0.00000000000E+00  0.00000000000E+00  0.39999999673E+01  0.40000000000E+01  0.51109989000E-03 0. -1.
     -623   -1    0    0    0    0  0.00000000000E+00  0.00000000000E+00  0.12525980253E-10  0.17130000000E+03  0.17130000000E+03 0. -1.
       11    1    1    2    0    0  0.89667950016E-01 -0.77959445550E-01  0.44297863175E+00  0.45863748846E+00  0.51109989000E-03 0. -1.
     -623    1    1    2    0    0 -0.33447062054E+00  0.10088993361E+00  0.35927162667E+00  0.17130073300E+03  0.17130000000E+03 0. -1.
      622    1    1    2    0    0  0.24480267053E+00 -0.22930488055E-01  0.31977497089E+01  0.35406295141E+01  0.15000000000E+01 0. -1.
</event>
<event>
 5   0  0.6596100E+00  0.9118800E+02  0.7818608E-02  0.1180000E+00
       11   -1    0    0    0    0  0.00000000000E+00  0.00000000000E+00  0.39999999673E+01  0.40000000000E+01  0.51109989000E-03 0.  1.
     -623   -1    0    0    0    0  0.00000000000E+00  0.00000000000E+00  0.12525980253E-10  0.17130000000E+03  0.17130000000E+03 0. -1.
       11    1    1    2    0    0  0.76653592171E-01  0.48878890834E-01 -0.76290631631E-01  0.11868209999E+00  0.51109989000E-03 0.  1.
     -623    1    1    2    0    0  0.16653808135E+00 -0.20454744534E-01  0.50582226412E+00  0.17130082898E+03  0.17130000000E+03 0. -1.
      622    1    1    2    0    0 -0.24319167352E+00 -0.28424146300E-01  0.35704683349E+01  0.38804889193E+01  0.15000000000E+01 0.  1.
</event>
<event>
 5   0  0.6596100E+00  0.9118800E+02  0.7818608E-02  0.1180000E+00
       11   -1    0    0    0    0  0.00000000000E+00  0.00000000000E+00  0.39999999673E+01  0.40000000000E+01  0.51109989000E-03 0.  1.
     -623   -1    0    0    0    0  0.00000000000E+00  0.00000000000E+00  0.12525980253E-10  0.17130000000E+03  0.17130000000E+03 0. -1.
       11    1    1    2    0    0 -0.23754354688E+00  0.39148639761E+00  0.26276225602E+00  0.52795151349E+00  0.51109989000E-03 0.  1.
     -623    1    1    2    0    0  0.11934309230E+00  0.24937686499E+00  0.67625296365E+00  0.17130155793E+03  0.17130000000E+03 0. -1.
      622    1    1    2    0    0  0.11820045458E+00 -0.64086326259E+00  0.30609847477E+01  0.34704905553E+01  0.15000000000E+01 0.  1.
</event>
<event>
 5   0  0.6596100E+00  0.9118800E+02  0.7818608E-02  0.1180000E+00
       11   -1    0    0    0    0  0.00000000000E+00  0.00000000000E+00  0.39999999673E+01  0.40000000000E+01  0.51109989000E-03 0.  1.
     -623   -1    0    0    0    0  0.00000000000E+00  0.00000000000E+00  0.12525980253E-10  0.17130000000E+03  0.17130000000E+03 0.  1.
       11    1    1    2    0    0  0.55048540139E-01  0.16870469532E-01 -0.49763937053E-01  0.76102990515E-01  0.51109989000E-03 0.  1.
     -623    1    1    2    0    0 -0.84543316366E-01  0.67459379267E-01  0.42559924837E+00  0.17130056285E+03  0.17130000000E+03 0.  1.
      622    1    1    2    0    0  0.29494776227E-01 -0.84329848799E-01  0.36241646560E+01  0.39233341585E+01  0.15000000000E+01 0.  1.
</event>
<event>
 5   0  0.6596100E+00  0.9118800E+02  0.7818608E-02  0.1180000E+00
       11   -1    0    0    0    0  0.00000000000E+00  0.00000000000E+00  0.39999999673E+01  0.40000000000E+01  0.51109989000E-03 0. -1.
     -623   -1    0    0    0    0  0.00000000000E+00  0.00000000000E+00  0.12525980253E-10  0.17130000000E+03  0.17130000000E+03 0. -1.
       11    1    1    2    0    0 -0.82943404884E-01  0.25470585509E+00  0.66150551853E-01  0.27591817223E+00  0.51109989000E-03 0. -1.
     -623    1    1    2    0    0  0.12730438808E+00  0.44442588381E-02  0.53634253647E+00  0.17130088701E+03  0.17130000000E+03 0. -1.
      622    1    1    2    0    0 -0.44360983196E-01 -0.25915011393E+00  0.33975068790E+01  0.37231948205E+01  0.15000000000E+01 0. -1.
</event>
<event>
 5   0  0.6596100E+00  0.9118800E+02  0.7818608E-02  0.1180000E+00
       11   -1    0    0    0    0  0.00000000000E+00  0.00000000000E+00  0.39999999673E+01  0.40000000000E+01  0.51109989000E-03 0. -1.
     -623   -1    0    0    0    0  0.00000000000E+00  0.00000000000E+00  0.12525980253E-10  0.17130000000E+03  0.17130000000E+03 0. -1.
       11    1    1    2    0    0  0.31030524371E-01  0.12950300128E-02  0.13963355318E+00  0.14304670894E+00  0.51109989000E-03 0. -1.
     -623    1    1    2    0    0 -0.80679237669E-01 -0.39168875853E-01  0.30792029568E+00  0.17130030023E+03  0.17130000000E+03 0. -1.
      622    1    1    2    0    0  0.49648713299E-01  0.37873845840E-01  0.35524461185E+01  0.38566530629E+01  0.15000000000E+01 0. -1.
</event>
<event>
 5   0  0.6596100E+00  0.9118800E+02  0.7818608E-02  0.1180000E+00
       11   -1    0    0    0    0  0.00000000000E+00  0.00000000000E+00  0.39999999673E+01  0.40000000000E+01  0.51109989000E-03 0.  1.
     -623   -1    0    0    0    0  0.00000000000E+00  0.00000000000E+00  0.12525980253E-10  0.17130000000E+03  0.17130000000E+03 0. -1.
       11    1    1    2    0    0 -0.46482547584E-01 -0.87330187344E-02 -0.16741858322E+00  0.17397165308E+00  0.51109989000E-03 0.  1.
     -623    1    1    2    0    0 -0.38025125004E+00 -0.34334725258E+00  0.69382951558E+00  0.17130217126E+03  0.17130000000E+03 0. -1.
      622    1    1    2    0    0  0.42673379762E+00  0.35208027132E+00  0.34735890350E+01  0.38238570888E+01  0.15000000000E+01 0.  1.
</event>
<event>
 5   0  0.6596100E+00  0.9118800E+02  0.7818608E-02  0.1180000E+00
       11   -1    0    0    0    0  0.00000000000E+00  0.00000000000E+00  0.39999999673E+01  0.40000000000E+01  0.51109989000E-03 0. -1.
     -623   -1    0    0    0    0  0.00000000000E+00  0.00000000000E+00  0.12525980253E-10  0.17130000000E+03  0.17130000000E+03 0.  1.
       11    1    1    2    0    0 -0.31962701705E-01  0.79094159063E-01 -0.36791344388E-01  0.92905137335E-01  0.51109989000E-03 0. -1.
     -623    1    1    2    0    0  0.16363606983E+00  0.16496726515E+00  0.44056712792E+00  0.17130072414E+03  0.17130000000E+03 0.  1.
      622    1    1    2    0    0 -0.13167336812E+00 -0.24406142421E+00  0.35962241838E+01  0.39063707242E+01  0.15000000000E+01 0. -1.
</event>
<event>
 5   0  0.6596100E+00  0.9118800E+02  0.7818608E-02  0.1180000E+00
       11   -1    0    0    0    0  0.00000000000E+00  0.00000000000E+00  0.39999999673E+01  0.40000000000E+01  0.51109989000E-03 0.  1.
     -623   -1    0    0    0    0  0.00000000000E+00  0.00000000000E+00  0.12525980253E-10  0.17130000000E+03  0.17130000000E+03 0.  1.
       11    1    1    2    0    0 -0.33812577723E+00  0.98846717784E-01  0.34091285944E+00  0.49022602318E+00  0.51109989000E-03 0.  1.
     -623    1    1    2    0    0 -0.89420219998E-01 -0.28434892117E+00  0.52158598273E+00  0.17130105342E+03  0.17130000000E+03 0.  1.
      622    1    1    2    0    0  0.42754599723E+00  0.18550220338E+00  0.31375011252E+01  0.35087205585E+01  0.15000000000E+01 0.  1.
</event>
<event>
 5   0  0.6596100E+00  0.9118800E+02  0.7818608E-02  0.1180000E+00
       11   -1    0    0    0    0  0.00000000000E+00  0.00000000000E+00  0.39999999673E+01  0.40000000000E+01  0.51109989000E-03 0. -1.
     -623   -1    0    0    0    0  0.00000000000E+00  0.00000000000E+00  0.12525980253E-10  0.17130000000E+03  0.17130000000E+03 0. -1.
       11    1    1    2    0    0 -0.62174754400E-01 -0.11075140876E+00  0.33166472775E-01  0.13127014422E+00  0.51109989000E-03 0. -1.
     -623    1    1    2    0    0  0.17731499812E+00  0.38199896292E+00  0.41403713471E+00  0.17130101807E+03  0.17130000000E+03 0. -1.
      622    1    1    2    0    0 -0.11514024372E+00 -0.27124755416E+00  0.35527963599E+01  0.38677117894E+01  0.15000000000E+01 0. -1.
</event>
<event>
 5   0  0.6596100E+00  0.9118800E+02  0.7818608E-02  0.1180000E+00
       11   -1    0    0    0    0  0.00000000000E+00  0.00000000000E+00  0.39999999673E+01  0.40000000000E+01  0.51109989000E-03 0.  1.
     -623   -1    0    0    0    0  0.00000000000E+00  0.00000000000E+00  0.12525980253E-10  0.17130000000E+03  0.17130000000E+03 0. -1.
       11    1    1    2    0    0  0.12588480419E+00  0.26974811708E+00  0.34546759650E+00  0.45602538531E+00  0.51109989000E-03 0.  1.
     -623    1    1    2    0    0  0.35460285364E-01  0.26281157172E-01  0.46209868573E+00  0.17130062896E+03  0.17130000000E+03 0. -1.
      622    1    1    2    0    0 -0.16134508955E+00 -0.29602927425E+00  0.31924336851E+01  0.35433456511E+01  0.15000000000E+01 0.  1.
</event>
<event>
 5   0  0.6596100E+00  0.9118800E+02  0.7818608E-02  0.1180000E+00
       11   -1    0    0    0    0  0.00000000000E+00  0.00000000000E+00  0.39999999673E+01  0.40000000000E+01  0.51109989000E-03 0.  1.
     -623   -1    0    0    0    0  0.00000000000E+00  0.00000000000E+00  0.12525980253E-10  0.17130000000E+03  0.17130000000E+03 0.  1.
       11    1    1    2    0    0  0.30571048700E+00  0.99594361605E-01  0.11191547939E+01  0.11644250310E+01  0.51109989000E-03 0.  1.
     -623    1    1    2    0    0 -0.41000500388E-01 -0.51246467198E-01  0.49044267487E+00  0.17130071465E+03  0.17130000000E+03 0.  1.
      622    1    1    2    0    0 -0.26470998661E+00 -0.48347894407E-01  0.23904024985E+01  0.28348603142E+01  0.15000000000E+01 0.  1.
</event>
<event>
 5   0  0.6596100E+00  0.9118800E+02  0.7818608E-02  0.1180000E+00
       11   -1    0    0    0    0  0.00000000000E+00  0.00000000000E+00  0.39999999673E+01  0.40000000000E+01  0.51109989000E-03 0.  1.
     -623   -1    0    0    0    0  0.00000000000E+00  0.00000000000E+00  0.12525980253E-10  0.17130000000E+03  0.17130000000E+03 0. -1.
       11    1    1    2    0    0 -0.40940766388E+00  0.72300211381E-01  0.58474692622E+00  0.71747556387E+00  0.51109989000E-03 0.  1.
     -623    1    1    2    0    0  0.67766843645E+00 -0.87507197294E-01  0.51028494035E+00  0.17130212282E+03  0.17130000000E+03 0. -1.
      622    1    1    2    0    0 -0.26826077258E+00  0.15206985912E-01  0.29049681008E+01  0.32804016158E+01  0.15000000000E+01 0.  1.
</event>
<event>
 5   0  0.6596100E+00  0.9118800E+02  0.7818608E-02  0.1180000E+00
       11   -1    0    0    0    0  0.00000000000E+00  0.00000000000E+00  0.39999999673E+01  0.40000000000E+01  0.51109989000E-03 0.  1.
     -623   -1    0    0    0    0  0.00000000000E+00  0.00000000000E+00  0.12525980253E-10  0.17130000000E+03  0.17130000000E+03 0. -1.
       11    1    1    2    0    0  0.72488514191E-01  0.81333479939E-01 -0.14029510987E-01  0.10984902389E+00  0.51109989000E-03 0.  1.
     -623    1    1    2    0    0 -0.12440952387E+00 -0.98405614271E-01  0.42577091434E+00  0.17130060257E+03  0.17130000000E+03 0. -1.
      622    1    1    2    0    0  0.51921009683E-01  0.17072134333E-01  0.35882585640E+01  0.38895484020E+01  0.15000000000E+01 0.  1.
</event>
<event>
 5   0  0.6596100E+00  0.9118800E+02  0.7818608E-02  0.1180000E+00
       11   -1    0    0    0    0  0.00000000000E+00  0.00000000000E+00  0.39999999673E+01  0.40000000000E+01  0.51109989000E-03 0.  1.
     -623   -1    0    0    0    0  0.00000000000E+00  0.00000000000E+00  0.12525980253E-10  0.17130000000E+03  0.17130000000E+03 0. -1.
       11    1    1    2    0    0  0.15302569020E+00  0.21719292915E+00  0.27169582051E+00  0.38001119778E+00  0.51109989000E-03 0.  1.
     -623    1    1    2    0    0 -0.15261643514E+00  0.13304553155E+00  0.45317880022E+00  0.17130071910E+03  0.17130000000E+03 0. -1.
      622    1    1    2    0    0 -0.40925505845E-03 -0.35023846070E+00  0.32751253466E+01  0.36192697030E+01  0.15000000000E+01 0.  1.
</event>
<event>
 5   0  0.6596100E+00  0.9118800E+02  0.7818608E-02  0.1180000E+00
       11   -1    0    0    0    0  0.00000000000E+00  0.00000000000E+00  0.39999999673E+01  0.40000000000E+01  0.51109989000E-03 0.  1.
     -623   -1    0    0    0    0  0.00000000000E+00  0.00000000000E+00  0.12525980253E-10  0.17130000000E+03  0.17130000000E+03 0.  1.
       11    1    1    2    0    0 -0.34514836546E+00  0.11610311311E+00 -0.50026322186E-01  0.36757342286E+00  0.51109989000E-03 0.  1.
     -623    1    1    2    0    0  0.11948495909E-01  0.22826454653E+00  0.77879623078E+00  0.17130192285E+03  0.17130000000E+03 0.  1.
      622    1    1    2    0    0  0.33319986956E+00 -0.34436765964E+00  0.32712300588E+01  0.36305037303E+01  0.15000000000E+01 0.  1.
</event>
<event>
 5   0  0.6596100E+00  0.9118800E+02  0.7818608E-02  0.1180000E+00
       11   -1    0    0    0    0  0.00000000000E+00  0.00000000000E+00  0.39999999673E+01  0.40000000000E+01  0.51109989000E-03 0. -1.
     -623   -1    0    0    0    0  0.00000000000E+00  0.00000000000E+00  0.12525980253E-10  0.17130000000E+03  0.17130000000E+03 0. -1.
       11    1    1    2    0    0 -0.23709986258E+00  0.95772583906E-01  0.15652496770E+00  0.29981504198E+00  0.51109989000E-03 0. -1.
     -623    1    1    2    0    0  0.44349436538E+00  0.32957780935E-01  0.47106714132E+00  0.17130122497E+03  0.17130000000E+03 0. -1.
      622    1    1    2    0    0 -0.20639450280E+00 -0.12873036484E+00  0.33724078583E+01  0.36989599837E+01  0.15000000000E+01 0. -1.
</event>
<event>
 5   0  0.6596100E+00  0.9118800E+02  0.7818608E-02  0.1180000E+00
       11   -1    0    0    0    0  0.00000000000E+00  0.00000000000E+00  0.39999999673E+01  0.40000000000E+01  0.51109989000E-03 0. -1.
     -623   -1    0    0    0    0  0.00000000000E+00  0.00000000000E+00  0.12525980253E-10  0.17130000000E+03  0.17130000000E+03 0.  1.
       11    1    1    2    0    0  0.20232401444E+00 -0.46038303456E-01  0.33058034052E-01  0.21011336712E+00  0.51109989000E-03 0. -1.
     -623    1    1    2    0    0 -0.55726313892E-01  0.11279457782E+00  0.49108113451E+00  0.17130075011E+03  0.17130000000E+03 0.  1.
      622    1    1    2    0    0 -0.14659770055E+00 -0.66756274360E-01  0.34758607988E+01  0.37891365215E+01  0.15000000000E+01 0. -1.
</event>
<event>
 5   0  0.6596100E+00  0.9118800E+02  0.7818608E-02  0.1180000E+00
       11   -1    0    0    0    0  0.00000000000E+00  0.00000000000E+00  0.39999999673E+01  0.40000000000E+01  0.51109989000E-03 0.  1.
     -623   -1    0    0    0    0  0.00000000000E+00  0.00000000000E+00  0.12525980253E-10  0.17130000000E+03  0.17130000000E+03 0. -1.
       11    1    1    2    0    0  0.25431356343E-01 -0.14440253823E+00  0.49252410897E-01  0.15467678602E+00  0.51109989000E-03 0.  1.
     -623    1    1    2    0    0 -0.13099114160E+00  0.12572317941E+00  0.41232094787E+00  0.17130059245E+03  0.17130000000E+03 0. -1.
      622    1    1    2    0    0  0.10555978526E+00  0.18679358825E-01  0.35384266086E+01  0.38447307644E+01  0.15000000000E+01 0.  1.
</event>
<event>
 5   0  0.6596100E+00  0.9118800E+02  0.7818608E-02  0.1180000E+00
       11   -1    0    0    0    0  0.00000000000E+00  0.00000000000E+00  0.39999999673E+01  0.40000000000E+01  0.51109989000E-03 0.  1.
     -623   -1    0    0    0    0  0.00000000000E+00  0.00000000000E+00  0.12525980253E-10  0.17130000000E+03  0.17130000000E+03 0.  1.
       11    1    1    2    0    0 -0.12672582375E+00 -0.41273268105E-01  0.32048274699E+00  0.34709129837E+00  0.51109989000E-03 0.  1.
     -623    1    1    2    0    0 -0.10439355444E+00  0.23441646798E+00  0.36307234560E+00  0.17130057697E+03  0.17130000000E+03 0.  1.
      622    1    1    2    0    0  0.23111937819E+00 -0.19314319987E+00  0.33164448748E+01  0.36523317306E+01  0.15000000000E+01 0.  0.
</event>
<event>
 5   0  0.6596100E+00  0.9118800E+02  0.7818608E-02  0.1180000E+00
       11   -1    0    0    0    0  0.00000000000E+00  0.00000000000E+00  0.39999999673E+01  0.40000000000E+01  0.51109989000E-03 0. -1.
     -623   -1    0    0    0    0  0.00000000000E+00  0.00000000000E+00  0.12525980253E-10  0.17130000000E+03  0.17130000000E+03 0. -1.
       11    1    1    2    0    0 -0.37073587141E+00  0.16173155936E+00  0.88183236192E+00  0.97017047955E+00  0.51109989000E-03 0. -1.
     -623    1    1    2    0    0  0.34743635037E+00 -0.15462957037E+00  0.48709931979E+00  0.17130111467E+03  0.17130000000E+03 0. -1.
      622    1    1    2    0    0  0.23299521042E-01 -0.71019889876E-02  0.26310682857E+01  0.30287148479E+01  0.15000000000E+01 0. -1.
</event>
<event>
 5   0  0.6596100E+00  0.9118800E+02  0.7818608E-02  0.1180000E+00
       11   -1    0    0    0    0  0.00000000000E+00  0.00000000000E+00  0.39999999673E+01  0.40000000000E+01  0.51109989000E-03 0.  1.
     -623   -1    0    0    0    0  0.00000000000E+00  0.00000000000E+00  0.12525980253E-10  0.17130000000E+03  0.17130000000E+03 0.  1.
       11    1    1    2    0    0 -0.10934526981E+00 -0.19606799587E-01 -0.95882529016E-02  0.11150340998E+00  0.51109989000E-03 0.  1.
     -623    1    1    2    0    0  0.36911947152E+00  0.56438323699E-01  0.43269679270E+00  0.17130095347E+03  0.17130000000E+03 0.  1.
      622    1    1    2    0    0 -0.25977420171E+00 -0.36831524112E-01  0.35768914276E+01  0.38875431164E+01  0.15000000000E+01 0.  1.
</event>
<event>
 5   0  0.6596100E+00  0.9118800E+02  0.7818608E-02  0.1180000E+00
       11   -1    0    0    0    0  0.00000000000E+00  0.00000000000E+00  0.39999999673E+01  0.40000000000E+01  0.51109989000E-03 0.  1.
     -623   -1    0    0    0    0  0.00000000000E+00  0.00000000000E+00  0.12525980253E-10  0.17130000000E+03  0.17130000000E+03 0.  1.
       11    1    1    2    0    0 -0.11379712975E-01 -0.25006859390E+00  0.41407313825E+00  0.48386012914E+00  0.51109989000E-03 0.  1.
     -623    1    1    2    0    0 -0.16575734956E-01  0.38517842063E+00  0.40981190015E+00  0.17130092406E+03  0.17130000000E+03 0.  1.
      622    1    1    2    0    0  0.27955447932E-01 -0.13510982673E+00  0.31761149290E+01  0.35152158133E+01  0.15000000000E+01 0.  1.
</event>
<event>
 5   0  0.6596100E+00  0.9118800E+02  0.7818608E-02  0.1180000E+00
       11   -1    0    0    0    0  0.00000000000E+00  0.00000000000E+00  0.39999999673E+01  0.40000000000E+01  0.51109989000E-03 0.  1.
     -623   -1    0    0    0    0  0.00000000000E+00  0.00000000000E+00  0.12525980253E-10  0.17130000000E+03  0.17130000000E+03 0.  1.
       11    1    1    2    0    0 -0.64453840800E-01 -0.59642062178E-01  0.34138053655E+00  0.35249454624E+00  0.51109989000E-03 0.  1.
     -623    1    1    2    0    0  0.13709445259E-01 -0.16719065343E-01  0.33544561670E+00  0.17130032980E+03  0.17130000000E+03 0.  1.
      622    1    1    2    0    0  0.50744395541E-01  0.76361127521E-01  0.33231738141E+01  0.36471756489E+01  0.15000000000E+01 0.  1.
</event>
<event>
 5   0  0.6596100E+00  0.9118800E+02  0.7818608E-02  0.1180000E+00
       11   -1    0    0    0    0  0.00000000000E+00  0.00000000000E+00  0.39999999673E+01  0.40000000000E+01  0.51109989000E-03 0.  1.
     -623   -1    0    0    0    0  0.00000000000E+00  0.00000000000E+00  0.12525980253E-10  0.17130000000E+03  0.17130000000E+03 0. -1.
       11    1    1    2    0    0 -0.11880952885E+00  0.64478197139E-01 -0.52808223134E-01  0.14512791498E+00  0.51109989000E-03 0.  1.
     -623    1    1    2    0    0 -0.27658203601E+00 -0.24991615753E-01  0.52517385634E+00  0.17130103015E+03  0.17130000000E+03 0. -1.
      622    1    1    2    0    0  0.39539156486E+00 -0.39486581386E-01  0.35276343342E+01  0.38538419370E+01  0.15000000000E+01 0.  1.
</event>
<event>
 5   0  0.6596100E+00  0.9118800E+02  0.7818608E-02  0.1180000E+00
       11   -1    0    0    0    0  0.00000000000E+00  0.00000000000E+00  0.39999999673E+01  0.40000000000E+01  0.51109989000E-03 0.  1.
     -623   -1    0    0    0    0  0.00000000000E+00  0.00000000000E+00  0.12525980253E-10  0.17130000000E+03  0.17130000000E+03 0. -1.
       11    1    1    2    0    0 -0.18705488072E+00  0.86511771690E-01  0.35116324069E+00  0.40717281083E+00  0.51109989000E-03 0.  1.
     -623    1    1    2    0    0  0.46539790079E-01  0.34075293843E-01  0.38987003374E+00  0.17130045337E+03  0.17130000000E+03 0. -1.
      622    1    1    2    0    0  0.14051509065E+00 -0.12058706553E+00  0.32589666929E+01  0.35923738164E+01  0.15000000000E+01 0.  1.
</event>
<event>
 5   0  0.6596100E+00  0.9118800E+02  0.7818608E-02  0.1180000E+00
       11   -1    0    0    0    0  0.00000000000E+00  0.00000000000E+00  0.39999999673E+01  0.40000000000E+01  0.51109989000E-03 0.  1.
     -623   -1    0    0    0    0  0.00000000000E+00  0.00000000000E+00  0.12525980253E-10  0.17130000000E+03  0.17130000000E+03 0.  1.
       11    1    1    2    0    0 -0.19325469975E-01  0.32598428197E+00  0.30246623187E+00  0.44511269194E+00  0.51109989000E-03 0.  1.
     -623    1    1    2    0    0  0.41830048990E-01  0.94706388647E-01  0.50312272126E+00  0.17130077014E+03  0.17130000000E+03 0.  1.
      622    1    1    2    0    0 -0.22504579014E-01 -0.42069067061E+00  0.31944110142E+01  0.35541171652E+01  0.15000000000E+01 0.  1.
</event>
<event>
 5   0  0.6596100E+00  0.9118800E+02  0.7818608E-02  0.1180000E+00
       11   -1    0    0    0    0  0.00000000000E+00  0.00000000000E+00  0.39999999673E+01  0.40000000000E+01  0.51109989000E-03 0. -1.
     -623   -1    0    0    0    0  0.00000000000E+00  0.00000000000E+00  0.12525980253E-10  0.17130000000E+03  0.17130000000E+03 0.  1.
       11    1    1    2    0    0 -0.61470378271E-01 -0.10844539752E+00  0.14069120609E+00  0.18797150938E+00  0.51109989000E-03 0. -1.
     -623    1    1    2    0    0  0.45832621856E-01  0.57794867827E-01  0.35562271329E+00  0.17130038502E+03  0.17130000000E+03 0.  1.
      622    1    1    2    0    0  0.15637756415E-01  0.50650529690E-01  0.35036860480E+01  0.38116434695E+01  0.15000000000E+01 0. -1.
</event>
<event>
 5   0  0.6596100E+00  0.9118800E+02  0.7818608E-02  0.1180000E+00
       11   -1    0    0    0    0  0.00000000000E+00  0.00000000000E+00  0.39999999673E+01  0.40000000000E+01  0.51109989000E-03 0.  1.
     -623   -1    0    0    0    0  0.00000000000E+00  0.00000000000E+00  0.12525980253E-10  0.17130000000E+03  0.17130000000E+03 0.  1.
       11    1    1    2    0    0 -0.23392756003E+00  0.90033850969E-01  0.26428849753E+00  0.36424836144E+00  0.51109989000E-03 0.  1.
     -623    1    1    2    0    0 -0.90650240114E-01 -0.13530662029E+00  0.44077543254E+00  0.17130064451E+03  0.17130000000E+03 0.  1.
      622    1    1    2    0    0  0.32457780015E+00  0.45272769321E-01  0.32949360373E+01  0.36351071321E+01  0.15000000000E+01 0.  1.
</event>
<event>
 5   0  0.6596100E+00  0.9118800E+02  0.7818608E-02  0.1180000E+00
       11   -1    0    0    0    0  0.00000000000E+00  0.00000000000E+00  0.39999999673E+01  0.40000000000E+01  0.51109989000E-03 0. -1.
     -623   -1    0    0    0    0  0.00000000000E+00  0.00000000000E+00  0.12525980253E-10  0.17130000000E+03  0.17130000000E+03 0.  1.
       11    1    1    2    0    0 -0.15025485728E-01  0.88246813075E-01 -0.12803501700E-01  0.90429287930E-01  0.51109989000E-03 0. -1.
     -623    1    1    2    0    0 -0.28601826641E-01 -0.69518913823E-01  0.40328154519E+00  0.17130049120E+03  0.17130000000E+03 0.  1.
      622    1    1    2    0    0  0.43627312369E-01 -0.18727899252E-01  0.36095219239E+01  0.39090795074E+01  0.15000000000E+01 0. -1.
</event>
<event>
 5   0  0.6596100E+00  0.9118800E+02  0.7818608E-02  0.1180000E+00
       11   -1    0    0    0    0  0.00000000000E+00  0.00000000000E+00  0.39999999673E+01  0.40000000000E+01  0.51109989000E-03 0. -1.
     -623   -1    0    0    0    0  0.00000000000E+00  0.00000000000E+00  0.12525980253E-10  0.17130000000E+03  0.17130000000E+03 0.  1.
       11    1    1    2    0    0  0.65048495621E-02  0.50815046895E-01 -0.38697859102E-01  0.64204887516E-01  0.51109989000E-03 0. -1.
     -623    1    1    2    0    0  0.75060129135E-01  0.16154872810E+00  0.40769462424E+00  0.17130057778E+03  0.17130000000E+03 0.  1.
      622    1    1    2    0    0 -0.81564978697E-01 -0.21236377500E+00  0.36310032022E+01  0.39352173349E+01  0.15000000000E+01 0. -1.
</event>
<event>
 5   0  0.6596100E+00  0.9118800E+02  0.7818608E-02  0.1180000E+00
       11   -1    0    0    0    0  0.00000000000E+00  0.00000000000E+00  0.39999999673E+01  0.40000000000E+01  0.51109989000E-03 0.  1.
     -623   -1    0    0    0    0  0.00000000000E+00  0.00000000000E+00  0.12525980253E-10  0.17130000000E+03  0.17130000000E+03 0.  1.
       11    1    1    2    0    0  0.83472640487E-02  0.29108665869E+00  0.17631225559E+00  0.34042237350E+00  0.51109989000E-03 0.  1.
     -623    1    1    2    0    0 -0.11631493619E-01 -0.33500265120E+00  0.48705742888E+00  0.17130102039E+03  0.17130000000E+03 0.  1.
      622    1    1    2    0    0  0.32842295704E-02  0.43915992508E-01  0.33366302829E+01  0.36585572355E+01  0.15000000000E+01 0.  1.
</event>
<event>
 5   0  0.6596100E+00  0.9118800E+02  0.7818608E-02  0.1180000E+00
       11   -1    0    0    0    0  0.00000000000E+00  0.00000000000E+00  0.39999999673E+01  0.40000000000E+01  0.51109989000E-03 0. -1.
     -623   -1    0    0    0    0  0.00000000000E+00  0.00000000000E+00  0.12525980253E-10  0.17130000000E+03  0.17130000000E+03 0. -1.
       11    1    1    2    0    0 -0.46568119882E-01 -0.18583199329E+00  0.80891857847E-01  0.20795642190E+00  0.51109989000E-03 0. -1.
     -623    1    1    2    0    0 -0.33108880683E-01 -0.64623615131E-01  0.44693590199E+00  0.17130059843E+03  0.17130000000E+03 0. -1.
      622    1    1    2    0    0  0.79677000565E-01  0.25045560842E+00  0.34721722075E+01  0.37914451433E+01  0.15000000000E+01 0. -1.
</event>
<event>
 5   0  0.6596100E+00  0.9118800E+02  0.7818608E-02  0.1180000E+00
       11   -1    0    0    0    0  0.00000000000E+00  0.00000000000E+00  0.39999999673E+01  0.40000000000E+01  0.51109989000E-03 0.  1.
     -623   -1    0    0    0    0  0.00000000000E+00  0.00000000000E+00  0.12525980253E-10  0.17130000000E+03  0.17130000000E+03 0. -1.
       11    1    1    2    0    0 -0.29048533672E+00 -0.67855172751E-01  0.73746578737E-01  0.30728630692E+00  0.51109989000E-03 0.  1.
     -623    1    1    2    0    0 -0.74049792908E-01  0.45561832161E+00  0.59599202597E+00  0.17130165871E+03  0.17130000000E+03 0. -1.
      622    1    1    2    0    0  0.36453512963E+00 -0.38776314886E+00  0.33302613627E+01  0.36910549798E+01  0.15000000000E+01 0.  1.
</event>
<event>
 5   0  0.6596100E+00  0.9118800E+02  0.7818608E-02  0.1180000E+00
       11   -1    0    0    0    0  0.00000000000E+00  0.00000000000E+00  0.39999999673E+01  0.40000000000E+01  0.51109989000E-03 0. -1.
     -623   -1    0    0    0    0  0.00000000000E+00  0.00000000000E+00  0.12525980253E-10  0.17130000000E+03  0.17130000000E+03 0. -1.
       11    1    1    2    0    0 -0.35525983704E-01  0.18555073670E+00  0.22117988180E-01  0.19021208697E+00  0.51109989000E-03 0. -1.
     -623    1    1    2    0    0  0.36224885493E+00 -0.89116963663E-01  0.49364272568E+00  0.17130111748E+03  0.17130000000E+03 0. -1.
      622    1    1    2    0    0 -0.32672287123E+00 -0.96433773032E-01  0.34842392535E+01  0.38086704350E+01  0.15000000000E+01 0. -1.
</event>
<event>
 5   0  0.6596100E+00  0.9118800E+02  0.7818608E-02  0.1180000E+00
       11   -1    0    0    0    0  0.00000000000E+00  0.00000000000E+00  0.39999999673E+01  0.40000000000E+01  0.51109989000E-03 0.  1.
     -623   -1    0    0    0    0  0.00000000000E+00  0.00000000000E+00  0.12525980253E-10  0.17130000000E+03  0.17130000000E+03 0.  1.
       11    1    1    2    0    0 -0.14379387668E+00  0.96026143150E-01  0.48825116675E+00  0.51796444105E+00  0.51109989000E-03 0.  1.
     -623    1    1    2    0    0  0.14999683446E+00 -0.14318090537E+00  0.37030830573E+00  0.17130052577E+03  0.17130000000E+03 0.  1.
      622    1    1    2    0    0 -0.62029577877E-02  0.47154762223E-01  0.31414404949E+01  0.34815097919E+01  0.15000000000E+01 0.  1.
</event>
<event>
 5   0  0.6596100E+00  0.9118800E+02  0.7818608E-02  0.1180000E+00
       11   -1    0    0    0    0  0.00000000000E+00  0.00000000000E+00  0.39999999673E+01  0.40000000000E+01  0.51109989000E-03 0.  1.
     -623   -1    0    0    0    0  0.00000000000E+00  0.00000000000E+00  0.12525980253E-10  0.17130000000E+03  0.17130000000E+03 0. -1.
       11    1    1    2    0    0 -0.46787735755E-01  0.86446636275E-01  0.44724207570E+00  0.45791685778E+00  0.51109989000E-03 0.  1.
     -623    1    1    2    0    0 -0.24911513741E+00  0.12694522634E+00  0.36545799423E+00  0.17130061802E+03  0.17130000000E+03 0. -1.
      622    1    1    2    0    0  0.29590287317E+00 -0.21339186262E+00  0.31872998974E+01  0.35414651253E+01  0.15000000000E+01 0.  1.
</event>
<event>
 5   0  0.6596100E+00  0.9118800E+02  0.7818608E-02  0.1180000E+00
       11   -1    0    0    0    0  0.00000000000E+00  0.00000000000E+00  0.39999999673E+01  0.40000000000E+01  0.51109989000E-03 0.  1.
     -623   -1    0    0    0    0  0.00000000000E+00  0.00000000000E+00  0.12525980253E-10  0.17130000000E+03  0.17130000000E+03 0.  1.
       11    1    1    2    0    0  0.17801767292E+00 -0.81822613807E-01  0.49304499407E+00  0.53054581273E+00  0.51109989000E-03 0.  1.
     -623    1    1    2    0    0 -0.10735113974E+00  0.38894470592E+00  0.39547131816E+00  0.17130093170E+03  0.17130000000E+03 0.  1.
      622    1    1    2    0    0 -0.70666533181E-01 -0.30712209211E+00  0.31114836551E+01  0.34685224916E+01  0.15000000000E+01 0.  1.
</event>
<event>
 5   0  0.6596100E+00  0.9118800E+02  0.7818608E-02  0.1180000E+00
       11   -1    0    0    0    0  0.00000000000E+00  0.00000000000E+00  0.39999999673E+01  0.40000000000E+01  0.51109989000E-03 0. -1.
     -623   -1    0    0    0    0  0.00000000000E+00  0.00000000000E+00  0.12525980253E-10  0.17130000000E+03  0.17130000000E+03 0.  1.
       11    1    1    2    0    0  0.29737045993E-01  0.72935702539E-01  0.44053534651E-01  0.90249009677E-01  0.51109989000E-03 0. -1.
     -623    1    1    2    0    0 -0.11763356517E+00 -0.15304182574E+00  0.34784468596E+00  0.17130046192E+03  0.17130000000E+03 0.  1.
      622    1    1    2    0    0  0.87896519174E-01  0.80106123204E-01  0.36081017467E+01  0.39092890663E+01  0.15000000000E+01 0. -1.
</event>
<event>
 5   0  0.6596100E+00  0.9118800E+02  0.7818608E-02  0.1180000E+00
       11   -1    0    0    0    0  0.00000000000E+00  0.00000000000E+00  0.39999999673E+01  0.40000000000E+01  0.51109989000E-03 0. -1.
     -623   -1    0    0    0    0  0.00000000000E+00  0.00000000000E+00  0.12525980253E-10  0.17130000000E+03  0.17130000000E+03 0. -1.
       11    1    1    2    0    0 -0.95146407407E-01  0.45375626211E-01  0.62985816414E-01  0.12279764081E+00  0.51109989000E-03 0. -1.
     -623    1    1    2    0    0  0.99926133478E-01  0.19693606840E+00  0.37053841476E+00  0.17130054310E+03  0.17130000000E+03 0. -1.
      622    1    1    2    0    0 -0.47797260704E-02 -0.24231169461E+00  0.35664757362E+01  0.38766592551E+01  0.15000000000E+01 0. -1.
</event>
<event>
 5   0  0.6596100E+00  0.9118800E+02  0.7818608E-02  0.1180000E+00
       11   -1    0    0    0    0  0.00000000000E+00  0.00000000000E+00  0.39999999673E+01  0.40000000000E+01  0.51109989000E-03 0.  1.
     -623   -1    0    0    0    0  0.00000000000E+00  0.00000000000E+00  0.12525980253E-10  0.17130000000E+03  0.17130000000E+03 0. -1.
       11    1    1    2    0    0  0.11239987429E+00 -0.23276906492E-01  0.10137508586E+00  0.15314279406E+00  0.51109989000E-03 0.  1.
     -623    1    1    2    0    0 -0.19308956041E+00 -0.17677237138E+00  0.36347647273E+00  0.17130058566E+03  0.17130000000E+03 0. -1.
      622    1    1    2    0    0  0.80689686126E-01  0.20004927787E+00  0.35351484088E+01  0.38462715467E+01  0.15000000000E+01 0.  1.
</event>
<event>
 5   0  0.6596100E+00  0.9118800E+02  0.7818608E-02  0.1180000E+00
       11   -1    0    0    0    0  0.00000000000E+00  0.00000000000E+00  0.39999999673E+01  0.40000000000E+01  0.51109989000E-03 0.  1.
     -623   -1    0    0    0    0  0.00000000000E+00  0.00000000000E+00  0.12525980253E-10  0.17130000000E+03  0.17130000000E+03 0.  1.
       11    1    1    2    0    0  0.39098794364E-01  0.31639333206E-01  0.69576732201E+00  0.69758310668E+00  0.51109989000E-03 0.  1.
     -623    1    1    2    0    0 -0.17659124912E+00 -0.72625202136E-01  0.36619154347E+00  0.17130049783E+03  0.17130000000E+03 0.  1.
      622    1    1    2    0    0  0.13749245476E+00  0.40985868930E-01  0.29380411019E+01  0.33019190682E+01  0.15000000000E+01 0.  0.
</event>
<event>
 5   0  0.6596100E+00  0.9118800E+02  0.7818608E-02  0.1180000E+00
       11   -1    0    0    0    0  0.00000000000E+00  0.00000000000E+00  0.39999999673E+01  0.40000000000E+01  0.51109989000E-03 0.  1.
     -623   -1    0    0    0    0  0.00000000000E+00  0.00000000000E+00  0.12525980253E-10  0.17130000000E+03  0.17130000000E+03 0.  1.
       11    1    1    2    0    0  0.38409056283E-01 -0.16961084805E+00  0.24362532528E+00  0.29932700466E+00  0.51109989000E-03 0.  1.
     -623    1    1    2    0    0 -0.94674914825E-01 -0.72667391932E-01  0.38300251581E+00  0.17130046974E+03  0.17130000000E+03 0.  1.
      622    1    1    2    0    0  0.56265858542E-01  0.24227823998E+00  0.33733721263E+01  0.37002032505E+01  0.15000000000E+01 0.  1.
</event>
<event>
 5   0  0.6596100E+00  0.9118800E+02  0.7818608E-02  0.1180000E+00
       11   -1    0    0    0    0  0.00000000000E+00  0.00000000000E+00  0.39999999673E+01  0.40000000000E+01  0.51109989000E-03 0.  1.
     -623   -1    0    0    0    0  0.00000000000E+00  0.00000000000E+00  0.12525980253E-10  0.17130000000E+03  0.17130000000E+03 0. -1.
       11    1    1    2    0    0  0.90744132366E-01 -0.16811179027E+00  0.14755898289E+00  0.24139176921E+00  0.51109989000E-03 0.  1.
     -623    1    1    2    0    0  0.35344324861E+00  0.34819438290E-01  0.43848710563E+00  0.17130092938E+03  0.17130000000E+03 0. -1.
      622    1    1    2    0    0 -0.44418738098E+00  0.13329235198E+00  0.34139538788E+01  0.37576788537E+01  0.15000000000E+01 0.  1.
</event>
<event>
 5   0  0.6596100E+00  0.9118800E+02  0.7818608E-02  0.1180000E+00
       11   -1    0    0    0    0  0.00000000000E+00  0.00000000000E+00  0.39999999673E+01  0.40000000000E+01  0.51109989000E-03 0.  1.
     -623   -1    0    0    0    0  0.00000000000E+00  0.00000000000E+00  0.12525980253E-10  0.17130000000E+03  0.17130000000E+03 0.  1.
       11    1    1    2    0    0  0.70861691950E-01 -0.95501693042E-01  0.31899872191E+00  0.34044441333E+00  0.51109989000E-03 0.  1.
     -623    1    1    2    0    0  0.14046925385E+00  0.59703253587E-01  0.35034288021E+00  0.17130042626E+03  0.17130000000E+03 0.  1.
      622    1    1    2    0    0 -0.21133094580E+00  0.35798439455E-01  0.33306583652E+01  0.36591293285E+01  0.15000000000E+01 0.  1.
</event>
<event>
 5   0  0.6596100E+00  0.9118800E+02  0.7818608E-02  0.1180000E+00
       11   -1    0    0    0    0  0.00000000000E+00  0.00000000000E+00  0.39999999673E+01  0.40000000000E+01  0.51109989000E-03 0.  1.
     -623   -1    0    0    0    0  0.00000000000E+00  0.00000000000E+00  0.12525980253E-10  0.17130000000E+03  0.17130000000E+03 0.  1.
       11    1    1    2    0    0 -0.52878362496E-03  0.97822371279E-02  0.11178801513E+01  0.11179231931E+01  0.51109989000E-03 0.  1.
     -623    1    1    2    0    0  0.26140559275E+00 -0.14187513458E+00  0.43955494637E+00  0.17130082215E+03  0.17130000000E+03 0.  1.
      622    1    1    2    0    0 -0.26087680913E+00  0.13209289746E+00  0.24425648697E+01  0.28812546548E+01  0.15000000000E+01 0.  1.
</event>
<event>
 5   0  0.6596100E+00  0.9118800E+02  0.7818608E-02  0.1180000E+00
       11   -1    0    0    0    0  0.00000000000E+00  0.00000000000E+00  0.39999999673E+01  0.40000000000E+01  0.51109989000E-03 0.  1.
     -623   -1    0    0    0    0  0.00000000000E+00  0.00000000000E+00  0.12525980253E-10  0.17130000000E+03  0.17130000000E+03 0. -1.
       11    1    1    2    0    0 -0.17489558066E-01  0.18673073472E+00 -0.86908543709E-01  0.20670657494E+00  0.51109989000E-03 0.  1.
     -623    1    1    2    0    0  0.17845216978E+00 -0.27046657853E+00  0.60903308031E+00  0.17130138913E+03  0.17130000000E+03 0. -1.
      622    1    1    2    0    0 -0.16096261172E+00  0.83735843805E-01  0.34778754308E+01  0.37919042928E+01  0.15000000000E+01 0.  1.
</event>
<event>
 5   0  0.6596100E+00  0.9118800E+02  0.7818608E-02  0.1180000E+00
       11   -1    0    0    0    0  0.00000000000E+00  0.00000000000E+00  0.39999999673E+01  0.40000000000E+01  0.51109989000E-03 0. -1.
     -623   -1    0    0    0    0  0.00000000000E+00  0.00000000000E+00  0.12525980253E-10  0.17130000000E+03  0.17130000000E+03 0.  1.
       11    1    1    2    0    0  0.79380595217E-01 -0.32344926943E+00  0.33962123251E+00  0.47567168466E+00  0.51109989000E-03 0. -1.
     -623    1    1    2    0    0 -0.45215716415E+00  0.25092178719E+00  0.49555398985E+00  0.17130149731E+03  0.17130000000E+03 0.  1.
      622    1    1    2    0    0  0.37277656893E+00  0.72527482237E-01  0.31648247450E+01  0.35228310026E+01  0.15000000000E+01 0. -1.
</event>
<event>
 5   0  0.6596100E+00  0.9118800E+02  0.7818608E-02  0.1180000E+00
       11   -1    0    0    0    0  0.00000000000E+00  0.00000000000E+00  0.39999999673E+01  0.40000000000E+01  0.51109989000E-03 0. -1.
     -623   -1    0    0    0    0  0.00000000000E+00  0.00000000000E+00  0.12525980253E-10  0.17130000000E+03  0.17130000000E+03 0.  1.
       11    1    1    2    0    0  0.22251865329E-02 -0.25247726591E+00  0.11951932005E+00  0.27934718603E+00  0.51109989000E-03 0. -1.
     -623    1    1    2    0    0  0.61829795460E+00  0.38264720788E+00  0.53780144785E+00  0.17130238744E+03  0.17130000000E+03 0.  1.
      622    1    1    2    0    0 -0.62052314113E+00 -0.13016994197E+00  0.33426791995E+01  0.37182653769E+01  0.15000000000E+01 0. -1.
</event>
<event>
 5   0  0.6596100E+00  0.9118800E+02  0.7818608E-02  0.1180000E+00
       11   -1    0    0    0    0  0.00000000000E+00  0.00000000000E+00  0.39999999673E+01  0.40000000000E+01  0.51109989000E-03 0.  1.
     -623   -1    0    0    0    0  0.00000000000E+00  0.00000000000E+00  0.12525980253E-10  0.17130000000E+03  0.17130000000E+03 0. -1.
       11    1    1    2    0    0 -0.20702385567E+00  0.16571035387E+00  0.86531774692E-01  0.27893871630E+00  0.51109989000E-03 0.  1.
     -623    1    1    2    0    0  0.33416500857E+00  0.10223966010E+00  0.52233904450E+00  0.17130115282E+03  0.17130000000E+03 0. -1.
      622    1    1    2    0    0 -0.12714115290E+00 -0.26795001397E+00  0.33911291482E+01  0.37199084642E+01  0.15000000000E+01 0.  1.
</event>
<event>
 5   0  0.6596100E+00  0.9118800E+02  0.7818608E-02  0.1180000E+00
       11   -1    0    0    0    0  0.00000000000E+00  0.00000000000E+00  0.39999999673E+01  0.40000000000E+01  0.51109989000E-03 0. -1.
     -623   -1    0    0    0    0  0.00000000000E+00  0.00000000000E+00  0.12525980253E-10  0.17130000000E+03  0.17130000000E+03 0. -1.
       11    1    1    2    0    0  0.86119396070E-01  0.24259881206E-01  0.32872765627E+00  0.34068640336E+00  0.51109989000E-03 0. -1.
     -623    1    1    2    0    0 -0.16623979886E+00 -0.15120472386E-01  0.33494475492E+00  0.17130040879E+03  0.17130000000E+03 0. -1.
      622    1    1    2    0    0  0.80120402786E-01 -0.91394088207E-02  0.33363275562E+01  0.36589048047E+01  0.15000000000E+01 0. -1.
</event>
<event>
 5   0  0.6596100E+00  0.9118800E+02  0.7818608E-02  0.1180000E+00
       11   -1    0    0    0    0  0.00000000000E+00  0.00000000000E+00  0.39999999673E+01  0.40000000000E+01  0.51109989000E-03 0. -1.
     -623   -1    0    0    0    0  0.00000000000E+00  0.00000000000E+00  0.12525980253E-10  0.17130000000E+03  0.17130000000E+03 0. -1.
       11    1    1    2    0    0 -0.26774430661E+00  0.10974345055E+00  0.13376285266E+00  0.31878425406E+00  0.51109989000E-03 0. -1.
     -623    1    1    2    0    0 -0.11559276830E-01 -0.54973527284E+00  0.54707756259E+00  0.17130175608E+03  0.17130000000E+03 0. -1.
      622    1    1    2    0    0  0.27930358344E+00  0.43999182229E+00  0.33191595521E+01  0.36794596652E+01  0.15000000000E+01 0. -1.
</event>
<event>
 5   0  0.6596100E+00  0.9118800E+02  0.7818608E-02  0.1180000E+00
       11   -1    0    0    0    0  0.00000000000E+00  0.00000000000E+00  0.39999999673E+01  0.40000000000E+01  0.51109989000E-03 0.  1.
     -623   -1    0    0    0    0  0.00000000000E+00  0.00000000000E+00  0.12525980253E-10  0.17130000000E+03  0.17130000000E+03 0. -1.
       11    1    1    2    0    0  0.11530553024E-01  0.17818298568E+00  0.12474355354E+00  0.21781493385E+00  0.51109989000E-03 0.  1.
     -623    1    1    2    0    0  0.28382505619E+00 -0.13340409064E+00  0.41698027150E+00  0.17130079459E+03  0.17130000000E+03 0. -1.
      622    1    1    2    0    0 -0.29535560921E+00 -0.44778895039E-01  0.34582761423E+01  0.37813904800E+01  0.15000000000E+01 0.  1.
</event>
<event>
 5   0  0.6596100E+00  0.9118800E+02  0.7818608E-02  0.1180000E+00
       11   -1    0    0    0    0  0.00000000000E+00  0.00000000000E+00  0.39999999673E+01  0.40000000000E+01  0.51109989000E-03 0.  1.
     -623   -1    0    0    0    0  0.00000000000E+00  0.00000000000E+00  0.12525980253E-10  0.17130000000E+03  0.17130000000E+03 0.  1.
       11    1    1    2    0    0 -0.18614917007E+00 -0.23873113154E-01  0.18346796665E+00  0.26245417707E+00  0.51109989000E-03 0.  1.
     -623    1    1    2    0    0  0.23585311836E+00  0.12955411721E+00  0.39591651759E+00  0.17130066889E+03  0.17130000000E+03 0.  1.
      622    1    1    2    0    0 -0.49703948285E-01 -0.10568100405E+00  0.34206154831E+01  0.37368769368E+01  0.15000000000E+01 0.  1.
</event>
<event>
 5   0  0.6596100E+00  0.9118800E+02  0.7818608E-02  0.1180000E+00
       11   -1    0    0    0    0  0.00000000000E+00  0.00000000000E+00  0.39999999673E+01  0.40000000000E+01  0.51109989000E-03 0. -1.
     -623   -1    0    0    0    0  0.00000000000E+00  0.00000000000E+00  0.12525980253E-10  0.17130000000E+03  0.17130000000E+03 0. -1.
       11    1    1    2    0    0  0.20850905134E+00  0.29528363244E-01  0.29032725436E+00  0.35866157388E+00  0.51109989000E-03 0. -1.
     -623    1    1    2    0    0 -0.21150157809E+00 -0.32543556310E+00  0.40587605064E+00  0.17130092054E+03  0.17130000000E+03 0. -1.
      622    1    1    2    0    0  0.29925267470E-02  0.29590719986E+00  0.33037966624E+01  0.36404178898E+01  0.15000000000E+01 0. -1.
</event>
<event>
 5   0  0.6596100E+00  0.9118800E+02  0.7818608E-02  0.1180000E+00
       11   -1    0    0    0    0  0.00000000000E+00  0.00000000000E+00  0.39999999673E+01  0.40000000000E+01  0.51109989000E-03 0. -1.
     -623   -1    0    0    0    0  0.00000000000E+00  0.00000000000E+00  0.12525980253E-10  0.17130000000E+03  0.17130000000E+03 0. -1.
       11    1    1    2    0    0  0.21997078897E-01 -0.11547738887E+00  0.64608460973E-01  0.13413952912E+00  0.51109989000E-03 0. -1.
     -623    1    1    2    0    0  0.25575533193E+00  0.62655593940E-01  0.38432929745E+00  0.17130063352E+03  0.17130000000E+03 0. -1.
      622    1    1    2    0    0 -0.27775241083E+00  0.52821794927E-01  0.35510622089E+01  0.38652269475E+01  0.15000000000E+01 0. -1.
</event>
<event>
 5   0  0.6596100E+00  0.9118800E+02  0.7818608E-02  0.1180000E+00
       11   -1    0    0    0    0  0.00000000000E+00  0.00000000000E+00  0.39999999673E+01  0.40000000000E+01  0.51109989000E-03 0.  1.
     -623   -1    0    0    0    0  0.00000000000E+00  0.00000000000E+00  0.12525980253E-10  0.17130000000E+03  0.17130000000E+03 0. -1.
       11    1    1    2    0    0 -0.32695822743E-01 -0.35305990621E-01  0.47388391812E-01  0.67538512700E-01  0.51109989000E-03 0.  1.
     -623    1    1    2    0    0  0.14712551208E+00  0.24782425676E+00  0.32609154196E+00  0.17130055283E+03  0.17130000000E+03 0. -1.
      622    1    1    2    0    0 -0.11442968934E+00 -0.21251826614E+00  0.36265200336E+01  0.39319086614E+01  0.15000000000E+01 0.  1.
</event>
<event>
 5   0  0.6596100E+00  0.9118800E+02  0.7818608E-02  0.1180000E+00
       11   -1    0    0    0    0  0.00000000000E+00  0.00000000000E+00  0.39999999673E+01  0.40000000000E+01  0.51109989000E-03 0. -1.
     -623   -1    0    0    0    0  0.00000000000E+00  0.00000000000E+00  0.12525980253E-10  0.17130000000E+03  0.17130000000E+03 0.  1.
       11    1    1    2    0    0 -0.24484951440E+00 -0.67944264066E-01  0.47524065640E+00  0.53890783111E+00  0.51109989000E-03 0. -1.
     -623    1    1    2    0    0  0.64442498685E-01 -0.58144931049E-01  0.41395562106E+00  0.17130052216E+03  0.17130000000E+03 0.  1.
      622    1    1    2    0    0  0.18040701571E+00  0.12608919511E+00  0.31108036899E+01  0.34605700070E+01  0.15000000000E+01 0. -1.
</event>
<event>
 5   0  0.6596100E+00  0.9118800E+02  0.7818608E-02  0.1180000E+00
       11   -1    0    0    0    0  0.00000000000E+00  0.00000000000E+00  0.39999999673E+01  0.40000000000E+01  0.51109989000E-03 0.  1.
     -623   -1    0    0    0    0  0.00000000000E+00  0.00000000000E+00  0.12525980253E-10  0.17130000000E+03  0.17130000000E+03 0. -1.
       11    1    1    2    0    0  0.93555024445E-01 -0.29345364317E-01  0.96592215837E-01  0.13763724201E+00  0.51109989000E-03 0.  1.
     -623    1    1    2    0    0 -0.73983887076E-01  0.24258159137E+00  0.35125889866E+00  0.17130054787E+03  0.17130000000E+03 0. -1.
      622    1    1    2    0    0 -0.19571137369E-01 -0.21323622705E+00  0.35521488529E+01  0.38618148830E+01  0.15000000000E+01 0.  1.
</event>
<event>
 5   0  0.6596100E+00  0.9118800E+02  0.7818608E-02  0.1180000E+00
       11   -1    0    0    0    0  0.00000000000E+00  0.00000000000E+00  0.39999999673E+01  0.40000000000E+01  0.51109989000E-03 0.  1.
     -623   -1    0    0    0    0  0.00000000000E+00  0.00000000000E+00  0.12525980253E-10  0.17130000000E+03  0.17130000000E+03 0. -1.
       11    1    1    2    0    0  0.12984668343E+00 -0.16720892641E+00  0.27029201289E+00  0.34333222937E+00  0.51109989000E-03 0.  1.
     -623    1    1    2    0    0 -0.49216862473E+00  0.83360963140E+00  0.48612739586E+00  0.17130342511E+03  0.17130000000E+03 0. -1.
      622    1    1    2    0    0  0.36232194130E+00 -0.66640070499E+00  0.32435805586E+01  0.36532426595E+01  0.15000000000E+01 0.  1.
</event>
<event>
 5   0  0.6596100E+00  0.9118800E+02  0.7818608E-02  0.1180000E+00
       11   -1    0    0    0    0  0.00000000000E+00  0.00000000000E+00  0.39999999673E+01  0.40000000000E+01  0.51109989000E-03 0. -1.
     -623   -1    0    0    0    0  0.00000000000E+00  0.00000000000E+00  0.12525980253E-10  0.17130000000E+03  0.17130000000E+03 0.  1.
       11    1    1    2    0    0 -0.80138013711E-01  0.39559309853E-01 -0.39384425557E-01  0.97664908934E-01  0.51109989000E-03 0. -1.
     -623    1    1    2    0    0 -0.15134450406E+00 -0.40521009295E+00  0.46422505503E+00  0.17130117514E+03  0.17130000000E+03 0.  1.
      622    1    1    2    0    0  0.23148251777E+00  0.36565078310E+00  0.35751593379E+01  0.39011599483E+01  0.15000000000E+01 0. -1.
</event>
<event>
 5   0  0.6596100E+00  0.9118800E+02  0.7818608E-02  0.1180000E+00
       11   -1    0    0    0    0  0.00000000000E+00  0.00000000000E+00  0.39999999673E+01  0.40000000000E+01  0.51109989000E-03 0.  1.
     -623   -1    0    0    0    0  0.00000000000E+00  0.00000000000E+00  0.12525980253E-10  0.17130000000E+03  0.17130000000E+03 0. -1.
       11    1    1    2    0    0  0.79468002533E-01  0.53236275539E-01  0.10518320599E+00  0.14217254483E+00  0.51109989000E-03 0.  1.
     -623    1    1    2    0    0 -0.23874547443E+00 -0.85522692364E-02  0.34495736125E+00  0.17130051392E+03  0.17130000000E+03 0. -1.
      622    1    1    2    0    0  0.15927747189E+00 -0.44684006302E-01  0.35498594001E+01  0.38573135385E+01  0.15000000000E+01 0.  1.
</event>
<event>
 5   0  0.6596100E+00  0.9118800E+02  0.7818608E-02  0.1180000E+00
       11   -1    0    0    0    0  0.00000000000E+00  0.00000000000E+00  0.39999999673E+01  0.40000000000E+01  0.51109989000E-03 0. -1.
     -623   -1    0    0    0    0  0.00000000000E+00  0.00000000000E+00  0.12525980253E-10  0.17130000000E+03  0.17130000000E+03 0. -1.
       11    1    1    2    0    0 -0.39551704145E+00 -0.69582679562E-01  0.26523975294E+00  0.48127732872E+00  0.51109989000E-03 0. -1.
     -623    1    1    2    0    0  0.46401057009E+00  0.26377728894E+00  0.56037726238E+00  0.17130174811E+03  0.17130000000E+03 0. -1.
      622    1    1    2    0    0 -0.68493528640E-01 -0.19419460938E+00  0.31743829520E+01  0.35169745572E+01  0.15000000000E+01 0. -1.
</event>
<event>
 5   0  0.6596100E+00  0.9118800E+02  0.7818608E-02  0.1180000E+00
       11   -1    0    0    0    0  0.00000000000E+00  0.00000000000E+00  0.39999999673E+01  0.40000000000E+01  0.51109989000E-03 0.  1.
     -623   -1    0    0    0    0  0.00000000000E+00  0.00000000000E+00  0.12525980253E-10  0.17130000000E+03  0.17130000000E+03 0.  1.
       11    1    1    2    0    0  0.17003363977E+00 -0.32179441487E-04  0.47719018214E+00  0.50657888906E+00  0.51109989000E-03 0.  1.
     -623    1    1    2    0    0 -0.15526622148E+00  0.13730844085E+00  0.37142295335E+00  0.17130052807E+03  0.17130000000E+03 0.  1.
      622    1    1    2    0    0 -0.14767418289E-01 -0.13727626141E+00  0.31513868319E+01  0.34928930434E+01  0.15000000000E+01 0.  1.
</event>
<event>
 5   0  0.6596100E+00  0.9118800E+02  0.7818608E-02  0.1180000E+00
       11   -1    0    0    0    0  0.00000000000E+00  0.00000000000E+00  0.39999999673E+01  0.40000000000E+01  0.51109989000E-03 0.  1.
     -623   -1    0    0    0    0  0.00000000000E+00  0.00000000000E+00  0.12525980253E-10  0.17130000000E+03  0.17130000000E+03 0.  1.
       11    1    1    2    0    0 -0.31740334118E-01 -0.11367982695E+00 -0.49418908068E-01  0.12795718643E+00  0.51109989000E-03 0.  1.
     -623    1    1    2    0    0  0.18052997854E+00  0.13416884541E+00  0.48378792676E+00  0.17130083083E+03  0.17130000000E+03 0.  1.
      622    1    1    2    0    0 -0.14878964442E+00 -0.20489018463E-01  0.35656309487E+01  0.38712119834E+01  0.15000000000E+01 0.  1.
</event>
<event>
 5   0  0.6596100E+00  0.9118800E+02  0.7818608E-02  0.1180000E+00
       11   -1    0    0    0    0  0.00000000000E+00  0.00000000000E+00  0.39999999673E+01  0.40000000000E+01  0.51109989000E-03 0.  1.
     -623   -1    0    0    0    0  0.00000000000E+00  0.00000000000E+00  0.12525980253E-10  0.17130000000E+03  0.17130000000E+03 0.  1.
       11    1    1    2    0    0 -0.30810101992E+00 -0.19526632803E+00  0.56876774640E+00  0.67568645680E+00  0.51109989000E-03 0.  1.
     -623    1    1    2    0    0  0.51578117529E+00 -0.39745883996E+00  0.53419156978E+00  0.17130207052E+03  0.17130000000E+03 0.  1.
      622    1    1    2    0    0 -0.20768015537E+00  0.59272516799E+00  0.28970406512E+01  0.33222430234E+01  0.15000000000E+01 0.  1.
</event>
<event>
 5   0  0.6596100E+00  0.9118800E+02  0.7818608E-02  0.1180000E+00
       11   -1    0    0    0    0  0.00000000000E+00  0.00000000000E+00  0.39999999673E+01  0.40000000000E+01  0.51109989000E-03 0.  1.
     -623   -1    0    0    0    0  0.00000000000E+00  0.00000000000E+00  0.12525980253E-10  0.17130000000E+03  0.17130000000E+03 0.  1.
       11    1    1    2    0    0  0.31739921019E+00  0.32757943255E-01  0.62927165157E+00  0.70554830747E+00  0.51109989000E-03 0.  1.
     -623    1    1    2    0    0 -0.38164840542E+00 -0.13255727216E+00  0.44114758859E+00  0.17130104447E+03  0.17130000000E+03 0.  1.
      622    1    1    2    0    0  0.64249195227E-01  0.99799328902E-01  0.29295807272E+01  0.32934072178E+01  0.15000000000E+01 0.  1.
</event>
<event>
 5   0  0.6596100E+00  0.9118800E+02  0.7818608E-02  0.1180000E+00
       11   -1    0    0    0    0  0.00000000000E+00  0.00000000000E+00  0.39999999673E+01  0.40000000000E+01  0.51109989000E-03 0.  1.
     -623   -1    0    0    0    0  0.00000000000E+00  0.00000000000E+00  0.12525980253E-10  0.17130000000E+03  0.17130000000E+03 0. -1.
       11    1    1    2    0    0 -0.42569040329E-02 -0.61039688006E-01  0.21034296999E-01  0.64704463639E-01  0.51109989000E-03 0.  1.
     -623    1    1    2    0    0  0.15325181615E+00 -0.10264204738E+00  0.34798833038E+00  0.17130045276E+03  0.17130000000E+03 0. -1.
      622    1    1    2    0    0 -0.14899491211E+00  0.16368173538E+00  0.36309773400E+01  0.39348427717E+01  0.15000000000E+01 0.  1.
</event>
<event>
 5   0  0.6596100E+00  0.9118800E+02  0.7818608E-02  0.1180000E+00
       11   -1    0    0    0    0  0.00000000000E+00  0.00000000000E+00  0.39999999673E+01  0.40000000000E+01  0.51109989000E-03 0. -1.
     -623   -1    0    0    0    0  0.00000000000E+00  0.00000000000E+00  0.12525980253E-10  0.17130000000E+03  0.17130000000E+03 0.  1.
       11    1    1    2    0    0  0.39483067235E-01 -0.56515700814E-02 -0.64048386492E-01  0.75454024919E-01  0.51109989000E-03 0. -1.
     -623    1    1    2    0    0 -0.11642695118E+00  0.16753997899E-01  0.43895712407E+00  0.17130060280E+03  0.17130000000E+03 0.  1.
      622    1    1    2    0    0  0.76943883945E-01 -0.11102427818E-01  0.36250912298E+01  0.39239431761E+01  0.15000000000E+01 0. -1.
</event>
<event>
 5   0  0.6596100E+00  0.9118800E+02  0.7818608E-02  0.1180000E+00
       11   -1    0    0    0    0  0.00000000000E+00  0.00000000000E+00  0.39999999673E+01  0.40000000000E+01  0.51109989000E-03 0. -1.
     -623   -1    0    0    0    0  0.00000000000E+00  0.00000000000E+00  0.12525980253E-10  0.17130000000E+03  0.17130000000E+03 0. -1.
       11    1    1    2    0    0 -0.11785865530E+00  0.16641385877E+00  0.82158593023E+00  0.84651517234E+00  0.51109989000E-03 0. -1.
     -623    1    1    2    0    0  0.11220430251E+00 -0.21605802125E+00  0.40571695768E+00  0.17130065346E+03  0.17130000000E+03 0. -1.
      622    1    1    2    0    0  0.56543527875E-02  0.49644162483E-01  0.27726970795E+01  0.31528313639E+01  0.15000000000E+01 0. -1.
</event>
<event>
 5   0  0.6596100E+00  0.9118800E+02  0.7818608E-02  0.1180000E+00
       11   -1    0    0    0    0  0.00000000000E+00  0.00000000000E+00  0.39999999673E+01  0.40000000000E+01  0.51109989000E-03 0. -1.
     -623   -1    0    0    0    0  0.00000000000E+00  0.00000000000E+00  0.12525980253E-10  0.17130000000E+03  0.17130000000E+03 0.  1.
       11    1    1    2    0    0 -0.75550488919E-01  0.57841025597E-01  0.75880397844E+00  0.76474649364E+00  0.51109989000E-03 0. -1.
     -623    1    1    2    0    0  0.22388277764E+00 -0.10048209036E+00  0.37952039404E+00  0.17130059619E+03  0.17130000000E+03 0.  1.
      622    1    1    2    0    0 -0.14833228872E+00  0.42641064764E-01  0.28616755949E+01  0.32346573139E+01  0.15000000000E+01 0. -1.
</event>
<event>
 5   0  0.6596100E+00  0.9118800E+02  0.7818608E-02  0.1180000E+00
       11   -1    0    0    0    0  0.00000000000E+00  0.00000000000E+00  0.39999999673E+01  0.40000000000E+01  0.51109989000E-03 0. -1.
     -623   -1    0    0    0    0  0.00000000000E+00  0.00000000000E+00  0.12525980253E-10  0.17130000000E+03  0.17130000000E+03 0. -1.
       11    1    1    2    0    0 -0.16086845077E+00  0.48449541193E-01  0.67004376715E-01  0.18087527253E+00  0.51109989000E-03 0. -1.
     -623    1    1    2    0    0  0.39764282653E+00 -0.92778152525E-01  0.43016173649E+00  0.17130102675E+03  0.17130000000E+03 0. -1.
      622    1    1    2    0    0 -0.23677437576E+00  0.44328611332E-01  0.35028338542E+01  0.38180979742E+01  0.15000000000E+01 0. -1.
</event>
<event>
 5   0  0.6596100E+00  0.9118800E+02  0.7818608E-02  0.1180000E+00
       11   -1    0    0    0    0  0.00000000000E+00  0.00000000000E+00  0.39999999673E+01  0.40000000000E+01  0.51109989000E-03 0. -1.
     -623   -1    0    0    0    0  0.00000000000E+00  0.00000000000E+00  0.12525980253E-10  0.17130000000E+03  0.17130000000E+03 0. -1.
       11    1    1    2    0    0 -0.16194054727E+00 -0.52034090076E-01  0.81307334322E-02  0.17028992169E+00  0.51109989000E-03 0. -1.
     -623    1    1    2    0    0  0.24466329252E+00  0.31069460741E-01  0.47006606572E+00  0.17130082250E+03  0.17130000000E+03 0. -1.
      622    1    1    2    0    0 -0.82722745253E-01  0.20964629336E-01  0.35218031682E+01  0.38288875831E+01  0.15000000000E+01 0. -1.
</event>
<event>
 5   0  0.6596100E+00  0.9118800E+02  0.7818608E-02  0.1180000E+00
       11   -1    0    0    0    0  0.00000000000E+00  0.00000000000E+00  0.39999999673E+01  0.40000000000E+01  0.51109989000E-03 0.  1.
     -623   -1    0    0    0    0  0.00000000000E+00  0.00000000000E+00  0.12525980253E-10  0.17130000000E+03  0.17130000000E+03 0. -1.
       11    1    1    2    0    0  0.44330195485E-02 -0.83860275488E-01  0.24901189539E-02  0.84015828168E-01  0.51109989000E-03 0.  1.
     -623    1    1    2    0    0 -0.78296674174E-01  0.80040349656E-01  0.38145552811E+00  0.17130046131E+03  0.17130000000E+03 0. -1.
      622    1    1    2    0    0  0.73863654625E-01  0.38199258317E-02  0.36160543203E+01  0.39155228615E+01  0.15000000000E+01 0.  1.
</event>
<event>
 5   0  0.6596100E+00  0.9118800E+02  0.7818608E-02  0.1180000E+00
       11   -1    0    0    0    0  0.00000000000E+00  0.00000000000E+00  0.39999999673E+01  0.40000000000E+01  0.51109989000E-03 0. -1.
     -623   -1    0    0    0    0  0.00000000000E+00  0.00000000000E+00  0.12525980253E-10  0.17130000000E+03  0.17130000000E+03 0. -1.
       11    1    1    2    0    0  0.32640791895E+00  0.34534054286E+00 -0.10986486616E+00  0.48772202137E+00  0.51109989000E-03 0. -1.
     -623    1    1    2    0    0 -0.55157659159E+00 -0.13409033712E+00  0.95303851030E+00  0.17130359161E+03  0.17130000000E+03 0. -1.
      622    1    1    2    0    0  0.22516867265E+00 -0.21125020574E+00  0.31568263232E+01  0.35086863661E+01  0.15000000000E+01 0. -1.
</event>
<event>
 5   0  0.6596100E+00  0.9118800E+02  0.7818608E-02  0.1180000E+00
       11   -1    0    0    0    0  0.00000000000E+00  0.00000000000E+00  0.39999999673E+01  0.40000000000E+01  0.51109989000E-03 0. -1.
     -623   -1    0    0    0    0  0.00000000000E+00  0.00000000000E+00  0.12525980253E-10  0.17130000000E+03  0.17130000000E+03 0. -1.
       11    1    1    2    0    0 -0.33730162527E+00 -0.33038824522E+00  0.96488725906E+00  0.10742143468E+01  0.51109989000E-03 0. -1.
     -623    1    1    2    0    0  0.46568555706E+00  0.34825498743E-01  0.54561982637E+00  0.17130150547E+03  0.17130000000E+03 0. -1.
      622    1    1    2    0    0 -0.12838393179E+00  0.29556274647E+00  0.24894928819E+01  0.29242801815E+01  0.15000000000E+01 0. -1.
</event>
<event>
 5   0  0.6596100E+00  0.9118800E+02  0.7818608E-02  0.1180000E+00
       11   -1    0    0    0    0  0.00000000000E+00  0.00000000000E+00  0.39999999673E+01  0.40000000000E+01  0.51109989000E-03 0.  1.
     -623   -1    0    0    0    0  0.00000000000E+00  0.00000000000E+00  0.12525980253E-10  0.17130000000E+03  0.17130000000E+03 0. -1.
       11    1    1    2    0    0  0.15344172496E+00  0.13340319578E+00  0.60142978921E+00  0.63486914256E+00  0.51109989000E-03 0.  1.
     -623    1    1    2    0    0 -0.33110531496E+00 -0.25926592784E+00  0.39521232933E+00  0.17130097210E+03  0.17130000000E+03 0. -1.
      622    1    1    2    0    0  0.17766359000E+00  0.12586273206E+00  0.30033578488E+01  0.33641587576E+01  0.15000000000E+01 0.  1.
</event>
<event>
 5   0  0.6596100E+00  0.9118800E+02  0.7818608E-02  0.1180000E+00
       11   -1    0    0    0    0  0.00000000000E+00  0.00000000000E+00  0.39999999673E+01  0.40000000000E+01  0.51109989000E-03 0. -1.
     -623   -1    0    0    0    0  0.00000000000E+00  0.00000000000E+00  0.12525980253E-10  0.17130000000E+03  0.17130000000E+03 0. -1.
       11    1    1    2    0    0  0.18932345218E+00 -0.15091293123E+00  0.79316234385E+00  0.82929177452E+00  0.51109989000E-03 0. -1.
     -623    1    1    2    0    0 -0.55138753891E-01  0.71228413092E+00  0.47615850846E+00  0.17130215152E+03  0.17130000000E+03 0. -1.
      622    1    1    2    0    0 -0.13418469829E+00 -0.56137119969E+00  0.27306791150E+01  0.31685567040E+01  0.15000000000E+01 0. -1.
</event>
<event>
 5   0  0.6596100E+00  0.9118800E+02  0.7818608E-02  0.1180000E+00
       11   -1    0    0    0    0  0.00000000000E+00  0.00000000000E+00  0.39999999673E+01  0.40000000000E+01  0.51109989000E-03 0.  1.
     -623   -1    0    0    0    0  0.00000000000E+00  0.00000000000E+00  0.12525980253E-10  0.17130000000E+03  0.17130000000E+03 0. -1.
       11    1    1    2    0    0  0.12324536157E+00  0.18197860013E+00  0.49855274801E+00  0.54484927625E+00  0.51109989000E-03 0.  1.
     -623    1    1    2    0    0 -0.15868419567E+00 -0.10734512212E+00  0.39059150866E+00  0.17130055244E+03  0.17130000000E+03 0. -1.
      622    1    1    2    0    0  0.35438834099E-01 -0.74633478017E-01  0.31108557107E+01  0.34545982863E+01  0.15000000000E+01 0.  1.
</event>
<event>
 5   0  0.6596100E+00  0.9118800E+02  0.7818608E-02  0.1180000E+00
       11   -1    0    0    0    0  0.00000000000E+00  0.00000000000E+00  0.39999999673E+01  0.40000000000E+01  0.51109989000E-03 0.  1.
     -623   -1    0    0    0    0  0.00000000000E+00  0.00000000000E+00  0.12525980253E-10  0.17130000000E+03  0.17130000000E+03 0. -1.
       11    1    1    2    0    0 -0.72630175873E-02  0.29284574855E-01 -0.67545665410E-01  0.73979834332E-01  0.51109989000E-03 0.  1.
     -623    1    1    2    0    0 -0.98935390244E-01  0.41216479596E-01  0.44226771570E+00  0.17130060446E+03  0.17130000000E+03 0. -1.
      622    1    1    2    0    0  0.10619840783E+00 -0.70501054451E-01  0.36252779171E+01  0.39254157075E+01  0.15000000000E+01 0.  1.
</event>
<event>
 5   0  0.6596100E+00  0.9118800E+02  0.7818608E-02  0.1180000E+00
       11   -1    0    0    0    0  0.00000000000E+00  0.00000000000E+00  0.39999999673E+01  0.40000000000E+01  0.51109989000E-03 0. -1.
     -623   -1    0    0    0    0  0.00000000000E+00  0.00000000000E+00  0.12525980253E-10  0.17130000000E+03  0.17130000000E+03 0.  1.
       11    1    1    2    0    0  0.44816043437E-01 -0.29366775181E-01 -0.88431870512E-01  0.10339894670E+00  0.51109989000E-03 0. -1.
     -623    1    1    2    0    0  0.25710395722E+00  0.47533488813E-02  0.50591696646E+00  0.17130094009E+03  0.17130000000E+03 0.  1.
      622    1    1    2    0    0 -0.30192000066E+00  0.24613426300E-01  0.35825148714E+01  0.38956609595E+01  0.15000000000E+01 0. -1.
</event>
<event>
 5   0  0.6596100E+00  0.9118800E+02  0.7818608E-02  0.1180000E+00
       11   -1    0    0    0    0  0.00000000000E+00  0.00000000000E+00  0.39999999673E+01  0.40000000000E+01  0.51109989000E-03 0.  1.
     -623   -1    0    0    0    0  0.00000000000E+00  0.00000000000E+00  0.12525980253E-10  0.17130000000E+03  0.17130000000E+03 0.  1.
       11    1    1    2    0    0  0.62743237288E+00 -0.11153871505E+00  0.25720339202E+00  0.68721620585E+00  0.51109989000E-03 0.  1.
     -623    1    1    2    0    0 -0.23965879005E+00 -0.29707284191E-01  0.82045565649E+00  0.17130213503E+03  0.17130000000E+03 0.  1.
      622    1    1    2    0    0 -0.38777358282E+00  0.14124599925E+00  0.29223409188E+01  0.33106487627E+01  0.15000000000E+01 0.  1.
</event>
<event>
 5   0  0.6596100E+00  0.9118800E+02  0.7818608E-02  0.1180000E+00
       11   -1    0    0    0    0  0.00000000000E+00  0.00000000000E+00  0.39999999673E+01  0.40000000000E+01  0.51109989000E-03 0. -1.
     -623   -1    0    0    0    0  0.00000000000E+00  0.00000000000E+00  0.12525980253E-10  0.17130000000E+03  0.17130000000E+03 0.  1.
       11    1    1    2    0    0  0.22946148644E+00 -0.20263576362E+00  0.67032116811E+00  0.73691556918E+00  0.51109989000E-03 0. -1.
     -623    1    1    2    0    0  0.83142513638E-01  0.25977326360E+00  0.45018979854E+00  0.17130080871E+03  0.17130000000E+03 0.  1.
      622    1    1    2    0    0 -0.31260400008E+00 -0.57137499982E-01  0.28794890007E+01  0.32622757180E+01  0.15000000000E+01 0. -1.
</event>
<event>
 5   0  0.6596100E+00  0.9118800E+02  0.7818608E-02  0.1180000E+00
       11   -1    0    0    0    0  0.00000000000E+00  0.00000000000E+00  0.39999999673E+01  0.40000000000E+01  0.51109989000E-03 0. -1.
     -623   -1    0    0    0    0  0.00000000000E+00  0.00000000000E+00  0.12525980253E-10  0.17130000000E+03  0.17130000000E+03 0. -1.
       11    1    1    2    0    0  0.10303545264E-01 -0.73010122039E-01  0.10608453136E+00  0.12919299510E+00  0.51109989000E-03 0. -1.
     -623    1    1    2    0    0 -0.21421408545E+00 -0.81210846678E-01  0.33525588951E+00  0.17130048126E+03  0.17130000000E+03 0. -1.
      622    1    1    2    0    0  0.20391054019E+00  0.15422096872E+00  0.35586595465E+01  0.38703257464E+01  0.15000000000E+01 0. -1.
</event>
<event>
 5   0  0.6596100E+00  0.9118800E+02  0.7818608E-02  0.1180000E+00
       11   -1    0    0    0    0  0.00000000000E+00  0.00000000000E+00  0.39999999673E+01  0.40000000000E+01  0.51109989000E-03 0.  1.
     -623   -1    0    0    0    0  0.00000000000E+00  0.00000000000E+00  0.12525980253E-10  0.17130000000E+03  0.17130000000E+03 0.  1.
       11    1    1    2    0    0 -0.29663538471E-01  0.16076934063E-01 -0.20095710540E-01  0.39274573565E-01  0.51109989000E-03 0.  1.
     -623    1    1    2    0    0 -0.29448396023E+00 -0.79773987008E-01  0.37004100161E+00  0.17130067138E+03  0.17130000000E+03 0.  1.
      622    1    1    2    0    0  0.32414749870E+00  0.63697052945E-01  0.36500546763E+01  0.39600540470E+01  0.15000000000E+01 0.  1.
</event>
<event>
 5   0  0.6596100E+00  0.9118800E+02  0.7818608E-02  0.1180000E+00
       11   -1    0    0    0    0  0.00000000000E+00  0.00000000000E+00  0.39999999673E+01  0.40000000000E+01  0.51109989000E-03 0.  1.
     -623   -1    0    0    0    0  0.00000000000E+00  0.00000000000E+00  0.12525980253E-10  0.17130000000E+03  0.17130000000E+03 0. -1.
       11    1    1    2    0    0  0.22885148301E+00 -0.24627978442E-01 -0.84685092895E-02  0.23032914594E+00  0.51109989000E-03 0.  1.
     -623    1    1    2    0    0  0.11856688420E+00  0.69250082639E-01  0.56896415938E+00  0.17130099992E+03  0.17130000000E+03 0. -1.
      622    1    1    2    0    0 -0.34741836721E+00 -0.44622104197E-01  0.34395043173E+01  0.37686709332E+01  0.15000000000E+01 0.  1.
</event>
<event>
 5   0  0.6596100E+00  0.9118800E+02  0.7818608E-02  0.1180000E+00
       11   -1    0    0    0    0  0.00000000000E+00  0.00000000000E+00  0.39999999673E+01  0.40000000000E+01  0.51109989000E-03 0.  1.
     -623   -1    0    0    0    0  0.00000000000E+00  0.00000000000E+00  0.12525980253E-10  0.17130000000E+03  0.17130000000E+03 0.  1.
       11    1    1    2    0    0 -0.45483068843E+00 -0.36171631685E+00  0.83150557595E+00  0.10144512966E+01  0.51109989000E-03 0.  1.
     -623    1    1    2    0    0  0.82738552414E+00  0.11674663801E+01  0.75396830576E+00  0.17130763559E+03  0.17130000000E+03 0.  1.
      622    1    1    2    0    0 -0.37255483571E+00 -0.80575006320E+00  0.24145260856E+01  0.29779131096E+01  0.15000000000E+01 0.  1.
</event>
<event>
 5   0  0.6596100E+00  0.9118800E+02  0.7818608E-02  0.1180000E+00
       11   -1    0    0    0    0  0.00000000000E+00  0.00000000000E+00  0.39999999673E+01  0.40000000000E+01  0.51109989000E-03 0. -1.
     -623   -1    0    0    0    0  0.00000000000E+00  0.00000000000E+00  0.12525980253E-10  0.17130000000E+03  0.17130000000E+03 0. -1.
       11    1    1    2    0    0 -0.46122991016E-01  0.11821371597E-01  0.10408451636E+00  0.11445926304E+00  0.51109989000E-03 0. -1.
     -623    1    1    2    0    0  0.10053828753E+00 -0.96228205941E-01  0.31336402539E+00  0.17130034315E+03  0.17130000000E+03 0. -1.
      622    1    1    2    0    0 -0.54415296516E-01  0.84406834345E-01  0.35825514256E+01  0.38851975825E+01  0.15000000000E+01 0. -1.
</event>
<event>
 5   0  0.6596100E+00  0.9118800E+02  0.7818608E-02  0.1180000E+00
       11   -1    0    0    0    0  0.00000000000E+00  0.00000000000E+00  0.39999999673E+01  0.40000000000E+01  0.51109989000E-03 0.  1.
     -623   -1    0    0    0    0  0.00000000000E+00  0.00000000000E+00  0.12525980253E-10  0.17130000000E+03  0.17130000000E+03 0.  1.
       11    1    1    2    0    0  0.23045648220E+00  0.52011656700E-01  0.55358550061E+00  0.60189082925E+00  0.51109989000E-03 0.  1.
     -623    1    1    2    0    0 -0.29943318962E-01 -0.52338016102E-01  0.40443753447E+00  0.17130048805E+03  0.17130000000E+03 0.  1.
      622    1    1    2    0    0 -0.20051316324E+00  0.32635940182E-03  0.30419769323E+01  0.33976211224E+01  0.15000000000E+01 0.  1.
</event>
<event>
 5   0  0.6596100E+00  0.9118800E+02  0.7818608E-02  0.1180000E+00
       11   -1    0    0    0    0  0.00000000000E+00  0.00000000000E+00  0.39999999673E+01  0.40000000000E+01  0.51109989000E-03 0. -1.
     -623   -1    0    0    0    0  0.00000000000E+00  0.00000000000E+00  0.12525980253E-10  0.17130000000E+03  0.17130000000E+03 0. -1.
       11    1    1    2    0    0  0.22729927217E-01 -0.11941494670E+00  0.11465450674E+00  0.16710025800E+00  0.51109989000E-03 0. -1.
     -623    1    1    2    0    0  0.45579843532E-01  0.13435826609E+00  0.35931484952E+00  0.17130043560E+03  0.17130000000E+03 0. -1.
      622    1    1    2    0    0 -0.68309770749E-01 -0.14943319387E-01  0.35260306111E+01  0.38324641418E+01  0.15000000000E+01 0. -1.
</event>
<event>
 5   0  0.6596100E+00  0.9118800E+02  0.7818608E-02  0.1180000E+00
       11   -1    0    0    0    0  0.00000000000E+00  0.00000000000E+00  0.39999999673E+01  0.40000000000E+01  0.51109989000E-03 0. -1.
     -623   -1    0    0    0    0  0.00000000000E+00  0.00000000000E+00  0.12525980253E-10  0.17130000000E+03  0.17130000000E+03 0.  1.
       11    1    1    2    0    0  0.41906860556E-01 -0.14173675366E-01 -0.84395754317E-02  0.45039601371E-01  0.51109989000E-03 0. -1.
     -623    1    1    2    0    0 -0.10297797682E+00  0.17317199996E+00  0.35345935375E+00  0.17130048315E+03  0.17130000000E+03 0.  1.
      622    1    1    2    0    0  0.61071116268E-01 -0.15899832460E+00  0.36549801890E+01  0.39544772513E+01  0.15000000000E+01 0. -1.
</event>
<event>
 5   0  0.6596100E+00  0.9118800E+02  0.7818608E-02  0.1180000E+00
       11   -1    0    0    0    0  0.00000000000E+00  0.00000000000E+00  0.39999999673E+01  0.40000000000E+01  0.51109989000E-03 0. -1.
     -623   -1    0    0    0    0  0.00000000000E+00  0.00000000000E+00  0.12525980253E-10  0.17130000000E+03  0.17130000000E+03 0. -1.
       11    1    1    2    0    0 -0.20565607430E+00  0.56553324234E-01  0.38546385812E+00  0.44053983533E+00  0.51109989000E-03 0. -1.
     -623    1    1    2    0    0  0.93559842278E-01 -0.38937647263E+00  0.40678767232E+00  0.17130095109E+03  0.17130000000E+03 0. -1.
      622    1    1    2    0    0  0.11209623202E+00  0.33282314840E+00  0.32077484369E+01  0.35585090766E+01  0.15000000000E+01 0. -1.
</event>
<event>
 5   0  0.6596100E+00  0.9118800E+02  0.7818608E-02  0.1180000E+00
       11   -1    0    0    0    0  0.00000000000E+00  0.00000000000E+00  0.39999999673E+01  0.40000000000E+01  0.51109989000E-03 0.  1.
     -623   -1    0    0    0    0  0.00000000000E+00  0.00000000000E+00  0.12525980253E-10  0.17130000000E+03  0.17130000000E+03 0. -1.
       11    1    1    2    0    0  0.16779253612E+00 -0.29362386047E-01  0.12452024124E+00  0.21100245636E+00  0.51109989000E-03 0.  1.
     -623    1    1    2    0    0 -0.28859551943E+00 -0.10464176646E-01  0.39913755166E+00  0.17130070843E+03  0.17130000000E+03 0. -1.
      622    1    1    2    0    0  0.12080298332E+00  0.39826562693E-01  0.34763421745E+01  0.37882891165E+01  0.15000000000E+01 0.  1.
</event>
<event>
 5   0  0.6596100E+00  0.9118800E+02  0.7818608E-02  0.1180000E+00
       11   -1    0    0    0    0  0.00000000000E+00  0.00000000000E+00  0.39999999673E+01  0.40000000000E+01  0.51109989000E-03 0.  1.
     -623   -1    0    0    0    0  0.00000000000E+00  0.00000000000E+00  0.12525980253E-10  0.17130000000E+03  0.17130000000E+03 0.  1.
       11    1    1    2    0    0 -0.10616548515E+00  0.31725478813E-01  0.39051575741E-01  0.11748575672E+00  0.51109989000E-03 0.  1.
     -623    1    1    2    0    0  0.22097240224E+00  0.27589395367E-01  0.38285222124E+00  0.17130057258E+03  0.17130000000E+03 0.  1.
      622    1    1    2    0    0 -0.11480691709E+00 -0.59314874181E-01  0.35780961704E+01  0.38819416646E+01  0.15000000000E+01 0.  1.
</event>
<event>
 5   0  0.6596100E+00  0.9118800E+02  0.7818608E-02  0.1180000E+00
       11   -1    0    0    0    0  0.00000000000E+00  0.00000000000E+00  0.39999999673E+01  0.40000000000E+01  0.51109989000E-03 0. -1.
     -623   -1    0    0    0    0  0.00000000000E+00  0.00000000000E+00  0.12525980253E-10  0.17130000000E+03  0.17130000000E+03 0. -1.
       11    1    1    2    0    0  0.51545804391E-01 -0.53281403787E-02  0.33280901023E-01  0.61589273620E-01  0.51109989000E-03 0. -1.
     -623    1    1    2    0    0 -0.30253647611E-01 -0.23401803514E+00  0.33360739679E+00  0.17130048737E+03  0.17130000000E+03 0. -1.
      622    1    1    2    0    0 -0.21292156780E-01  0.23934617551E+00  0.36331116695E+01  0.39379233552E+01  0.15000000000E+01 0. -1.
</event>
<event>
 5   0  0.6596100E+00  0.9118800E+02  0.7818608E-02  0.1180000E+00
       11   -1    0    0    0    0  0.00000000000E+00  0.00000000000E+00  0.39999999673E+01  0.40000000000E+01  0.51109989000E-03 0. -1.
     -623   -1    0    0    0    0  0.00000000000E+00  0.00000000000E+00  0.12525980253E-10  0.17130000000E+03  0.17130000000E+03 0. -1.
       11    1    1    2    0    0  0.12740131138E-01  0.14899982901E+00  0.15158586844E+00  0.21293613296E+00  0.51109989000E-03 0. -1.
     -623    1    1    2    0    0  0.63884452940E-01 -0.17703132665E+00  0.37259135886E+00  0.17130050860E+03  0.17130000000E+03 0. -1.
      622    1    1    2    0    0 -0.76624584078E-01  0.28031497634E-01  0.34758227401E+01  0.37865552699E+01  0.15000000000E+01 0. -1.
</event>
<event>
 5   0  0.6596100E+00  0.9118800E+02  0.7818608E-02  0.1180000E+00
       11   -1    0    0    0    0  0.00000000000E+00  0.00000000000E+00  0.39999999673E+01  0.40000000000E+01  0.51109989000E-03 0.  1.
     -623   -1    0    0    0    0  0.00000000000E+00  0.00000000000E+00  0.12525980253E-10  0.17130000000E+03  0.17130000000E+03 0.  1.
       11    1    1    2    0    0 -0.89475566425E-01  0.57874819047E-01  0.17311996057E+00  0.20328835096E+00  0.51109989000E-03 0.  1.
     -623    1    1    2    0    0  0.10920389212E+00  0.84389684543E-01  0.34243313872E+00  0.17130039786E+03  0.17130000000E+03 0.  1.
      622    1    1    2    0    0 -0.19728325692E-01 -0.14226450359E+00  0.34844468681E+01  0.37963137874E+01  0.15000000000E+01 0.  1.
</event>
<event>
 5   0  0.6596100E+00  0.9118800E+02  0.7818608E-02  0.1180000E+00
       11   -1    0    0    0    0  0.00000000000E+00  0.00000000000E+00  0.39999999673E+01  0.40000000000E+01  0.51109989000E-03 0.  1.
     -623   -1    0    0    0    0  0.00000000000E+00  0.00000000000E+00  0.12525980253E-10  0.17130000000E+03  0.17130000000E+03 0.  1.
       11    1    1    2    0    0 -0.61739249759E-01 -0.84534919042E-02  0.22170766928E-01  0.66143787429E-01  0.51109989000E-03 0.  1.
     -623    1    1    2    0    0  0.11964741689E+00 -0.20168068657E-02  0.34206987388E+00  0.17130038334E+03  0.17130000000E+03 0.  1.
      622    1    1    2    0    0 -0.57908167130E-01  0.10470298770E-01  0.36357593266E+01  0.39334728757E+01  0.15000000000E+01 0.  1.
</event>
<event>
 5   0  0.6596100E+00  0.9118800E+02  0.7818608E-02  0.1180000E+00
       11   -1    0    0    0    0  0.00000000000E+00  0.00000000000E+00  0.39999999673E+01  0.40000000000E+01  0.51109989000E-03 0. -1.
     -623   -1    0    0    0    0  0.00000000000E+00  0.00000000000E+00  0.12525980253E-10  0.17130000000E+03  0.17130000000E+03 0.  1.
       11    1    1    2    0    0 -0.20974594146E+00  0.14818356912E+00  0.69996580999E+00  0.74558978433E+00  0.51109989000E-03 0. -1.
     -623    1    1    2    0    0  0.12871517700E+00 -0.52726201475E+00  0.43967536289E+00  0.17130142407E+03  0.17130000000E+03 0.  1.
      622    1    1    2    0    0  0.81030764469E-01  0.37907844564E+00  0.28603587945E+01  0.32529861490E+01  0.15000000000E+01 0. -1.
</event>
<event>
 5   0  0.6596100E+00  0.9118800E+02  0.7818608E-02  0.1180000E+00
       11   -1    0    0    0    0  0.00000000000E+00  0.00000000000E+00  0.39999999673E+01  0.40000000000E+01  0.51109989000E-03 0.  1.
     -623   -1    0    0    0    0  0.00000000000E+00  0.00000000000E+00  0.12525980253E-10  0.17130000000E+03  0.17130000000E+03 0.  1.
       11    1    1    2    0    0  0.36092425635E-01  0.15515677594E+00  0.34460336347E+00  0.37964197298E+00  0.51109989000E-03 0.  1.
     -623    1    1    2    0    0 -0.11539185521E+00 -0.17109481766E+00  0.36195142149E+00  0.17130050671E+03  0.17130000000E+03 0.  1.
      622    1    1    2    0    0  0.79299429571E-01  0.15938041716E-01  0.32934451824E+01  0.36198513216E+01  0.15000000000E+01 0.  1.
</event>
<event>
 5   0  0.6596100E+00  0.9118800E+02  0.7818608E-02  0.1180000E+00
       11   -1    0    0    0    0  0.00000000000E+00  0.00000000000E+00  0.39999999673E+01  0.40000000000E+01  0.51109989000E-03 0. -1.
     -623   -1    0    0    0    0  0.00000000000E+00  0.00000000000E+00  0.12525980253E-10  0.17130000000E+03  0.17130000000E+03 0. -1.
       11    1    1    2    0    0 -0.95012052686E-01 -0.32859397214E-01  0.83963160309E-01  0.13098512760E+00  0.51109989000E-03 0. -1.
     -623    1    1    2    0    0  0.22402806434E+00  0.32673925139E+00  0.36502116583E+00  0.17130084701E+03  0.17130000000E+03 0. -1.
      622    1    1    2    0    0 -0.12901601166E+00 -0.29387985418E+00  0.35510156412E+01  0.38681678588E+01  0.15000000000E+01 0. -1.
</event>
<event>
 5   0  0.6596100E+00  0.9118800E+02  0.7818608E-02  0.1180000E+00
       11   -1    0    0    0    0  0.00000000000E+00  0.00000000000E+00  0.39999999673E+01  0.40000000000E+01  0.51109989000E-03 0. -1.
     -623   -1    0    0    0    0  0.00000000000E+00  0.00000000000E+00  0.12525980253E-10  0.17130000000E+03  0.17130000000E+03 0. -1.
       11    1    1    2    0    0  0.15489013718E-01 -0.10125207289E+00  0.30053173154E+00  0.31750822776E+00  0.51109989000E-03 0. -1.
     -623    1    1    2    0    0 -0.24923475120E+00  0.10638984481E+00  0.34507649351E+00  0.17130056192E+03  0.17130000000E+03 0. -1.
      622    1    1    2    0    0  0.23374573748E+00 -0.51377719262E-02  0.33543917423E+01  0.36819298510E+01  0.15000000000E+01 0. -1.
</event>
<event>
 5   0  0.6596100E+00  0.9118800E+02  0.7818608E-02  0.1180000E+00
       11   -1    0    0    0    0  0.00000000000E+00  0.00000000000E+00  0.39999999673E+01  0.40000000000E+01  0.51109989000E-03 0. -1.
     -623   -1    0    0    0    0  0.00000000000E+00  0.00000000000E+00  0.12525980253E-10  0.17130000000E+03  0.17130000000E+03 0.  1.
       11    1    1    2    0    0 -0.59902193859E-02 -0.26048274584E-01 -0.18012924592E+00  0.18210217405E+00  0.51109989000E-03 0. -1.
     -623    1    1    2    0    0 -0.34049424233E-01  0.48697466119E-01  0.67098167826E+00  0.17130132442E+03  0.17130000000E+03 0.  1.
      622    1    1    2    0    0  0.40039643619E-01 -0.22649191535E-01  0.35091475350E+01  0.38165734084E+01  0.15000000000E+01 0. -1.
</event>
<event>
 5   0  0.6596100E+00  0.9118800E+02  0.7818608E-02  0.1180000E+00
       11   -1    0    0    0    0  0.00000000000E+00  0.00000000000E+00  0.39999999673E+01  0.40000000000E+01  0.51109989000E-03 0. -1.
     -623   -1    0    0    0    0  0.00000000000E+00  0.00000000000E+00  0.12525980253E-10  0.17130000000E+03  0.17130000000E+03 0.  1.
       11    1    1    2    0    0 -0.21294941620E-01 -0.28920598092E-01 -0.28099272696E-01  0.45603792395E-01  0.51109989000E-03 0. -1.
     -623    1    1    2    0    0  0.33665951877E-01  0.18442130086E+00  0.37311756357E+00  0.17130050893E+03  0.17130000000E+03 0.  1.
      622    1    1    2    0    0 -0.12371010257E-01 -0.15550070276E+00  0.36549816765E+01  0.39538872728E+01  0.15000000000E+01 0. -1.
</event>
<event>
 5   0  0.6596100E+00  0.9118800E+02  0.7818608E-02  0.1180000E+00
       11   -1    0    0    0    0  0.00000000000E+00  0.00000000000E+00  0.39999999673E+01  0.40000000000E+01  0.51109989000E-03 0.  1.
     -623   -1    0    0    0    0  0.00000000000E+00  0.00000000000E+00  0.12525980253E-10  0.17130000000E+03  0.17130000000E+03 0. -1.
       11    1    1    2    0    0 -0.11722640867E+00  0.27482738734E+00  0.27367296747E+00  0.40517808192E+00  0.51109989000E-03 0.  1.
     -623    1    1    2    0    0  0.11387624357E+00 -0.17412083584E+00  0.46178895598E+00  0.17130074879E+03  0.17130000000E+03 0. -1.
      622    1    1    2    0    0  0.33501650966E-02 -0.10070655150E+00  0.32645380439E+01  0.35940731313E+01  0.15000000000E+01 0.  1.
</event>
<event>
 5   0  0.6596100E+00  0.9118800E+02  0.7818608E-02  0.1180000E+00
       11   -1    0    0    0    0  0.00000000000E+00  0.00000000000E+00  0.39999999673E+01  0.40000000000E+01  0.51109989000E-03 0. -1.
     -623   -1    0    0    0    0  0.00000000000E+00  0.00000000000E+00  0.12525980253E-10  0.17130000000E+03  0.17130000000E+03 0. -1.
       11    1    1    2    0    0 -0.13791505574E+00 -0.13567803201E+00  0.14236149860E+00  0.24020022580E+00  0.51109989000E-03 0. -1.
     -623    1    1    2    0    0  0.16860634077E+00  0.79474789114E-01  0.41126079601E+00  0.17130059509E+03  0.17130000000E+03 0. -1.
      622    1    1    2    0    0 -0.30691285027E-01  0.56203242893E-01  0.34463776727E+01  0.37592046795E+01  0.15000000000E+01 0. -1.
</event>
<event>
 5   0  0.6596100E+00  0.9118800E+02  0.7818608E-02  0.1180000E+00
       11   -1    0    0    0    0  0.00000000000E+00  0.00000000000E+00  0.39999999673E+01  0.40000000000E+01  0.51109989000E-03 0.  1.
     -623   -1    0    0    0    0  0.00000000000E+00  0.00000000000E+00  0.12525980253E-10  0.17130000000E+03  0.17130000000E+03 0. -1.
       11    1    1    2    0    0  0.22667210972E+00 -0.21853811623E+00  0.35406133035E+00  0.47381308597E+00  0.51109989000E-03 0.  1.
     -623    1    1    2    0    0 -0.37659956208E+00 -0.44251165126E-01  0.47025810065E+00  0.17130106517E+03  0.17130000000E+03 0. -1.
      622    1    1    2    0    0  0.14992745236E+00  0.26278928135E+00  0.31756805364E+01  0.35251217449E+01  0.15000000000E+01 0.  1.
</event>
<event>
 5   0  0.6596100E+00  0.9118800E+02  0.7818608E-02  0.1180000E+00
       11   -1    0    0    0    0  0.00000000000E+00  0.00000000000E+00  0.39999999673E+01  0.40000000000E+01  0.51109989000E-03 0. -1.
     -623   -1    0    0    0    0  0.00000000000E+00  0.00000000000E+00  0.12525980253E-10  0.17130000000E+03  0.17130000000E+03 0.  1.
       11    1    1    2    0    0  0.26580157971E-01 -0.16105876647E+00  0.77668317637E+00  0.79365196953E+00  0.51109989000E-03 0. -1.
     -623    1    1    2    0    0 -0.22153639100E-01  0.10591155887E+00  0.39055614506E+00  0.17130047940E+03  0.17130000000E+03 0.  1.
      622    1    1    2    0    0 -0.44265188704E-02  0.55147207603E-01  0.28327606459E+01  0.32058686320E+01  0.15000000000E+01 0. -1.
</event>
<event>
 5   0  0.6596100E+00  0.9118800E+02  0.7818608E-02  0.1180000E+00
       11   -1    0    0    0    0  0.00000000000E+00  0.00000000000E+00  0.39999999673E+01  0.40000000000E+01  0.51109989000E-03 0. -1.
     -623   -1    0    0    0    0  0.00000000000E+00  0.00000000000E+00  0.12525980253E-10  0.17130000000E+03  0.17130000000E+03 0. -1.
       11    1    1    2    0    0  0.58892220324E-01  0.14649373143E+00  0.10639358686E+00  0.19039055520E+00  0.51109989000E-03 0. -1.
     -623    1    1    2    0    0  0.15954768549E+00 -0.15889636220E-01  0.40158795809E+00  0.17130054577E+03  0.17130000000E+03 0. -1.
      622    1    1    2    0    0 -0.21843990582E+00 -0.13060409521E+00  0.34920184224E+01  0.38090636756E+01  0.15000000000E+01 0. -1.
</event>
<event>
 5   0  0.6596100E+00  0.9118800E+02  0.7818608E-02  0.1180000E+00
       11   -1    0    0    0    0  0.00000000000E+00  0.00000000000E+00  0.39999999673E+01  0.40000000000E+01  0.51109989000E-03 0. -1.
     -623   -1    0    0    0    0  0.00000000000E+00  0.00000000000E+00  0.12525980253E-10  0.17130000000E+03  0.17130000000E+03 0. -1.
       11    1    1    2    0    0  0.80126206260E-01  0.83646430731E-01 -0.44116573410E-01  0.12394945573E+00  0.51109989000E-03 0. -1.
     -623    1    1    2    0    0  0.29797673097E+00 -0.95586612935E-01  0.49123201602E+00  0.17130099018E+03  0.17130000000E+03 0. -1.
      622    1    1    2    0    0 -0.37810293723E+00  0.11940182204E-01  0.35528845248E+01  0.38750603667E+01  0.15000000000E+01 0. -1.
</event>
<event>
 5   0  0.6596100E+00  0.9118800E+02  0.7818608E-02  0.1180000E+00
       11   -1    0    0    0    0  0.00000000000E+00  0.00000000000E+00  0.39999999673E+01  0.40000000000E+01  0.51109989000E-03 0. -1.
     -623   -1    0    0    0    0  0.00000000000E+00  0.00000000000E+00  0.12525980253E-10  0.17130000000E+03  0.17130000000E+03 0. -1.
       11    1    1    2    0    0 -0.16589761725E+00 -0.87243201228E-01  0.49529669135E-01  0.19387327025E+00  0.51109989000E-03 0. -1.
     -623    1    1    2    0    0 -0.24609461013E+00  0.86758308308E-01  0.47767879158E+00  0.17130086476E+03  0.17130000000E+03 0. -1.
      622    1    1    2    0    0  0.41199222738E+00  0.48489292016E-03  0.34727915066E+01  0.38052619725E+01  0.15000000000E+01 0. -1.
</event>
<event>
 5   0  0.6596100E+00  0.9118800E+02  0.7818608E-02  0.1180000E+00
       11   -1    0    0    0    0  0.00000000000E+00  0.00000000000E+00  0.39999999673E+01  0.40000000000E+01  0.51109989000E-03 0.  1.
     -623   -1    0    0    0    0  0.00000000000E+00  0.00000000000E+00  0.12525980253E-10  0.17130000000E+03  0.17130000000E+03 0.  1.
       11    1    1    2    0    0  0.23554425927E-01  0.95660043968E-01  0.17431360441E+00  0.20022774258E+00  0.51109989000E-03 0.  1.
     -623    1    1    2    0    0  0.23462341717E+00 -0.60817810100E-01  0.34481589894E+00  0.17130051852E+03  0.17130000000E+03 0.  1.
      622    1    1    2    0    0 -0.25817784309E+00 -0.34842233868E-01  0.34808704640E+01  0.37992537382E+01  0.15000000000E+01 0.  1.
</event>
<event>
 5   0  0.6596100E+00  0.9118800E+02  0.7818608E-02  0.1180000E+00
       11   -1    0    0    0    0  0.00000000000E+00  0.00000000000E+00  0.39999999673E+01  0.40000000000E+01  0.51109989000E-03 0.  1.
     -623   -1    0    0    0    0  0.00000000000E+00  0.00000000000E+00  0.12525980253E-10  0.17130000000E+03  0.17130000000E+03 0. -1.
       11    1    1    2    0    0 -0.12236284107E-01  0.17439524174E+00  0.55793533197E+00  0.58468412230E+00  0.51109989000E-03 0.  1.
     -623    1    1    2    0    0  0.57981248739E+00 -0.55922736612E+00  0.45423955587E+00  0.17130249634E+03  0.17130000000E+03 0. -1.
      622    1    1    2    0    0 -0.56757620328E+00  0.38483212437E+00  0.29878250795E+01  0.34128195405E+01  0.15000000000E+01 0.  0.
</event>
<event>
 5   0  0.6596100E+00  0.9118800E+02  0.7818608E-02  0.1180000E+00
       11   -1    0    0    0    0  0.00000000000E+00  0.00000000000E+00  0.39999999673E+01  0.40000000000E+01  0.51109989000E-03 0.  1.
     -623   -1    0    0    0    0  0.00000000000E+00  0.00000000000E+00  0.12525980253E-10  0.17130000000E+03  0.17130000000E+03 0. -1.
       11    1    1    2    0    0  0.52493807498E-01 -0.10500173777E+00  0.34872857947E-01  0.12246363626E+00  0.51109989000E-03 0.  1.
     -623    1    1    2    0    0 -0.15361717371E+00 -0.14290836588E+00  0.40016117219E+00  0.17130059588E+03  0.17130000000E+03 0. -1.
      622    1    1    2    0    0  0.10112336621E+00  0.24791010366E+00  0.35649659372E+01  0.38769404804E+01  0.15000000000E+01 0.  1.
</event>
<event>
 5   0  0.6596100E+00  0.9118800E+02  0.7818608E-02  0.1180000E+00
       11   -1    0    0    0    0  0.00000000000E+00  0.00000000000E+00  0.39999999673E+01  0.40000000000E+01  0.51109989000E-03 0.  1.
     -623   -1    0    0    0    0  0.00000000000E+00  0.00000000000E+00  0.12525980253E-10  0.17130000000E+03  0.17130000000E+03 0. -1.
       11    1    1    2    0    0  0.86726530789E-01 -0.15008892388E+00  0.65149387561E+00  0.67416074299E+00  0.51109989000E-03 0.  1.
     -623    1    1    2    0    0  0.63780102545E-01  0.45965046863E+00  0.40140274927E+00  0.17130109886E+03  0.17130000000E+03 0. -1.
      622    1    1    2    0    0 -0.15050663333E+00 -0.30956154475E+00  0.29471033425E+01  0.33247403971E+01  0.15000000000E+01 0.  1.
</event>
<event>
 5   0  0.6596100E+00  0.9118800E+02  0.7818608E-02  0.1180000E+00
       11   -1    0    0    0    0  0.00000000000E+00  0.00000000000E+00  0.39999999673E+01  0.40000000000E+01  0.51109989000E-03 0.  1.
     -623   -1    0    0    0    0  0.00000000000E+00  0.00000000000E+00  0.12525980253E-10  0.17130000000E+03  0.17130000000E+03 0. -1.
       11    1    1    2    0    0  0.14811295405E+00 -0.12085289885E+00  0.28288718580E+00  0.34142098856E+00  0.51109989000E-03 0.  1.
     -623    1    1    2    0    0 -0.11330279960E+00  0.43129334590E+00  0.39596526852E+00  0.17130103806E+03  0.17130000000E+03 0. -1.
      622    1    1    2    0    0 -0.34810154449E-01 -0.31044044705E+00  0.33211475130E+01  0.36575409528E+01  0.15000000000E+01 0.  1.
</event>
<event>
 5   0  0.6596100E+00  0.9118800E+02  0.7818608E-02  0.1180000E+00
       11   -1    0    0    0    0  0.00000000000E+00  0.00000000000E+00  0.39999999673E+01  0.40000000000E+01  0.51109989000E-03 0.  1.
     -623   -1    0    0    0    0  0.00000000000E+00  0.00000000000E+00  0.12525980253E-10  0.17130000000E+03  0.17130000000E+03 0. -1.
       11    1    1    2    0    0 -0.11369976009E+00 -0.21404016929E-01  0.26779277547E-01  0.11875671903E+00  0.51109989000E-03 0.  1.
     -623    1    1    2    0    0  0.23376953634E+00 -0.90496889482E-01  0.39801465395E+00  0.17130064581E+03  0.17130000000E+03 0. -1.
      622    1    1    2    0    0 -0.12006977625E+00  0.11190090641E+00  0.35752060359E+01  0.38805974750E+01  0.15000000000E+01 0.  1.
</event>
<event>
 5   0  0.6596100E+00  0.9118800E+02  0.7818608E-02  0.1180000E+00
       11   -1    0    0    0    0  0.00000000000E+00  0.00000000000E+00  0.39999999673E+01  0.40000000000E+01  0.51109989000E-03 0. -1.
     -623   -1    0    0    0    0  0.00000000000E+00  0.00000000000E+00  0.12525980253E-10  0.17130000000E+03  0.17130000000E+03 0.  1.
       11    1    1    2    0    0  0.13601524611E+00 -0.46415193081E+00  0.36508286166E+00  0.60598920713E+00  0.51109989000E-03 0. -1.
     -623    1    1    2    0    0 -0.19829740509E+00  0.32429012106E+00  0.59584257028E+00  0.17130145800E+03  0.17130000000E+03 0.  1.
      622    1    1    2    0    0  0.62282158983E-01  0.13986180975E+00  0.30390745354E+01  0.33925527888E+01  0.15000000000E+01 0. -1.
</event>
<event>
 5   0  0.6596100E+00  0.9118800E+02  0.7818608E-02  0.1180000E+00
       11   -1    0    0    0    0  0.00000000000E+00  0.00000000000E+00  0.39999999673E+01  0.40000000000E+01  0.51109989000E-03 0. -1.
     -623   -1    0    0    0    0  0.00000000000E+00  0.00000000000E+00  0.12525980253E-10  0.17130000000E+03  0.17130000000E+03 0. -1.
       11    1    1    2    0    0 -0.79851454610E-01  0.41792798125E-01 -0.38598168541E-01  0.98045767967E-01  0.51109989000E-03 0. -1.
     -623    1    1    2    0    0  0.21497527370E+00  0.42217204499E-02  0.44006966752E+00  0.17130070021E+03  0.17130000000E+03 0. -1.
      622    1    1    2    0    0 -0.13512381909E+00 -0.46014518575E-01  0.35985284684E+01  0.39012540189E+01  0.15000000000E+01 0. -1.
</event>
<event>
 5   0  0.6596100E+00  0.9118800E+02  0.7818608E-02  0.1180000E+00
       11   -1    0    0    0    0  0.00000000000E+00  0.00000000000E+00  0.39999999673E+01  0.40000000000E+01  0.51109989000E-03 0.  1.
     -623   -1    0    0    0    0  0.00000000000E+00  0.00000000000E+00  0.12525980253E-10  0.17130000000E+03  0.17130000000E+03 0.  1.
       11    1    1    2    0    0 -0.22993676141E+00 -0.96079618697E-01  0.11291991701E+00  0.27359345068E+00  0.51109989000E-03 0.  1.
     -623    1    1    2    0    0  0.13408641894E+00 -0.66571025779E-01  0.48194811744E+00  0.17130074339E+03  0.17130000000E+03 0.  1.
      622    1    1    2    0    0  0.95850342478E-01  0.16265064448E+00  0.34051319329E+01  0.37256631626E+01  0.15000000000E+01 0.  1.
</event>
<event>
 5   0  0.6596100E+00  0.9118800E+02  0.7818608E-02  0.1180000E+00
       11   -1    0    0    0    0  0.00000000000E+00  0.00000000000E+00  0.39999999673E+01  0.40000000000E+01  0.51109989000E-03 0.  1.
     -623   -1    0    0    0    0  0.00000000000E+00  0.00000000000E+00  0.12525980253E-10  0.17130000000E+03  0.17130000000E+03 0. -1.
       11    1    1    2    0    0 -0.12875424491E+00 -0.20387253822E+00  0.44698288092E-02  0.24116780054E+00  0.51109989000E-03 0.  1.
     -623    1    1    2    0    0 -0.12976657960E+00 -0.37955421299E+00  0.61028288159E+00  0.17130155675E+03  0.17130000000E+03 0. -1.
      622    1    1    2    0    0  0.25852082452E+00  0.58342675121E+00  0.33852472570E+01  0.37572754466E+01  0.15000000000E+01 0.  1.
</event>
<event>
 5   0  0.6596100E+00  0.9118800E+02  0.7818608E-02  0.1180000E+00
       11   -1    0    0    0    0  0.00000000000E+00  0.00000000000E+00  0.39999999673E+01  0.40000000000E+01  0.51109989000E-03 0. -1.
     -623   -1    0    0    0    0  0.00000000000E+00  0.00000000000E+00  0.12525980253E-10  0.17130000000E+03  0.17130000000E+03 0.  1.
       11    1    1    2    0    0  0.19324633571E+00  0.85047715932E-01  0.86411256851E+00  0.88953249100E+00  0.51109989000E-03 0. -1.
     -623    1    1    2    0    0 -0.46579382077E+00 -0.18303940617E+00  0.42788948083E+00  0.17130126548E+03  0.17130000000E+03 0.  1.
      622    1    1    2    0    0  0.27254748506E+00  0.97991690241E-01  0.27079979180E+01  0.31092020241E+01  0.15000000000E+01 0. -1.
</event>
<event>
 5   0  0.6596100E+00  0.9118800E+02  0.7818608E-02  0.1180000E+00
       11   -1    0    0    0    0  0.00000000000E+00  0.00000000000E+00  0.39999999673E+01  0.40000000000E+01  0.51109989000E-03 0.  1.
     -623   -1    0    0    0    0  0.00000000000E+00  0.00000000000E+00  0.12525980253E-10  0.17130000000E+03  0.17130000000E+03 0. -1.
       11    1    1    2    0    0 -0.49962700222E-01  0.52301060619E-01 -0.47947698169E-01  0.86780846609E-01  0.51109989000E-03 0.  1.
     -623    1    1    2    0    0  0.20662644704E-01 -0.28390959666E-01  0.43442933349E+00  0.17130055447E+03  0.17130000000E+03 0. -1.
      622    1    1    2    0    0  0.29300055517E-01 -0.23910100954E-01  0.36135183320E+01  0.39126646831E+01  0.15000000000E+01 0.  1.
</event>
<event>
 5   0  0.6596100E+00  0.9118800E+02  0.7818608E-02  0.1180000E+00
       11   -1    0    0    0    0  0.00000000000E+00  0.00000000000E+00  0.39999999673E+01  0.40000000000E+01  0.51109989000E-03 0. -1.
     -623   -1    0    0    0    0  0.00000000000E+00  0.00000000000E+00  0.12525980253E-10  0.17130000000E+03  0.17130000000E+03 0.  1.
       11    1    1    2    0    0  0.70388525506E-01  0.10000379336E+00  0.10374542118E+00  0.16037043632E+00  0.51109989000E-03 0. -1.
     -623    1    1    2    0    0  0.13022348690E+00 -0.33834270922E-01  0.36855254160E+00  0.17130044931E+03  0.17130000000E+03 0.  1.
      622    1    1    2    0    0 -0.20061201240E+00 -0.66169522434E-01  0.35277020046E+01  0.38391802534E+01  0.15000000000E+01 0. -1.
</event>
<event>
 5   0  0.6596100E+00  0.9118800E+02  0.7818608E-02  0.1180000E+00
       11   -1    0    0    0    0  0.00000000000E+00  0.00000000000E+00  0.39999999673E+01  0.40000000000E+01  0.51109989000E-03 0. -1.
     -623   -1    0    0    0    0  0.00000000000E+00  0.00000000000E+00  0.12525980253E-10  0.17130000000E+03  0.17130000000E+03 0. -1.
       11    1    1    2    0    0 -0.81773448639E-04  0.75583695506E-02 -0.12366489190E-01  0.14502651909E-01  0.51109989000E-03 0. -1.
     -623    1    1    2    0    0  0.61823433105E-02 -0.16158737865E+00  0.32354779067E+00  0.17130038188E+03  0.17130000000E+03 0. -1.
      622    1    1    2    0    0 -0.61005698619E-02  0.15402900910E+00  0.36888186659E+01  0.39851154691E+01  0.15000000000E+01 0. -1.
</event>
<event>
 5   0  0.6596100E+00  0.9118800E+02  0.7818608E-02  0.1180000E+00
       11   -1    0    0    0    0  0.00000000000E+00  0.00000000000E+00  0.39999999673E+01  0.40000000000E+01  0.51109989000E-03 0. -1.
     -623   -1    0    0    0    0  0.00000000000E+00  0.00000000000E+00  0.12525980253E-10  0.17130000000E+03  0.17130000000E+03 0.  1.
       11    1    1    2    0    0 -0.10280282051E+00 -0.42074287017E+00  0.89002999339E+00  0.98982151576E+00  0.51109989000E-03 0. -1.
     -623    1    1    2    0    0 -0.39954382320E+00  0.31854187078E+00  0.55293668995E+00  0.17130165453E+03  0.17130000000E+03 0.  1.
      622    1    1    2    0    0  0.50234664371E+00  0.10220099939E+00  0.25570332840E+01  0.30085239587E+01  0.15000000000E+01 0. -1.
</event>
<event>
 5   0  0.6596100E+00  0.9118800E+02  0.7818608E-02  0.1180000E+00
       11   -1    0    0    0    0  0.00000000000E+00  0.00000000000E+00  0.39999999673E+01  0.40000000000E+01  0.51109989000E-03 0.  1.
     -623   -1    0    0    0    0  0.00000000000E+00  0.00000000000E+00  0.12525980253E-10  0.17130000000E+03  0.17130000000E+03 0.  1.
       11    1    1    2    0    0 -0.10329211672E+00 -0.74768645501E-01  0.39825306819E+00  0.41816907976E+00  0.51109989000E-03 0.  1.
     -623    1    1    2    0    0 -0.36186653402E+00  0.33160177026E+00  0.39411644489E+00  0.17130115655E+03  0.17130000000E+03 0.  1.
      622    1    1    2    0    0  0.46515865074E+00 -0.25683312476E+00  0.32076304543E+01  0.35806743716E+01  0.15000000000E+01 0. -1.
</event>
<event>
 5   0  0.6596100E+00  0.9118800E+02  0.7818608E-02  0.1180000E+00
       11   -1    0    0    0    0  0.00000000000E+00  0.00000000000E+00  0.39999999673E+01  0.40000000000E+01  0.51109989000E-03 0. -1.
     -623   -1    0    0    0    0  0.00000000000E+00  0.00000000000E+00  0.12525980253E-10  0.17130000000E+03  0.17130000000E+03 0. -1.
       11    1    1    2    0    0  0.87533049424E-01  0.16589874004E-01  0.88140377759E-01  0.12532456293E+00  0.51109989000E-03 0. -1.
     -623    1    1    2    0    0  0.39701401021E-01  0.91255539488E-01  0.34361127893E+00  0.17130037353E+03  0.17130000000E+03 0. -1.
      622    1    1    2    0    0 -0.12723445045E+00 -0.10784541349E+00  0.35682483107E+01  0.38743019042E+01  0.15000000000E+01 0. -1.
</event>
<event>
 5   0  0.6596100E+00  0.9118800E+02  0.7818608E-02  0.1180000E+00
       11   -1    0    0    0    0  0.00000000000E+00  0.00000000000E+00  0.39999999673E+01  0.40000000000E+01  0.51109989000E-03 0.  1.
     -623   -1    0    0    0    0  0.00000000000E+00  0.00000000000E+00  0.12525980253E-10  0.17130000000E+03  0.17130000000E+03 0. -1.
       11    1    1    2    0    0  0.57432341150E-01 -0.36054133396E-01  0.60373976719E-01  0.90794562794E-01  0.51109989000E-03 0.  1.
     -623    1    1    2    0    0 -0.34877827381E-01  0.85003788353E-02  0.33017976771E+00  0.17130032197E+03  0.17130000000E+03 0. -1.
      622    1    1    2    0    0 -0.22554513769E-01  0.27553754561E-01  0.36094462229E+01  0.39088834661E+01  0.15000000000E+01 0.  1.
</event>
<event>
 5   0  0.6596100E+00  0.9118800E+02  0.7818608E-02  0.1180000E+00
       11   -1    0    0    0    0  0.00000000000E+00  0.00000000000E+00  0.39999999673E+01  0.40000000000E+01  0.51109989000E-03 0. -1.
     -623   -1    0    0    0    0  0.00000000000E+00  0.00000000000E+00  0.12525980253E-10  0.17130000000E+03  0.17130000000E+03 0.  1.
       11    1    1    2    0    0  0.15277902231E-01  0.23410652507E+00  0.10125896498E+01  0.10394120162E+01  0.51109989000E-03 0. -1.
     -623    1    1    2    0    0  0.28572193142E+00 -0.46645544966E+00  0.46519203253E+00  0.17130150502E+03  0.17130000000E+03 0.  1.
      622    1    1    2    0    0 -0.30099983365E+00  0.23234892459E+00  0.25222182850E+01  0.29590829660E+01  0.15000000000E+01 0. -1.
</event>
<event>
 5   0  0.6596100E+00  0.9118800E+02  0.7818608E-02  0.1180000E+00
       11   -1    0    0    0    0  0.00000000000E+00  0.00000000000E+00  0.39999999673E+01  0.40000000000E+01  0.51109989000E-03 0. -1.
     -623   -1    0    0    0    0  0.00000000000E+00  0.00000000000E+00  0.12525980253E-10  0.17130000000E+03  0.17130000000E+03 0.  1.
       11    1    1    2    0    0  0.12134416202E+00  0.11349930607E-01  0.11192921457E+01  0.11259078094E+01  0.51109989000E-03 0. -1.
     -623    1    1    2    0    0 -0.27917247077E+00 -0.13644619005E+00  0.43837215053E+00  0.17130084274E+03  0.17130000000E+03 0.  1.
      622    1    1    2    0    0  0.15782830875E+00  0.12509625944E+00  0.24423356711E+01  0.28732494461E+01  0.15000000000E+01 0. -1.
</event>
<event>
 5   0  0.6596100E+00  0.9118800E+02  0.7818608E-02  0.1180000E+00
       11   -1    0    0    0    0  0.00000000000E+00  0.00000000000E+00  0.39999999673E+01  0.40000000000E+01  0.51109989000E-03 0.  1.
     -623   -1    0    0    0    0  0.00000000000E+00  0.00000000000E+00  0.12525980253E-10  0.17130000000E+03  0.17130000000E+03 0.  1.
       11    1    1    2    0    0  0.26399218774E+00 -0.30186738756E+00  0.46363974792E+00  0.61300723645E+00  0.51109989000E-03 0.  1.
     -623    1    1    2    0    0 -0.12025742183E+00  0.34304666415E-01  0.51578048150E+00  0.17130082215E+03  0.17130000000E+03 0.  1.
      622    1    1    2    0    0 -0.14373476591E+00  0.26756272115E+00  0.30205797379E+01  0.33861706168E+01  0.15000000000E+01 0.  1.
</event>
<event>
 5   0  0.6596100E+00  0.9118800E+02  0.7818608E-02  0.1180000E+00
       11   -1    0    0    0    0  0.00000000000E+00  0.00000000000E+00  0.39999999673E+01  0.40000000000E+01  0.51109989000E-03 0. -1.
     -623   -1    0    0    0    0  0.00000000000E+00  0.00000000000E+00  0.12525980253E-10  0.17130000000E+03  0.17130000000E+03 0. -1.
       11    1    1    2    0    0  0.71288364147E-01 -0.26438738357E-01 -0.36573736509E-01  0.84373794356E-01  0.51109989000E-03 0. -1.
     -623    1    1    2    0    0  0.64288857777E-02  0.38309997998E-01  0.42107087871E+00  0.17130052192E+03  0.17130000000E+03 0. -1.
      622    1    1    2    0    0 -0.77717249924E-01 -0.11871259641E-01  0.36155028252E+01  0.39151042868E+01  0.15000000000E+01 0. -1.
</event>
<event>
 5   0  0.6596100E+00  0.9118800E+02  0.7818608E-02  0.1180000E+00
       11   -1    0    0    0    0  0.00000000000E+00  0.00000000000E+00  0.39999999673E+01  0.40000000000E+01  0.51109989000E-03 0.  1.
     -623   -1    0    0    0    0  0.00000000000E+00  0.00000000000E+00  0.12525980253E-10  0.17130000000E+03  0.17130000000E+03 0.  1.
       11    1    1    2    0    0  0.23182813755E+00 -0.42067022605E-01  0.37460559790E+00  0.44254212789E+00  0.51109989000E-03 0.  1.
     -623    1    1    2    0    0 -0.10574406890E-02  0.23352705037E+00  0.41433580564E+00  0.17130066027E+03  0.17130000000E+03 0.  1.
      622    1    1    2    0    0 -0.23077069686E+00 -0.19146002777E+00  0.32110585638E+01  0.35567975985E+01  0.15000000000E+01 0.  1.
</event>
<event>
 5   0  0.6596100E+00  0.9118800E+02  0.7818608E-02  0.1180000E+00
       11   -1    0    0    0    0  0.00000000000E+00  0.00000000000E+00  0.39999999673E+01  0.40000000000E+01  0.51109989000E-03 0.  1.
     -623   -1    0    0    0    0  0.00000000000E+00  0.00000000000E+00  0.12525980253E-10  0.17130000000E+03  0.17130000000E+03 0.  1.
       11    1    1    2    0    0 -0.69526690319E-01  0.77559684287E-01  0.14386122107E+00  0.17761131001E+00  0.51109989000E-03 0.  1.
     -623    1    1    2    0    0  0.84568221773E-01 -0.15274562691E+00  0.34166990802E+00  0.17130042972E+03  0.17130000000E+03 0.  1.
      622    1    1    2    0    0 -0.15041531454E-01  0.75185942620E-01  0.35144688383E+01  0.38219589727E+01  0.15000000000E+01 0.  1.
</event>
<event>
 5   0  0.6596100E+00  0.9118800E+02  0.7818608E-02  0.1180000E+00
       11   -1    0    0    0    0  0.00000000000E+00  0.00000000000E+00  0.39999999673E+01  0.40000000000E+01  0.51109989000E-03 0. -1.
     -623   -1    0    0    0    0  0.00000000000E+00  0.00000000000E+00  0.12525980253E-10  0.17130000000E+03  0.17130000000E+03 0. -1.
       11    1    1    2    0    0 -0.13616269864E+00 -0.90782180974E-01  0.17904469675E-01  0.16462841838E+00  0.51109989000E-03 0. -1.
     -623    1    1    2    0    0 -0.21417459036E+00 -0.36869101300E+00  0.50121489966E+00  0.17130126392E+03  0.17130000000E+03 0. -1.
      622    1    1    2    0    0  0.35033728899E+00  0.45947319397E+00  0.34808805980E+01  0.38341076628E+01  0.15000000000E+01 0. -1.
</event>
<event>
 5   0  0.6596100E+00  0.9118800E+02  0.7818608E-02  0.1180000E+00
       11   -1    0    0    0    0  0.00000000000E+00  0.00000000000E+00  0.39999999673E+01  0.40000000000E+01  0.51109989000E-03 0.  1.
     -623   -1    0    0    0    0  0.00000000000E+00  0.00000000000E+00  0.12525980253E-10  0.17130000000E+03  0.17130000000E+03 0.  1.
       11    1    1    2    0    0 -0.23705643977E-01  0.22238849341E-01 -0.96568288537E-02  0.33912232940E-01  0.51109989000E-03 0.  1.
     -623    1    1    2    0    0 -0.13964324128E+00 -0.30919808539E-01  0.34224509772E+00  0.17130040160E+03  0.17130000000E+03 0.  1.
      622    1    1    2    0    0  0.16334888526E+00  0.86809591978E-02  0.36674116985E+01  0.39656861681E+01  0.15000000000E+01 0.  1.
</event>
<event>
 5   0  0.6596100E+00  0.9118800E+02  0.7818608E-02  0.1180000E+00
       11   -1    0    0    0    0  0.00000000000E+00  0.00000000000E+00  0.39999999673E+01  0.40000000000E+01  0.51109989000E-03 0.  1.
     -623   -1    0    0    0    0  0.00000000000E+00  0.00000000000E+00  0.12525980253E-10  0.17130000000E+03  0.17130000000E+03 0. -1.
       11    1    1    2    0    0  0.35423766306E-01  0.67394169336E-01  0.98652058169E-01  0.12461664048E+00  0.51109989000E-03 0.  1.
     -623    1    1    2    0    0 -0.48442165193E-01 -0.75346161316E-01  0.32843008691E+00  0.17130033827E+03  0.17130000000E+03 0. -1.
      622    1    1    2    0    0  0.13018398887E-01  0.79519919797E-02  0.35729178223E+01  0.38750450936E+01  0.15000000000E+01 0.  1.
</event>
<event>
 5   0  0.6596100E+00  0.9118800E+02  0.7818608E-02  0.1180000E+00
       11   -1    0    0    0    0  0.00000000000E+00  0.00000000000E+00  0.39999999673E+01  0.40000000000E+01  0.51109989000E-03 0.  1.
     -623   -1    0    0    0    0  0.00000000000E+00  0.00000000000E+00  0.12525980253E-10  0.17130000000E+03  0.17130000000E+03 0.  1.
       11    1    1    2    0    0 -0.16082436084E-01  0.38354988761E-01  0.23658054367E-03  0.41594075378E-01  0.51109989000E-03 0.  1.
     -623    1    1    2    0    0 -0.11738685791E+00 -0.17734719916E+00  0.34215565466E+00  0.17130047374E+03  0.17130000000E+03 0.  1.
      622    1    1    2    0    0  0.13346929400E+00  0.13899221040E+00  0.36576077322E+01  0.39579321886E+01  0.15000000000E+01 0.  1.
</event>
<event>
 5   0  0.6596100E+00  0.9118800E+02  0.7818608E-02  0.1180000E+00
       11   -1    0    0    0    0  0.00000000000E+00  0.00000000000E+00  0.39999999673E+01  0.40000000000E+01  0.51109989000E-03 0.  1.
     -623   -1    0    0    0    0  0.00000000000E+00  0.00000000000E+00  0.12525980253E-10  0.17130000000E+03  0.17130000000E+03 0. -1.
       11    1    1    2    0    0 -0.13706796678E-01  0.27592397717E-01 -0.28101474592E-01  0.41703366582E-01  0.51109989000E-03 0.  1.
     -623    1    1    2    0    0  0.83552814429E-01  0.70417959360E-01  0.36746874169E+00  0.17130042899E+03  0.17130000000E+03 0. -1.
      622    1    1    2    0    0 -0.69846017751E-01 -0.98010357077E-01  0.36606327003E+01  0.39578676408E+01  0.15000000000E+01 0.  1.
</event>
<event>
 5   0  0.6596100E+00  0.9118800E+02  0.7818608E-02  0.1180000E+00
       11   -1    0    0    0    0  0.00000000000E+00  0.00000000000E+00  0.39999999673E+01  0.40000000000E+01  0.51109989000E-03 0.  1.
     -623   -1    0    0    0    0  0.00000000000E+00  0.00000000000E+00  0.12525980253E-10  0.17130000000E+03  0.17130000000E+03 0.  1.
       11    1    1    2    0    0  0.29587933356E+00  0.76952229668E-01  0.25265415254E+00  0.39661140641E+00  0.51109989000E-03 0.  1.
     -623    1    1    2    0    0 -0.96452058691E-01 -0.29699949939E+00  0.48556601993E+00  0.17130097281E+03  0.17130000000E+03 0.  1.
      622    1    1    2    0    0 -0.19942727487E+00  0.22004726972E+00  0.32617797949E+01  0.36024157824E+01  0.15000000000E+01 0.  1.
</event>
<event>
 5   0  0.6596100E+00  0.9118800E+02  0.7818608E-02  0.1180000E+00
       11   -1    0    0    0    0  0.00000000000E+00  0.00000000000E+00  0.39999999673E+01  0.40000000000E+01  0.51109989000E-03 0. -1.
     -623   -1    0    0    0    0  0.00000000000E+00  0.00000000000E+00  0.12525980253E-10  0.17130000000E+03  0.17130000000E+03 0. -1.
       11    1    1    2    0    0 -0.94473515874E-01 -0.61566618533E-01  0.61339486054E-01  0.12836856115E+00  0.51109989000E-03 0. -1.
     -623    1    1    2    0    0 -0.12872938294E-02 -0.18407664942E+00  0.37972880718E+00  0.17130051979E+03  0.17130000000E+03 0. -1.
      622    1    1    2    0    0  0.95760809703E-01  0.24564326795E+00  0.35589316741E+01  0.38711116503E+01  0.15000000000E+01 0. -1.
</event>
<event>
 5   0  0.6596100E+00  0.9118800E+02  0.7818608E-02  0.1180000E+00
       11   -1    0    0    0    0  0.00000000000E+00  0.00000000000E+00  0.39999999673E+01  0.40000000000E+01  0.51109989000E-03 0.  1.
     -623   -1    0    0    0    0  0.00000000000E+00  0.00000000000E+00  0.12525980253E-10  0.17130000000E+03  0.17130000000E+03 0.  1.
       11    1    1    2    0    0 -0.14037039438E+00 -0.38221323301E-01  0.99972634579E-01  0.17652055421E+00  0.51109989000E-03 0.  1.
     -623    1    1    2    0    0  0.20346194632E+00 -0.11419154843E+00  0.38758985006E+00  0.17130059738E+03  0.17130000000E+03 0.  1.
      622    1    1    2    0    0 -0.63091551938E-01  0.15241287173E+00  0.35124374827E+01  0.38228820669E+01  0.15000000000E+01 0.  1.
</event>
<event>
 5   0  0.6596100E+00  0.9118800E+02  0.7818608E-02  0.1180000E+00
       11   -1    0    0    0    0  0.00000000000E+00  0.00000000000E+00  0.39999999673E+01  0.40000000000E+01  0.51109989000E-03 0.  1.
     -623   -1    0    0    0    0  0.00000000000E+00  0.00000000000E+00  0.12525980253E-10  0.17130000000E+03  0.17130000000E+03 0. -1.
       11    1    1    2    0    0 -0.27553590542E-01  0.41042501347E-01 -0.55749823215E-01  0.74511685528E-01  0.51109989000E-03 0.  1.
     -623    1    1    2    0    0  0.12117699020E+00  0.47429341929E-01  0.43108156747E+00  0.17130059184E+03  0.17130000000E+03 0. -1.
      622    1    1    2    0    0 -0.93623399659E-01 -0.88471843276E-01  0.36246682231E+01  0.39248964745E+01  0.15000000000E+01 0.  1.
</event>
<event>
 5   0  0.6596100E+00  0.9118800E+02  0.7818608E-02  0.1180000E+00
       11   -1    0    0    0    0  0.00000000000E+00  0.00000000000E+00  0.39999999673E+01  0.40000000000E+01  0.51109989000E-03 0. -1.
     -623   -1    0    0    0    0  0.00000000000E+00  0.00000000000E+00  0.12525980253E-10  0.17130000000E+03  0.17130000000E+03 0.  1.
       11    1    1    2    0    0 -0.62382196536E-02 -0.83791506002E-01 -0.50254643092E-01  0.97906701695E-01  0.51109989000E-03 0. -1.
     -623    1    1    2    0    0  0.40171245424E-02  0.64583752977E-01  0.44868866466E+00  0.17130059985E+03  0.17130000000E+03 0.  1.
      622    1    1    2    0    0  0.22210951112E-02  0.19207753025E-01  0.36015659458E+01  0.39014934490E+01  0.15000000000E+01 0. -1.
</event>
<event>
 5   0  0.6596100E+00  0.9118800E+02  0.7818608E-02  0.1180000E+00
       11   -1    0    0    0    0  0.00000000000E+00  0.00000000000E+00  0.39999999673E+01  0.40000000000E+01  0.51109989000E-03 0. -1.
     -623   -1    0    0    0    0  0.00000000000E+00  0.00000000000E+00  0.12525980253E-10  0.17130000000E+03  0.17130000000E+03 0.  1.
       11    1    1    2    0    0 -0.41350343462E-01 -0.19812009828E-01  0.34515102746E-01  0.57392683996E-01  0.51109989000E-03 0. -1.
     -623    1    1    2    0    0 -0.61018988823E-01  0.13882141614E+00  0.32315358792E+00  0.17130037193E+03  0.17130000000E+03 0.  1.
      622    1    1    2    0    0  0.10236933228E+00 -0.11900940632E+00  0.36423312767E+01  0.39422353872E+01  0.15000000000E+01 0. -1.
</event>
<event>
 5   0  0.6596100E+00  0.9118800E+02  0.7818608E-02  0.1180000E+00
       11   -1    0    0    0    0  0.00000000000E+00  0.00000000000E+00  0.39999999673E+01  0.40000000000E+01  0.51109989000E-03 0. -1.
     -623   -1    0    0    0    0  0.00000000000E+00  0.00000000000E+00  0.12525980253E-10  0.17130000000E+03  0.17130000000E+03 0. -1.
       11    1    1    2    0    0  0.42231317175E-01 -0.27332604212E-01 -0.29049696731E-02  0.50391025741E-01  0.51109989000E-03 0. -1.
     -623    1    1    2    0    0 -0.70528433250E-01 -0.34901058730E-01  0.35026672414E+00  0.17130037618E+03  0.17130000000E+03 0. -1.
      622    1    1    2    0    0  0.28297116074E-01  0.62233662942E-01  0.36526382129E+01  0.39492327951E+01  0.15000000000E+01 0. -1.
</event>
<event>
 5   0  0.6596100E+00  0.9118800E+02  0.7818608E-02  0.1180000E+00
       11   -1    0    0    0    0  0.00000000000E+00  0.00000000000E+00  0.39999999673E+01  0.40000000000E+01  0.51109989000E-03 0. -1.
     -623   -1    0    0    0    0  0.00000000000E+00  0.00000000000E+00  0.12525980253E-10  0.17130000000E+03  0.17130000000E+03 0.  1.
       11    1    1    2    0    0  0.19736729061E+00  0.55971015262E-01  0.28407151584E+00  0.35040475067E+00  0.51109989000E-03 0. -1.
     -623    1    1    2    0    0 -0.76871952841E-01 -0.12280073028E+00  0.39225049047E+00  0.17130051036E+03  0.17130000000E+03 0.  1.
      622    1    1    2    0    0 -0.12049533777E+00  0.66829715018E-01  0.33236779611E+01  0.36490848888E+01  0.15000000000E+01 0. -1.
</event>
<event>
 5   0  0.6596100E+00  0.9118800E+02  0.7818608E-02  0.1180000E+00
       11   -1    0    0    0    0  0.00000000000E+00  0.00000000000E+00  0.39999999673E+01  0.40000000000E+01  0.51109989000E-03 0.  1.
     -623   -1    0    0    0    0  0.00000000000E+00  0.00000000000E+00  0.12525980253E-10  0.17130000000E+03  0.17130000000E+03 0.  1.
       11    1    1    2    0    0 -0.85122125719E-01  0.75487739461E-01  0.80800833667E-01  0.13954644761E+00  0.51109989000E-03 0.  1.
     -623    1    1    2    0    0 -0.14494239547E+00 -0.20232873593E+00  0.37243134316E+00  0.17130058567E+03  0.17130000000E+03 0.  1.
      622    1    1    2    0    0  0.23006452119E+00  0.12684099647E+00  0.35467677905E+01  0.38598678840E+01  0.15000000000E+01 0.  1.
</event>
<event>
 5   0  0.6596100E+00  0.9118800E+02  0.7818608E-02  0.1180000E+00
       11   -1    0    0    0    0  0.00000000000E+00  0.00000000000E+00  0.39999999673E+01  0.40000000000E+01  0.51109989000E-03 0. -1.
     -623   -1    0    0    0    0  0.00000000000E+00  0.00000000000E+00  0.12525980253E-10  0.17130000000E+03  0.17130000000E+03 0.  1.
       11    1    1    2    0    0  0.21101937769E+00 -0.11327397667E+00  0.43274573140E+00  0.49460014236E+00  0.51109989000E-03 0. -1.
     -623    1    1    2    0    0 -0.18385572674E+00  0.48371739333E-01  0.40041705475E+00  0.17130057349E+03  0.17130000000E+03 0.  1.
      622    1    1    2    0    0 -0.27163650954E-01  0.64902237341E-01  0.31668371812E+01  0.35048263718E+01  0.15000000000E+01 0. -1.
</event>
<event>
 5   0  0.6596100E+00  0.9118800E+02  0.7818608E-02  0.1180000E+00
       11   -1    0    0    0    0  0.00000000000E+00  0.00000000000E+00  0.39999999673E+01  0.40000000000E+01  0.51109989000E-03 0. -1.
     -623   -1    0    0    0    0  0.00000000000E+00  0.00000000000E+00  0.12525980253E-10  0.17130000000E+03  0.17130000000E+03 0. -1.
       11    1    1    2    0    0  0.29551214306E-01  0.19453489567E+00 -0.11296650379E+00  0.22688938296E+00  0.51109989000E-03 0. -1.
     -623    1    1    2    0    0 -0.74355145709E-01 -0.16810862755E+00  0.65268724168E+00  0.17130134205E+03  0.17130000000E+03 0. -1.
      622    1    1    2    0    0  0.44803931404E-01 -0.26426268118E-01  0.34602792295E+01  0.37717685621E+01  0.15000000000E+01 0. -1.
</event>
<event>
 5   0  0.6596100E+00  0.9118800E+02  0.7818608E-02  0.1180000E+00
       11   -1    0    0    0    0  0.00000000000E+00  0.00000000000E+00  0.39999999673E+01  0.40000000000E+01  0.51109989000E-03 0. -1.
     -623   -1    0    0    0    0  0.00000000000E+00  0.00000000000E+00  0.12525980253E-10  0.17130000000E+03  0.17130000000E+03 0. -1.
       11    1    1    2    0    0  0.16118818266E+00 -0.25760776730E+00  0.10978699573E+01  0.11391497252E+01  0.51109989000E-03 0. -1.
     -623    1    1    2    0    0  0.13983023348E-01  0.39838574665E+00  0.47777524068E+00  0.17130113011E+03  0.17130000000E+03 0. -1.
      622    1    1    2    0    0 -0.17517120601E+00 -0.14077797935E+00  0.24243547694E+01  0.28597201679E+01  0.15000000000E+01 0. -1.
</event>
<event>
 5   0  0.6596100E+00  0.9118800E+02  0.7818608E-02  0.1180000E+00
       11   -1    0    0    0    0  0.00000000000E+00  0.00000000000E+00  0.39999999673E+01  0.40000000000E+01  0.51109989000E-03 0.  1.
     -623   -1    0    0    0    0  0.00000000000E+00  0.00000000000E+00  0.12525980253E-10  0.17130000000E+03  0.17130000000E+03 0.  1.
       11    1    1    2    0    0 -0.22726755723E-01  0.15175870089E+00  0.91872935518E-01  0.17885219100E+00  0.51109989000E-03 0.  1.
     -623    1    1    2    0    0  0.14839976698E+00 -0.99274982335E-01  0.39694535454E+00  0.17130055296E+03  0.17130000000E+03 0.  1.
      622    1    1    2    0    0 -0.12567301126E+00 -0.52483718558E-01  0.35111816773E+01  0.38205948513E+01  0.15000000000E+01 0.  1.
</event>
<event>
 5   0  0.6596100E+00  0.9118800E+02  0.7818608E-02  0.1180000E+00
       11   -1    0    0    0    0  0.00000000000E+00  0.00000000000E+00  0.39999999673E+01  0.40000000000E+01  0.51109989000E-03 0. -1.
     -623   -1    0    0    0    0  0.00000000000E+00  0.00000000000E+00  0.12525980253E-10  0.17130000000E+03  0.17130000000E+03 0.  1.
       11    1    1    2    0    0 -0.10662951528E+00 -0.28260314764E+00  0.37532740068E+00  0.48177309131E+00  0.51109989000E-03 0. -1.
     -623    1    1    2    0    0 -0.12466220391E+00  0.13573239059E+00  0.45482905713E+00  0.17130070296E+03  0.17130000000E+03 0.  1.
      622    1    1    2    0    0  0.23129171919E+00  0.14687075705E+00  0.31698435096E+01  0.35175239521E+01  0.15000000000E+01 0. -1.
</event>
<event>
 5   0  0.6596100E+00  0.9118800E+02  0.7818608E-02  0.1180000E+00
       11   -1    0    0    0    0  0.00000000000E+00  0.00000000000E+00  0.39999999673E+01  0.40000000000E+01  0.51109989000E-03 0. -1.
     -623   -1    0    0    0    0  0.00000000000E+00  0.00000000000E+00  0.12525980253E-10  0.17130000000E+03  0.17130000000E+03 0.  1.
       11    1    1    2    0    0 -0.20561467371E-01  0.85428866791E-01  0.77604369657E-01  0.11723295029E+00  0.51109989000E-03 0. -1.
     -623    1    1    2    0    0  0.15566056679E+00 -0.25387928086E+00  0.34825320167E+00  0.17130061286E+03  0.17130000000E+03 0.  1.
      622    1    1    2    0    0 -0.13509909942E+00  0.16845041407E+00  0.35741423960E+01  0.38821541927E+01  0.15000000000E+01 0. -1.
</event>
<event>
 5   0  0.6596100E+00  0.9118800E+02  0.7818608E-02  0.1180000E+00
       11   -1    0    0    0    0  0.00000000000E+00  0.00000000000E+00  0.39999999673E+01  0.40000000000E+01  0.51109989000E-03 0. -1.
     -623   -1    0    0    0    0  0.00000000000E+00  0.00000000000E+00  0.12525980253E-10  0.17130000000E+03  0.17130000000E+03 0.  1.
       11    1    1    2    0    0  0.18438961179E+00  0.24335506366E+00  0.11505962317E+01  0.11904172233E+01  0.51109989000E-03 0. -1.
     -623    1    1    2    0    0  0.10867945473E+00 -0.22188156466E+00  0.49304695832E+00  0.17130088773E+03  0.17130000000E+03 0.  1.
      622    1    1    2    0    0 -0.29306906652E+00 -0.21473499003E-01  0.23563567774E+01  0.28086950442E+01  0.15000000000E+01 0. -1.
</event>
<event>
 5   0  0.6596100E+00  0.9118800E+02  0.7818608E-02  0.1180000E+00
       11   -1    0    0    0    0  0.00000000000E+00  0.00000000000E+00  0.39999999673E+01  0.40000000000E+01  0.51109989000E-03 0.  1.
     -623   -1    0    0    0    0  0.00000000000E+00  0.00000000000E+00  0.12525980253E-10  0.17130000000E+03  0.17130000000E+03 0. -1.
       11    1    1    2    0    0 -0.33327425936E-01 -0.94375723792E-01  0.54640713845E-01  0.11403229101E+00  0.51109989000E-03 0.  1.
     -623    1    1    2    0    0  0.11797593904E+00  0.15659229982E+00  0.36264328939E+00  0.17130049606E+03  0.17130000000E+03 0. -1.
      622    1    1    2    0    0 -0.84648513102E-01 -0.62216576027E-01  0.35827159641E+01  0.38854716513E+01  0.15000000000E+01 0.  1.
</event>
<event>
 5   0  0.6596100E+00  0.9118800E+02  0.7818608E-02  0.1180000E+00
       11   -1    0    0    0    0  0.00000000000E+00  0.00000000000E+00  0.39999999673E+01  0.40000000000E+01  0.51109989000E-03 0. -1.
     -623   -1    0    0    0    0  0.00000000000E+00  0.00000000000E+00  0.12525980253E-10  0.17130000000E+03  0.17130000000E+03 0.  1.
       11    1    1    2    0    0 -0.28055408821E-01  0.65448738606E-01 -0.31981711155E-01  0.78062375193E-01  0.51109989000E-03 0. -1.
     -623    1    1    2    0    0  0.26092152383E+00 -0.42061703651E+00  0.43458095643E+00  0.17130126637E+03  0.17130000000E+03 0.  1.
      622    1    1    2    0    0 -0.23286611501E+00  0.35516829790E+00  0.35974007221E+01  0.39206712566E+01  0.15000000000E+01 0. -1.
</event>
<event>
 5   0  0.6596100E+00  0.9118800E+02  0.7818608E-02  0.1180000E+00
       11   -1    0    0    0    0  0.00000000000E+00  0.00000000000E+00  0.39999999673E+01  0.40000000000E+01  0.51109989000E-03 0. -1.
     -623   -1    0    0    0    0  0.00000000000E+00  0.00000000000E+00  0.12525980253E-10  0.17130000000E+03  0.17130000000E+03 0. -1.
       11    1    1    2    0    0  0.91379748481E-01  0.36057785466E-01 -0.88880123781E-03  0.98241913235E-01  0.51109989000E-03 0. -1.
     -623    1    1    2    0    0 -0.23219418476E-01 -0.12508564512E+00  0.40129044928E+00  0.17130051728E+03  0.17130000000E+03 0. -1.
      622    1    1    2    0    0 -0.68160330005E-01  0.89027859658E-01  0.35995983193E+01  0.39012408091E+01  0.15000000000E+01 0. -1.
</event>
<event>
 5   0  0.6596100E+00  0.9118800E+02  0.7818608E-02  0.1180000E+00
       11   -1    0    0    0    0  0.00000000000E+00  0.00000000000E+00  0.39999999673E+01  0.40000000000E+01  0.51109989000E-03 0.  1.
     -623   -1    0    0    0    0  0.00000000000E+00  0.00000000000E+00  0.12525980253E-10  0.17130000000E+03  0.17130000000E+03 0. -1.
       11    1    1    2    0    0  0.22013263574E+00 -0.96091836035E-01 -0.47305437981E-01  0.24480621715E+00  0.51109989000E-03 0.  1.
     -623    1    1    2    0    0  0.26545896743E+00  0.15028762994E+00  0.64117945685E+00  0.17130147158E+03  0.17130000000E+03 0. -1.
      622    1    1    2    0    0 -0.48559160317E+00 -0.54195793903E-01  0.34061259485E+01  0.37537222015E+01  0.15000000000E+01 0.  1.
</event>
<event>
 5   0  0.6596100E+00  0.9118800E+02  0.7818608E-02  0.1180000E+00
       11   -1    0    0    0    0  0.00000000000E+00  0.00000000000E+00  0.39999999673E+01  0.40000000000E+01  0.51109989000E-03 0. -1.
     -623   -1    0    0    0    0  0.00000000000E+00  0.00000000000E+00  0.12525980253E-10  0.17130000000E+03  0.17130000000E+03 0. -1.
       11    1    1    2    0    0 -0.40860230979E-01 -0.46041216495E-01  0.92894406483E+00  0.93098157280E+00  0.51109989000E-03 0. -1.
     -623    1    1    2    0    0 -0.32603765427E-01 -0.26275626862E+00  0.41327378100E+00  0.17130070315E+03  0.17130000000E+03 0. -1.
      622    1    1    2    0    0  0.73463996405E-01  0.30879748511E+00  0.26577821215E+01  0.30683152790E+01  0.15000000000E+01 0. -1.
</event>
<event>
 5   0  0.6596100E+00  0.9118800E+02  0.7818608E-02  0.1180000E+00
       11   -1    0    0    0    0  0.00000000000E+00  0.00000000000E+00  0.39999999673E+01  0.40000000000E+01  0.51109989000E-03 0.  1.
     -623   -1    0    0    0    0  0.00000000000E+00  0.00000000000E+00  0.12525980253E-10  0.17130000000E+03  0.17130000000E+03 0. -1.
       11    1    1    2    0    0  0.14251125249E+00 -0.17050946586E+00  0.20768256665E-01  0.22319165922E+00  0.51109989000E-03 0.  1.
     -623    1    1    2    0    0 -0.75253094650E-01  0.13216104129E+00  0.51485103454E+00  0.17130084122E+03  0.17130000000E+03 0. -1.
      622    1    1    2    0    0 -0.67258157845E-01  0.38348424569E-01  0.34643806762E+01  0.37759671252E+01  0.15000000000E+01 0.  1.
</event>
<event>
 5   0  0.6596100E+00  0.9118800E+02  0.7818608E-02  0.1180000E+00
       11   -1    0    0    0    0  0.00000000000E+00  0.00000000000E+00  0.39999999673E+01  0.40000000000E+01  0.51109989000E-03 0. -1.
     -623   -1    0    0    0    0  0.00000000000E+00  0.00000000000E+00  0.12525980253E-10  0.17130000000E+03  0.17130000000E+03 0.  1.
       11    1    1    2    0    0  0.91960688308E-01  0.39159503825E-01 -0.44270960325E-01  0.10931794951E+00  0.51109989000E-03 0. -1.
     -623    1    1    2    0    0 -0.19890681698E-01  0.10331410417E+00  0.45862094706E+00  0.17130064624E+03  0.17130000000E+03 0.  1.
      622    1    1    2    0    0 -0.72070006610E-01 -0.14247360800E+00  0.35856499806E+01  0.38900358094E+01  0.15000000000E+01 0. -1.
</event>
<event>
 5   0  0.6596100E+00  0.9118800E+02  0.7818608E-02  0.1180000E+00
       11   -1    0    0    0    0  0.00000000000E+00  0.00000000000E+00  0.39999999673E+01  0.40000000000E+01  0.51109989000E-03 0.  1.
     -623   -1    0    0    0    0  0.00000000000E+00  0.00000000000E+00  0.12525980253E-10  0.17130000000E+03  0.17130000000E+03 0. -1.
       11    1    1    2    0    0  0.20985167876E+00 -0.31660542940E-01  0.28940696280E+00  0.35888266662E+00  0.51109989000E-03 0.  1.
     -623    1    1    2    0    0  0.10399312527E+00 -0.40932600964E-01  0.40905620517E+00  0.17130052486E+03  0.17130000000E+03 0. -1.
      622    1    1    2    0    0 -0.31384480404E+00  0.72593143904E-01  0.33015367994E+01  0.36405924742E+01  0.15000000000E+01 0.  1.
</event>
<event>
 5   0  0.6596100E+00  0.9118800E+02  0.7818608E-02  0.1180000E+00
       11   -1    0    0    0    0  0.00000000000E+00  0.00000000000E+00  0.39999999673E+01  0.40000000000E+01  0.51109989000E-03 0.  1.
     -623   -1    0    0    0    0  0.00000000000E+00  0.00000000000E+00  0.12525980253E-10  0.17130000000E+03  0.17130000000E+03 0. -1.
       11    1    1    2    0    0 -0.12376610621E+00  0.28131257432E+00  0.26955391467E-01  0.30851526359E+00  0.51109989000E-03 0.  1.
     -623    1    1    2    0    0  0.97390263903E-01 -0.29086021129E+00  0.60162841680E+00  0.17130133111E+03  0.17130000000E+03 0. -1.
      622    1    1    2    0    0  0.26375842307E-01  0.95476369743E-02  0.33714161591E+01  0.36901536228E+01  0.15000000000E+01 0.  1.
</event>
<event>
 5   0  0.6596100E+00  0.9118800E+02  0.7818608E-02  0.1180000E+00
       11   -1    0    0    0    0  0.00000000000E+00  0.00000000000E+00  0.39999999673E+01  0.40000000000E+01  0.51109989000E-03 0.  1.
     -623   -1    0    0    0    0  0.00000000000E+00  0.00000000000E+00  0.12525980253E-10  0.17130000000E+03  0.17130000000E+03 0. -1.
       11    1    1    2    0    0  0.14328555027E+00 -0.64515280735E-01  0.20062614004E+00  0.25484128326E+00  0.51109989000E-03 0.  1.
     -623    1    1    2    0    0  0.49631023857E+00  0.64377044617E+00  0.48092564912E+00  0.17130260376E+03  0.17130000000E+03 0. -1.
      622    1    1    2    0    0 -0.63959578884E+00 -0.57925516543E+00  0.33184481782E+01  0.37425549603E+01  0.15000000000E+01 0.  1.
</event>
<event>
 5   0  0.6596100E+00  0.9118800E+02  0.7818608E-02  0.1180000E+00
       11   -1    0    0    0    0  0.00000000000E+00  0.00000000000E+00  0.39999999673E+01  0.40000000000E+01  0.51109989000E-03 0.  1.
     -623   -1    0    0    0    0  0.00000000000E+00  0.00000000000E+00  0.12525980253E-10  0.17130000000E+03  0.17130000000E+03 0.  1.
       11    1    1    2    0    0  0.63771630449E-01 -0.81993085147E-01 -0.55824130776E-01  0.11792489840E+00  0.51109989000E-03 0.  1.
     -623    1    1    2    0    0  0.98609395514E-01  0.21915523980E+00  0.48248640113E+00  0.17130084806E+03  0.17130000000E+03 0.  1.
      622    1    1    2    0    0 -0.16238102596E+00 -0.13716215466E+00  0.35733376970E+01  0.38812270419E+01  0.15000000000E+01 0.  1.
</event>
<event>
 5   0  0.6596100E+00  0.9118800E+02  0.7818608E-02  0.1180000E+00
       11   -1    0    0    0    0  0.00000000000E+00  0.00000000000E+00  0.39999999673E+01  0.40000000000E+01  0.51109989000E-03 0.  1.
     -623   -1    0    0    0    0  0.00000000000E+00  0.00000000000E+00  0.12525980253E-10  0.17130000000E+03  0.17130000000E+03 0.  1.
       11    1    1    2    0    0 -0.42023018252E-01 -0.59076280952E-01  0.93850225047E-01  0.11859201911E+00  0.51109989000E-03 0.  1.
     -623    1    1    2    0    0  0.23987647271E+00 -0.20286347441E+00  0.34206748371E+00  0.17130062961E+03  0.17130000000E+03 0.  1.
      622    1    1    2    0    0 -0.19785345445E+00  0.26193975536E+00  0.35640822586E+01  0.38807783718E+01  0.15000000000E+01 0.  1.
</event>
<event>
 5   0  0.6596100E+00  0.9118800E+02  0.7818608E-02  0.1180000E+00
       11   -1    0    0    0    0  0.00000000000E+00  0.00000000000E+00  0.39999999673E+01  0.40000000000E+01  0.51109989000E-03 0.  1.
     -623   -1    0    0    0    0  0.00000000000E+00  0.00000000000E+00  0.12525980253E-10  0.17130000000E+03  0.17130000000E+03 0.  1.
       11    1    1    2    0    0  0.44964554539E-01  0.20449025500E-01  0.30680988154E+00  0.31076122416E+00  0.51109989000E-03 0.  1.
     -623    1    1    2    0    0  0.12506772379E+00 -0.15594485047E+00  0.33015504751E+00  0.17130043480E+03  0.17130000000E+03 0.  1.
      622    1    1    2    0    0 -0.17003227833E+00  0.13549582497E+00  0.33630350383E+01  0.36888039746E+01  0.15000000000E+01 0.  1.
</event>
<event>
 5   0  0.6596100E+00  0.9118800E+02  0.7818608E-02  0.1180000E+00
       11   -1    0    0    0    0  0.00000000000E+00  0.00000000000E+00  0.39999999673E+01  0.40000000000E+01  0.51109989000E-03 0. -1.
     -623   -1    0    0    0    0  0.00000000000E+00  0.00000000000E+00  0.12525980253E-10  0.17130000000E+03  0.17130000000E+03 0.  1.
       11    1    1    2    0    0 -0.21854395677E-01  0.50100968473E-01  0.31677672188E+00  0.32145835562E+00  0.51109989000E-03 0. -1.
     -623    1    1    2    0    0 -0.12260529447E-01  0.21589963565E+00  0.33563824140E+00  0.17130046531E+03  0.17130000000E+03 0.  1.
      622    1    1    2    0    0  0.34114925124E-01 -0.26600060412E+00  0.33475850041E+01  0.36780763327E+01  0.15000000000E+01 0. -1.
</event>
<event>
 5   0  0.6596100E+00  0.9118800E+02  0.7818608E-02  0.1180000E+00
       11   -1    0    0    0    0  0.00000000000E+00  0.00000000000E+00  0.39999999673E+01  0.40000000000E+01  0.51109989000E-03 0. -1.
     -623   -1    0    0    0    0  0.00000000000E+00  0.00000000000E+00  0.12525980253E-10  0.17130000000E+03  0.17130000000E+03 0.  1.
       11    1    1    2    0    0 -0.61300283638E-03 -0.85169495493E-03 -0.37645676310E-01  0.37663766736E-01  0.51109989000E-03 0. -1.
     -623    1    1    2    0    0  0.13533332856E+00 -0.24455131887E+00  0.38161485985E+00  0.17130065309E+03  0.17130000000E+03 0.  1.
      622    1    1    2    0    0 -0.13472032572E+00  0.24540301382E+00  0.36560307838E+01  0.39616831395E+01  0.15000000000E+01 0. -1.
</event>
<event>
 5   0  0.6596100E+00  0.9118800E+02  0.7818608E-02  0.1180000E+00
       11   -1    0    0    0    0  0.00000000000E+00  0.00000000000E+00  0.39999999673E+01  0.40000000000E+01  0.51109989000E-03 0. -1.
     -623   -1    0    0    0    0  0.00000000000E+00  0.00000000000E+00  0.12525980253E-10  0.17130000000E+03  0.17130000000E+03 0.  1.
       11    1    1    2    0    0 -0.16307717302E+00 -0.32522268453E-01  0.20676834568E+00  0.26533991841E+00  0.51109989000E-03 0. -1.
     -623    1    1    2    0    0 -0.61121256189E-01  0.37691461001E+00  0.39879947475E+00  0.17130088979E+03  0.17130000000E+03 0.  1.
      622    1    1    2    0    0  0.22419842921E+00 -0.34439234156E+00  0.33944321469E+01  0.37337702957E+01  0.15000000000E+01 0.  0.
</event>
<event>
 5   0  0.6596100E+00  0.9118800E+02  0.7818608E-02  0.1180000E+00
       11   -1    0    0    0    0  0.00000000000E+00  0.00000000000E+00  0.39999999673E+01  0.40000000000E+01  0.51109989000E-03 0. -1.
     -623   -1    0    0    0    0  0.00000000000E+00  0.00000000000E+00  0.12525980253E-10  0.17130000000E+03  0.17130000000E+03 0.  1.
       11    1    1    2    0    0 -0.21549004469E+00 -0.14080700143E+00  0.81305983124E-01  0.26995091244E+00  0.51109989000E-03 0. -1.
     -623    1    1    2    0    0  0.32538399376E+00 -0.12495669202E-01  0.50992320922E+00  0.17130106845E+03  0.17130000000E+03 0.  1.
      622    1    1    2    0    0 -0.10989394907E+00  0.15330267063E+00  0.34087707750E+01  0.37289806362E+01  0.15000000000E+01 0. -1.
</event>
<event>
 5   0  0.6596100E+00  0.9118800E+02  0.7818608E-02  0.1180000E+00
       11   -1    0    0    0    0  0.00000000000E+00  0.00000000000E+00  0.39999999673E+01  0.40000000000E+01  0.51109989000E-03 0.  1.
     -623   -1    0    0    0    0  0.00000000000E+00  0.00000000000E+00  0.12525980253E-10  0.17130000000E+03  0.17130000000E+03 0.  1.
       11    1    1    2    0    0  0.98519556219E-01  0.21719487632E+00  0.24774714534E+00  0.34388752013E+00  0.51109989000E-03 0.  1.
     -623    1    1    2    0    0 -0.15174809599E+00 -0.89280201871E-01  0.42156088285E+00  0.17130060920E+03  0.17130000000E+03 0.  1.
      622    1    1    2    0    0  0.53228539767E-01 -0.12791467445E+00  0.33306919392E+01  0.36555032807E+01  0.15000000000E+01 0.  1.
</event>
<event>
 5   0  0.6596100E+00  0.9118800E+02  0.7818608E-02  0.1180000E+00
       11   -1    0    0    0    0  0.00000000000E+00  0.00000000000E+00  0.39999999673E+01  0.40000000000E+01  0.51109989000E-03 0.  1.
     -623   -1    0    0    0    0  0.00000000000E+00  0.00000000000E+00  0.12525980253E-10  0.17130000000E+03  0.17130000000E+03 0.  1.
       11    1    1    2    0    0  0.81650924686E-01  0.70036112464E+00  0.88563210384E+00  0.11320411048E+01  0.51109989000E-03 0.  1.
     -623    1    1    2    0    0 -0.67729139204E+00 -0.41074314193E+00  0.76570568173E+00  0.17130354269E+03  0.17130000000E+03 0.  1.
      622    1    1    2    0    0  0.59564046735E+00 -0.28961798271E+00  0.23486621818E+01  0.28644162034E+01  0.15000000000E+01 0.  1.
</event>
<event>
 5   0  0.6596100E+00  0.9118800E+02  0.7818608E-02  0.1180000E+00
       11   -1    0    0    0    0  0.00000000000E+00  0.00000000000E+00  0.39999999673E+01  0.40000000000E+01  0.51109989000E-03 0.  1.
     -623   -1    0    0    0    0  0.00000000000E+00  0.00000000000E+00  0.12525980253E-10  0.17130000000E+03  0.17130000000E+03 0. -1.
       11    1    1    2    0    0 -0.94908566833E-01 -0.34615104867E-01  0.61340255438E-01  0.11818938067E+00  0.51109989000E-03 0.  1.
     -623    1    1    2    0    0  0.55651022563E-01  0.22874731855E+00  0.36445215495E+00  0.17130054947E+03  0.17130000000E+03 0. -1.
      622    1    1    2    0    0  0.39257544270E-01 -0.19413221368E+00  0.35742075570E+01  0.38812611522E+01  0.15000000000E+01 0.  1.
</event>
<event>
 5   0  0.6596100E+00  0.9118800E+02  0.7818608E-02  0.1180000E+00
       11   -1    0    0    0    0  0.00000000000E+00  0.00000000000E+00  0.39999999673E+01  0.40000000000E+01  0.51109989000E-03 0. -1.
     -623   -1    0    0    0    0  0.00000000000E+00  0.00000000000E+00  0.12525980253E-10  0.17130000000E+03  0.17130000000E+03 0.  1.
       11    1    1    2    0    0  0.57915404766E-02 -0.92077751487E-01 -0.19146672949E-01  0.94226910000E-01  0.51109989000E-03 0. -1.
     -623    1    1    2    0    0  0.92847726068E-01  0.38374127134E-01  0.41521978507E+00  0.17130053269E+03  0.17130000000E+03 0.  1.
      622    1    1    2    0    0 -0.98639266545E-01  0.53703624353E-01  0.36039268552E+01  0.39052403975E+01  0.15000000000E+01 0. -1.
</event>
<event>
 5   0  0.6596100E+00  0.9118800E+02  0.7818608E-02  0.1180000E+00
       11   -1    0    0    0    0  0.00000000000E+00  0.00000000000E+00  0.39999999673E+01  0.40000000000E+01  0.51109989000E-03 0. -1.
     -623   -1    0    0    0    0  0.00000000000E+00  0.00000000000E+00  0.12525980253E-10  0.17130000000E+03  0.17130000000E+03 0.  1.
       11    1    1    2    0    0  0.27359837273E+00  0.17790855416E+00  0.37165898841E+00  0.49460912657E+00  0.51109989000E-03 0. -1.
     -623    1    1    2    0    0 -0.18151336294E+00 -0.30654921306E+00  0.46516011791E+00  0.17130100202E+03  0.17130000000E+03 0.  1.
      622    1    1    2    0    0 -0.92085009782E-01  0.12864065890E+00  0.31631808610E+01  0.35043888523E+01  0.15000000000E+01 0. -1.
</event>
<event>
 5   0  0.6596100E+00  0.9118800E+02  0.7818608E-02  0.1180000E+00
       11   -1    0    0    0    0  0.00000000000E+00  0.00000000000E+00  0.39999999673E+01  0.40000000000E+01  0.51109989000E-03 0. -1.
     -623   -1    0    0    0    0  0.00000000000E+00  0.00000000000E+00  0.12525980253E-10  0.17130000000E+03  0.17130000000E+03 0.  1.
       11    1    1    2    0    0 -0.91740021606E-01 -0.65346530385E-01  0.10724802530E+00  0.15552749194E+00  0.51109989000E-03 0. -1.
     -623    1    1    2    0    0  0.24601858693E+00 -0.52457022436E-01  0.35891856148E+00  0.17130056071E+03  0.17130000000E+03 0.  1.
      622    1    1    2    0    0 -0.15427856533E+00  0.11780355282E+00  0.35338333806E+01  0.38439117985E+01  0.15000000000E+01 0. -1.
</event>
<event>
 5   0  0.6596100E+00  0.9118800E+02  0.7818608E-02  0.1180000E+00
       11   -1    0    0    0    0  0.00000000000E+00  0.00000000000E+00  0.39999999673E+01  0.40000000000E+01  0.51109989000E-03 0. -1.
     -623   -1    0    0    0    0  0.00000000000E+00  0.00000000000E+00  0.12525980253E-10  0.17130000000E+03  0.17130000000E+03 0.  1.
       11    1    1    2    0    0 -0.59696634007E-01 -0.93884729930E-01  0.56606361339E-01  0.12483017260E+00  0.51109989000E-03 0. -1.
     -623    1    1    2    0    0  0.77139897199E-02  0.21321020794E+00  0.37326487688E+00  0.17130053953E+03  0.17130000000E+03 0.  1.
      622    1    1    2    0    0  0.51982644287E-01 -0.11932547801E+00  0.35701287291E+01  0.38746302930E+01  0.15000000000E+01 0. -1.
</event>
<event>
 5   0  0.6596100E+00  0.9118800E+02  0.7818608E-02  0.1180000E+00
       11   -1    0    0    0    0  0.00000000000E+00  0.00000000000E+00  0.39999999673E+01  0.40000000000E+01  0.51109989000E-03 0. -1.
     -623   -1    0    0    0    0  0.00000000000E+00  0.00000000000E+00  0.12525980253E-10  0.17130000000E+03  0.17130000000E+03 0. -1.
       11    1    1    2    0    0  0.22688150399E+00 -0.82790649885E-01  0.37240133392E-01  0.24436979625E+00  0.51109989000E-03 0. -1.
     -623    1    1    2    0    0 -0.24825681037E-01  0.14960161679E+00  0.52722927029E+00  0.17130087848E+03  0.17130000000E+03 0. -1.
      622    1    1    2    0    0 -0.20205582296E+00 -0.66810966907E-01  0.34355305637E+01  0.37547517248E+01  0.15000000000E+01 0. -1.
</event>
<event>
 5   0  0.6596100E+00  0.9118800E+02  0.7818608E-02  0.1180000E+00
       11   -1    0    0    0    0  0.00000000000E+00  0.00000000000E+00  0.39999999673E+01  0.40000000000E+01  0.51109989000E-03 0. -1.
     -623   -1    0    0    0    0  0.00000000000E+00  0.00000000000E+00  0.12525980253E-10  0.17130000000E+03  0.17130000000E+03 0.  1.
       11    1    1    2    0    0  0.70449674949E-01  0.31011454785E+00  0.10953445204E+01  0.11405762005E+01  0.51109989000E-03 0. -1.
     -623    1    1    2    0    0  0.18757889767E+00 -0.46542758916E+00  0.49065798857E+00  0.17130143769E+03  0.17130000000E+03 0.  1.
      622    1    1    2    0    0 -0.25802857262E+00  0.15531304131E+00  0.24139974584E+01  0.28579861116E+01  0.15000000000E+01 0. -1.
</event>
<event>
 5   0  0.6596100E+00  0.9118800E+02  0.7818608E-02  0.1180000E+00
       11   -1    0    0    0    0  0.00000000000E+00  0.00000000000E+00  0.39999999673E+01  0.40000000000E+01  0.51109989000E-03 0. -1.
     -623   -1    0    0    0    0  0.00000000000E+00  0.00000000000E+00  0.12525980253E-10  0.17130000000E+03  0.17130000000E+03 0. -1.
       11    1    1    2    0    0  0.10294354216E+00 -0.14211583052E+00  0.26087764976E-01  0.17741227370E+00  0.51109989000E-03 0. -1.
     -623    1    1    2    0    0 -0.15120033365E+00  0.48630331647E+00  0.47669518149E+00  0.17130142028E+03  0.17130000000E+03 0. -1.
      622    1    1    2    0    0  0.48256791495E-01 -0.34418748595E+00  0.34972170209E+01  0.38211674439E+01  0.15000000000E+01 0. -1.
</event>
<event>
 5   0  0.6596100E+00  0.9118800E+02  0.7818608E-02  0.1180000E+00
       11   -1    0    0    0    0  0.00000000000E+00  0.00000000000E+00  0.39999999673E+01  0.40000000000E+01  0.51109989000E-03 0. -1.
     -623   -1    0    0    0    0  0.00000000000E+00  0.00000000000E+00  0.12525980253E-10  0.17130000000E+03  0.17130000000E+03 0. -1.
       11    1    1    2    0    0  0.11977826150E+00  0.25338167487E-01  0.11352394561E+00  0.16696347537E+00  0.51109989000E-03 0. -1.
     -623    1    1    2    0    0 -0.19113146137E+00  0.18250834394E+00  0.36663122703E+00  0.17130059620E+03  0.17130000000E+03 0. -1.
      622    1    1    2    0    0  0.71353199875E-01 -0.20784651143E+00  0.35198447947E+01  0.38324403231E+01  0.15000000000E+01 0. -1.
</event>
<event>
 5   0  0.6596100E+00  0.9118800E+02  0.7818608E-02  0.1180000E+00
       11   -1    0    0    0    0  0.00000000000E+00  0.00000000000E+00  0.39999999673E+01  0.40000000000E+01  0.51109989000E-03 0. -1.
     -623   -1    0    0    0    0  0.00000000000E+00  0.00000000000E+00  0.12525980253E-10  0.17130000000E+03  0.17130000000E+03 0. -1.
       11    1    1    2    0    0 -0.91662544427E-01 -0.12733212714E+00  0.22378631927E+00  0.27330581876E+00  0.51109989000E-03 0. -1.
     -623    1    1    2    0    0  0.30703412307E+00  0.36442639665E+00  0.38098845019E+00  0.17130108648E+03  0.17130000000E+03 0. -1.
      622    1    1    2    0    0 -0.21537157864E+00 -0.23709426952E+00  0.33952251979E+01  0.37256077026E+01  0.15000000000E+01 0. -1.
</event>
<event>
 5   0  0.6596100E+00  0.9118800E+02  0.7818608E-02  0.1180000E+00
       11   -1    0    0    0    0  0.00000000000E+00  0.00000000000E+00  0.39999999673E+01  0.40000000000E+01  0.51109989000E-03 0. -1.
     -623   -1    0    0    0    0  0.00000000000E+00  0.00000000000E+00  0.12525980253E-10  0.17130000000E+03  0.17130000000E+03 0. -1.
       11    1    1    2    0    0  0.20594003948E-01  0.15588692113E-01 -0.14270299604E-01  0.29513098652E-01  0.51109989000E-03 0. -1.
     -623    1    1    2    0    0  0.48990523098E-01 -0.27669300571E+00  0.34860495579E+00  0.17130058518E+03  0.17130000000E+03 0. -1.
      622    1    1    2    0    0 -0.69584527046E-01  0.26110431359E+00  0.36656653112E+01  0.39699017170E+01  0.15000000000E+01 0. -1.
</event>
<event>
 5   0  0.6596100E+00  0.9118800E+02  0.7818608E-02  0.1180000E+00
       11   -1    0    0    0    0  0.00000000000E+00  0.00000000000E+00  0.39999999673E+01  0.40000000000E+01  0.51109989000E-03 0. -1.
     -623   -1    0    0    0    0  0.00000000000E+00  0.00000000000E+00  0.12525980253E-10  0.17130000000E+03  0.17130000000E+03 0.  1.
       11    1    1    2    0    0  0.15495187896E+00  0.12727068627E+00  0.37226207849E+00  0.42283238840E+00  0.51109989000E-03 0. -1.
     -623    1    1    2    0    0  0.28267151888E+00 -0.12872843018E+00  0.41074010810E+00  0.17130077403E+03  0.17130000000E+03 0.  1.
      622    1    1    2    0    0 -0.43762339784E+00  0.14577439104E-02  0.32169977808E+01  0.35763935864E+01  0.15000000000E+01 0. -1.
</event>
<event>
 5   0  0.6596100E+00  0.9118800E+02  0.7818608E-02  0.1180000E+00
       11   -1    0    0    0    0  0.00000000000E+00  0.00000000000E+00  0.39999999673E+01  0.40000000000E+01  0.51109989000E-03 0.  1.
     -623   -1    0    0    0    0  0.00000000000E+00  0.00000000000E+00  0.12525980253E-10  0.17130000000E+03  0.17130000000E+03 0.  1.
       11    1    1    2    0    0 -0.34285076013E-01  0.58453826670E-01  0.36051779931E+00  0.36683192491E+00  0.51109989000E-03 0.  1.
     -623    1    1    2    0    0  0.16618120516E+00 -0.11328717230E+00  0.33398925889E+00  0.17130044366E+03  0.17130000000E+03 0.  1.
      622    1    1    2    0    0 -0.13189612915E+00  0.54833345629E-01  0.33054929092E+01  0.36327244125E+01  0.15000000000E+01 0.  1.
</event>
<event>
 5   0  0.6596100E+00  0.9118800E+02  0.7818608E-02  0.1180000E+00
       11   -1    0    0    0    0  0.00000000000E+00  0.00000000000E+00  0.39999999673E+01  0.40000000000E+01  0.51109989000E-03 0. -1.
     -623   -1    0    0    0    0  0.00000000000E+00  0.00000000000E+00  0.12525980253E-10  0.17130000000E+03  0.17130000000E+03 0. -1.
       11    1    1    2    0    0  0.42984119448E-01  0.66700917263E-01  0.38322547749E-01  0.88122220680E-01  0.51109989000E-03 0. -1.
     -623    1    1    2    0    0  0.48438350849E-01  0.12765159287E+00  0.35566264340E+00  0.17130042363E+03  0.17130000000E+03 0. -1.
      622    1    1    2    0    0 -0.91422470297E-01 -0.19435251013E+00  0.36060147762E+01  0.39114541455E+01  0.15000000000E+01 0. -1.
</event>
<event>
 5   0  0.6596100E+00  0.9118800E+02  0.7818608E-02  0.1180000E+00
       11   -1    0    0    0    0  0.00000000000E+00  0.00000000000E+00  0.39999999673E+01  0.40000000000E+01  0.51109989000E-03 0. -1.
     -623   -1    0    0    0    0  0.00000000000E+00  0.00000000000E+00  0.12525980253E-10  0.17130000000E+03  0.17130000000E+03 0.  1.
       11    1    1    2    0    0 -0.19547595930E+00  0.10173765026E+00  0.76520521371E+00  0.79630438932E+00  0.51109989000E-03 0. -1.
     -623    1    1    2    0    0  0.86010893407E-01 -0.26711805672E+00  0.41173089124E+00  0.17130072467E+03  0.17130000000E+03 0.  1.
      622    1    1    2    0    0  0.10946506589E+00  0.16538040646E+00  0.28230638624E+01  0.32029709413E+01  0.15000000000E+01 0. -1.
</event>
<event>
 5   0  0.6596100E+00  0.9118800E+02  0.7818608E-02  0.1180000E+00
       11   -1    0    0    0    0  0.00000000000E+00  0.00000000000E+00  0.39999999673E+01  0.40000000000E+01  0.51109989000E-03 0. -1.
     -623   -1    0    0    0    0  0.00000000000E+00  0.00000000000E+00  0.12525980253E-10  0.17130000000E+03  0.17130000000E+03 0. -1.
       11    1    1    2    0    0 -0.66977571980E-01 -0.19169525397E+00  0.36206977577E-01  0.20626262868E+00  0.51109989000E-03 0. -1.
     -623    1    1    2    0    0 -0.46608084363E-01  0.41911823899E+00  0.48980822214E+00  0.17130121933E+03  0.17130000000E+03 0. -1.
      622    1    1    2    0    0  0.11358565634E+00 -0.22742298502E+00  0.34739847676E+01  0.37925180397E+01  0.15000000000E+01 0. -1.
</event>
<event>
 5   0  0.6596100E+00  0.9118800E+02  0.7818608E-02  0.1180000E+00
       11   -1    0    0    0    0  0.00000000000E+00  0.00000000000E+00  0.39999999673E+01  0.40000000000E+01  0.51109989000E-03 0.  1.
     -623   -1    0    0    0    0  0.00000000000E+00  0.00000000000E+00  0.12525980253E-10  0.17130000000E+03  0.17130000000E+03 0. -1.
       11    1    1    2    0    0  0.22204586804E+00  0.52242399100E-01  0.41072408314E+00  0.46981716600E+00  0.51109989000E-03 0.  1.
     -623    1    1    2    0    0  0.43756655134E+00 -0.66814369623E+00  0.52677510776E+00  0.17130267182E+03  0.17130000000E+03 0. -1.
      622    1    1    2    0    0 -0.65961241938E+00  0.61590129713E+00  0.30625007765E+01  0.35275110145E+01  0.15000000000E+01 0.  1.
</event>
<event>
 5   0  0.6596100E+00  0.9118800E+02  0.7818608E-02  0.1180000E+00
       11   -1    0    0    0    0  0.00000000000E+00  0.00000000000E+00  0.39999999673E+01  0.40000000000E+01  0.51109989000E-03 0.  1.
     -623   -1    0    0    0    0  0.00000000000E+00  0.00000000000E+00  0.12525980253E-10  0.17130000000E+03  0.17130000000E+03 0.  1.
       11    1    1    2    0    0 -0.24023404279E+00  0.30356435806E-01  0.30751377886E+00  0.39140630286E+00  0.51109989000E-03 0.  1.
     -623    1    1    2    0    0  0.37461569817E-01 -0.40562147274E+00  0.43941902770E+00  0.17130104793E+03  0.17130000000E+03 0.  1.
      622    1    1    2    0    0  0.20277247297E+00  0.37526503693E+00  0.32530671608E+01  0.36075457691E+01  0.15000000000E+01 0.  1.
</event>
<event>
 5   0  0.6596100E+00  0.9118800E+02  0.7818608E-02  0.1180000E+00
       11   -1    0    0    0    0  0.00000000000E+00  0.00000000000E+00  0.39999999673E+01  0.40000000000E+01  0.51109989000E-03 0. -1.
     -623   -1    0    0    0    0  0.00000000000E+00  0.00000000000E+00  0.12525980253E-10  0.17130000000E+03  0.17130000000E+03 0. -1.
       11    1    1    2    0    0  0.18820364829E-01  0.16987611875E+00  0.14156925311E+00  0.22193290991E+00  0.51109989000E-03 0. -1.
     -623    1    1    2    0    0 -0.31506935236E+00 -0.11794766087E+00  0.40484990274E+00  0.17130080877E+03  0.17130000000E+03 0. -1.
      622    1    1    2    0    0  0.29624898753E+00 -0.51928457878E-01  0.34535808115E+01  0.37772583244E+01  0.15000000000E+01 0. -1.
</event>
<event>
 5   0  0.6596100E+00  0.9118800E+02  0.7818608E-02  0.1180000E+00
       11   -1    0    0    0    0  0.00000000000E+00  0.00000000000E+00  0.39999999673E+01  0.40000000000E+01  0.51109989000E-03 0. -1.
     -623   -1    0    0    0    0  0.00000000000E+00  0.00000000000E+00  0.12525980253E-10  0.17130000000E+03  0.17130000000E+03 0.  1.
       11    1    1    2    0    0  0.33466777065E-01 -0.27715915360E-01 -0.83666051566E-03  0.43464449327E-01  0.51109989000E-03 0. -1.
     -623    1    1    2    0    0 -0.42097121209E+00  0.19343628498E+00  0.36510901081E+00  0.17130101558E+03  0.17130000000E+03 0.  1.
      622    1    1    2    0    0  0.38750443502E+00 -0.16572036962E+00  0.36357276171E+01  0.39555199701E+01  0.15000000000E+01 0. -1.
</event>
<event>
 5   0  0.6596100E+00  0.9118800E+02  0.7818608E-02  0.1180000E+00
       11   -1    0    0    0    0  0.00000000000E+00  0.00000000000E+00  0.39999999673E+01  0.40000000000E+01  0.51109989000E-03 0.  1.
     -623   -1    0    0    0    0  0.00000000000E+00  0.00000000000E+00  0.12525980253E-10  0.17130000000E+03  0.17130000000E+03 0. -1.
       11    1    1    2    0    0  0.13794285210E+00 -0.30076754206E-02  0.13150892892E-01  0.13860188946E+00  0.51109989000E-03 0.  1.
     -623    1    1    2    0    0  0.23143299552E-01  0.14393048399E+00  0.43581722130E+00  0.17130061643E+03  0.17130000000E+03 0. -1.
      622    1    1    2    0    0 -0.16108615165E+00 -0.14092280857E+00  0.35510318532E+01  0.38607816836E+01  0.15000000000E+01 0.  1.
</event>
<event>
 5   0  0.6596100E+00  0.9118800E+02  0.7818608E-02  0.1180000E+00
       11   -1    0    0    0    0  0.00000000000E+00  0.00000000000E+00  0.39999999673E+01  0.40000000000E+01  0.51109989000E-03 0. -1.
     -623   -1    0    0    0    0  0.00000000000E+00  0.00000000000E+00  0.12525980253E-10  0.17130000000E+03  0.17130000000E+03 0. -1.
       11    1    1    2    0    0 -0.22420267777E+00  0.23040169951E+00  0.56526793894E+00  0.65029215578E+00  0.51109989000E-03 0. -1.
     -623    1    1    2    0    0  0.34814901485E+00 -0.29640154769E+00  0.44426756430E+00  0.17130118632E+03  0.17130000000E+03 0. -1.
      622    1    1    2    0    0 -0.12394633708E+00  0.65999848182E-01  0.29904644641E+01  0.33485215223E+01  0.15000000000E+01 0. -1.
</event>
<event>
 5   0  0.6596100E+00  0.9118800E+02  0.7818608E-02  0.1180000E+00
       11   -1    0    0    0    0  0.00000000000E+00  0.00000000000E+00  0.39999999673E+01  0.40000000000E+01  0.51109989000E-03 0.  1.
     -623   -1    0    0    0    0  0.00000000000E+00  0.00000000000E+00  0.12525980253E-10  0.17130000000E+03  0.17130000000E+03 0.  1.
       11    1    1    2    0    0 -0.13565486970E-01 -0.74550642002E-01  0.14013558228E-01  0.77061415098E-01  0.51109989000E-03 0.  1.
     -623    1    1    2    0    0 -0.10485643341E+00 -0.81195356085E-02  0.36448208394E+00  0.17130042005E+03  0.17130000000E+03 0.  1.
      622    1    1    2    0    0  0.11842192038E+00  0.82670177610E-01  0.36215043252E+01  0.39225185388E+01  0.15000000000E+01 0.  1.
</event>
<event>
 5   0  0.6596100E+00  0.9118800E+02  0.7818608E-02  0.1180000E+00
       11   -1    0    0    0    0  0.00000000000E+00  0.00000000000E+00  0.39999999673E+01  0.40000000000E+01  0.51109989000E-03 0.  1.
     -623   -1    0    0    0    0  0.00000000000E+00  0.00000000000E+00  0.12525980253E-10  0.17130000000E+03  0.17130000000E+03 0. -1.
       11    1    1    2    0    0 -0.29342028632E+00 -0.25942685989E+00  0.53238189451E+00  0.66093002874E+00  0.51109989000E-03 0.  1.
     -623    1    1    2    0    0  0.56736580227E-01  0.20131727760E+00  0.49535338623E+00  0.17130084391E+03  0.17130000000E+03 0. -1.
      622    1    1    2    0    0  0.23668370609E+00  0.58109582287E-01  0.29722646866E+01  0.33382260660E+01  0.15000000000E+01 0.  1.
</event>
<event>
 5   0  0.6596100E+00  0.9118800E+02  0.7818608E-02  0.1180000E+00
       11   -1    0    0    0    0  0.00000000000E+00  0.00000000000E+00  0.39999999673E+01  0.40000000000E+01  0.51109989000E-03 0.  1.
     -623   -1    0    0    0    0  0.00000000000E+00  0.00000000000E+00  0.12525980253E-10  0.17130000000E+03  0.17130000000E+03 0. -1.
       11    1    1    2    0    0 -0.10663158323E+00 -0.12618606267E+00  0.93598662314E-01  0.18987940322E+00  0.51109989000E-03 0.  1.
     -623    1    1    2    0    0  0.19040829567E+00  0.14899585975E-01  0.40738525025E+00  0.17130059089E+03  0.17130000000E+03 0. -1.
      622    1    1    2    0    0 -0.83776712442E-01  0.11128647670E+00  0.34990160548E+01  0.38095297045E+01  0.15000000000E+01 0.  1.
</event>
<event>
 5   0  0.6596100E+00  0.9118800E+02  0.7818608E-02  0.1180000E+00
       11   -1    0    0    0    0  0.00000000000E+00  0.00000000000E+00  0.39999999673E+01  0.40000000000E+01  0.51109989000E-03 0.  1.
     -623   -1    0    0    0    0  0.00000000000E+00  0.00000000000E+00  0.12525980253E-10  0.17130000000E+03  0.17130000000E+03 0. -1.
       11    1    1    2    0    0  0.19156318131E+00  0.16258975090E-01  0.18276026863E+00  0.26525908790E+00  0.51109989000E-03 0.  1.
     -623    1    1    2    0    0 -0.11808199476E+00  0.19335597254E+00  0.40487113605E+00  0.17130062828E+03  0.17130000000E+03 0. -1.
      622    1    1    2    0    0 -0.73481186541E-01 -0.20961494763E+00  0.34123685627E+01  0.37341126280E+01  0.15000000000E+01 0.  1.
</event>
<event>
 5   0  0.6596100E+00  0.9118800E+02  0.7818608E-02  0.1180000E+00
       11   -1    0    0    0    0  0.00000000000E+00  0.00000000000E+00  0.39999999673E+01  0.40000000000E+01  0.51109989000E-03 0.  1.
     -623   -1    0    0    0    0  0.00000000000E+00  0.00000000000E+00  0.12525980253E-10  0.17130000000E+03  0.17130000000E+03 0.  1.
       11    1    1    2    0    0 -0.52452197356E-01 -0.84871195038E-01  0.12754694595E+00  0.16193467015E+00  0.51109989000E-03 0.  1.
     -623    1    1    2    0    0 -0.67871719249E-01  0.15188387279E+00  0.34278954116E+00  0.17130042376E+03  0.17130000000E+03 0.  1.
      622    1    1    2    0    0  0.12032391660E+00 -0.67012677752E-01  0.35296634803E+01  0.38376415710E+01  0.15000000000E+01 0.  1.
</event>
<event>
 5   0  0.6596100E+00  0.9118800E+02  0.7818608E-02  0.1180000E+00
       11   -1    0    0    0    0  0.00000000000E+00  0.00000000000E+00  0.39999999673E+01  0.40000000000E+01  0.51109989000E-03 0.  1.
     -623   -1    0    0    0    0  0.00000000000E+00  0.00000000000E+00  0.12525980253E-10  0.17130000000E+03  0.17130000000E+03 0. -1.
       11    1    1    2    0    0 -0.12805983335E+00 -0.57224102415E-01  0.87346622327E-01  0.16523804788E+00  0.51109989000E-03 0.  1.
     -623    1    1    2    0    0  0.30854216202E+00  0.18170613036E+00  0.39114300449E+00  0.17130082080E+03  0.17130000000E+03 0. -1.
      622    1    1    2    0    0 -0.18048232867E+00 -0.12448202795E+00  0.35215103405E+01  0.38339411478E+01  0.15000000000E+01 0.  1.
</event>
<event>
 5   0  0.6596100E+00  0.9118800E+02  0.7818608E-02  0.1180000E+00
       11   -1    0    0    0    0  0.00000000000E+00  0.00000000000E+00  0.39999999673E+01  0.40000000000E+01  0.51109989000E-03 0.  1.
     -623   -1    0    0    0    0  0.00000000000E+00  0.00000000000E+00  0.12525980253E-10  0.17130000000E+03  0.17130000000E+03 0. -1.
       11    1    1    2    0    0  0.18482822325E+00 -0.61901813595E-01  0.41117582901E+00  0.45503750419E+00  0.51109989000E-03 0.  1.
     -623    1    1    2    0    0 -0.13231896133E+00 -0.24901983830E-01  0.37897681583E+00  0.17130047213E+03  0.17130000000E+03 0. -1.
      622    1    1    2    0    0 -0.52509261915E-01  0.86803797425E-01  0.32098473225E+01  0.35444903662E+01  0.15000000000E+01 0.  1.
</event>
<event>
 5   0  0.6596100E+00  0.9118800E+02  0.7818608E-02  0.1180000E+00
       11   -1    0    0    0    0  0.00000000000E+00  0.00000000000E+00  0.39999999673E+01  0.40000000000E+01  0.51109989000E-03 0. -1.
     -623   -1    0    0    0    0  0.00000000000E+00  0.00000000000E+00  0.12525980253E-10  0.17130000000E+03  0.17130000000E+03 0.  1.
       11    1    1    2    0    0 -0.93821517355E-01  0.18529413268E+00  0.23474536991E+00  0.31343586687E+00  0.51109989000E-03 0. -1.
     -623    1    1    2    0    0  0.10193510658E+00 -0.28488742258E+00  0.39993761215E+00  0.17130073410E+03  0.17130000000E+03 0.  1.
      622    1    1    2    0    0 -0.81135892279E-02  0.99593289902E-01  0.33653169853E+01  0.36858300375E+01  0.15000000000E+01 0. -1.
</event>
<event>
 5   0  0.6596100E+00  0.9118800E+02  0.7818608E-02  0.1180000E+00
       11   -1    0    0    0    0  0.00000000000E+00  0.00000000000E+00  0.39999999673E+01  0.40000000000E+01  0.51109989000E-03 0. -1.
     -623   -1    0    0    0    0  0.00000000000E+00  0.00000000000E+00  0.12525980253E-10  0.17130000000E+03  0.17130000000E+03 0. -1.
       11    1    1    2    0    0 -0.11795005058E+00  0.39145248348E+00  0.80688774898E+00  0.90455257555E+00  0.51109989000E-03 0. -1.
     -623    1    1    2    0    0 -0.13053244453E+00 -0.24845944894E+00  0.50171236819E+00  0.17130096464E+03  0.17130000000E+03 0. -1.
      622    1    1    2    0    0  0.24848249511E+00 -0.14299303454E+00  0.26913998502E+01  0.30944827858E+01  0.15000000000E+01 0. -1.
</event>
<event>
 5   0  0.6596100E+00  0.9118800E+02  0.7818608E-02  0.1180000E+00
       11   -1    0    0    0    0  0.00000000000E+00  0.00000000000E+00  0.39999999673E+01  0.40000000000E+01  0.51109989000E-03 0. -1.
     -623   -1    0    0    0    0  0.00000000000E+00  0.00000000000E+00  0.12525980253E-10  0.17130000000E+03  0.17130000000E+03 0.  1.
       11    1    1    2    0    0  0.19479516220E+00  0.98028140060E-01  0.17939387751E-01  0.21880757372E+00  0.51109989000E-03 0. -1.
     -623    1    1    2    0    0 -0.18748873357E+00 -0.23134432816E-01  0.51288773490E+00  0.17130087198E+03  0.17130000000E+03 0.  1.
      622    1    1    2    0    0 -0.73064286345E-02 -0.74893707244E-01  0.34691728447E+01  0.37803204464E+01  0.15000000000E+01 0. -1.
</event>
<event>
 5   0  0.6596100E+00  0.9118800E+02  0.7818608E-02  0.1180000E+00
       11   -1    0    0    0    0  0.00000000000E+00  0.00000000000E+00  0.39999999673E+01  0.40000000000E+01  0.51109989000E-03 0. -1.
     -623   -1    0    0    0    0  0.00000000000E+00  0.00000000000E+00  0.12525980253E-10  0.17130000000E+03  0.17130000000E+03 0. -1.
       11    1    1    2    0    0  0.28372676606E-01  0.13076015376E+00  0.27002168832E+00  0.30135560385E+00  0.51109989000E-03 0. -1.
     -623    1    1    2    0    0  0.25250146995E+00 -0.15139574683E+00  0.36160182675E+00  0.17130063466E+03  0.17130000000E+03 0. -1.
      622    1    1    2    0    0 -0.28087414655E+00  0.20635593066E-01  0.33683764523E+01  0.36980097402E+01  0.15000000000E+01 0. -1.
</event>
<event>
 5   0  0.6596100E+00  0.9118800E+02  0.7818608E-02  0.1180000E+00
       11   -1    0    0    0    0  0.00000000000E+00  0.00000000000E+00  0.39999999673E+01  0.40000000000E+01  0.51109989000E-03 0.  1.
     -623   -1    0    0    0    0  0.00000000000E+00  0.00000000000E+00  0.12525980253E-10  0.17130000000E+03  0.17130000000E+03 0. -1.
       11    1    1    2    0    0  0.29122913870E+00  0.44997825140E-01  0.26190871841E+00  0.39425328597E+00  0.51109989000E-03 0.  1.
     -623    1    1    2    0    0 -0.18726822878E+00  0.20284359516E+00  0.47115077849E+00  0.17130087039E+03  0.17130000000E+03 0. -1.
      622    1    1    2    0    0 -0.10396090992E+00 -0.24784142031E+00  0.32669404705E+01  0.36048763194E+01  0.15000000000E+01 0.  1.
</event>
<event>
 5   0  0.6596100E+00  0.9118800E+02  0.7818608E-02  0.1180000E+00
       11   -1    0    0    0    0  0.00000000000E+00  0.00000000000E+00  0.39999999673E+01  0.40000000000E+01  0.51109989000E-03 0. -1.
     -623   -1    0    0    0    0  0.00000000000E+00  0.00000000000E+00  0.12525980253E-10  0.17130000000E+03  0.17130000000E+03 0. -1.
       11    1    1    2    0    0  0.21843272265E-01  0.59574284595E-01 -0.24074103390E-01  0.67867868726E-01  0.51109989000E-03 0. -1.
     -623    1    1    2    0    0  0.42782188557E-01 -0.12942467213E+00  0.39107660310E+00  0.17130050065E+03  0.17130000000E+03 0. -1.
      622    1    1    2    0    0 -0.64625460822E-01  0.69850387538E-01  0.36329974677E+01  0.39316314841E+01  0.15000000000E+01 0. -1.
</event>
<event>
 5   0  0.6596100E+00  0.9118800E+02  0.7818608E-02  0.1180000E+00
       11   -1    0    0    0    0  0.00000000000E+00  0.00000000000E+00  0.39999999673E+01  0.40000000000E+01  0.51109989000E-03 0. -1.
     -623   -1    0    0    0    0  0.00000000000E+00  0.00000000000E+00  0.12525980253E-10  0.17130000000E+03  0.17130000000E+03 0. -1.
       11    1    1    2    0    0 -0.38879969339E-01  0.12662022588E+00 -0.24039512891E-01  0.13461980917E+00  0.51109989000E-03 0. -1.
     -623    1    1    2    0    0  0.23117552816E+00 -0.28395310520E+00  0.47137925340E+00  0.17130103990E+03  0.17130000000E+03 0. -1.
      622    1    1    2    0    0 -0.19229555882E+00  0.15733287933E+00  0.35526602269E+01  0.38643402935E+01  0.15000000000E+01 0. -1.
</event>
<event>
 5   0  0.6596100E+00  0.9118800E+02  0.7818608E-02  0.1180000E+00
       11   -1    0    0    0    0  0.00000000000E+00  0.00000000000E+00  0.39999999673E+01  0.40000000000E+01  0.51109989000E-03 0. -1.
     -623   -1    0    0    0    0  0.00000000000E+00  0.00000000000E+00  0.12525980253E-10  0.17130000000E+03  0.17130000000E+03 0. -1.
       11    1    1    2    0    0  0.94712386749E-01  0.19531469852E+00  0.17816030654E+00  0.28081955721E+00  0.51109989000E-03 0. -1.
     -623    1    1    2    0    0 -0.21413641149E+00 -0.18151846205E-01  0.42600221419E+00  0.17130066451E+03  0.17130000000E+03 0. -1.
      622    1    1    2    0    0  0.11942402474E+00 -0.17716285231E+00  0.33958374466E+01  0.37185159322E+01  0.15000000000E+01 0. -1.
</event>
<event>
 5   0  0.6596100E+00  0.9118800E+02  0.7818608E-02  0.1180000E+00
       11   -1    0    0    0    0  0.00000000000E+00  0.00000000000E+00  0.39999999673E+01  0.40000000000E+01  0.51109989000E-03 0. -1.
     -623   -1    0    0    0    0  0.00000000000E+00  0.00000000000E+00  0.12525980253E-10  0.17130000000E+03  0.17130000000E+03 0.  1.
       11    1    1    2    0    0  0.31969112965E+00  0.11811076820E-01  0.37796553784E+00  0.49517686631E+00  0.51109989000E-03 0. -1.
     -623    1    1    2    0    0 -0.29040932244E+00 -0.40503520886E-01  0.45563290912E+00  0.17130085691E+03  0.17130000000E+03 0.  1.
      622    1    1    2    0    0 -0.29281807210E-01  0.28692444066E-01  0.31664015204E+01  0.35039662197E+01  0.15000000000E+01 0. -1.
</event>
<event>
 5   0  0.6596100E+00  0.9118800E+02  0.7818608E-02  0.1180000E+00
       11   -1    0    0    0    0  0.00000000000E+00  0.00000000000E+00  0.39999999673E+01  0.40000000000E+01  0.51109989000E-03 0. -1.
     -623   -1    0    0    0    0  0.00000000000E+00  0.00000000000E+00  0.12525980253E-10  0.17130000000E+03  0.17130000000E+03 0. -1.
       11    1    1    2    0    0  0.13669019097E+00 -0.25536502657E-01  0.92908634077E-01  0.16723814393E+00  0.51109989000E-03 0. -1.
     -623    1    1    2    0    0 -0.10719442614E+00 -0.37725060609E+00  0.40425548791E+00  0.17130092595E+03  0.17130000000E+03 0. -1.
      622    1    1    2    0    0 -0.29495764827E-01  0.40278710875E+00  0.35028358454E+01  0.38318359066E+01  0.15000000000E+01 0. -1.
</event>
<event>
 5   0  0.6596100E+00  0.9118800E+02  0.7818608E-02  0.1180000E+00
       11   -1    0    0    0    0  0.00000000000E+00  0.00000000000E+00  0.39999999673E+01  0.40000000000E+01  0.51109989000E-03 0.  1.
     -623   -1    0    0    0    0  0.00000000000E+00  0.00000000000E+00  0.12525980253E-10  0.17130000000E+03  0.17130000000E+03 0. -1.
       11    1    1    2    0    0 -0.18583967398E+00  0.14568517219E+00  0.89681586523E+00  0.92738315230E+00  0.51109989000E-03 0.  1.
     -623    1    1    2    0    0  0.10824509174E+00 -0.23387977214E+00  0.42498608349E+00  0.17130072104E+03  0.17130000000E+03 0. -1.
      622    1    1    2    0    0  0.77594582247E-01  0.88194599948E-01  0.26781980186E+01  0.30718958045E+01  0.15000000000E+01 0.  1.
</event>
<event>
 5   0  0.6596100E+00  0.9118800E+02  0.7818608E-02  0.1180000E+00
       11   -1    0    0    0    0  0.00000000000E+00  0.00000000000E+00  0.39999999673E+01  0.40000000000E+01  0.51109989000E-03 0.  1.
     -623   -1    0    0    0    0  0.00000000000E+00  0.00000000000E+00  0.12525980253E-10  0.17130000000E+03  0.17130000000E+03 0.  1.
       11    1    1    2    0    0 -0.13675151475E+00 -0.32849319876E-01  0.13654748937E+00  0.19602431655E+00  0.51109989000E-03 0.  1.
     -623    1    1    2    0    0  0.33326088651E+00  0.32029373214E-02  0.37416009352E+00  0.17130073283E+03  0.17130000000E+03 0.  1.
      622    1    1    2    0    0 -0.19650937176E+00  0.29646382555E-01  0.34892923845E+01  0.38032428512E+01  0.15000000000E+01 0.  1.
</event>
<event>
 5   0  0.6596100E+00  0.9118800E+02  0.7818608E-02  0.1180000E+00
       11   -1    0    0    0    0  0.00000000000E+00  0.00000000000E+00  0.39999999673E+01  0.40000000000E+01  0.51109989000E-03 0. -1.
     -623   -1    0    0    0    0  0.00000000000E+00  0.00000000000E+00  0.12525980253E-10  0.17130000000E+03  0.17130000000E+03 0. -1.
       11    1    1    2    0    0 -0.22338199891E-01 -0.25154270215E+00  0.60536460812E+00  0.65592628867E+00  0.51109989000E-03 0. -1.
     -623    1    1    2    0    0  0.31949918144E+00  0.39929389255E+00  0.42578858289E+00  0.17130129250E+03  0.17130000000E+03 0. -1.
      622    1    1    2    0    0 -0.29716098155E+00 -0.14775119040E+00  0.29688467763E+01  0.33427812140E+01  0.15000000000E+01 0. -1.
</event>
<event>
 5   0  0.6596100E+00  0.9118800E+02  0.7818608E-02  0.1180000E+00
       11   -1    0    0    0    0  0.00000000000E+00  0.00000000000E+00  0.39999999673E+01  0.40000000000E+01  0.51109989000E-03 0.  1.
     -623   -1    0    0    0    0  0.00000000000E+00  0.00000000000E+00  0.12525980253E-10  0.17130000000E+03  0.17130000000E+03 0. -1.
       11    1    1    2    0    0 -0.14842799743E-02 -0.10345833295E-01 -0.91918997189E-02  0.13928086629E-01  0.51109989000E-03 0.  1.
     -623    1    1    2    0    0 -0.41294850131E-01 -0.31474981906E+00  0.33137290307E+00  0.17130061465E+03  0.17130000000E+03 0. -1.
      622    1    1    2    0    0  0.42779130105E-01  0.32509565235E+00  0.36778189640E+01  0.39854572597E+01  0.15000000000E+01 0.  1.
</event>
<event>
 5   0  0.6596100E+00  0.9118800E+02  0.7818608E-02  0.1180000E+00
       11   -1    0    0    0    0  0.00000000000E+00  0.00000000000E+00  0.39999999673E+01  0.40000000000E+01  0.51109989000E-03 0. -1.
     -623   -1    0    0    0    0  0.00000000000E+00  0.00000000000E+00  0.12525980253E-10  0.17130000000E+03  0.17130000000E+03 0. -1.
       11    1    1    2    0    0  0.76535765083E-02  0.14932978172E-01  0.40478104335E-02  0.17268962378E-01  0.51109989000E-03 0. -1.
     -623    1    1    2    0    0  0.30842681195E-01 -0.16248960795E+00  0.31003015800E+00  0.17130036040E+03  0.17130000000E+03 0. -1.
      622    1    1    2    0    0 -0.38496257703E-01  0.14755662978E+00  0.36859219989E+01  0.39823706386E+01  0.15000000000E+01 0. -1.
</event>
<event>
 5   0  0.6596100E+00  0.9118800E+02  0.7818608E-02  0.1180000E+00
       11   -1    0    0    0    0  0.00000000000E+00  0.00000000000E+00  0.39999999673E+01  0.40000000000E+01  0.51109989000E-03 0. -1.
     -623   -1    0    0    0    0  0.00000000000E+00  0.00000000000E+00  0.12525980253E-10  0.17130000000E+03  0.17130000000E+03 0.  1.
       11    1    1    2    0    0  0.18576931609E+00 -0.26013876739E+00  0.91376549444E+00  0.96806510998E+00  0.51109989000E-03 0. -1.
     -623    1    1    2    0    0 -0.35061201689E+00  0.17508693730E+00  0.45911166472E+00  0.17130106353E+03  0.17130000000E+03 0.  1.
      622    1    1    2    0    0  0.16484270080E+00  0.85051830089E-01  0.26271228082E+01  0.30308713564E+01  0.15000000000E+01 0. -1.
</event>
<event>
 5   0  0.6596100E+00  0.9118800E+02  0.7818608E-02  0.1180000E+00
       11   -1    0    0    0    0  0.00000000000E+00  0.00000000000E+00  0.39999999673E+01  0.40000000000E+01  0.51109989000E-03 0. -1.
     -623   -1    0    0    0    0  0.00000000000E+00  0.00000000000E+00  0.12525980253E-10  0.17130000000E+03  0.17130000000E+03 0.  1.
       11    1    1    2    0    0  0.51350129447E-01 -0.92054652665E-01  0.46473705792E-02  0.10551186733E+00  0.51109989000E-03 0. -1.
     -623    1    1    2    0    0 -0.89574188820E-01  0.10578647848E+00  0.40212629385E+00  0.17130052808E+03  0.17130000000E+03 0.  1.
      622    1    1    2    0    0  0.38224059372E-01 -0.13731825817E-01  0.35932263029E+01  0.38939600545E+01  0.15000000000E+01 0. -1.
</event>
<event>
 5   0  0.6596100E+00  0.9118800E+02  0.7818608E-02  0.1180000E+00
       11   -1    0    0    0    0  0.00000000000E+00  0.00000000000E+00  0.39999999673E+01  0.40000000000E+01  0.51109989000E-03 0. -1.
     -623   -1    0    0    0    0  0.00000000000E+00  0.00000000000E+00  0.12525980253E-10  0.17130000000E+03  0.17130000000E+03 0.  1.
       11    1    1    2    0    0 -0.65741210433E-01 -0.17077660154E+00  0.31791798148E+00  0.36682238011E+00  0.51109989000E-03 0. -1.
     -623    1    1    2    0    0 -0.97332790416E-01  0.30296945563E+00  0.38046204844E+00  0.17130071808E+03  0.17130000000E+03 0.  1.
      622    1    1    2    0    0  0.16307400085E+00 -0.13219285409E+00  0.33016199374E+01  0.36324595375E+01  0.15000000000E+01 0. -1.
</event>
<event>
 5   0  0.6596100E+00  0.9118800E+02  0.7818608E-02  0.1180000E+00
       11   -1    0    0    0    0  0.00000000000E+00  0.00000000000E+00  0.39999999673E+01  0.40000000000E+01  0.51109989000E-03 0. -1.
     -623   -1    0    0    0    0  0.00000000000E+00  0.00000000000E+00  0.12525980253E-10  0.17130000000E+03  0.17130000000E+03 0. -1.
       11    1    1    2    0    0  0.19751807101E-01 -0.73147542092E-01  0.53371823165E-01  0.92679606867E-01  0.51109989000E-03 0. -1.
     -623    1    1    2    0    0 -0.97952912001E-01 -0.41565442244E+00  0.37384727042E+00  0.17130094023E+03  0.17130000000E+03 0. -1.
      622    1    1    2    0    0  0.78201104900E-01  0.48880196453E+00  0.35727808738E+01  0.39063801588E+01  0.15000000000E+01 0. -1.
</event>
<event>
 5   0  0.6596100E+00  0.9118800E+02  0.7818608E-02  0.1180000E+00
       11   -1    0    0    0    0  0.00000000000E+00  0.00000000000E+00  0.39999999673E+01  0.40000000000E+01  0.51109989000E-03 0.  1.
     -623   -1    0    0    0    0  0.00000000000E+00  0.00000000000E+00  0.12525980253E-10  0.17130000000E+03  0.17130000000E+03 0. -1.
       11    1    1    2    0    0  0.34643855124E-01  0.13144273967E-01 -0.20841072302E-02  0.37115675421E-01  0.51109989000E-03 0.  1.
     -623    1    1    2    0    0  0.12169847365E+00  0.27052521712E-01  0.33801654635E+00  0.17130037886E+03  0.17130000000E+03 0. -1.
      622    1    1    2    0    0 -0.15634232877E+00 -0.40196795678E-01  0.36640675282E+01  0.39625054647E+01  0.15000000000E+01 0.  1.
</event>
<event>
 5   0  0.6596100E+00  0.9118800E+02  0.7818608E-02  0.1180000E+00
       11   -1    0    0    0    0  0.00000000000E+00  0.00000000000E+00  0.39999999673E+01  0.40000000000E+01  0.51109989000E-03 0. -1.
     -623   -1    0    0    0    0  0.00000000000E+00  0.00000000000E+00  0.12525980253E-10  0.17130000000E+03  0.17130000000E+03 0.  1.
       11    1    1    2    0    0 -0.68383131288E-03  0.91835639008E-01  0.19015238805E-02  0.91859290403E-01  0.51109989000E-03 0. -1.
     -623    1    1    2    0    0  0.13115495512E+00  0.25673151395E+00  0.40932094190E+00  0.17130073163E+03  0.17130000000E+03 0.  1.
      622    1    1    2    0    0 -0.13047112380E+00 -0.34856715296E+00  0.35887775016E+01  0.39074090815E+01  0.15000000000E+01 0. -1.
</event>
<event>
 5   0  0.6596100E+00  0.9118800E+02  0.7818608E-02  0.1180000E+00
       11   -1    0    0    0    0  0.00000000000E+00  0.00000000000E+00  0.39999999673E+01  0.40000000000E+01  0.51109989000E-03 0. -1.
     -623   -1    0    0    0    0  0.00000000000E+00  0.00000000000E+00  0.12525980253E-10  0.17130000000E+03  0.17130000000E+03 0.  1.
       11    1    1    2    0    0 -0.44846935881E-01  0.97928410238E-01  0.34075374469E-01  0.11297173787E+00  0.51109989000E-03 0. -1.
     -623    1    1    2    0    0  0.52661526000E-01 -0.16682233407E+00  0.38120847957E+00  0.17130051349E+03  0.17130000000E+03 0.  1.
      622    1    1    2    0    0 -0.78145901192E-02  0.68893923832E-01  0.35847161133E+01  0.38865147695E+01  0.15000000000E+01 0. -1.
</event>
<event>
 5   0  0.6596100E+00  0.9118800E+02  0.7818608E-02  0.1180000E+00
       11   -1    0    0    0    0  0.00000000000E+00  0.00000000000E+00  0.39999999673E+01  0.40000000000E+01  0.51109989000E-03 0.  1.
     -623   -1    0    0    0    0  0.00000000000E+00  0.00000000000E+00  0.12525980253E-10  0.17130000000E+03  0.17130000000E+03 0.  1.
       11    1    1    2    0    0  0.17141856661E-01 -0.96409817312E-02 -0.33350054265E-01  0.38720525838E-01  0.51109989000E-03 0.  1.
     -623    1    1    2    0    0 -0.89535062917E-01 -0.18626039354E-01  0.36833095484E+00  0.17130042041E+03  0.17130000000E+03 0.  1.
      622    1    1    2    0    0  0.72393206256E-01  0.28267021085E-01  0.36650190668E+01  0.39608590685E+01  0.15000000000E+01 0.  1.
</event>
<event>
 5   0  0.6596100E+00  0.9118800E+02  0.7818608E-02  0.1180000E+00
       11   -1    0    0    0    0  0.00000000000E+00  0.00000000000E+00  0.39999999673E+01  0.40000000000E+01  0.51109989000E-03 0. -1.
     -623   -1    0    0    0    0  0.00000000000E+00  0.00000000000E+00  0.12525980253E-10  0.17130000000E+03  0.17130000000E+03 0.  1.
       11    1    1    2    0    0 -0.29994049327E+00  0.74775799743E-02  0.14054360420E+00  0.33132005616E+00  0.51109989000E-03 0. -1.
     -623    1    1    2    0    0  0.27876608168E+00 -0.23551851552E+00  0.52057830297E+00  0.17130117974E+03  0.17130000000E+03 0.  1.
      622    1    1    2    0    0  0.21174411593E-01  0.22804093555E+00  0.33388780602E+01  0.36675002011E+01  0.15000000000E+01 0. -1.
</event>
<event>
 5   0  0.6596100E+00  0.9118800E+02  0.7818608E-02  0.1180000E+00
       11   -1    0    0    0    0  0.00000000000E+00  0.00000000000E+00  0.39999999673E+01  0.40000000000E+01  0.51109989000E-03 0.  1.
     -623   -1    0    0    0    0  0.00000000000E+00  0.00000000000E+00  0.12525980253E-10  0.17130000000E+03  0.17130000000E+03 0. -1.
       11    1    1    2    0    0 -0.22161290479E-01 -0.12282569004E+00 -0.90346890287E-02  0.12513656444E+00  0.51109989000E-03 0.  1.
     -623    1    1    2    0    0 -0.89655760600E-01 -0.36938747020E-02  0.44091511218E+00  0.17130059094E+03  0.17130000000E+03 0. -1.
      622    1    1    2    0    0  0.11181705108E+00  0.12651956475E+00  0.35681195442E+01  0.38742724911E+01  0.15000000000E+01 0.  1.
</event>
<event>
 5   0  0.6596100E+00  0.9118800E+02  0.7818608E-02  0.1180000E+00
       11   -1    0    0    0    0  0.00000000000E+00  0.00000000000E+00  0.39999999673E+01  0.40000000000E+01  0.51109989000E-03 0. -1.
     -623   -1    0    0    0    0  0.00000000000E+00  0.00000000000E+00  0.12525980253E-10  0.17130000000E+03  0.17130000000E+03 0. -1.
       11    1    1    2    0    0 -0.65634256360E-01  0.12512564278E+00  0.34997183024E+00  0.37741863397E+00  0.51109989000E-03 0. -1.
     -623    1    1    2    0    0  0.13142367328E-01 -0.20238008491E+00  0.35444841723E+00  0.17130048676E+03  0.17130000000E+03 0. -1.
      622    1    1    2    0    0  0.52491889032E-01  0.77254442126E-01  0.32955797199E+01  0.36220946064E+01  0.15000000000E+01 0. -1.
</event>
<event>
 5   0  0.6596100E+00  0.9118800E+02  0.7818608E-02  0.1180000E+00
       11   -1    0    0    0    0  0.00000000000E+00  0.00000000000E+00  0.39999999673E+01  0.40000000000E+01  0.51109989000E-03 0. -1.
     -623   -1    0    0    0    0  0.00000000000E+00  0.00000000000E+00  0.12525980253E-10  0.17130000000E+03  0.17130000000E+03 0.  1.
       11    1    1    2    0    0  0.25090319192E+00  0.14255956539E+00  0.76398357748E+00  0.81666811452E+00  0.51109989000E-03 0. -1.
     -623    1    1    2    0    0 -0.71592403378E+00  0.32901834667E-02  0.47333626758E+00  0.17130215003E+03  0.17130000000E+03 0.  1.
      622    1    1    2    0    0  0.46502084186E+00 -0.14584974886E+00  0.27626801223E+01  0.31811818544E+01  0.15000000000E+01 0. -1.
</event>
<event>
 5   0  0.6596100E+00  0.9118800E+02  0.7818608E-02  0.1180000E+00
       11   -1    0    0    0    0  0.00000000000E+00  0.00000000000E+00  0.39999999673E+01  0.40000000000E+01  0.51109989000E-03 0. -1.
     -623   -1    0    0    0    0  0.00000000000E+00  0.00000000000E+00  0.12525980253E-10  0.17130000000E+03  0.17130000000E+03 0.  1.
       11    1    1    2    0    0 -0.13642966618E+00 -0.95081080980E-01  0.49065100034E-01  0.17338140338E+00  0.51109989000E-03 0. -1.
     -623    1    1    2    0    0 -0.13329702741E+00  0.29842978031E+00  0.44778743908E+00  0.17130089708E+03  0.17130000000E+03 0.  1.
      622    1    1    2    0    0  0.26972669358E+00 -0.20334869933E+00  0.35031474282E+01  0.38257215119E+01  0.15000000000E+01 0. -1.
</event>
<event>
 5   0  0.6596100E+00  0.9118800E+02  0.7818608E-02  0.1180000E+00
       11   -1    0    0    0    0  0.00000000000E+00  0.00000000000E+00  0.39999999673E+01  0.40000000000E+01  0.51109989000E-03 0.  1.
     -623   -1    0    0    0    0  0.00000000000E+00  0.00000000000E+00  0.12525980253E-10  0.17130000000E+03  0.17130000000E+03 0. -1.
       11    1    1    2    0    0  0.14155786069E+00 -0.11666693620E-01 -0.56054792798E-01  0.15269951107E+00  0.51109989000E-03 0.  1.
     -623    1    1    2    0    0  0.38203199159E-01  0.22615495619E+00  0.52532918281E+00  0.17130095906E+03  0.17130000000E+03 0. -1.
      622    1    1    2    0    0 -0.17976105984E+00 -0.21448826257E+00  0.35307255773E+01  0.38463414248E+01  0.15000000000E+01 0.  1.
</event>
<event>
 5   0  0.6596100E+00  0.9118800E+02  0.7818608E-02  0.1180000E+00
       11   -1    0    0    0    0  0.00000000000E+00  0.00000000000E+00  0.39999999673E+01  0.40000000000E+01  0.51109989000E-03 0.  1.
     -623   -1    0    0    0    0  0.00000000000E+00  0.00000000000E+00  0.12525980253E-10  0.17130000000E+03  0.17130000000E+03 0. -1.
       11    1    1    2    0    0  0.83641213494E-01 -0.64839853505E-01 -0.80876217716E-01  0.13319640766E+00  0.51109989000E-03 0.  1.
     -623    1    1    2    0    0 -0.22215456129E+00 -0.21268388459E+00  0.53158725976E+00  0.17130110091E+03  0.17130000000E+03 0. -1.
      622    1    1    2    0    0  0.13851334780E+00  0.27752373809E+00  0.35492889253E+01  0.38657026849E+01  0.15000000000E+01 0.  1.
</event>
<event>
 5   0  0.6596100E+00  0.9118800E+02  0.7818608E-02  0.1180000E+00
       11   -1    0    0    0    0  0.00000000000E+00  0.00000000000E+00  0.39999999673E+01  0.40000000000E+01  0.51109989000E-03 0. -1.
     -623   -1    0    0    0    0  0.00000000000E+00  0.00000000000E+00  0.12525980253E-10  0.17130000000E+03  0.17130000000E+03 0. -1.
       11    1    1    2    0    0  0.39840294762E-01  0.75428572986E-01  0.12918908921E-01  0.86277912235E-01  0.51109989000E-03 0. -1.
     -623    1    1    2    0    0 -0.15244246403E+00  0.25079488438E-01  0.37589480545E+00  0.17130048209E+03  0.17130000000E+03 0. -1.
      622    1    1    2    0    0  0.11260216927E+00 -0.10050806142E+00  0.36111862530E+01  0.39132399968E+01  0.15000000000E+01 0. -1.
</event>
<event>
 5   0  0.6596100E+00  0.9118800E+02  0.7818608E-02  0.1180000E+00
       11   -1    0    0    0    0  0.00000000000E+00  0.00000000000E+00  0.39999999673E+01  0.40000000000E+01  0.51109989000E-03 0. -1.
     -623   -1    0    0    0    0  0.00000000000E+00  0.00000000000E+00  0.12525980253E-10  0.17130000000E+03  0.17130000000E+03 0. -1.
       11    1    1    2    0    0 -0.26297724071E+00  0.69581966507E-01  0.28100050543E+00  0.39110129695E+00  0.51109989000E-03 0. -1.
     -623    1    1    2    0    0  0.49008081564E+00  0.30609358001E+00  0.46787680609E+00  0.17130161348E+03  0.17130000000E+03 0. -1.
      622    1    1    2    0    0 -0.22710357493E+00 -0.37567554652E+00  0.32511226558E+01  0.36072852221E+01  0.15000000000E+01 0.  1.
</event>
<event>
 5   0  0.6596100E+00  0.9118800E+02  0.7818608E-02  0.1180000E+00
       11   -1    0    0    0    0  0.00000000000E+00  0.00000000000E+00  0.39999999673E+01  0.40000000000E+01  0.51109989000E-03 0. -1.
     -623   -1    0    0    0    0  0.00000000000E+00  0.00000000000E+00  0.12525980253E-10  0.17130000000E+03  0.17130000000E+03 0.  1.
       11    1    1    2    0    0  0.16549075543E+00  0.66801431045E-01  0.79610545577E+00  0.81586382397E+00  0.51109989000E-03 0. -1.
     -623    1    1    2    0    0 -0.30351482221E+00 -0.18098661424E+00  0.40187528830E+00  0.17130083590E+03  0.17130000000E+03 0.  1.
      622    1    1    2    0    0  0.13802406678E+00  0.11418518319E+00  0.28020192233E+01  0.31833002728E+01  0.15000000000E+01 0. -1.
</event>
<event>
 5   0  0.6596100E+00  0.9118800E+02  0.7818608E-02  0.1180000E+00
       11   -1    0    0    0    0  0.00000000000E+00  0.00000000000E+00  0.39999999673E+01  0.40000000000E+01  0.51109989000E-03 0.  1.
     -623   -1    0    0    0    0  0.00000000000E+00  0.00000000000E+00  0.12525980253E-10  0.17130000000E+03  0.17130000000E+03 0. -1.
       11    1    1    2    0    0  0.29964698927E-01 -0.69468593449E-02 -0.86734664498E-02  0.31962982960E-01  0.51109989000E-03 0.  1.
     -623    1    1    2    0    0 -0.11605967706E+00  0.21793640281E+00  0.34271432812E+00  0.17130052078E+03  0.17130000000E+03 0. -1.
      622    1    1    2    0    0  0.86094978134E-01 -0.21098954347E+00  0.36659591057E+01  0.39675162378E+01  0.15000000000E+01 0.  1.
</event>
<event>
 5   0  0.6596100E+00  0.9118800E+02  0.7818608E-02  0.1180000E+00
       11   -1    0    0    0    0  0.00000000000E+00  0.00000000000E+00  0.39999999673E+01  0.40000000000E+01  0.51109989000E-03 0.  1.
     -623   -1    0    0    0    0  0.00000000000E+00  0.00000000000E+00  0.12525980253E-10  0.17130000000E+03  0.17130000000E+03 0. -1.
       11    1    1    2    0    0 -0.10590959935E+00  0.74229063535E-01  0.35603404269E+00  0.37879717249E+00  0.51109989000E-03 0.  1.
     -623    1    1    2    0    0  0.43764971184E+00 -0.78881801519E-01  0.36585248979E+00  0.17130096791E+03  0.17130000000E+03 0. -1.
      622    1    1    2    0    0 -0.33174011249E+00  0.46527379839E-02  0.32781134349E+01  0.36202349153E+01  0.15000000000E+01 0.  1.
</event>
<event>
 5   0  0.6596100E+00  0.9118800E+02  0.7818608E-02  0.1180000E+00
       11   -1    0    0    0    0  0.00000000000E+00  0.00000000000E+00  0.39999999673E+01  0.40000000000E+01  0.51109989000E-03 0. -1.
     -623   -1    0    0    0    0  0.00000000000E+00  0.00000000000E+00  0.12525980253E-10  0.17130000000E+03  0.17130000000E+03 0. -1.
       11    1    1    2    0    0 -0.52877777934E-01 -0.85437662182E-01  0.18212781878E-01  0.10211571948E+00  0.51109989000E-03 0. -1.
     -623    1    1    2    0    0  0.13009186287E+00  0.89299191567E-01  0.38545880990E+00  0.17130050635E+03  0.17130000000E+03 0. -1.
      622    1    1    2    0    0 -0.77214084940E-01 -0.38615293853E-02  0.35963283756E+01  0.38973779277E+01  0.15000000000E+01 0. -1.
</event>
<event>
 5   0  0.6596100E+00  0.9118800E+02  0.7818608E-02  0.1180000E+00
       11   -1    0    0    0    0  0.00000000000E+00  0.00000000000E+00  0.39999999673E+01  0.40000000000E+01  0.51109989000E-03 0. -1.
     -623   -1    0    0    0    0  0.00000000000E+00  0.00000000000E+00  0.12525980253E-10  0.17130000000E+03  0.17130000000E+03 0. -1.
       11    1    1    2    0    0 -0.37027989405E-01 -0.35011746189E-01  0.35943752165E-01  0.62362720542E-01  0.51109989000E-03 0. -1.
     -623    1    1    2    0    0  0.29491001474E-01  0.22260208668E+00  0.32866096749E+00  0.17130046246E+03  0.17130000000E+03 0. -1.
      622    1    1    2    0    0  0.75369879315E-02 -0.18759034049E+00  0.36353952477E+01  0.39371748182E+01  0.15000000000E+01 0. -1.
</event>
<event>
 5   0  0.6596100E+00  0.9118800E+02  0.7818608E-02  0.1180000E+00
       11   -1    0    0    0    0  0.00000000000E+00  0.00000000000E+00  0.39999999673E+01  0.40000000000E+01  0.51109989000E-03 0. -1.
     -623   -1    0    0    0    0  0.00000000000E+00  0.00000000000E+00  0.12525980253E-10  0.17130000000E+03  0.17130000000E+03 0.  1.
       11    1    1    2    0    0 -0.45943645889E-01  0.15714537357E-02 -0.24128466728E-01  0.51920441005E-01  0.51109989000E-03 0. -1.
     -623    1    1    2    0    0 -0.33729732570E-01 -0.38817972466E+00  0.39446815513E+00  0.17130089733E+03  0.17130000000E+03 0.  1.
      622    1    1    2    0    0  0.79673378459E-01  0.38660827092E+00  0.36296602790E+01  0.39471822283E+01  0.15000000000E+01 0. -1.
</event>
<event>
 5   0  0.6596100E+00  0.9118800E+02  0.7818608E-02  0.1180000E+00
       11   -1    0    0    0    0  0.00000000000E+00  0.00000000000E+00  0.39999999673E+01  0.40000000000E+01  0.51109989000E-03 0.  1.
     -623   -1    0    0    0    0  0.00000000000E+00  0.00000000000E+00  0.12525980253E-10  0.17130000000E+03  0.17130000000E+03 0.  1.
       11    1    1    2    0    0  0.22581658665E+00  0.43138465365E-01  0.45518857880E-01  0.23436357576E+00  0.51109989000E-03 0.  1.
     -623    1    1    2    0    0 -0.19904592430E+00  0.50049549307E+00  0.54554488937E+00  0.17130171550E+03  0.17130000000E+03 0.  1.
      622    1    1    2    0    0 -0.26770662341E-01 -0.54363395844E+00  0.34089362201E+01  0.37639209213E+01  0.15000000000E+01 0.  1.
</event>
<event>
 5   0  0.6596100E+00  0.9118800E+02  0.7818608E-02  0.1180000E+00
       11   -1    0    0    0    0  0.00000000000E+00  0.00000000000E+00  0.39999999673E+01  0.40000000000E+01  0.51109989000E-03 0.  1.
     -623   -1    0    0    0    0  0.00000000000E+00  0.00000000000E+00  0.12525980253E-10  0.17130000000E+03  0.17130000000E+03 0. -1.
       11    1    1    2    0    0 -0.30143763239E-01  0.14145905277E-01 -0.58901085119E-01  0.67663521558E-01  0.51109989000E-03 0.  1.
     -623    1    1    2    0    0  0.18433393911E+00  0.15219110809E+00  0.43174827923E+00  0.17130071088E+03  0.17130000000E+03 0. -1.
      622    1    1    2    0    0 -0.15419017587E+00 -0.16633701337E+00  0.36271527732E+01  0.39316255993E+01  0.15000000000E+01 0.  1.
</event>
<event>
 5   0  0.6596100E+00  0.9118800E+02  0.7818608E-02  0.1180000E+00
       11   -1    0    0    0    0  0.00000000000E+00  0.00000000000E+00  0.39999999673E+01  0.40000000000E+01  0.51109989000E-03 0. -1.
     -623   -1    0    0    0    0  0.00000000000E+00  0.00000000000E+00  0.12525980253E-10  0.17130000000E+03  0.17130000000E+03 0. -1.
       11    1    1    2    0    0 -0.40273481061E-01  0.69759803528E-02  0.12459594596E+00  0.13112981564E+00  0.51109989000E-03 0. -1.
     -623    1    1    2    0    0  0.50058050647E+00  0.10417924423E+00  0.34193909366E+00  0.17130110436E+03  0.17130000000E+03 0. -1.
      622    1    1    2    0    0 -0.46030702541E+00 -0.11115522458E+00  0.35334649277E+01  0.38677658198E+01  0.15000000000E+01 0. -1.
</event>
<event>
 5   0  0.6596100E+00  0.9118800E+02  0.7818608E-02  0.1180000E+00
       11   -1    0    0    0    0  0.00000000000E+00  0.00000000000E+00  0.39999999673E+01  0.40000000000E+01  0.51109989000E-03 0.  1.
     -623   -1    0    0    0    0  0.00000000000E+00  0.00000000000E+00  0.12525980253E-10  0.17130000000E+03  0.17130000000E+03 0. -1.
       11    1    1    2    0    0  0.49026547353E-01  0.12474871540E+00  0.22604312464E-01  0.13593035167E+00  0.51109989000E-03 0.  1.
     -623    1    1    2    0    0 -0.10455909977E+00 -0.20747273902E+00  0.41847169098E+00  0.17130066870E+03  0.17130000000E+03 0. -1.
      622    1    1    2    0    0  0.55532552415E-01  0.82724023612E-01  0.35589239639E+01  0.38634009512E+01  0.15000000000E+01 0.  1.
</event>
<event>
 5   0  0.6596100E+00  0.9118800E+02  0.7818608E-02  0.1180000E+00
       11   -1    0    0    0    0  0.00000000000E+00  0.00000000000E+00  0.39999999673E+01  0.40000000000E+01  0.51109989000E-03 0.  1.
     -623   -1    0    0    0    0  0.00000000000E+00  0.00000000000E+00  0.12525980253E-10  0.17130000000E+03  0.17130000000E+03 0.  1.
       11    1    1    2    0    0 -0.13938446593E+00 -0.21017265735E-01 -0.57698057483E-01  0.15231244815E+00  0.51109989000E-03 0.  1.
     -623    1    1    2    0    0 -0.99108745190E-02  0.16561325153E+00  0.52148869376E+00  0.17130087413E+03  0.17130000000E+03 0.  1.
      622    1    1    2    0    0  0.14929534045E+00 -0.14459598580E+00  0.35362093311E+01  0.38468134256E+01  0.15000000000E+01 0.  1.
</event>
<event>
 5   0  0.6596100E+00  0.9118800E+02  0.7818608E-02  0.1180000E+00
       11   -1    0    0    0    0  0.00000000000E+00  0.00000000000E+00  0.39999999673E+01  0.40000000000E+01  0.51109989000E-03 0.  1.
     -623   -1    0    0    0    0  0.00000000000E+00  0.00000000000E+00  0.12525980253E-10  0.17130000000E+03  0.17130000000E+03 0. -1.
       11    1    1    2    0    0  0.22227820564E+00 -0.29605643895E+00  0.52516938175E+00  0.64254194922E+00  0.51109989000E-03 0.  1.
     -623    1    1    2    0    0  0.32585854741E+00  0.37629949653E+00  0.52434098711E+00  0.17130152573E+03  0.17130000000E+03 0. -1.
      622    1    1    2    0    0 -0.54813675305E+00 -0.80243057580E-01  0.29504895985E+01  0.33559323174E+01  0.15000000000E+01 0.  1.
</event>
<event>
 5   0  0.6596100E+00  0.9118800E+02  0.7818608E-02  0.1180000E+00
       11   -1    0    0    0    0  0.00000000000E+00  0.00000000000E+00  0.39999999673E+01  0.40000000000E+01  0.51109989000E-03 0.  1.
     -623   -1    0    0    0    0  0.00000000000E+00  0.00000000000E+00  0.12525980253E-10  0.17130000000E+03  0.17130000000E+03 0. -1.
       11    1    1    2    0    0  0.52109660265E-01  0.12563699322E+00  0.66241339739E-01  0.15128862175E+00  0.51109989000E-03 0.  1.
     -623    1    1    2    0    0 -0.46165446553E-01  0.24313290303E+00  0.40935624337E+00  0.17130066788E+03  0.17130000000E+03 0. -1.
      622    1    1    2    0    0 -0.59442137125E-02 -0.36876989625E+00  0.35244023843E+01  0.38480434946E+01  0.15000000000E+01 0.  1.
</event>
<event>
 5   0  0.6596100E+00  0.9118800E+02  0.7818608E-02  0.1180000E+00
       11   -1    0    0    0    0  0.00000000000E+00  0.00000000000E+00  0.39999999673E+01  0.40000000000E+01  0.51109989000E-03 0.  1.
     -623   -1    0    0    0    0  0.00000000000E+00  0.00000000000E+00  0.12525980253E-10  0.17130000000E+03  0.17130000000E+03 0.  1.
       11    1    1    2    0    0 -0.41483743606E+00  0.14761909742E+00  0.51574009127E+00  0.67813685879E+00  0.51109989000E-03 0.  1.
     -623    1    1    2    0    0  0.31301957908E+00 -0.87796174885E-01  0.52394616244E+00  0.17130110977E+03  0.17130000000E+03 0.  1.
      622    1    1    2    0    0  0.10181785698E+00 -0.59822922539E-01  0.29603137137E+01  0.33207533695E+01  0.15000000000E+01 0.  1.
</event>
<event>
 5   0  0.6596100E+00  0.9118800E+02  0.7818608E-02  0.1180000E+00
       11   -1    0    0    0    0  0.00000000000E+00  0.00000000000E+00  0.39999999673E+01  0.40000000000E+01  0.51109989000E-03 0.  1.
     -623   -1    0    0    0    0  0.00000000000E+00  0.00000000000E+00  0.12525980253E-10  0.17130000000E+03  0.17130000000E+03 0. -1.
       11    1    1    2    0    0 -0.13702225308E+00  0.41526593077E+00  0.11012331016E+01  0.11848778402E+01  0.51109989000E-03 0.  1.
     -623    1    1    2    0    0  0.54335429976E-01 -0.47528843355E+00  0.52047707391E+00  0.17130145869E+03  0.17130000000E+03 0. -1.
      622    1    1    2    0    0  0.82686823107E-01  0.60022502779E-01  0.23782897919E+01  0.28136634742E+01  0.15000000000E+01 0.  0.
</event>
<event>
 5   0  0.6596100E+00  0.9118800E+02  0.7818608E-02  0.1180000E+00
       11   -1    0    0    0    0  0.00000000000E+00  0.00000000000E+00  0.39999999673E+01  0.40000000000E+01  0.51109989000E-03 0. -1.
     -623   -1    0    0    0    0  0.00000000000E+00  0.00000000000E+00  0.12525980253E-10  0.17130000000E+03  0.17130000000E+03 0.  1.
       11    1    1    2    0    0  0.86663805211E-02  0.11691067636E+00  0.50829133517E+00  0.52163546183E+00  0.51109989000E-03 0. -1.
     -623    1    1    2    0    0 -0.43923642658E+00  0.22465127713E+00  0.40322643432E+00  0.17130118502E+03  0.17130000000E+03 0.  1.
      622    1    1    2    0    0  0.43057004606E+00 -0.34156195350E+00  0.30884821979E+01  0.34771795207E+01  0.15000000000E+01 0. -1.
</event>
<event>
 5   0  0.6596100E+00  0.9118800E+02  0.7818608E-02  0.1180000E+00
       11   -1    0    0    0    0  0.00000000000E+00  0.00000000000E+00  0.39999999673E+01  0.40000000000E+01  0.51109989000E-03 0. -1.
     -623   -1    0    0    0    0  0.00000000000E+00  0.00000000000E+00  0.12525980253E-10  0.17130000000E+03  0.17130000000E+03 0.  1.
       11    1    1    2    0    0 -0.24067475098E-01 -0.13620887245E+00  0.59660987096E+00  0.61243424108E+00  0.51109989000E-03 0. -1.
     -623    1    1    2    0    0  0.27239570420E+00  0.22029210603E+00  0.37822738359E+00  0.17130077578E+03  0.17130000000E+03 0.  1.
      622    1    1    2    0    0 -0.24832822911E+00 -0.84083233582E-01  0.30251627128E+01  0.33867899755E+01  0.15000000000E+01 0. -1.
</event>
<event>
 5   0  0.6596100E+00  0.9118800E+02  0.7818608E-02  0.1180000E+00
       11   -1    0    0    0    0  0.00000000000E+00  0.00000000000E+00  0.39999999673E+01  0.40000000000E+01  0.51109989000E-03 0. -1.
     -623   -1    0    0    0    0  0.00000000000E+00  0.00000000000E+00  0.12525980253E-10  0.17130000000E+03  0.17130000000E+03 0. -1.
       11    1    1    2    0    0 -0.59272056988E-01 -0.25700867238E-01 -0.63682193833E-01  0.90716009342E-01  0.51109989000E-03 0. -1.
     -623    1    1    2    0    0 -0.18058478040E+00  0.89925737693E-01  0.46298429275E+00  0.17130074446E+03  0.17130000000E+03 0. -1.
      622    1    1    2    0    0  0.23985683739E+00 -0.64224870455E-01  0.36006978684E+01  0.39085395324E+01  0.15000000000E+01 0. -1.
</event>
<event>
 5   0  0.6596100E+00  0.9118800E+02  0.7818608E-02  0.1180000E+00
       11   -1    0    0    0    0  0.00000000000E+00  0.00000000000E+00  0.39999999673E+01  0.40000000000E+01  0.51109989000E-03 0.  1.
     -623   -1    0    0    0    0  0.00000000000E+00  0.00000000000E+00  0.12525980253E-10  0.17130000000E+03  0.17130000000E+03 0. -1.
       11    1    1    2    0    0 -0.23713967778E+00  0.12019359852E+00  0.14265026417E+00  0.30171358437E+00  0.51109989000E-03 0.  1.
     -623    1    1    2    0    0  0.51067474651E-01  0.24880001929E+00  0.50329504429E+00  0.17130092765E+03  0.17130000000E+03 0. -1.
      622    1    1    2    0    0  0.18607220313E+00 -0.36899361781E+00  0.33540546589E+01  0.36973587613E+01  0.15000000000E+01 0.  1.
</event>
<event>
 5   0  0.6596100E+00  0.9118800E+02  0.7818608E-02  0.1180000E+00
       11   -1    0    0    0    0  0.00000000000E+00  0.00000000000E+00  0.39999999673E+01  0.40000000000E+01  0.51109989000E-03 0. -1.
     -623   -1    0    0    0    0  0.00000000000E+00  0.00000000000E+00  0.12525980253E-10  0.17130000000E+03  0.17130000000E+03 0.  1.
       11    1    1    2    0    0 -0.14827001298E+00 -0.47036634718E-01  0.38617216140E+00  0.41632396186E+00  0.51109989000E-03 0. -1.
     -623    1    1    2    0    0  0.30342498695E+00  0.26804591703E-01  0.36366718475E+00  0.17130065686E+03  0.17130000000E+03 0.  1.
      622    1    1    2    0    0 -0.15515497397E+00  0.20232043015E-01  0.32501606212E+01  0.35830191829E+01  0.15000000000E+01 0. -1.
</event>
<event>
 5   0  0.6596100E+00  0.9118800E+02  0.7818608E-02  0.1180000E+00
       11   -1    0    0    0    0  0.00000000000E+00  0.00000000000E+00  0.39999999673E+01  0.40000000000E+01  0.51109989000E-03 0. -1.
     -623   -1    0    0    0    0  0.00000000000E+00  0.00000000000E+00  0.12525980253E-10  0.17130000000E+03  0.17130000000E+03 0. -1.
       11    1    1    2    0    0 -0.30191419104E+00 -0.77580774105E-01  0.22240902738E+00  0.38293209834E+00  0.51109989000E-03 0. -1.
     -623    1    1    2    0    0 -0.97942248844E-01 -0.31593287894E-01  0.51330087287E+00  0.17130079996E+03  0.17130000000E+03 0. -1.
      622    1    1    2    0    0  0.39985643988E+00  0.10917406200E+00  0.32642900671E+01  0.36162679368E+01  0.15000000000E+01 0. -1.
</event>
<event>
 5   0  0.6596100E+00  0.9118800E+02  0.7818608E-02  0.1180000E+00
       11   -1    0    0    0    0  0.00000000000E+00  0.00000000000E+00  0.39999999673E+01  0.40000000000E+01  0.51109989000E-03 0.  1.
     -623   -1    0    0    0    0  0.00000000000E+00  0.00000000000E+00  0.12525980253E-10  0.17130000000E+03  0.17130000000E+03 0.  1.
       11    1    1    2    0    0  0.18765364275E+00  0.58451389034E-01  0.84820435184E+00  0.87067866531E+00  0.51109989000E-03 0.  1.
     -623    1    1    2    0    0 -0.34144008780E+00 -0.39671039551E-01  0.41073571167E+00  0.17130083730E+03  0.17130000000E+03 0.  1.
      622    1    1    2    0    0  0.15378644505E+00 -0.18780349482E-01  0.27410599038E+01  0.31284840368E+01  0.15000000000E+01 0.  1.
</event>
<event>
 5   0  0.6596100E+00  0.9118800E+02  0.7818608E-02  0.1180000E+00
       11   -1    0    0    0    0  0.00000000000E+00  0.00000000000E+00  0.39999999673E+01  0.40000000000E+01  0.51109989000E-03 0.  1.
     -623   -1    0    0    0    0  0.00000000000E+00  0.00000000000E+00  0.12525980253E-10  0.17130000000E+03  0.17130000000E+03 0. -1.
       11    1    1    2    0    0  0.89121597358E-01  0.11116923544E+00  0.44544070775E-01  0.14928393580E+00  0.51109989000E-03 0.  1.
     -623    1    1    2    0    0  0.25188527929E+00 -0.26279424861E+00  0.42960681639E+00  0.17130092548E+03  0.17130000000E+03 0. -1.
      622    1    1    2    0    0 -0.34100687664E+00  0.15162501317E+00  0.35258490802E+01  0.38497905879E+01  0.15000000000E+01 0.  1.
</event>
<event>
 5   0  0.6596100E+00  0.9118800E+02  0.7818608E-02  0.1180000E+00
       11   -1    0    0    0    0  0.00000000000E+00  0.00000000000E+00  0.39999999673E+01  0.40000000000E+01  0.51109989000E-03 0.  1.
     -623   -1    0    0    0    0  0.00000000000E+00  0.00000000000E+00  0.12525980253E-10  0.17130000000E+03  0.17130000000E+03 0. -1.
       11    1    1    2    0    0  0.16280805462E+00  0.35246810849E+00  0.96365040693E+00  0.10389237692E+01  0.51109989000E-03 0.  1.
     -623    1    1    2    0    0 -0.30981237345E+00 -0.23859813228E+00  0.49143714790E+00  0.17130115126E+03  0.17130000000E+03 0. -1.
      622    1    1    2    0    0  0.14700431883E+00 -0.11386997621E+00  0.25449124125E+01  0.29599249701E+01  0.15000000000E+01 0.  1.
</event>
<event>
 5   0  0.6596100E+00  0.9118800E+02  0.7818608E-02  0.1180000E+00
       11   -1    0    0    0    0  0.00000000000E+00  0.00000000000E+00  0.39999999673E+01  0.40000000000E+01  0.51109989000E-03 0.  1.
     -623   -1    0    0    0    0  0.00000000000E+00  0.00000000000E+00  0.12525980253E-10  0.17130000000E+03  0.17130000000E+03 0. -1.
       11    1    1    2    0    0 -0.20360764898E+00  0.82390757547E-01  0.41542278072E-01  0.22354045213E+00  0.51109989000E-03 0.  1.
     -623    1    1    2    0    0  0.24963411123E+00 -0.23973009246E+00  0.49772488568E+00  0.17130107273E+03  0.17130000000E+03 0. -1.
      622    1    1    2    0    0 -0.46026462250E-01  0.15733933492E+00  0.34607328036E+01  0.37753868199E+01  0.15000000000E+01 0.  1.
</event>
<event>
 5   0  0.6596100E+00  0.9118800E+02  0.7818608E-02  0.1180000E+00
       11   -1    0    0    0    0  0.00000000000E+00  0.00000000000E+00  0.39999999673E+01  0.40000000000E+01  0.51109989000E-03 0.  1.
     -623   -1    0    0    0    0  0.00000000000E+00  0.00000000000E+00  0.12525980253E-10  0.17130000000E+03  0.17130000000E+03 0. -1.
       11    1    1    2    0    0  0.26783459721E+00  0.21078594016E+00  0.65335113000E+00  0.73690843687E+00  0.51109989000E-03 0.  1.
     -623    1    1    2    0    0  0.61917930944E-02 -0.15505229997E+00  0.46307000132E+00  0.17130069618E+03  0.17130000000E+03 0. -1.
      622    1    1    2    0    0 -0.27402639031E+00 -0.55733640185E-01  0.28835788360E+01  0.32623953784E+01  0.15000000000E+01 0.  1.
</event>
<event>
 5   0  0.6596100E+00  0.9118800E+02  0.7818608E-02  0.1180000E+00
       11   -1    0    0    0    0  0.00000000000E+00  0.00000000000E+00  0.39999999673E+01  0.40000000000E+01  0.51109989000E-03 0. -1.
     -623   -1    0    0    0    0  0.00000000000E+00  0.00000000000E+00  0.12525980253E-10  0.17130000000E+03  0.17130000000E+03 0. -1.
       11    1    1    2    0    0  0.46821971102E+00  0.35173336203E+00  0.31939174135E+00  0.66705127346E+00  0.51109989000E-03 0. -1.
     -623    1    1    2    0    0 -0.68510663713E+00  0.24855351222E+00  0.77731985569E+00  0.17130331397E+03  0.17130000000E+03 0. -1.
      622    1    1    2    0    0  0.21688692611E+00 -0.60028687425E+00  0.29032883703E+01  0.33296347594E+01  0.15000000000E+01 0. -1.
</event>
<event>
 5   0  0.6596100E+00  0.9118800E+02  0.7818608E-02  0.1180000E+00
       11   -1    0    0    0    0  0.00000000000E+00  0.00000000000E+00  0.39999999673E+01  0.40000000000E+01  0.51109989000E-03 0. -1.
     -623   -1    0    0    0    0  0.00000000000E+00  0.00000000000E+00  0.12525980253E-10  0.17130000000E+03  0.17130000000E+03 0.  1.
       11    1    1    2    0    0  0.23221654079E+00  0.48068060413E-01  0.74020856552E+00  0.77726703387E+00  0.51109989000E-03 0. -1.
     -623    1    1    2    0    0  0.49790694765E-01  0.33855450045E+00  0.44891802522E+00  0.17130093002E+03  0.17130000000E+03 0.  1.
      622    1    1    2    0    0 -0.28200723556E+00 -0.38662256087E+00  0.28108733766E+01  0.32218029463E+01  0.15000000000E+01 0. -1.
</event>
<event>
 5   0  0.6596100E+00  0.9118800E+02  0.7818608E-02  0.1180000E+00
       11   -1    0    0    0    0  0.00000000000E+00  0.00000000000E+00  0.39999999673E+01  0.40000000000E+01  0.51109989000E-03 0.  1.
     -623   -1    0    0    0    0  0.00000000000E+00  0.00000000000E+00  0.12525980253E-10  0.17130000000E+03  0.17130000000E+03 0.  1.
       11    1    1    2    0    0 -0.46059398898E-01  0.72073974128E-01  0.10050385492E+01  0.10086718359E+01  0.51109989000E-03 0.  1.
     -623    1    1    2    0    0 -0.59866043643E-01 -0.20147454670E+00  0.41303784341E+00  0.17130062690E+03  0.17130000000E+03 0.  1.
      622    1    1    2    0    0  0.10592544254E+00  0.12940057257E+00  0.25819235748E+01  0.29907012645E+01  0.15000000000E+01 0.  1.
</event>
<event>
 5   0  0.6596100E+00  0.9118800E+02  0.7818608E-02  0.1180000E+00
       11   -1    0    0    0    0  0.00000000000E+00  0.00000000000E+00  0.39999999673E+01  0.40000000000E+01  0.51109989000E-03 0. -1.
     -623   -1    0    0    0    0  0.00000000000E+00  0.00000000000E+00  0.12525980253E-10  0.17130000000E+03  0.17130000000E+03 0. -1.
       11    1    1    2    0    0 -0.22952850731E+00 -0.13677387247E-01  0.26178907006E+00  0.34843103337E+00  0.51109989000E-03 0. -1.
     -623    1    1    2    0    0  0.67164435363E-02  0.11988515047E+00  0.41872507871E+00  0.17130055385E+03  0.17130000000E+03 0. -1.
      622    1    1    2    0    0  0.22281206378E+00 -0.10620776322E+00  0.33194858186E+01  0.36510151197E+01  0.15000000000E+01 0. -1.
</event>
<event>
 5   0  0.6596100E+00  0.9118800E+02  0.7818608E-02  0.1180000E+00
       11   -1    0    0    0    0  0.00000000000E+00  0.00000000000E+00  0.39999999673E+01  0.40000000000E+01  0.51109989000E-03 0. -1.
     -623   -1    0    0    0    0  0.00000000000E+00  0.00000000000E+00  0.12525980253E-10  0.17130000000E+03  0.17130000000E+03 0. -1.
       11    1    1    2    0    0  0.68819641889E-01  0.31871440473E-01  0.35536277999E-01  0.83755716833E-01  0.51109989000E-03 0. -1.
     -623    1    1    2    0    0 -0.17757097003E+00 -0.97483529094E-01  0.34961858744E+00  0.17130047655E+03  0.17130000000E+03 0. -1.
      622    1    1    2    0    0  0.10875132814E+00  0.65612088621E-01  0.36148451019E+01  0.39157677291E+01  0.15000000000E+01 0. -1.
</event>
<event>
 5   0  0.6596100E+00  0.9118800E+02  0.7818608E-02  0.1180000E+00
       11   -1    0    0    0    0  0.00000000000E+00  0.00000000000E+00  0.39999999673E+01  0.40000000000E+01  0.51109989000E-03 0.  1.
     -623   -1    0    0    0    0  0.00000000000E+00  0.00000000000E+00  0.12525980253E-10  0.17130000000E+03  0.17130000000E+03 0.  1.
       11    1    1    2    0    0  0.19589339671E+00  0.70303881937E-01  0.80573547976E-01  0.22317978525E+00  0.51109989000E-03 0.  1.
     -623    1    1    2    0    0 -0.15959944045E-01 -0.26193787380E+00  0.46414004422E+00  0.17130082981E+03  0.17130000000E+03 0.  1.
      622    1    1    2    0    0 -0.17993345266E+00  0.19163399186E+00  0.34552863752E+01  0.37759904090E+01  0.15000000000E+01 0.  1.
</event>
<event>
 5   0  0.6596100E+00  0.9118800E+02  0.7818608E-02  0.1180000E+00
       11   -1    0    0    0    0  0.00000000000E+00  0.00000000000E+00  0.39999999673E+01  0.40000000000E+01  0.51109989000E-03 0. -1.
     -623   -1    0    0    0    0  0.00000000000E+00  0.00000000000E+00  0.12525980253E-10  0.17130000000E+03  0.17130000000E+03 0.  1.
       11    1    1    2    0    0 -0.66223828585E-01  0.63908004266E-02  0.69432387281E-01  0.96164210750E-01  0.51109989000E-03 0. -1.
     -623    1    1    2    0    0  0.12946934984E+00  0.78815590537E+00  0.41828780411E+00  0.17130237277E+03  0.17130000000E+03 0.  1.
      622    1    1    2    0    0 -0.63245521257E-01 -0.79454670580E+00  0.35122797760E+01  0.39014630190E+01  0.15000000000E+01 0. -1.
</event>
<event>
 5   0  0.6596100E+00  0.9118800E+02  0.7818608E-02  0.1180000E+00
       11   -1    0    0    0    0  0.00000000000E+00  0.00000000000E+00  0.39999999673E+01  0.40000000000E+01  0.51109989000E-03 0. -1.
     -623   -1    0    0    0    0  0.00000000000E+00  0.00000000000E+00  0.12525980253E-10  0.17130000000E+03  0.17130000000E+03 0.  1.
       11    1    1    2    0    0 -0.19602726601E+00  0.26696467966E-01  0.37335258201E+00  0.42253023813E+00  0.51109989000E-03 0. -1.
     -623    1    1    2    0    0  0.32478561015E+00 -0.17609870128E+00  0.38574741069E+00  0.17130083274E+03  0.17130000000E+03 0.  1.
      622    1    1    2    0    0 -0.12875834414E+00  0.14940223332E+00  0.32408999747E+01  0.35766370216E+01  0.15000000000E+01 0. -1.
</event>
<event>
 5   0  0.6596100E+00  0.9118800E+02  0.7818608E-02  0.1180000E+00
       11   -1    0    0    0    0  0.00000000000E+00  0.00000000000E+00  0.39999999673E+01  0.40000000000E+01  0.51109989000E-03 0.  1.
     -623   -1    0    0    0    0  0.00000000000E+00  0.00000000000E+00  0.12525980253E-10  0.17130000000E+03  0.17130000000E+03 0. -1.
       11    1    1    2    0    0 -0.22794585857E+00  0.51750924462E-02  0.45890891500E+00  0.51242926294E+00  0.51109989000E-03 0.  1.
     -623    1    1    2    0    0  0.33536467849E+00  0.64652564000E-01  0.39606849494E+00  0.17130079836E+03  0.17130000000E+03 0. -1.
      622    1    1    2    0    0 -0.10741881992E+00 -0.69827656446E-01  0.31450225574E+01  0.34867723744E+01  0.15000000000E+01 0.  1.
</event>
<event>
 5   0  0.6596100E+00  0.9118800E+02  0.7818608E-02  0.1180000E+00
       11   -1    0    0    0    0  0.00000000000E+00  0.00000000000E+00  0.39999999673E+01  0.40000000000E+01  0.51109989000E-03 0. -1.
     -623   -1    0    0    0    0  0.00000000000E+00  0.00000000000E+00  0.12525980253E-10  0.17130000000E+03  0.17130000000E+03 0. -1.
       11    1    1    2    0    0 -0.11787049655E+00  0.17659962946E-01  0.14700226551E+00  0.18924918900E+00  0.51109989000E-03 0. -1.
     -623    1    1    2    0    0  0.19762638398E-02  0.14298781035E+00  0.35595478365E+00  0.17130042952E+03  0.17130000000E+03 0. -1.
      622    1    1    2    0    0  0.11589423271E+00 -0.16064777330E+00  0.34970429182E+01  0.38103212925E+01  0.15000000000E+01 0. -1.
</event>
<event>
 5   0  0.6596100E+00  0.9118800E+02  0.7818608E-02  0.1180000E+00
       11   -1    0    0    0    0  0.00000000000E+00  0.00000000000E+00  0.39999999673E+01  0.40000000000E+01  0.51109989000E-03 0.  1.
     -623   -1    0    0    0    0  0.00000000000E+00  0.00000000000E+00  0.12525980253E-10  0.17130000000E+03  0.17130000000E+03 0. -1.
       11    1    1    2    0    0 -0.22159367399E+00  0.70839219419E-01  0.29825853810E+00  0.37825965702E+00  0.51109989000E-03 0.  1.
     -623    1    1    2    0    0  0.24288226645E+00 -0.92011917435E+00  0.52048210611E+00  0.17130343404E+03  0.17130000000E+03 0. -1.
      622    1    1    2    0    0 -0.21288592468E-01  0.84927995493E+00  0.31812593231E+01  0.36183063064E+01  0.15000000000E+01 0.  1.
</event>
<event>
 5   0  0.6596100E+00  0.9118800E+02  0.7818608E-02  0.1180000E+00
       11   -1    0    0    0    0  0.00000000000E+00  0.00000000000E+00  0.39999999673E+01  0.40000000000E+01  0.51109989000E-03 0.  1.
     -623   -1    0    0    0    0  0.00000000000E+00  0.00000000000E+00  0.12525980253E-10  0.17130000000E+03  0.17130000000E+03 0.  1.
       11    1    1    2    0    0 -0.14654584078E+00 -0.28125692640E-01 -0.57748731815E-01  0.16000598516E+00  0.51109989000E-03 0.  1.
     -623    1    1    2    0    0 -0.57443402153E-01 -0.30565613069E-01  0.53012859196E+00  0.17130083266E+03  0.17130000000E+03 0.  1.
      622    1    1    2    0    0  0.20398924294E+00  0.58691305710E-01  0.35276201072E+01  0.38391613539E+01  0.15000000000E+01 0.  1.
</event>
<event>
 5   0  0.6596100E+00  0.9118800E+02  0.7818608E-02  0.1180000E+00
       11   -1    0    0    0    0  0.00000000000E+00  0.00000000000E+00  0.39999999673E+01  0.40000000000E+01  0.51109989000E-03 0. -1.
     -623   -1    0    0    0    0  0.00000000000E+00  0.00000000000E+00  0.12525980253E-10  0.17130000000E+03  0.17130000000E+03 0. -1.
       11    1    1    2    0    0 -0.70509183113E-01 -0.92776199741E-01 -0.49568187941E-01  0.12663425532E+00  0.51109989000E-03 0. -1.
     -623    1    1    2    0    0 -0.48732439955E-01  0.14177532119E+00  0.48157275552E+00  0.17130074252E+03  0.17130000000E+03 0. -1.
      622    1    1    2    0    0  0.11924162307E+00 -0.48999121451E-01  0.35679953998E+01  0.38726232261E+01  0.15000000000E+01 0. -1.
</event>
<event>
 5   0  0.6596100E+00  0.9118800E+02  0.7818608E-02  0.1180000E+00
       11   -1    0    0    0    0  0.00000000000E+00  0.00000000000E+00  0.39999999673E+01  0.40000000000E+01  0.51109989000E-03 0. -1.
     -623   -1    0    0    0    0  0.00000000000E+00  0.00000000000E+00  0.12525980253E-10  0.17130000000E+03  0.17130000000E+03 0.  1.
       11    1    1    2    0    0 -0.61088914436E-01  0.63263111664E-01 -0.46614818370E-01  0.99535316732E-01  0.51109989000E-03 0. -1.
     -623    1    1    2    0    0  0.64718721743E-01  0.12145265271E-01  0.44755018975E+00  0.17130059731E+03  0.17130000000E+03 0.  1.
      622    1    1    2    0    0 -0.36298073061E-02 -0.75408376935E-01  0.35990645960E+01  0.38998673779E+01  0.15000000000E+01 0. -1.
</event>
<event>
 5   0  0.6596100E+00  0.9118800E+02  0.7818608E-02  0.1180000E+00
       11   -1    0    0    0    0  0.00000000000E+00  0.00000000000E+00  0.39999999673E+01  0.40000000000E+01  0.51109989000E-03 0. -1.
     -623   -1    0    0    0    0  0.00000000000E+00  0.00000000000E+00  0.12525980253E-10  0.17130000000E+03  0.17130000000E+03 0. -1.
       11    1    1    2    0    0  0.64033654885E-01 -0.38459188840E+00  0.41321063554E+00  0.56811488286E+00  0.51109989000E-03 0. -1.
     -623    1    1    2    0    0 -0.32479550633E-01  0.58466958571E+00  0.50867981223E+00  0.17130175612E+03  0.17130000000E+03 0. -1.
      622    1    1    2    0    0 -0.31554104252E-01 -0.20007769731E+00  0.30781095196E+01  0.34301290006E+01  0.15000000000E+01 0. -1.
</event>
<event>
 5   0  0.6596100E+00  0.9118800E+02  0.7818608E-02  0.1180000E+00
       11   -1    0    0    0    0  0.00000000000E+00  0.00000000000E+00  0.39999999673E+01  0.40000000000E+01  0.51109989000E-03 0. -1.
     -623   -1    0    0    0    0  0.00000000000E+00  0.00000000000E+00  0.12525980253E-10  0.17130000000E+03  0.17130000000E+03 0. -1.
       11    1    1    2    0    0  0.41683598950E-01  0.37492278382E-01  0.59603059858E-01  0.81828963865E-01  0.51109989000E-03 0. -1.
     -623    1    1    2    0    0  0.37434600717E-01  0.74509589354E-01  0.32367118238E+00  0.17130032608E+03  0.17130000000E+03 0. -1.
      622    1    1    2    0    0 -0.79118199667E-01 -0.11200186774E+00  0.36167257251E+01  0.39178449534E+01  0.15000000000E+01 0. -1.
</event>
<event>
 5   0  0.6596100E+00  0.9118800E+02  0.7818608E-02  0.1180000E+00
       11   -1    0    0    0    0  0.00000000000E+00  0.00000000000E+00  0.39999999673E+01  0.40000000000E+01  0.51109989000E-03 0. -1.
     -623   -1    0    0    0    0  0.00000000000E+00  0.00000000000E+00  0.12525980253E-10  0.17130000000E+03  0.17130000000E+03 0. -1.
       11    1    1    2    0    0  0.42699032024E-01  0.40126503313E+00  0.81911993687E+00  0.91312352196E+00  0.51109989000E-03 0. -1.
     -623    1    1    2    0    0 -0.68418186393E-01 -0.32803288733E+00  0.48523229867E+00  0.17130101499E+03  0.17130000000E+03 0. -1.
      622    1    1    2    0    0  0.25719154368E-01 -0.73232145792E-01  0.26956477318E+01  0.30858614869E+01  0.15000000000E+01 0. -1.
</event>
<event>
 5   0  0.6596100E+00  0.9118800E+02  0.7818608E-02  0.1180000E+00
       11   -1    0    0    0    0  0.00000000000E+00  0.00000000000E+00  0.39999999673E+01  0.40000000000E+01  0.51109989000E-03 0. -1.
     -623   -1    0    0    0    0  0.00000000000E+00  0.00000000000E+00  0.12525980253E-10  0.17130000000E+03  0.17130000000E+03 0. -1.
       11    1    1    2    0    0  0.13494555806E+00 -0.11941695396E-02  0.63153807826E+00  0.64579589283E+00  0.51109989000E-03 0. -1.
     -623    1    1    2    0    0 -0.23269062776E+00 -0.38536176326E+00  0.39614531078E+00  0.17130104956E+03  0.17130000000E+03 0. -1.
      622    1    1    2    0    0  0.97745069696E-01  0.38655593280E+00  0.29723165783E+01  0.33531545490E+01  0.15000000000E+01 0. -1.
</event>
<event>
 5   0  0.6596100E+00  0.9118800E+02  0.7818608E-02  0.1180000E+00
       11   -1    0    0    0    0  0.00000000000E+00  0.00000000000E+00  0.39999999673E+01  0.40000000000E+01  0.51109989000E-03 0. -1.
     -623   -1    0    0    0    0  0.00000000000E+00  0.00000000000E+00  0.12525980253E-10  0.17130000000E+03  0.17130000000E+03 0.  1.
       11    1    1    2    0    0 -0.85268279540E-01  0.96983449851E-01  0.76503844770E-02  0.12936482770E+00  0.51109989000E-03 0. -1.
     -623    1    1    2    0    0  0.94318183095E-01  0.14626408099E+00  0.43318657749E+00  0.17130063613E+03  0.17130000000E+03 0.  1.
      622    1    1    2    0    0 -0.90499035550E-02 -0.24324753084E+00  0.35591630054E+01  0.38699990389E+01  0.15000000000E+01 0. -1.
</event>
<event>
 5   0  0.6596100E+00  0.9118800E+02  0.7818608E-02  0.1180000E+00
       11   -1    0    0    0    0  0.00000000000E+00  0.00000000000E+00  0.39999999673E+01  0.40000000000E+01  0.51109989000E-03 0. -1.
     -623   -1    0    0    0    0  0.00000000000E+00  0.00000000000E+00  0.12525980253E-10  0.17130000000E+03  0.17130000000E+03 0.  1.
       11    1    1    2    0    0  0.85199471701E-01  0.43443075292E-01  0.56845840353E-01  0.11125628772E+00  0.51109989000E-03 0. -1.
     -623    1    1    2    0    0  0.10738851602E+00  0.80119699717E-01  0.36313053036E+00  0.17130043729E+03  0.17130000000E+03 0.  1.
      622    1    1    2    0    0 -0.19258798772E+00 -0.12356277501E+00  0.35800235967E+01  0.38883064237E+01  0.15000000000E+01 0. -1.
</event>
<event>
 5   0  0.6596100E+00  0.9118800E+02  0.7818608E-02  0.1180000E+00
       11   -1    0    0    0    0  0.00000000000E+00  0.00000000000E+00  0.39999999673E+01  0.40000000000E+01  0.51109989000E-03 0.  1.
     -623   -1    0    0    0    0  0.00000000000E+00  0.00000000000E+00  0.12525980253E-10  0.17130000000E+03  0.17130000000E+03 0.  1.
       11    1    1    2    0    0 -0.96638070036E-01 -0.11390044348E+00  0.24238374130E-01  0.15132741857E+00  0.51109989000E-03 0.  1.
     -623    1    1    2    0    0 -0.22039340127E-01  0.90443393206E-01  0.43412108624E+00  0.17130057538E+03  0.17130000000E+03 0.  1.
      622    1    1    2    0    0  0.11867741016E+00  0.23457050278E-01  0.35416405070E+01  0.38480971975E+01  0.15000000000E+01 0.  1.
</event>
<event>
 5   0  0.6596100E+00  0.9118800E+02  0.7818608E-02  0.1180000E+00
       11   -1    0    0    0    0  0.00000000000E+00  0.00000000000E+00  0.39999999673E+01  0.40000000000E+01  0.51109989000E-03 0.  1.
     -623   -1    0    0    0    0  0.00000000000E+00  0.00000000000E+00  0.12525980253E-10  0.17130000000E+03  0.17130000000E+03 0. -1.
       11    1    1    2    0    0 -0.11044654445E+00 -0.33897632392E-01  0.10938478888E+00  0.15909991176E+00  0.51109989000E-03 0.  1.
     -623    1    1    2    0    0  0.91795894934E-01  0.56296364972E-03  0.35535929114E+00  0.17130039319E+03  0.17130000000E+03 0. -1.
      622    1    1    2    0    0  0.18650649514E-01  0.33334668742E-01  0.35352558873E+01  0.38405068983E+01  0.15000000000E+01 0.  1.
</event>
<event>
 5   0  0.6596100E+00  0.9118800E+02  0.7818608E-02  0.1180000E+00
       11   -1    0    0    0    0  0.00000000000E+00  0.00000000000E+00  0.39999999673E+01  0.40000000000E+01  0.51109989000E-03 0.  1.
     -623   -1    0    0    0    0  0.00000000000E+00  0.00000000000E+00  0.12525980253E-10  0.17130000000E+03  0.17130000000E+03 0. -1.
       11    1    1    2    0    0  0.21328195328E+00  0.71552077378E-01  0.20015250126E+00  0.30111488896E+00  0.51109989000E-03 0.  1.
     -623    1    1    2    0    0 -0.48395449653E+00  0.46447901002E-01  0.43303711654E+00  0.17130123727E+03  0.17130000000E+03 0. -1.
      622    1    1    2    0    0  0.27067254325E+00 -0.11799997838E+00  0.33668103496E+01  0.36976478402E+01  0.15000000000E+01 0.  1.
</event>
<event>
 5   0  0.6596100E+00  0.9118800E+02  0.7818608E-02  0.1180000E+00
       11   -1    0    0    0    0  0.00000000000E+00  0.00000000000E+00  0.39999999673E+01  0.40000000000E+01  0.51109989000E-03 0.  1.
     -623   -1    0    0    0    0  0.00000000000E+00  0.00000000000E+00  0.12525980253E-10  0.17130000000E+03  0.17130000000E+03 0. -1.
       11    1    1    2    0    0  0.85560510895E-01  0.21339328790E+00  0.21246735661E+00  0.31304941334E+00  0.51109989000E-03 0.  1.
     -623    1    1    2    0    0 -0.27804233160E+00 -0.21789975354E+00  0.42599365121E+00  0.17130089392E+03  0.17130000000E+03 0. -1.
      622    1    1    2    0    0  0.19248182071E+00  0.45064656453E-02  0.33615389595E+01  0.36860566648E+01  0.15000000000E+01 0.  1.
</event>
<event>
 5   0  0.6596100E+00  0.9118800E+02  0.7818608E-02  0.1180000E+00
       11   -1    0    0    0    0  0.00000000000E+00  0.00000000000E+00  0.39999999673E+01  0.40000000000E+01  0.51109989000E-03 0. -1.
     -623   -1    0    0    0    0  0.00000000000E+00  0.00000000000E+00  0.12525980253E-10  0.17130000000E+03  0.17130000000E+03 0.  1.
       11    1    1    2    0    0 -0.12384815475E+00 -0.11346364700E+00  0.25782493290E-01  0.16993340698E+00  0.51109989000E-03 0. -1.
     -623    1    1    2    0    0  0.29323774233E+00  0.13505482540E+00  0.45522783946E+00  0.17130090911E+03  0.17130000000E+03 0.  1.
      622    1    1    2    0    0 -0.16938958758E+00 -0.21591178395E-01  0.35189896346E+01  0.38291574870E+01  0.15000000000E+01 0. -1.
</event>
<event>
 5   0  0.6596100E+00  0.9118800E+02  0.7818608E-02  0.1180000E+00
       11   -1    0    0    0    0  0.00000000000E+00  0.00000000000E+00  0.39999999673E+01  0.40000000000E+01  0.51109989000E-03 0. -1.
     -623   -1    0    0    0    0  0.00000000000E+00  0.00000000000E+00  0.12525980253E-10  0.17130000000E+03  0.17130000000E+03 0.  1.
       11    1    1    2    0    0  0.11254348525E+00  0.30842876192E+00  0.92829081384E+00  0.98464127150E+00  0.51109989000E-03 0. -1.
     -623    1    1    2    0    0 -0.98492177572E-01 -0.34941614762E+00  0.45741979160E+00  0.17130099540E+03  0.17130000000E+03 0.  1.
      622    1    1    2    0    0 -0.14051307681E-01  0.40987385695E-01  0.26142893619E+01  0.30143633280E+01  0.15000000000E+01 0. -1.
</event>
<event>
 5   0  0.6596100E+00  0.9118800E+02  0.7818608E-02  0.1180000E+00
       11   -1    0    0    0    0  0.00000000000E+00  0.00000000000E+00  0.39999999673E+01  0.40000000000E+01  0.51109989000E-03 0. -1.
     -623   -1    0    0    0    0  0.00000000000E+00  0.00000000000E+00  0.12525980253E-10  0.17130000000E+03  0.17130000000E+03 0. -1.
       11    1    1    2    0    0 -0.53232621715E-01 -0.11405636334E+00  0.64672160178E+00  0.65885632535E+00  0.51109989000E-03 0. -1.
     -623    1    1    2    0    0 -0.66573907920E+00  0.68985554440E+00  0.51750017730E+00  0.17130346440E+03  0.17130000000E+03 0. -1.
      622    1    1    2    0    0  0.71897170091E+00 -0.57579918106E+00  0.28357781883E+01  0.33376792741E+01  0.15000000000E+01 0. -1.
</event>
<event>
 5   0  0.6596100E+00  0.9118800E+02  0.7818608E-02  0.1180000E+00
       11   -1    0    0    0    0  0.00000000000E+00  0.00000000000E+00  0.39999999673E+01  0.40000000000E+01  0.51109989000E-03 0.  1.
     -623   -1    0    0    0    0  0.00000000000E+00  0.00000000000E+00  0.12525980253E-10  0.17130000000E+03  0.17130000000E+03 0. -1.
       11    1    1    2    0    0 -0.23704374688E+00  0.34191293370E+00  0.52444693415E+00  0.66943187864E+00  0.51109989000E-03 0.  1.
     -623    1    1    2    0    0 -0.46738988079E-02  0.49279289881E+00  0.63390006056E+00  0.17130188176E+03  0.17130000000E+03 0. -1.
      622    1    1    2    0    0  0.24171764568E+00 -0.83470583251E+00  0.28416529727E+01  0.33286863571E+01  0.15000000000E+01 0.  1.
</event>
<event>
 5   0  0.6596100E+00  0.9118800E+02  0.7818608E-02  0.1180000E+00
       11   -1    0    0    0    0  0.00000000000E+00  0.00000000000E+00  0.39999999673E+01  0.40000000000E+01  0.51109989000E-03 0.  1.
     -623   -1    0    0    0    0  0.00000000000E+00  0.00000000000E+00  0.12525980253E-10  0.17130000000E+03  0.17130000000E+03 0. -1.
       11    1    1    2    0    0  0.34526366024E-02  0.18215278757E+00  0.92706397403E+00  0.94479597368E+00  0.51109989000E-03 0.  1.
     -623    1    1    2    0    0  0.47196988471E-01 -0.14724112325E+00  0.41266832283E+00  0.17130056685E+03  0.17130000000E+03 0. -1.
      622    1    1    2    0    0 -0.50649625074E-01 -0.34911664317E-01  0.26602676705E+01  0.30546371777E+01  0.15000000000E+01 0.  1.
</event>
<event>
 5   0  0.6596100E+00  0.9118800E+02  0.7818608E-02  0.1180000E+00
       11   -1    0    0    0    0  0.00000000000E+00  0.00000000000E+00  0.39999999673E+01  0.40000000000E+01  0.51109989000E-03 0. -1.
     -623   -1    0    0    0    0  0.00000000000E+00  0.00000000000E+00  0.12525980253E-10  0.17130000000E+03  0.17130000000E+03 0. -1.
       11    1    1    2    0    0  0.39200676546E+00 -0.89829335429E-01  0.36047871228E+00  0.54007756563E+00  0.51109989000E-03 0. -1.
     -623    1    1    2    0    0 -0.12407890283E+00  0.90661609670E-01  0.53419724203E+00  0.17130090187E+03  0.17130000000E+03 0. -1.
      622    1    1    2    0    0 -0.26792786263E+00 -0.83227424074E-03  0.31053240130E+01  0.34590205634E+01  0.15000000000E+01 0.  0.
</event>
<event>
 5   0  0.6596100E+00  0.9118800E+02  0.7818608E-02  0.1180000E+00
       11   -1    0    0    0    0  0.00000000000E+00  0.00000000000E+00  0.39999999673E+01  0.40000000000E+01  0.51109989000E-03 0.  1.
     -623   -1    0    0    0    0  0.00000000000E+00  0.00000000000E+00  0.12525980253E-10  0.17130000000E+03  0.17130000000E+03 0. -1.
       11    1    1    2    0    0 -0.35886174152E+00  0.70393312235E-01 -0.31422276283E-01  0.36704848263E+00  0.51109989000E-03 0.  1.
     -623    1    1    2    0    0  0.57069984024E+00  0.71944248449E-01  0.73525391123E+00  0.17130254368E+03  0.17130000000E+03 0. -1.
      622    1    1    2    0    0 -0.21183809872E+00 -0.14233756068E+00  0.32961683324E+01  0.36304078334E+01  0.15000000000E+01 0.  1.
</event>
<event>
 5   0  0.6596100E+00  0.9118800E+02  0.7818608E-02  0.1180000E+00
       11   -1    0    0    0    0  0.00000000000E+00  0.00000000000E+00  0.39999999673E+01  0.40000000000E+01  0.51109989000E-03 0. -1.
     -623   -1    0    0    0    0  0.00000000000E+00  0.00000000000E+00  0.12525980253E-10  0.17130000000E+03  0.17130000000E+03 0. -1.
       11    1    1    2    0    0  0.18489663367E+00  0.45519862911E-01  0.20461975543E+00  0.27951445150E+00  0.51109989000E-03 0. -1.
     -623    1    1    2    0    0 -0.37793893850E+00  0.27706850659E+00  0.41274576818E+00  0.17130113824E+03  0.17130000000E+03 0. -1.
      622    1    1    2    0    0  0.19304230483E+00 -0.32258836950E+00  0.33826344438E+01  0.37193473040E+01  0.15000000000E+01 0. -1.
</event>
<event>
 5   0  0.6596100E+00  0.9118800E+02  0.7818608E-02  0.1180000E+00
       11   -1    0    0    0    0  0.00000000000E+00  0.00000000000E+00  0.39999999673E+01  0.40000000000E+01  0.51109989000E-03 0. -1.
     -623   -1    0    0    0    0  0.00000000000E+00  0.00000000000E+00  0.12525980253E-10  0.17130000000E+03  0.17130000000E+03 0.  1.
       11    1    1    2    0    0  0.17919599916E-01 -0.16408584871E-01  0.34142592097E-01  0.41908609334E-01  0.51109989000E-03 0. -1.
     -623    1    1    2    0    0  0.92890450443E-01  0.46358345408E-01  0.30513185286E+00  0.17130030322E+03  0.17130000000E+03 0.  1.
      622    1    1    2    0    0 -0.11081005036E+00 -0.29949760537E-01  0.36607255224E+01  0.39577881709E+01  0.15000000000E+01 0. -1.
</event>
<event>
 5   0  0.6596100E+00  0.9118800E+02  0.7818608E-02  0.1180000E+00
       11   -1    0    0    0    0  0.00000000000E+00  0.00000000000E+00  0.39999999673E+01  0.40000000000E+01  0.51109989000E-03 0.  1.
     -623   -1    0    0    0    0  0.00000000000E+00  0.00000000000E+00  0.12525980253E-10  0.17130000000E+03  0.17130000000E+03 0.  1.
       11    1    1    2    0    0  0.20091953612E+00 -0.11169006946E-01  0.11279918052E+00  0.23068880133E+00  0.51109989000E-03 0.  1.
     -623    1    1    2    0    0 -0.41839619784E+00  0.21871033150E-01  0.43724017113E+00  0.17130107038E+03  0.17130000000E+03 0.  1.
      622    1    1    2    0    0  0.21747666172E+00 -0.10702026203E-01  0.34499606157E+01  0.37682408206E+01  0.15000000000E+01 0.  1.
</event>
<event>
 5   0  0.6596100E+00  0.9118800E+02  0.7818608E-02  0.1180000E+00
       11   -1    0    0    0    0  0.00000000000E+00  0.00000000000E+00  0.39999999673E+01  0.40000000000E+01  0.51109989000E-03 0. -1.
     -623   -1    0    0    0    0  0.00000000000E+00  0.00000000000E+00  0.12525980253E-10  0.17130000000E+03  0.17130000000E+03 0.  1.
       11    1    1    2    0    0  0.71727915774E-01  0.84851578990E-01 -0.64927184166E-01  0.12868754728E+00  0.51109989000E-03 0. -1.
     -623    1    1    2    0    0 -0.22424132226E+00 -0.12350801491E+00  0.50049675635E+00  0.17130092246E+03  0.17130000000E+03 0.  1.
      622    1    1    2    0    0  0.15251340649E+00  0.38656435923E-01  0.35644303952E+01  0.38703899934E+01  0.15000000000E+01 0. -1.
</event>
<event>
 5   0  0.6596100E+00  0.9118800E+02  0.7818608E-02  0.1180000E+00
       11   -1    0    0    0    0  0.00000000000E+00  0.00000000000E+00  0.39999999673E+01  0.40000000000E+01  0.51109989000E-03 0. -1.
     -623   -1    0    0    0    0  0.00000000000E+00  0.00000000000E+00  0.12525980253E-10  0.17130000000E+03  0.17130000000E+03 0. -1.
       11    1    1    2    0    0 -0.10007409939E+00 -0.33952265785E-01 -0.64944513467E-01  0.12403883574E+00  0.51109989000E-03 0. -1.
     -623    1    1    2    0    0  0.10899380268E+00 -0.14921083746E+00  0.49659825096E+00  0.17130081948E+03  0.17130000000E+03 0. -1.
      622    1    1    2    0    0 -0.89197032956E-02  0.18316310325E+00  0.35683462299E+01  0.38751416877E+01  0.15000000000E+01 0. -1.
</event>
<event>
 5   0  0.6596100E+00  0.9118800E+02  0.7818608E-02  0.1180000E+00
       11   -1    0    0    0    0  0.00000000000E+00  0.00000000000E+00  0.39999999673E+01  0.40000000000E+01  0.51109989000E-03 0.  1.
     -623   -1    0    0    0    0  0.00000000000E+00  0.00000000000E+00  0.12525980253E-10  0.17130000000E+03  0.17130000000E+03 0. -1.
       11    1    1    2    0    0 -0.22989337040E+00  0.80541158130E-01  0.19841322699E+00  0.31417496682E+00  0.51109989000E-03 0.  1.
     -623    1    1    2    0    0  0.47587119807E+00  0.21925339093E+00  0.45875993999E+00  0.17130141560E+03  0.17130000000E+03 0. -1.
      622    1    1    2    0    0 -0.24597782767E+00 -0.29979454906E+00  0.33428268004E+01  0.36844094345E+01  0.15000000000E+01 0.  1.
</event>
<event>
 5   0  0.6596100E+00  0.9118800E+02  0.7818608E-02  0.1180000E+00
       11   -1    0    0    0    0  0.00000000000E+00  0.00000000000E+00  0.39999999673E+01  0.40000000000E+01  0.51109989000E-03 0. -1.
     -623   -1    0    0    0    0  0.00000000000E+00  0.00000000000E+00  0.12525980253E-10  0.17130000000E+03  0.17130000000E+03 0.  1.
       11    1    1    2    0    0  0.39317307615E-01 -0.82713147540E-01 -0.49602399609E-01  0.10415361119E+00  0.51109989000E-03 0. -1.
     -623    1    1    2    0    0  0.11444478547E+00 -0.65224349185E-01  0.46116819920E+00  0.17130067142E+03  0.17130000000E+03 0.  1.
      622    1    1    2    0    0 -0.15376209308E+00  0.14793749672E+00  0.35884341678E+01  0.38951749718E+01  0.15000000000E+01 0. -1.
</event>
<event>
 5   0  0.6596100E+00  0.9118800E+02  0.7818608E-02  0.1180000E+00
       11   -1    0    0    0    0  0.00000000000E+00  0.00000000000E+00  0.39999999673E+01  0.40000000000E+01  0.51109989000E-03 0.  1.
     -623   -1    0    0    0    0  0.00000000000E+00  0.00000000000E+00  0.12525980253E-10  0.17130000000E+03  0.17130000000E+03 0. -1.
       11    1    1    2    0    0 -0.60103449439E-01 -0.35031895982E-01  0.22302721712E+00  0.23362589576E+00  0.51109989000E-03 0.  1.
     -623    1    1    2    0    0  0.98095675936E-01  0.58720535447E-01  0.32284617977E+00  0.17130034238E+03  0.17130000000E+03 0. -1.
      622    1    1    2    0    0 -0.37992226496E-01 -0.23688639465E-01  0.34541265705E+01  0.37660317213E+01  0.15000000000E+01 0.  1.
</event>
<event>
 5   0  0.6596100E+00  0.9118800E+02  0.7818608E-02  0.1180000E+00
       11   -1    0    0    0    0  0.00000000000E+00  0.00000000000E+00  0.39999999673E+01  0.40000000000E+01  0.51109989000E-03 0.  1.
     -623   -1    0    0    0    0  0.00000000000E+00  0.00000000000E+00  0.12525980253E-10  0.17130000000E+03  0.17130000000E+03 0. -1.
       11    1    1    2    0    0 -0.97806177590E-01 -0.11404634249E-01  0.61616928994E-01  0.11615946461E+00  0.51109989000E-03 0.  1.
     -623    1    1    2    0    0  0.88164194927E-01 -0.26376235738E+00  0.36716507393E+00  0.17130061924E+03  0.17130000000E+03 0. -1.
      622    1    1    2    0    0  0.96419826636E-02  0.27516699163E+00  0.35712179644E+01  0.38832212905E+01  0.15000000000E+01 0.  1.
</event>
<event>
 5   0  0.6596100E+00  0.9118800E+02  0.7818608E-02  0.1180000E+00
       11   -1    0    0    0    0  0.00000000000E+00  0.00000000000E+00  0.39999999673E+01  0.40000000000E+01  0.51109989000E-03 0. -1.
     -623   -1    0    0    0    0  0.00000000000E+00  0.00000000000E+00  0.12525980253E-10  0.17130000000E+03  0.17130000000E+03 0. -1.
       11    1    1    2    0    0  0.27837961502E-01  0.13803621359E+00  0.18989117085E+00  0.23640614703E+00  0.51109989000E-03 0. -1.
     -623    1    1    2    0    0  0.48282590261E-01  0.40775764263E-01  0.36426088513E+00  0.17130039895E+03  0.17130000000E+03 0. -1.
      622    1    1    2    0    0 -0.76120551763E-01 -0.17881197785E+00  0.34458479114E+01  0.37631949046E+01  0.15000000000E+01 0. -1.
</event>
<event>
 5   0  0.6596100E+00  0.9118800E+02  0.7818608E-02  0.1180000E+00
       11   -1    0    0    0    0  0.00000000000E+00  0.00000000000E+00  0.39999999673E+01  0.40000000000E+01  0.51109989000E-03 0. -1.
     -623   -1    0    0    0    0  0.00000000000E+00  0.00000000000E+00  0.12525980253E-10  0.17130000000E+03  0.17130000000E+03 0.  1.
       11    1    1    2    0    0  0.91621466105E-01  0.70095009404E+00  0.84166998818E+00  0.10991515626E+01  0.51109989000E-03 0. -1.
     -623    1    1    2    0    0  0.69395314693E-01 -0.38057897888E+00  0.70365235288E+00  0.17130188202E+03  0.17130000000E+03 0.  1.
      622    1    1    2    0    0 -0.16101678080E+00 -0.32037111516E+00  0.24546776263E+01  0.28989664200E+01  0.15000000000E+01 0. -1.
</event>
<event>
 5   0  0.6596100E+00  0.9118800E+02  0.7818608E-02  0.1180000E+00
       11   -1    0    0    0    0  0.00000000000E+00  0.00000000000E+00  0.39999999673E+01  0.40000000000E+01  0.51109989000E-03 0. -1.
     -623   -1    0    0    0    0  0.00000000000E+00  0.00000000000E+00  0.12525980253E-10  0.17130000000E+03  0.17130000000E+03 0.  1.
       11    1    1    2    0    0  0.48672979904E-01 -0.12802266079E+00  0.10882103877E+01  0.10967957740E+01  0.51109989000E-03 0. -1.
     -623    1    1    2    0    0  0.19492385037E+00  0.39010446251E+00  0.45336259221E+00  0.17130115503E+03  0.17130000000E+03 0.  1.
      622    1    1    2    0    0 -0.24359683027E+00 -0.26208180172E+00  0.24584269874E+01  0.29020491965E+01  0.15000000000E+01 0. -1.
</event>
<event>
 5   0  0.6596100E+00  0.9118800E+02  0.7818608E-02  0.1180000E+00
       11   -1    0    0    0    0  0.00000000000E+00  0.00000000000E+00  0.39999999673E+01  0.40000000000E+01  0.51109989000E-03 0. -1.
     -623   -1    0    0    0    0  0.00000000000E+00  0.00000000000E+00  0.12525980253E-10  0.17130000000E+03  0.17130000000E+03 0.  1.
       11    1    1    2    0    0  0.31270300786E-02 -0.79333491978E-01 -0.12310484345E+00  0.14648769562E+00  0.51109989000E-03 0. -1.
     -623    1    1    2    0    0 -0.10135782885E+00  0.22839838409E+00  0.57927417272E+00  0.17130116169E+03  0.17130000000E+03 0.  1.
      622    1    1    2    0    0  0.98230798772E-01 -0.14906489211E+00  0.35438306381E+01  0.38523506101E+01  0.15000000000E+01 0. -1.
</event>
<event>
 5   0  0.6596100E+00  0.9118800E+02  0.7818608E-02  0.1180000E+00
       11   -1    0    0    0    0  0.00000000000E+00  0.00000000000E+00  0.39999999673E+01  0.40000000000E+01  0.51109989000E-03 0.  1.
     -623   -1    0    0    0    0  0.00000000000E+00  0.00000000000E+00  0.12525980253E-10  0.17130000000E+03  0.17130000000E+03 0. -1.
       11    1    1    2    0    0  0.29372926184E+00  0.18689626651E+00  0.20943977272E+00  0.40629099586E+00  0.51109989000E-03 0.  1.
     -623    1    1    2    0    0 -0.45207218117E-01 -0.43848764193E+00  0.54566233971E+00  0.17130143625E+03  0.17130000000E+03 0. -1.
      622    1    1    2    0    0 -0.24852204373E+00  0.25159137542E+00  0.32448978549E+01  0.35922727507E+01  0.15000000000E+01 0.  1.
</event>
<event>
 5   0  0.6596100E+00  0.9118800E+02  0.7818608E-02  0.1180000E+00
       11   -1    0    0    0    0  0.00000000000E+00  0.00000000000E+00  0.39999999673E+01  0.40000000000E+01  0.51109989000E-03 0.  1.
     -623   -1    0    0    0    0  0.00000000000E+00  0.00000000000E+00  0.12525980253E-10  0.17130000000E+03  0.17130000000E+03 0. -1.
       11    1    1    2    0    0 -0.22187318885E+00  0.68281539840E-01  0.14333637209E+00  0.27282898930E+00  0.51109989000E-03 0.  1.
     -623    1    1    2    0    0 -0.25332774182E+00 -0.34431592740E+00  0.49057056938E+00  0.17130123580E+03  0.17130000000E+03 0. -1.
      622    1    1    2    0    0  0.47520093067E+00  0.27603438756E+00  0.33660930259E+01  0.37259352070E+01  0.15000000000E+01 0.  1.
</event>
<event>
 5   0  0.6596100E+00  0.9118800E+02  0.7818608E-02  0.1180000E+00
       11   -1    0    0    0    0  0.00000000000E+00  0.00000000000E+00  0.39999999673E+01  0.40000000000E+01  0.51109989000E-03 0.  1.
     -623   -1    0    0    0    0  0.00000000000E+00  0.00000000000E+00  0.12525980253E-10  0.17130000000E+03  0.17130000000E+03 0.  1.
       11    1    1    2    0    0  0.19773699029E+00  0.16314553754E+00  0.70513222955E-01  0.26587357820E+00  0.51109989000E-03 0.  1.
     -623    1    1    2    0    0 -0.20528988114E+00 -0.76258247130E-01  0.51198253091E+00  0.17130090509E+03  0.17130000000E+03 0.  1.
      622    1    1    2    0    0  0.75528908479E-02 -0.86887290408E-01  0.34175042135E+01  0.37332213297E+01  0.15000000000E+01 0.  1.
</event>
<event>
 5   0  0.6596100E+00  0.9118800E+02  0.7818608E-02  0.1180000E+00
       11   -1    0    0    0    0  0.00000000000E+00  0.00000000000E+00  0.39999999673E+01  0.40000000000E+01  0.51109989000E-03 0. -1.
     -623   -1    0    0    0    0  0.00000000000E+00  0.00000000000E+00  0.12525980253E-10  0.17130000000E+03  0.17130000000E+03 0. -1.
       11    1    1    2    0    0 -0.23807390442E-01 -0.71470639770E-01 -0.17592859445E-01  0.77360287693E-01  0.51109989000E-03 0. -1.
     -623    1    1    2    0    0  0.17103616325E+00  0.13300111999E+00  0.39724036923E+00  0.17130059761E+03  0.17130000000E+03 0. -1.
      622    1    1    2    0    0 -0.14722877280E+00 -0.61530480215E-01  0.36203524576E+01  0.39220420993E+01  0.15000000000E+01 0. -1.
</event>
<event>
 5   0  0.6596100E+00  0.9118800E+02  0.7818608E-02  0.1180000E+00
       11   -1    0    0    0    0  0.00000000000E+00  0.00000000000E+00  0.39999999673E+01  0.40000000000E+01  0.51109989000E-03 0.  1.
     -623   -1    0    0    0    0  0.00000000000E+00  0.00000000000E+00  0.12525980253E-10  0.17130000000E+03  0.17130000000E+03 0. -1.
       11    1    1    2    0    0  0.19929367732E+00 -0.10957406395E+00  0.13715194049E+00  0.26558494181E+00  0.51109989000E-03 0.  1.
     -623    1    1    2    0    0 -0.23482734924E+00  0.55693781846E+00  0.47439832166E+00  0.17130172322E+03  0.17130000000E+03 0. -1.
      622    1    1    2    0    0  0.35533671915E-01 -0.44736375450E+00  0.33884497052E+01  0.37326918404E+01  0.15000000000E+01 0.  1.
</event>
<event>
 5   0  0.6596100E+00  0.9118800E+02  0.7818608E-02  0.1180000E+00
       11   -1    0    0    0    0  0.00000000000E+00  0.00000000000E+00  0.39999999673E+01  0.40000000000E+01  0.51109989000E-03 0.  1.
     -623   -1    0    0    0    0  0.00000000000E+00  0.00000000000E+00  0.12525980253E-10  0.17130000000E+03  0.17130000000E+03 0.  1.
       11    1    1    2    0    0  0.25469445543E-02 -0.77604266975E-02 -0.24362590642E-01  0.25700353986E-01  0.51109989000E-03 0.  1.
     -623    1    1    2    0    0 -0.46868774277E-01  0.65605413638E-01  0.34511900238E+00  0.17130036663E+03  0.17130000000E+03 0.  1.
      622    1    1    2    0    0  0.44321829722E-01 -0.57844986941E-01  0.36792435556E+01  0.39739330151E+01  0.15000000000E+01 0.  1.
</event>
<event>
 5   0  0.6596100E+00  0.9118800E+02  0.7818608E-02  0.1180000E+00
       11   -1    0    0    0    0  0.00000000000E+00  0.00000000000E+00  0.39999999673E+01  0.40000000000E+01  0.51109989000E-03 0. -1.
     -623   -1    0    0    0    0  0.00000000000E+00  0.00000000000E+00  0.12525980253E-10  0.17130000000E+03  0.17130000000E+03 0.  1.
       11    1    1    2    0    0  0.59044396814E-01  0.33309775041E+00  0.15125389916E+00  0.37056491383E+00  0.51109989000E-03 0. -1.
     -623    1    1    2    0    0 -0.14014202410E-02 -0.39434807151E+00  0.54630634292E+00  0.17130132505E+03  0.17130000000E+03 0.  1.
      622    1    1    2    0    0 -0.57642976574E-01  0.61250321100E-01  0.33024397253E+01  0.36281100388E+01  0.15000000000E+01 0. -1.
</event>
<event>
 5   0  0.6596100E+00  0.9118800E+02  0.7818608E-02  0.1180000E+00
       11   -1    0    0    0    0  0.00000000000E+00  0.00000000000E+00  0.39999999673E+01  0.40000000000E+01  0.51109989000E-03 0. -1.
     -623   -1    0    0    0    0  0.00000000000E+00  0.00000000000E+00  0.12525980253E-10  0.17130000000E+03  0.17130000000E+03 0. -1.
       11    1    1    2    0    0 -0.23609964068E-01 -0.70931464879E-02 -0.18554061371E-01  0.30858670497E-01  0.51109989000E-03 0. -1.
     -623    1    1    2    0    0  0.89012902675E-01 -0.55226797203E-01  0.34528504721E+00  0.17130038002E+03  0.17130000000E+03 0. -1.
      622    1    1    2    0    0 -0.65402938607E-01  0.62319943691E-01  0.36732689815E+01  0.39687613093E+01  0.15000000000E+01 0. -1.
</event>
<event>
 5   0  0.6596100E+00  0.9118800E+02  0.7818608E-02  0.1180000E+00
       11   -1    0    0    0    0  0.00000000000E+00  0.00000000000E+00  0.39999999673E+01  0.40000000000E+01  0.51109989000E-03 0.  1.
     -623   -1    0    0    0    0  0.00000000000E+00  0.00000000000E+00  0.12525980253E-10  0.17130000000E+03  0.17130000000E+03 0.  1.
       11    1    1    2    0    0 -0.40065931884E-01  0.68271783614E-01  0.91924701139E-01  0.12131251888E+00  0.51109989000E-03 0.  1.
     -623    1    1    2    0    0  0.37154354885E+00 -0.55097979821E-01  0.34742381818E+00  0.17130076411E+03  0.17130000000E+03 0.  1.
      622    1    1    2    0    0 -0.33147761696E+00 -0.13173803792E-01  0.35606514480E+01  0.38779233739E+01  0.15000000000E+01 0.  1.
</event>
<event>
 5   0  0.6596100E+00  0.9118800E+02  0.7818608E-02  0.1180000E+00
       11   -1    0    0    0    0  0.00000000000E+00  0.00000000000E+00  0.39999999673E+01  0.40000000000E+01  0.51109989000E-03 0.  1.
     -623   -1    0    0    0    0  0.00000000000E+00  0.00000000000E+00  0.12525980253E-10  0.17130000000E+03  0.17130000000E+03 0.  1.
       11    1    1    2    0    0  0.40623900677E+00  0.20887660977E+00  0.27839469225E+00  0.53494245917E+00  0.51109989000E-03 0.  1.
     -623    1    1    2    0    0 -0.11306443772E+00 -0.32606641111E+00  0.61566505783E+00  0.17130145401E+03  0.17130000000E+03 0.  1.
      622    1    1    2    0    0 -0.29317456905E+00  0.11718980134E+00  0.31059402173E+01  0.34636035297E+01  0.15000000000E+01 0.  1.
</event>
<event>
 5   0  0.6596100E+00  0.9118800E+02  0.7818608E-02  0.1180000E+00
       11   -1    0    0    0    0  0.00000000000E+00  0.00000000000E+00  0.39999999673E+01  0.40000000000E+01  0.51109989000E-03 0.  1.
     -623   -1    0    0    0    0  0.00000000000E+00  0.00000000000E+00  0.12525980253E-10  0.17130000000E+03  0.17130000000E+03 0.  1.
       11    1    1    2    0    0 -0.83070383389E-01 -0.47230899591E-01  0.36929897624E+00  0.38146224131E+00  0.51109989000E-03 0.  1.
     -623    1    1    2    0    0  0.20957002845E+00  0.29516723882E+00  0.35030755595E+00  0.17130074068E+03  0.17130000000E+03 0.  1.
      622    1    1    2    0    0 -0.12649964506E+00 -0.24793633923E+00  0.32803934352E+01  0.36177970753E+01  0.15000000000E+01 0.  1.
</event>
<event>
 5   0  0.6596100E+00  0.9118800E+02  0.7818608E-02  0.1180000E+00
       11   -1    0    0    0    0  0.00000000000E+00  0.00000000000E+00  0.39999999673E+01  0.40000000000E+01  0.51109989000E-03 0.  1.
     -623   -1    0    0    0    0  0.00000000000E+00  0.00000000000E+00  0.12525980253E-10  0.17130000000E+03  0.17130000000E+03 0.  1.
       11    1    1    2    0    0  0.22025566312E+00 -0.98638379666E-01  0.57698517819E+00  0.62542325201E+00  0.51109989000E-03 0.  1.
     -623    1    1    2    0    0 -0.15875539675E+00  0.27416767044E-01  0.40221764101E+00  0.17130054797E+03  0.17130000000E+03 0.  1.
      622    1    1    2    0    0 -0.61500266373E-01  0.71221612622E-01  0.30207971482E+01  0.33740287804E+01  0.15000000000E+01 0.  1.
</event>
<event>
 5   0  0.6596100E+00  0.9118800E+02  0.7818608E-02  0.1180000E+00
       11   -1    0    0    0    0  0.00000000000E+00  0.00000000000E+00  0.39999999673E+01  0.40000000000E+01  0.51109989000E-03 0.  1.
     -623   -1    0    0    0    0  0.00000000000E+00  0.00000000000E+00  0.12525980253E-10  0.17130000000E+03  0.17130000000E+03 0. -1.
       11    1    1    2    0    0 -0.29648771200E+00 -0.71528842286E-01  0.59383537542E+00  0.66757924846E+00  0.51109989000E-03 0.  1.
     -623    1    1    2    0    0  0.22350769938E+00  0.18380769222E+00  0.43433061157E+00  0.17130079505E+03  0.17130000000E+03 0. -1.
      622    1    1    2    0    0  0.72980012625E-01 -0.11227884994E+00  0.29718339804E+01  0.33316257037E+01  0.15000000000E+01 0.  1.
</event>
<event>
 5   0  0.6596100E+00  0.9118800E+02  0.7818608E-02  0.1180000E+00
       11   -1    0    0    0    0  0.00000000000E+00  0.00000000000E+00  0.39999999673E+01  0.40000000000E+01  0.51109989000E-03 0.  1.
     -623   -1    0    0    0    0  0.00000000000E+00  0.00000000000E+00  0.12525980253E-10  0.17130000000E+03  0.17130000000E+03 0. -1.
       11    1    1    2    0    0  0.27961822634E-01 -0.10531773457E+00  0.81489307261E-01  0.13606784029E+00  0.51109989000E-03 0.  1.
     -623    1    1    2    0    0 -0.27313712248E+00  0.25235131415E+00  0.36998482130E+00  0.17130080319E+03  0.17130000000E+03 0. -1.
      622    1    1    2    0    0  0.24517529984E+00 -0.14703357958E+00  0.35485258388E+01  0.38631289688E+01  0.15000000000E+01 0.  1.
</event>
<event>
 5   0  0.6596100E+00  0.9118800E+02  0.7818608E-02  0.1180000E+00
       11   -1    0    0    0    0  0.00000000000E+00  0.00000000000E+00  0.39999999673E+01  0.40000000000E+01  0.51109989000E-03 0. -1.
     -623   -1    0    0    0    0  0.00000000000E+00  0.00000000000E+00  0.12525980253E-10  0.17130000000E+03  0.17130000000E+03 0.  1.
       11    1    1    2    0    0 -0.21358397453E+00  0.11454115585E+00  0.41771993835E+00  0.48293684750E+00  0.51109989000E-03 0. -1.
     -623    1    1    2    0    0  0.35537653233E-01 -0.21614066566E+00  0.40843369935E+00  0.17130062696E+03  0.17130000000E+03 0.  1.
      622    1    1    2    0    0  0.17804632129E+00  0.10159950981E+00  0.31738463297E+01  0.35164361898E+01  0.15000000000E+01 0. -1.
</event>
<event>
 5   0  0.6596100E+00  0.9118800E+02  0.7818608E-02  0.1180000E+00
       11   -1    0    0    0    0  0.00000000000E+00  0.00000000000E+00  0.39999999673E+01  0.40000000000E+01  0.51109989000E-03 0. -1.
     -623   -1    0    0    0    0  0.00000000000E+00  0.00000000000E+00  0.12525980253E-10  0.17130000000E+03  0.17130000000E+03 0. -1.
       11    1    1    2    0    0 -0.18715024487E+00 -0.39739930837E+00  0.22435458655E+00  0.49324098185E+00  0.51109989000E-03 0. -1.
     -623    1    1    2    0    0  0.23786071006E+00  0.60729146748E-03  0.63271815383E+00  0.17130133365E+03  0.17130000000E+03 0. -1.
      622    1    1    2    0    0 -0.50710465189E-01  0.39679201690E+00  0.31429272270E+01  0.35054253679E+01  0.15000000000E+01 0. -1.
</event>
<event>
 5   0  0.6596100E+00  0.9118800E+02  0.7818608E-02  0.1180000E+00
       11   -1    0    0    0    0  0.00000000000E+00  0.00000000000E+00  0.39999999673E+01  0.40000000000E+01  0.51109989000E-03 0. -1.
     -623   -1    0    0    0    0  0.00000000000E+00  0.00000000000E+00  0.12525980253E-10  0.17130000000E+03  0.17130000000E+03 0.  1.
       11    1    1    2    0    0 -0.62486949883E-01 -0.15326768859E-01  0.10886176768E+00  0.12645423850E+00  0.51109989000E-03 0. -1.
     -623    1    1    2    0    0  0.73318571490E-01  0.48470496096E-01  0.32033352915E+00  0.17130032206E+03  0.17130000000E+03 0.  1.
      622    1    1    2    0    0 -0.10831621607E-01 -0.33143727236E-01  0.35708046705E+01  0.38732236994E+01  0.15000000000E+01 0. -1.
</event>
<event>
 5   0  0.6596100E+00  0.9118800E+02  0.7818608E-02  0.1180000E+00
       11   -1    0    0    0    0  0.00000000000E+00  0.00000000000E+00  0.39999999673E+01  0.40000000000E+01  0.51109989000E-03 0.  1.
     -623   -1    0    0    0    0  0.00000000000E+00  0.00000000000E+00  0.12525980253E-10  0.17130000000E+03  0.17130000000E+03 0.  1.
       11    1    1    2    0    0 -0.75840702262E-01 -0.75126803432E-01  0.45169965661E-01  0.11591564059E+00  0.51109989000E-03 0.  1.
     -623    1    1    2    0    0  0.31572969769E+00  0.28745184325E-01  0.38119879550E+00  0.17130071752E+03  0.17130000000E+03 0.  1.
      622    1    1    2    0    0 -0.23988899543E+00  0.46381619107E-01  0.35736312062E+01  0.38833668360E+01  0.15000000000E+01 0.  1.
</event>
<event>
 5   0  0.6596100E+00  0.9118800E+02  0.7818608E-02  0.1180000E+00
       11   -1    0    0    0    0  0.00000000000E+00  0.00000000000E+00  0.39999999673E+01  0.40000000000E+01  0.51109989000E-03 0.  1.
     -623   -1    0    0    0    0  0.00000000000E+00  0.00000000000E+00  0.12525980253E-10  0.17130000000E+03  0.17130000000E+03 0.  1.
       11    1    1    2    0    0  0.11184770224E-01 -0.48323529526E-01 -0.20219150310E-01  0.53566200633E-01  0.51109989000E-03 0.  1.
     -623    1    1    2    0    0 -0.24516810325E-01 -0.37748058991E-01  0.37144829642E+00  0.17130040864E+03  0.17130000000E+03 0.  1.
      622    1    1    2    0    0  0.13332040101E-01  0.86071588517E-01  0.36487708213E+01  0.39460251605E+01  0.15000000000E+01 0.  1.
</event>
<event>
 5   0  0.6596100E+00  0.9118800E+02  0.7818608E-02  0.1180000E+00
       11   -1    0    0    0    0  0.00000000000E+00  0.00000000000E+00  0.39999999673E+01  0.40000000000E+01  0.51109989000E-03 0.  1.
     -623   -1    0    0    0    0  0.00000000000E+00  0.00000000000E+00  0.12525980253E-10  0.17130000000E+03  0.17130000000E+03 0. -1.
       11    1    1    2    0    0  0.75944779338E-03 -0.94827342481E-01  0.31036048060E+00  0.32452533149E+00  0.51109989000E-03 0.  1.
     -623    1    1    2    0    0  0.72106652725E-01  0.23647866883E+00  0.33852483397E+00  0.17130051290E+03  0.17130000000E+03 0. -1.
      622    1    1    2    0    0 -0.72866100518E-01 -0.14165132635E+00  0.33511146528E+01  0.36749617662E+01  0.15000000000E+01 0.  1.
</event>
<event>
 5   0  0.6596100E+00  0.9118800E+02  0.7818608E-02  0.1180000E+00
       11   -1    0    0    0    0  0.00000000000E+00  0.00000000000E+00  0.39999999673E+01  0.40000000000E+01  0.51109989000E-03 0. -1.
     -623   -1    0    0    0    0  0.00000000000E+00  0.00000000000E+00  0.12525980253E-10  0.17130000000E+03  0.17130000000E+03 0. -1.
       11    1    1    2    0    0 -0.37185319222E-01 -0.30080991409E+00  0.51790318749E+00  0.60007776597E+00  0.51109989000E-03 0. -1.
     -623    1    1    2    0    0  0.31343985196E+00  0.20667080311E+00  0.44605548351E+00  0.17130099218E+03  0.17130000000E+03 0. -1.
      622    1    1    2    0    0 -0.27625453274E+00  0.94139110976E-01  0.30360412964E+01  0.33989300511E+01  0.15000000000E+01 0. -1.
</event>
<event>
 5   0  0.6596100E+00  0.9118800E+02  0.7818608E-02  0.1180000E+00
       11   -1    0    0    0    0  0.00000000000E+00  0.00000000000E+00  0.39999999673E+01  0.40000000000E+01  0.51109989000E-03 0.  1.
     -623   -1    0    0    0    0  0.00000000000E+00  0.00000000000E+00  0.12525980253E-10  0.17130000000E+03  0.17130000000E+03 0. -1.
       11    1    1    2    0    0 -0.58153968574E-01 -0.13139236664E+00 -0.10827149272E-02  0.14369158489E+00  0.51109989000E-03 0.  1.
     -623    1    1    2    0    0  0.22165068978E+00 -0.29723267109E+00  0.47937898349E+00  0.17130107204E+03  0.17130000000E+03 0. -1.
      622    1    1    2    0    0 -0.16349672121E+00  0.42862503773E+00  0.35217036988E+01  0.38552363796E+01  0.15000000000E+01 0.  1.
</event>
<event>
 5   0  0.6596100E+00  0.9118800E+02  0.7818608E-02  0.1180000E+00
       11   -1    0    0    0    0  0.00000000000E+00  0.00000000000E+00  0.39999999673E+01  0.40000000000E+01  0.51109989000E-03 0.  1.
     -623   -1    0    0    0    0  0.00000000000E+00  0.00000000000E+00  0.12525980253E-10  0.17130000000E+03  0.17130000000E+03 0. -1.
       11    1    1    2    0    0  0.94206173100E-01  0.19631901992E+00  0.14874533261E+00  0.26370702650E+00  0.51109989000E-03 0.  1.
     -623    1    1    2    0    0 -0.32217000481E+00 -0.33879305266E+00  0.44118021760E+00  0.17130120611E+03  0.17130000000E+03 0. -1.
      622    1    1    2    0    0  0.22796383171E+00  0.14247403275E+00  0.34100744171E+01  0.37350868650E+01  0.15000000000E+01 0.  1.
</event>
<event>
 5   0  0.6596100E+00  0.9118800E+02  0.7818608E-02  0.1180000E+00
       11   -1    0    0    0    0  0.00000000000E+00  0.00000000000E+00  0.39999999673E+01  0.40000000000E+01  0.51109989000E-03 0. -1.
     -623   -1    0    0    0    0  0.00000000000E+00  0.00000000000E+00  0.12525980253E-10  0.17130000000E+03  0.17130000000E+03 0.  1.
       11    1    1    2    0    0 -0.14865956441E-01  0.59575358063E-01  0.47017793257E+00  0.47417061218E+00  0.51109989000E-03 0. -1.
     -623    1    1    2    0    0  0.21086300174E+00 -0.18802892968E+00  0.34824711245E+00  0.17130058696E+03  0.17130000000E+03 0.  1.
      622    1    1    2    0    0 -0.19599704530E+00  0.12845357162E+00  0.31815749223E+01  0.35252424240E+01  0.15000000000E+01 0. -1.
</event>
<event>
 5   0  0.6596100E+00  0.9118800E+02  0.7818608E-02  0.1180000E+00
       11   -1    0    0    0    0  0.00000000000E+00  0.00000000000E+00  0.39999999673E+01  0.40000000000E+01  0.51109989000E-03 0. -1.
     -623   -1    0    0    0    0  0.00000000000E+00  0.00000000000E+00  0.12525980253E-10  0.17130000000E+03  0.17130000000E+03 0.  1.
       11    1    1    2    0    0 -0.19591986098E-01 -0.93729989083E-01 -0.40597611725E-01  0.10400761546E+00  0.51109989000E-03 0. -1.
     -623    1    1    2    0    0  0.18204197117E+00 -0.22075447654E-01  0.45122985519E+00  0.17130069245E+03  0.17130000000E+03 0.  1.
      622    1    1    2    0    0 -0.16244998507E+00  0.11580543674E+00  0.35893677239E+01  0.38952999312E+01  0.15000000000E+01 0. -1.
</event>
<event>
 5   0  0.6596100E+00  0.9118800E+02  0.7818608E-02  0.1180000E+00
       11   -1    0    0    0    0  0.00000000000E+00  0.00000000000E+00  0.39999999673E+01  0.40000000000E+01  0.51109989000E-03 0.  1.
     -623   -1    0    0    0    0  0.00000000000E+00  0.00000000000E+00  0.12525980253E-10  0.17130000000E+03  0.17130000000E+03 0.  1.
       11    1    1    2    0    0 -0.16568699692E-01 -0.38163617514E-01  0.75467294493E-01  0.86177475435E-01  0.51109989000E-03 0.  1.
     -623    1    1    2    0    0  0.27708349017E+00  0.73898334830E-01  0.31972371302E+00  0.17130053841E+03  0.17130000000E+03 0.  1.
      622    1    1    2    0    0 -0.26051479048E+00 -0.35734717316E-01  0.36048089599E+01  0.39132841148E+01  0.15000000000E+01 0.  1.
</event>
<event>
 5   0  0.6596100E+00  0.9118800E+02  0.7818608E-02  0.1180000E+00
       11   -1    0    0    0    0  0.00000000000E+00  0.00000000000E+00  0.39999999673E+01  0.40000000000E+01  0.51109989000E-03 0. -1.
     -623   -1    0    0    0    0  0.00000000000E+00  0.00000000000E+00  0.12525980253E-10  0.17130000000E+03  0.17130000000E+03 0.  1.
       11    1    1    2    0    0 -0.26586998762E-02 -0.13241335651E-01  0.93494364498E-01  0.94466179508E-01  0.51109989000E-03 0. -1.
     -623    1    1    2    0    0  0.30335253412E+00  0.48427887172E+00  0.34550345721E+00  0.17130130158E+03  0.17130000000E+03 0.  1.
      622    1    1    2    0    0 -0.30069383424E+00 -0.47103753607E+00  0.35610021456E+01  0.39042322451E+01  0.15000000000E+01 0.  0.
</event>
<event>
 5   0  0.6596100E+00  0.9118800E+02  0.7818608E-02  0.1180000E+00
       11   -1    0    0    0    0  0.00000000000E+00  0.00000000000E+00  0.39999999673E+01  0.40000000000E+01  0.51109989000E-03 0.  1.
     -623   -1    0    0    0    0  0.00000000000E+00  0.00000000000E+00  0.12525980253E-10  0.17130000000E+03  0.17130000000E+03 0.  1.
       11    1    1    2    0    0  0.14227094986E+00 -0.25221619289E+00  0.11795960210E+00  0.31267996431E+00  0.51109989000E-03 0.  1.
     -623    1    1    2    0    0 -0.13717272023E+00  0.10141379899E+00  0.51794144588E+00  0.17130086796E+03  0.17130000000E+03 0.  1.
      622    1    1    2    0    0 -0.50982296238E-02  0.15080239390E+00  0.33640989194E+01  0.36864520739E+01  0.15000000000E+01 0.  1.
</event>
<event>
 5   0  0.6596100E+00  0.9118800E+02  0.7818608E-02  0.1180000E+00
       11   -1    0    0    0    0  0.00000000000E+00  0.00000000000E+00  0.39999999673E+01  0.40000000000E+01  0.51109989000E-03 0. -1.
     -623   -1    0    0    0    0  0.00000000000E+00  0.00000000000E+00  0.12525980253E-10  0.17130000000E+03  0.17130000000E+03 0.  1.
       11    1    1    2    0    0 -0.11988676092E+00  0.67622925734E-01  0.50225251921E-01  0.14652144103E+00  0.51109989000E-03 0. -1.
     -623    1    1    2    0    0 -0.90672739897E-01 -0.27998720747E-01  0.40725325301E+00  0.17130051039E+03  0.17130000000E+03 0.  1.
      622    1    1    2    0    0  0.21055950082E+00 -0.39624204987E-01  0.35425214624E+01  0.38529681666E+01  0.15000000000E+01 0. -1.
</event>
<event>
 5   0  0.6596100E+00  0.9118800E+02  0.7818608E-02  0.1180000E+00
       11   -1    0    0    0    0  0.00000000000E+00  0.00000000000E+00  0.39999999673E+01  0.40000000000E+01  0.51109989000E-03 0. -1.
     -623   -1    0    0    0    0  0.00000000000E+00  0.00000000000E+00  0.12525980253E-10  0.17130000000E+03  0.17130000000E+03 0.  1.
       11    1    1    2    0    0  0.43362206034E-01  0.30152184537E+00  0.31364907242E+00  0.43723186755E+00  0.51109989000E-03 0. -1.
     -623    1    1    2    0    0  0.13032936678E+00 -0.36837375617E+00  0.46128052343E+00  0.17130106674E+03  0.17130000000E+03 0.  1.
      622    1    1    2    0    0 -0.17369157282E+00  0.66851910794E-01  0.32250703715E+01  0.35617013970E+01  0.15000000000E+01 0. -1.
</event>
<event>
 5   0  0.6596100E+00  0.9118800E+02  0.7818608E-02  0.1180000E+00
       11   -1    0    0    0    0  0.00000000000E+00  0.00000000000E+00  0.39999999673E+01  0.40000000000E+01  0.51109989000E-03 0. -1.
     -623   -1    0    0    0    0  0.00000000000E+00  0.00000000000E+00  0.12525980253E-10  0.17130000000E+03  0.17130000000E+03 0. -1.
       11    1    1    2    0    0 -0.26750201625E-01 -0.19829263082E-01 -0.38269824547E-01  0.50730795926E-01  0.51109989000E-03 0. -1.
     -623    1    1    2    0    0  0.26945408250E+00  0.43745588122E+00  0.41842316928E+00  0.17130128152E+03  0.17130000000E+03 0. -1.
      622    1    1    2    0    0 -0.24270388088E+00 -0.41762661814E+00  0.36198466226E+01  0.39479876820E+01  0.15000000000E+01 0. -1.
</event>
<event>
 5   0  0.6596100E+00  0.9118800E+02  0.7818608E-02  0.1180000E+00
       11   -1    0    0    0    0  0.00000000000E+00  0.00000000000E+00  0.39999999673E+01  0.40000000000E+01  0.51109989000E-03 0.  1.
     -623   -1    0    0    0    0  0.00000000000E+00  0.00000000000E+00  0.12525980253E-10  0.17130000000E+03  0.17130000000E+03 0. -1.
       11    1    1    2    0    0  0.24873598978E-02 -0.52765173127E-01 -0.13205665926E-01  0.54451825406E-01  0.51109989000E-03 0.  1.
     -623    1    1    2    0    0  0.11574015625E-01  0.19586836563E+00  0.36729279257E+00  0.17130050614E+03  0.17130000000E+03 0. -1.
      622    1    1    2    0    0 -0.14061375523E-01 -0.14310319250E+00  0.36459128407E+01  0.39450420388E+01  0.15000000000E+01 0.  1.
</event>
<event>
 5   0  0.6596100E+00  0.9118800E+02  0.7818608E-02  0.1180000E+00
       11   -1    0    0    0    0  0.00000000000E+00  0.00000000000E+00  0.39999999673E+01  0.40000000000E+01  0.51109989000E-03 0.  1.
     -623   -1    0    0    0    0  0.00000000000E+00  0.00000000000E+00  0.12525980253E-10  0.17130000000E+03  0.17130000000E+03 0. -1.
       11    1    1    2    0    0  0.23027966375E+00  0.23082633417E+00  0.29846264457E+00  0.44202910708E+00  0.51109989000E-03 0.  1.
     -623    1    1    2    0    0  0.49046677637E-01  0.30699631500E-01  0.49880394916E+00  0.17130073600E+03  0.17130000000E+03 0. -1.
      622    1    1    2    0    0 -0.27932634139E+00 -0.26152596567E+00  0.32027333736E+01  0.35572348950E+01  0.15000000000E+01 0.  0.
</event>
<event>
 5   0  0.6596100E+00  0.9118800E+02  0.7818608E-02  0.1180000E+00
       11   -1    0    0    0    0  0.00000000000E+00  0.00000000000E+00  0.39999999673E+01  0.40000000000E+01  0.51109989000E-03 0. -1.
     -623   -1    0    0    0    0  0.00000000000E+00  0.00000000000E+00  0.12525980253E-10  0.17130000000E+03  0.17130000000E+03 0. -1.
       11    1    1    2    0    0 -0.99113830338E-02 -0.12912817052E+00  0.60378557244E+00  0.61751890549E+00  0.51109989000E-03 0. -1.
     -623    1    1    2    0    0 -0.51710785060E-01  0.78144332911E-01  0.36603901121E+00  0.17130041671E+03  0.17130000000E+03 0. -1.
      622    1    1    2    0    0  0.61622168094E-01  0.50983837609E-01  0.30301753837E+01  0.33820643843E+01  0.15000000000E+01 0. -1.
</event>
<event>
 5   0  0.6596100E+00  0.9118800E+02  0.7818608E-02  0.1180000E+00
       11   -1    0    0    0    0  0.00000000000E+00  0.00000000000E+00  0.39999999673E+01  0.40000000000E+01  0.51109989000E-03 0. -1.
     -623   -1    0    0    0    0  0.00000000000E+00  0.00000000000E+00  0.12525980253E-10  0.17130000000E+03  0.17130000000E+03 0. -1.
       11    1    1    2    0    0  0.89453542838E-01  0.18891456031E+00  0.43771909435E+00  0.48506588645E+00  0.51109989000E-03 0. -1.
     -623    1    1    2    0    0 -0.61082865594E+00 -0.54054960752E-01  0.43127255830E+00  0.17130164048E+03  0.17130000000E+03 0. -1.
      622    1    1    2    0    0  0.52137511310E+00 -0.13485959955E+00  0.31310083147E+01  0.35132936380E+01  0.15000000000E+01 0. -1.
</event>
<event>
 5   0  0.6596100E+00  0.9118800E+02  0.7818608E-02  0.1180000E+00
       11   -1    0    0    0    0  0.00000000000E+00  0.00000000000E+00  0.39999999673E+01  0.40000000000E+01  0.51109989000E-03 0.  1.
     -623   -1    0    0    0    0  0.00000000000E+00  0.00000000000E+00  0.12525980253E-10  0.17130000000E+03  0.17130000000E+03 0. -1.
       11    1    1    2    0    0  0.24080935116E+00  0.19333012791E+00  0.54853140025E+00  0.62948601275E+00  0.51109989000E-03 0.  1.
     -623    1    1    2    0    0 -0.21759849789E+00 -0.14706704239E+00  0.43441442540E+00  0.17130075217E+03  0.17130000000E+03 0. -1.
      622    1    1    2    0    0 -0.23210853271E-01 -0.46263085518E-01  0.30170541417E+01  0.33697618181E+01  0.15000000000E+01 0.  1.
</event>
<event>
 5   0  0.6596100E+00  0.9118800E+02  0.7818608E-02  0.1180000E+00
       11   -1    0    0    0    0  0.00000000000E+00  0.00000000000E+00  0.39999999673E+01  0.40000000000E+01  0.51109989000E-03 0. -1.
     -623   -1    0    0    0    0  0.00000000000E+00  0.00000000000E+00  0.12525980253E-10  0.17130000000E+03  0.17130000000E+03 0.  1.
       11    1    1    2    0    0 -0.47501480341E-01 -0.37623985955E-01  0.60460304366E-01  0.85601779067E-01  0.51109989000E-03 0. -1.
     -623    1    1    2    0    0  0.25258187939E-01  0.35186131767E+00  0.33845472401E+00  0.17130069759E+03  0.17130000000E+03 0.  1.
      622    1    1    2    0    0  0.22243292402E-01 -0.31423733171E+00  0.36010849390E+01  0.39137006276E+01  0.15000000000E+01 0. -1.
</event>
<event>
 5   0  0.6596100E+00  0.9118800E+02  0.7818608E-02  0.1180000E+00
       11   -1    0    0    0    0  0.00000000000E+00  0.00000000000E+00  0.39999999673E+01  0.40000000000E+01  0.51109989000E-03 0. -1.
     -623   -1    0    0    0    0  0.00000000000E+00  0.00000000000E+00  0.12525980253E-10  0.17130000000E+03  0.17130000000E+03 0. -1.
       11    1    1    2    0    0  0.76266478355E-01  0.42011864491E-01 -0.52550700544E-01  0.10170255567E+00  0.51109989000E-03 0. -1.
     -623    1    1    2    0    0 -0.16716644072E+00 -0.90590659799E-01  0.45664568506E+00  0.17130071417E+03  0.17130000000E+03 0. -1.
      622    1    1    2    0    0  0.90899962367E-01  0.48578795308E-01  0.35959049828E+01  0.38975832702E+01  0.15000000000E+01 0. -1.
</event>
<event>
 5   0  0.6596100E+00  0.9118800E+02  0.7818608E-02  0.1180000E+00
       11   -1    0    0    0    0  0.00000000000E+00  0.00000000000E+00  0.39999999673E+01  0.40000000000E+01  0.51109989000E-03 0. -1.
     -623   -1    0    0    0    0  0.00000000000E+00  0.00000000000E+00  0.12525980253E-10  0.17130000000E+03  0.17130000000E+03 0. -1.
       11    1    1    2    0    0  0.11892635929E+00 -0.54498633940E+00  0.75454343880E+00  0.93834410070E+00  0.51109989000E-03 0. -1.
     -623    1    1    2    0    0  0.17295677942E+00  0.45473086100E+00  0.59596230902E+00  0.17130172756E+03  0.17130000000E+03 0. -1.
      622    1    1    2    0    0 -0.29188313871E+00  0.90255478403E-01  0.26494942195E+01  0.30599283386E+01  0.15000000000E+01 0. -1.
</event>
<event>
 5   0  0.6596100E+00  0.9118800E+02  0.7818608E-02  0.1180000E+00
       11   -1    0    0    0    0  0.00000000000E+00  0.00000000000E+00  0.39999999673E+01  0.40000000000E+01  0.51109989000E-03 0.  1.
     -623   -1    0    0    0    0  0.00000000000E+00  0.00000000000E+00  0.12525980253E-10  0.17130000000E+03  0.17130000000E+03 0.  1.
       11    1    1    2    0    0  0.13189753255E+00 -0.25316374381E+00  0.11392620098E+01  0.11744815999E+01  0.51109989000E-03 0.  1.
     -623    1    1    2    0    0 -0.96260258457E-01  0.52370771522E+00  0.48364785323E+00  0.17130151036E+03  0.17130000000E+03 0.  1.
      622    1    1    2    0    0 -0.35637274096E-01 -0.27054397142E+00  0.23770901043E+01  0.28240080417E+01  0.15000000000E+01 0.  1.
</event>
<event>
 5   0  0.6596100E+00  0.9118800E+02  0.7818608E-02  0.1180000E+00
       11   -1    0    0    0    0  0.00000000000E+00  0.00000000000E+00  0.39999999673E+01  0.40000000000E+01  0.51109989000E-03 0. -1.
     -623   -1    0    0    0    0  0.00000000000E+00  0.00000000000E+00  0.12525980253E-10  0.17130000000E+03  0.17130000000E+03 0. -1.
       11    1    1    2    0    0  0.12356636292E+00  0.44754385990E-01  0.79947251220E+00  0.81020254263E+00  0.51109989000E-03 0. -1.
     -623    1    1    2    0    0  0.19199729297E-01 -0.34616065217E+00  0.40619927015E+00  0.17130083244E+03  0.17130000000E+03 0. -1.
      622    1    1    2    0    0 -0.14276609221E+00  0.30140626618E+00  0.27943281850E+01  0.31889650202E+01  0.15000000000E+01 0. -1.
</event>
<event>
 5   0  0.6596100E+00  0.9118800E+02  0.7818608E-02  0.1180000E+00
       11   -1    0    0    0    0  0.00000000000E+00  0.00000000000E+00  0.39999999673E+01  0.40000000000E+01  0.51109989000E-03 0.  1.
     -623   -1    0    0    0    0  0.00000000000E+00  0.00000000000E+00  0.12525980253E-10  0.17130000000E+03  0.17130000000E+03 0. -1.
       11    1    1    2    0    0  0.76886834734E-01 -0.17967790733E-01  0.47955384189E-01  0.92381854035E-01  0.51109989000E-03 0.  1.
     -623    1    1    2    0    0 -0.13779504930E+00 -0.12762667722E+00  0.34774033994E+00  0.17130045592E+03  0.17130000000E+03 0. -1.
      622    1    1    2    0    0  0.60908214564E-01  0.14559446796E+00  0.36043042432E+01  0.39071622231E+01  0.15000000000E+01 0.  1.
</event>
<event>
 5   0  0.6596100E+00  0.9118800E+02  0.7818608E-02  0.1180000E+00
       11   -1    0    0    0    0  0.00000000000E+00  0.00000000000E+00  0.39999999673E+01  0.40000000000E+01  0.51109989000E-03 0. -1.
     -623   -1    0    0    0    0  0.00000000000E+00  0.00000000000E+00  0.12525980253E-10  0.17130000000E+03  0.17130000000E+03 0.  1.
       11    1    1    2    0    0  0.57551709060E-01 -0.12472021350E-01  0.15247056336E-01  0.60831607576E-01  0.51109989000E-03 0. -1.
     -623    1    1    2    0    0 -0.49497522185E-01 -0.73207422519E-01  0.34377162389E+00  0.17130036774E+03  0.17130000000E+03 0.  1.
      622    1    1    2    0    0 -0.80541868753E-02  0.85679443869E-01  0.36409812871E+01  0.39388006513E+01  0.15000000000E+01 0. -1.
</event>
<event>
 5   0  0.6596100E+00  0.9118800E+02  0.7818608E-02  0.1180000E+00
       11   -1    0    0    0    0  0.00000000000E+00  0.00000000000E+00  0.39999999673E+01  0.40000000000E+01  0.51109989000E-03 0. -1.
     -623   -1    0    0    0    0  0.00000000000E+00  0.00000000000E+00  0.12525980253E-10  0.17130000000E+03  0.17130000000E+03 0. -1.
       11    1    1    2    0    0  0.65717485546E-01 -0.24293857980E-01  0.31814941033E+00  0.32577336901E+00  0.51109989000E-03 0. -1.
     -623    1    1    2    0    0 -0.28739029738E+00 -0.21654395960E+00  0.34456478551E+00  0.17130072449E+03  0.17130000000E+03 0. -1.
      622    1    1    2    0    0  0.22167281184E+00  0.24083781758E+00  0.33372857715E+01  0.36735021452E+01  0.15000000000E+01 0. -1.
</event>
<event>
 5   0  0.6596100E+00  0.9118800E+02  0.7818608E-02  0.1180000E+00
       11   -1    0    0    0    0  0.00000000000E+00  0.00000000000E+00  0.39999999673E+01  0.40000000000E+01  0.51109989000E-03 0.  1.
     -623   -1    0    0    0    0  0.00000000000E+00  0.00000000000E+00  0.12525980253E-10  0.17130000000E+03  0.17130000000E+03 0. -1.
       11    1    1    2    0    0  0.78217790726E-01  0.13237700462E+00 -0.52809232605E-01  0.16257542990E+00  0.51109989000E-03 0.  1.
     -623    1    1    2    0    0 -0.62769711986E+00 -0.55999592944E+00  0.59342902543E+00  0.17130309325E+03  0.17130000000E+03 0. -1.
      622    1    1    2    0    0  0.54947932913E+00  0.42761892483E+00  0.34593801745E+01  0.38343313198E+01  0.15000000000E+01 0.  1.
</event>
<event>
 5   0  0.6596100E+00  0.9118800E+02  0.7818608E-02  0.1180000E+00
       11   -1    0    0    0    0  0.00000000000E+00  0.00000000000E+00  0.39999999673E+01  0.40000000000E+01  0.51109989000E-03 0. -1.
     -623   -1    0    0    0    0  0.00000000000E+00  0.00000000000E+00  0.12525980253E-10  0.17130000000E+03  0.17130000000E+03 0.  1.
       11    1    1    2    0    0 -0.12668137333E+00  0.18846514337E+00 -0.53829400407E-01  0.23337768999E+00  0.51109989000E-03 0. -1.
     -623    1    1    2    0    0 -0.70932948313E-01 -0.43492407980E+00  0.61507019869E+00  0.17130167104E+03  0.17130000000E+03 0.  1.
      622    1    1    2    0    0  0.19761432164E+00  0.24645893643E+00  0.34387591691E+01  0.37649512680E+01  0.15000000000E+01 0. -1.
</event>
<event>
 5   0  0.6596100E+00  0.9118800E+02  0.7818608E-02  0.1180000E+00
       11   -1    0    0    0    0  0.00000000000E+00  0.00000000000E+00  0.39999999673E+01  0.40000000000E+01  0.51109989000E-03 0. -1.
     -623   -1    0    0    0    0  0.00000000000E+00  0.00000000000E+00  0.12525980253E-10  0.17130000000E+03  0.17130000000E+03 0. -1.
       11    1    1    2    0    0 -0.94691737507E-01 -0.10359024791E+00  0.15520881265E-01  0.14120419113E+00  0.51109989000E-03 0. -1.
     -623    1    1    2    0    0 -0.18376879998E+00  0.16957363549E+00  0.44151254345E+00  0.17130075149E+03  0.17130000000E+03 0. -1.
      622    1    1    2    0    0  0.27846053748E+00 -0.65983387579E-01  0.35429665426E+01  0.38580443233E+01  0.15000000000E+01 0. -1.
</event>
<event>
 5   0  0.6596100E+00  0.9118800E+02  0.7818608E-02  0.1180000E+00
       11   -1    0    0    0    0  0.00000000000E+00  0.00000000000E+00  0.39999999673E+01  0.40000000000E+01  0.51109989000E-03 0.  1.
     -623   -1    0    0    0    0  0.00000000000E+00  0.00000000000E+00  0.12525980253E-10  0.17130000000E+03  0.17130000000E+03 0. -1.
       11    1    1    2    0    0 -0.19497326487E+00  0.12195248271E+00  0.55692322963E-01  0.23661969089E+00  0.51109989000E-03 0.  1.
     -623    1    1    2    0    0  0.56827258911E-01 -0.12094709731E+00  0.49638929204E+00  0.17130077133E+03  0.17130000000E+03 0. -1.
      622    1    1    2    0    0  0.13814600596E+00 -0.10053854036E-02  0.34479183524E+01  0.37626089744E+01  0.15000000000E+01 0.  1.
</event>
<event>
 5   0  0.6596100E+00  0.9118800E+02  0.7818608E-02  0.1180000E+00
       11   -1    0    0    0    0  0.00000000000E+00  0.00000000000E+00  0.39999999673E+01  0.40000000000E+01  0.51109989000E-03 0. -1.
     -623   -1    0    0    0    0  0.00000000000E+00  0.00000000000E+00  0.12525980253E-10  0.17130000000E+03  0.17130000000E+03 0. -1.
       11    1    1    2    0    0 -0.87576799976E-01  0.71591135311E-01 -0.72393955919E-01  0.13429866949E+00  0.51109989000E-03 0. -1.
     -623    1    1    2    0    0  0.31706945192E+00 -0.13745331535E+00  0.51882193855E+00  0.17130113427E+03  0.17130000000E+03 0. -1.
      622    1    1    2    0    0 -0.22949265195E+00  0.65862180035E-01  0.35535719847E+01  0.38645670592E+01  0.15000000000E+01 0. -1.
</event>
<event>
 5   0  0.6596100E+00  0.9118800E+02  0.7818608E-02  0.1180000E+00
       11   -1    0    0    0    0  0.00000000000E+00  0.00000000000E+00  0.39999999673E+01  0.40000000000E+01  0.51109989000E-03 0.  1.
     -623   -1    0    0    0    0  0.00000000000E+00  0.00000000000E+00  0.12525980253E-10  0.17130000000E+03  0.17130000000E+03 0.  1.
       11    1    1    2    0    0 -0.20705434603E+00  0.38737090228E+00  0.55080395319E+00  0.70449483619E+00  0.51109989000E-03 0.  1.
     -623    1    1    2    0    0  0.99055202810E-01 -0.35568088491E+00  0.51834355359E+00  0.17130118214E+03  0.17130000000E+03 0.  1.
      622    1    1    2    0    0  0.10799914322E+00 -0.31690017370E-01  0.29308524606E+01  0.32943230288E+01  0.15000000000E+01 0.  1.
</event>
<event>
 5   0  0.6596100E+00  0.9118800E+02  0.7818608E-02  0.1180000E+00
       11   -1    0    0    0    0  0.00000000000E+00  0.00000000000E+00  0.39999999673E+01  0.40000000000E+01  0.51109989000E-03 0.  1.
     -623   -1    0    0    0    0  0.00000000000E+00  0.00000000000E+00  0.12525980253E-10  0.17130000000E+03  0.17130000000E+03 0.  1.
       11    1    1    2    0    0 -0.78450622431E-01 -0.53758582405E-01  0.53027672688E-01  0.10888838614E+00  0.51109989000E-03 0.  1.
     -623    1    1    2    0    0  0.39271550800E+00  0.22478252959E+00  0.37557426090E+00  0.17130100936E+03  0.17130000000E+03 0.  1.
      622    1    1    2    0    0 -0.31426488557E+00 -0.17102394718E+00  0.35713980338E+01  0.38901022512E+01  0.15000000000E+01 0.  1.
</event>
<event>
 5   0  0.6596100E+00  0.9118800E+02  0.7818608E-02  0.1180000E+00
       11   -1    0    0    0    0  0.00000000000E+00  0.00000000000E+00  0.39999999673E+01  0.40000000000E+01  0.51109989000E-03 0. -1.
     -623   -1    0    0    0    0  0.00000000000E+00  0.00000000000E+00  0.12525980253E-10  0.17130000000E+03  0.17130000000E+03 0.  1.
       11    1    1    2    0    0  0.17387209588E-01  0.15433678511E-01 -0.19045661918E-02  0.23332425616E-01  0.51109989000E-03 0. -1.
     -623    1    1    2    0    0  0.41213242509E-01 -0.13599829749E+00  0.32181727415E+00  0.17130036124E+03  0.17130000000E+03 0.  1.
      622    1    1    2    0    0 -0.58600452097E-01  0.12056461898E+00  0.36800872594E+01  0.39763063359E+01  0.15000000000E+01 0. -1.
</event>
<event>
 5   0  0.6596100E+00  0.9118800E+02  0.7818608E-02  0.1180000E+00
       11   -1    0    0    0    0  0.00000000000E+00  0.00000000000E+00  0.39999999673E+01  0.40000000000E+01  0.51109989000E-03 0.  1.
     -623   -1    0    0    0    0  0.00000000000E+00  0.00000000000E+00  0.12525980253E-10  0.17130000000E+03  0.17130000000E+03 0.  1.
       11    1    1    2    0    0 -0.72778359353E-01 -0.38149738948E-01  0.13762657969E+00  0.16029169919E+00  0.51109989000E-03 0.  1.
     -623    1    1    2    0    0  0.33380559322E+00 -0.71872172161E-01  0.33988599949E+00  0.17130067751E+03  0.17130000000E+03 0.  1.
      622    1    1    2    0    0 -0.26102723387E+00  0.11002191111E+00  0.35224873882E+01  0.38390307941E+01  0.15000000000E+01 0.  1.
</event>
<event>
 5   0  0.6596100E+00  0.9118800E+02  0.7818608E-02  0.1180000E+00
       11   -1    0    0    0    0  0.00000000000E+00  0.00000000000E+00  0.39999999673E+01  0.40000000000E+01  0.51109989000E-03 0. -1.
     -623   -1    0    0    0    0  0.00000000000E+00  0.00000000000E+00  0.12525980253E-10  0.17130000000E+03  0.17130000000E+03 0.  1.
       11    1    1    2    0    0 -0.17390804283E+00  0.29683157707E+00  0.41133603518E+00  0.53623743581E+00  0.51109989000E-03 0. -1.
     -623    1    1    2    0    0  0.62107862821E-01 -0.21440323516E+00  0.47051157924E+00  0.17130079161E+03  0.17130000000E+03 0.  1.
      622    1    1    2    0    0  0.11180018001E+00 -0.82428341914E-01  0.31181523529E+01  0.34629709511E+01  0.15000000000E+01 0.  0.
</event>
<event>
 5   0  0.6596100E+00  0.9118800E+02  0.7818608E-02  0.1180000E+00
       11   -1    0    0    0    0  0.00000000000E+00  0.00000000000E+00  0.39999999673E+01  0.40000000000E+01  0.51109989000E-03 0. -1.
     -623   -1    0    0    0    0  0.00000000000E+00  0.00000000000E+00  0.12525980253E-10  0.17130000000E+03  0.17130000000E+03 0.  1.
       11    1    1    2    0    0  0.43805072524E-01  0.36796618359E-02  0.56693808595E-01  0.71741713432E-01  0.51109989000E-03 0. -1.
     -623    1    1    2    0    0  0.11387585646E+00  0.11047725479E+00  0.31833483527E+00  0.17130036926E+03  0.17130000000E+03 0.  1.
      622    1    1    2    0    0 -0.15768092898E+00 -0.11415691662E+00  0.36249713235E+01  0.39278890225E+01  0.15000000000E+01 0. -1.
</event>
<event>
 5   0  0.6596100E+00  0.9118800E+02  0.7818608E-02  0.1180000E+00
       11   -1    0    0    0    0  0.00000000000E+00  0.00000000000E+00  0.39999999673E+01  0.40000000000E+01  0.51109989000E-03 0.  1.
     -623   -1    0    0    0    0  0.00000000000E+00  0.00000000000E+00  0.12525980253E-10  0.17130000000E+03  0.17130000000E+03 0. -1.
       11    1    1    2    0    0 -0.58135847733E+00 -0.37990128214E+00  0.55227725135E+00  0.88730664762E+00  0.51109989000E-03 0.  1.
     -623    1    1    2    0    0  0.18062592262E+00  0.11336274502E+00  0.76523001228E+00  0.17130184195E+03  0.17130000000E+03 0. -1.
      622    1    1    2    0    0  0.40073255471E+00  0.26653853712E+00  0.26824927037E+01  0.31108514072E+01  0.15000000000E+01 0.  1.
</event>
<event>
 5   0  0.6596100E+00  0.9118800E+02  0.7818608E-02  0.1180000E+00
       11   -1    0    0    0    0  0.00000000000E+00  0.00000000000E+00  0.39999999673E+01  0.40000000000E+01  0.51109989000E-03 0. -1.
     -623   -1    0    0    0    0  0.00000000000E+00  0.00000000000E+00  0.12525980253E-10  0.17130000000E+03  0.17130000000E+03 0. -1.
       11    1    1    2    0    0  0.11984570118E+00  0.12177199728E-01  0.30868350678E+00  0.33135637139E+00  0.51109989000E-03 0. -1.
     -623    1    1    2    0    0 -0.22879957956E+00  0.11652798416E+00  0.34818887967E+00  0.17130054630E+03  0.17130000000E+03 0. -1.
      622    1    1    2    0    0  0.10895387837E+00 -0.12870518389E+00  0.33431275809E+01  0.36680973262E+01  0.15000000000E+01 0. -1.
</event>
<event>
 5   0  0.6596100E+00  0.9118800E+02  0.7818608E-02  0.1180000E+00
       11   -1    0    0    0    0  0.00000000000E+00  0.00000000000E+00  0.39999999673E+01  0.40000000000E+01  0.51109989000E-03 0.  1.
     -623   -1    0    0    0    0  0.00000000000E+00  0.00000000000E+00  0.12525980253E-10  0.17130000000E+03  0.17130000000E+03 0. -1.
       11    1    1    2    0    0 -0.12229135488E+00 -0.12474189521E+00  0.15726062740E+00  0.23504655295E+00  0.51109989000E-03 0.  1.
     -623    1    1    2    0    0  0.55685430685E-01 -0.15153078578E+00  0.40181061356E+00  0.17130054733E+03  0.17130000000E+03 0. -1.
      622    1    1    2    0    0  0.66605924194E-01  0.27627268099E+00  0.34409287264E+01  0.37644061210E+01  0.15000000000E+01 0.  1.
</event>
<event>
 5   0  0.6596100E+00  0.9118800E+02  0.7818608E-02  0.1180000E+00
       11   -1    0    0    0    0  0.00000000000E+00  0.00000000000E+00  0.39999999673E+01  0.40000000000E+01  0.51109989000E-03 0.  1.
     -623   -1    0    0    0    0  0.00000000000E+00  0.00000000000E+00  0.12525980253E-10  0.17130000000E+03  0.17130000000E+03 0.  1.
       11    1    1    2    0    0 -0.29566387752E-01 -0.14581684946E+00  0.71222588397E-01  0.16495345766E+00  0.51109989000E-03 0.  1.
     -623    1    1    2    0    0 -0.68246032761E-01  0.16067853548E+00  0.40124175899E+00  0.17130055887E+03  0.17130000000E+03 0.  1.
      622    1    1    2    0    0  0.97812420513E-01 -0.14861686014E-01  0.35275356200E+01  0.38344876698E+01  0.15000000000E+01 0.  1.
</event>
<event>
 5   0  0.6596100E+00  0.9118800E+02  0.7818608E-02  0.1180000E+00
       11   -1    0    0    0    0  0.00000000000E+00  0.00000000000E+00  0.39999999673E+01  0.40000000000E+01  0.51109989000E-03 0.  1.
     -623   -1    0    0    0    0  0.00000000000E+00  0.00000000000E+00  0.12525980253E-10  0.17130000000E+03  0.17130000000E+03 0.  1.
       11    1    1    2    0    0 -0.51913740753E-01  0.87194759961E-01  0.42098616454E-01  0.10986590633E+00  0.51109989000E-03 0.  1.
     -623    1    1    2    0    0  0.88412473350E-01 -0.68830107290E-01  0.36929551591E+00  0.17130043471E+03  0.17130000000E+03 0.  1.
      622    1    1    2    0    0 -0.36498732597E-01 -0.18364652672E-01  0.35886058350E+01  0.38896993787E+01  0.15000000000E+01 0.  1.
</event>
<event>
 5   0  0.6596100E+00  0.9118800E+02  0.7818608E-02  0.1180000E+00
       11   -1    0    0    0    0  0.00000000000E+00  0.00000000000E+00  0.39999999673E+01  0.40000000000E+01  0.51109989000E-03 0. -1.
     -623   -1    0    0    0    0  0.00000000000E+00  0.00000000000E+00  0.12525980253E-10  0.17130000000E+03  0.17130000000E+03 0.  1.
       11    1    1    2    0    0  0.17005717275E+00  0.44077455761E-01  0.29487074218E+00  0.34323647814E+00  0.51109989000E-03 0. -1.
     -623    1    1    2    0    0  0.98365230174E-01  0.23399425609E+00  0.39335219776E+00  0.17130063968E+03  0.17130000000E+03 0.  1.
      622    1    1    2    0    0 -0.26842240292E+00 -0.27807171185E+00  0.33117770274E+01  0.36561238413E+01  0.15000000000E+01 0. -1.
</event>
<event>
 5   0  0.6596100E+00  0.9118800E+02  0.7818608E-02  0.1180000E+00
       11   -1    0    0    0    0  0.00000000000E+00  0.00000000000E+00  0.39999999673E+01  0.40000000000E+01  0.51109989000E-03 0. -1.
     -623   -1    0    0    0    0  0.00000000000E+00  0.00000000000E+00  0.12525980253E-10  0.17130000000E+03  0.17130000000E+03 0.  1.
       11    1    1    2    0    0  0.17393461974E+00 -0.13532418374E+00  0.61507803940E+00  0.65336600954E+00  0.51109989000E-03 0. -1.
     -623    1    1    2    0    0 -0.57291623851E-01 -0.13803404852E+00  0.40869454022E+00  0.17130055273E+03  0.17130000000E+03 0.  1.
      622    1    1    2    0    0 -0.11664299589E+00  0.27335823226E+00  0.29762273877E+01  0.33460812565E+01  0.15000000000E+01 0. -1.
</event>
<event>
 5   0  0.6596100E+00  0.9118800E+02  0.7818608E-02  0.1180000E+00
       11   -1    0    0    0    0  0.00000000000E+00  0.00000000000E+00  0.39999999673E+01  0.40000000000E+01  0.51109989000E-03 0.  1.
     -623   -1    0    0    0    0  0.00000000000E+00  0.00000000000E+00  0.12525980253E-10  0.17130000000E+03  0.17130000000E+03 0.  1.
       11    1    1    2    0    0  0.11591672082E-01  0.20990682486E-01 -0.10509574670E+00  0.10779774027E+00  0.51109989000E-03 0.  1.
     -623    1    1    2    0    0  0.12532052356E-01 -0.20802644857E-01  0.51446487170E+00  0.17130077427E+03  0.17130000000E+03 0.  1.
      622    1    1    2    0    0 -0.24123724439E-01 -0.18803762818E-03  0.35906308424E+01  0.38914279944E+01  0.15000000000E+01 0.  1.
</event>
<event>
 5   0  0.6596100E+00  0.9118800E+02  0.7818608E-02  0.1180000E+00
       11   -1    0    0    0    0  0.00000000000E+00  0.00000000000E+00  0.39999999673E+01  0.40000000000E+01  0.51109989000E-03 0. -1.
     -623   -1    0    0    0    0  0.00000000000E+00  0.00000000000E+00  0.12525980253E-10  0.17130000000E+03  0.17130000000E+03 0.  1.
       11    1    1    2    0    0  0.21721751901E-01 -0.29160857441E-01 -0.90402030024E-02  0.37472344546E-01  0.51109989000E-03 0. -1.
     -623    1    1    2    0    0 -0.57549925983E-01  0.37149521841E+00  0.35843630166E+00  0.17130078750E+03  0.17130000000E+03 0.  1.
      622    1    1    2    0    0  0.35828174082E-01 -0.34233436097E+00  0.36506038687E+01  0.39617401579E+01  0.15000000000E+01 0. -1.
</event>
<event>
 5   0  0.6596100E+00  0.9118800E+02  0.7818608E-02  0.1180000E+00
       11   -1    0    0    0    0  0.00000000000E+00  0.00000000000E+00  0.39999999673E+01  0.40000000000E+01  0.51109989000E-03 0.  1.
     -623   -1    0    0    0    0  0.00000000000E+00  0.00000000000E+00  0.12525980253E-10  0.17130000000E+03  0.17130000000E+03 0. -1.
       11    1    1    2    0    0 -0.24832773804E+00 -0.16539960728E+00  0.72138919025E+00  0.78065762060E+00  0.51109989000E-03 0.  1.
     -623    1    1    2    0    0  0.16217956123E+00  0.10298965279E+00  0.43280065008E+00  0.17130065448E+03  0.17130000000E+03 0. -1.
      622    1    1    2    0    0  0.86148176808E-01  0.62409954486E-01  0.28458101270E+01  0.32186878988E+01  0.15000000000E+01 0.  1.
</event>
<event>
 5   0  0.6596100E+00  0.9118800E+02  0.7818608E-02  0.1180000E+00
       11   -1    0    0    0    0  0.00000000000E+00  0.00000000000E+00  0.39999999673E+01  0.40000000000E+01  0.51109989000E-03 0.  1.
     -623   -1    0    0    0    0  0.00000000000E+00  0.00000000000E+00  0.12525980253E-10  0.17130000000E+03  0.17130000000E+03 0.  1.
       11    1    1    2    0    0  0.21616306923E+00  0.35047027480E-01  0.14219184492E+00  0.26110064845E+00  0.51109989000E-03 0.  1.
     -623    1    1    2    0    0 -0.17534023133E+00 -0.14465294889E+00  0.43575952872E+00  0.17130070506E+03  0.17130000000E+03 0.  1.
      622    1    1    2    0    0 -0.40822837895E-01  0.10960592141E+00  0.34220485937E+01  0.37381942887E+01  0.15000000000E+01 0.  1.
</event>
<event>
 5   0  0.6596100E+00  0.9118800E+02  0.7818608E-02  0.1180000E+00
       11   -1    0    0    0    0  0.00000000000E+00  0.00000000000E+00  0.39999999673E+01  0.40000000000E+01  0.51109989000E-03 0.  1.
     -623   -1    0    0    0    0  0.00000000000E+00  0.00000000000E+00  0.12525980253E-10  0.17130000000E+03  0.17130000000E+03 0. -1.
       11    1    1    2    0    0 -0.18749429862E+00 -0.77467881849E-02 -0.10285191743E+00  0.21399276363E+00  0.51109989000E-03 0.  1.
     -623    1    1    2    0    0  0.17144763542E+00 -0.82705489673E-01  0.62925705889E+00  0.17130126152E+03  0.17130000000E+03 0. -1.
      622    1    1    2    0    0  0.16046663199E-01  0.90452277857E-01  0.34735948259E+01  0.37847457146E+01  0.15000000000E+01 0.  1.
</event>
<event>
 5   0  0.6596100E+00  0.9118800E+02  0.7818608E-02  0.1180000E+00
       11   -1    0    0    0    0  0.00000000000E+00  0.00000000000E+00  0.39999999673E+01  0.40000000000E+01  0.51109989000E-03 0. -1.
     -623   -1    0    0    0    0  0.00000000000E+00  0.00000000000E+00  0.12525980253E-10  0.17130000000E+03  0.17130000000E+03 0. -1.
       11    1    1    2    0    0 -0.17845374890E-01 -0.37413671036E-01  0.13907778713E-01  0.43725595656E-01  0.51109989000E-03 0. -1.
     -623    1    1    2    0    0  0.18435545532E+00 -0.16432704720E+00  0.33510871735E+00  0.17130050580E+03  0.17130000000E+03 0. -1.
      622    1    1    2    0    0 -0.16651008043E+00  0.20174071824E+00  0.36509834713E+01  0.39557686019E+01  0.15000000000E+01 0. -1.
</event>
<event>
 5   0  0.6596100E+00  0.9118800E+02  0.7818608E-02  0.1180000E+00
       11   -1    0    0    0    0  0.00000000000E+00  0.00000000000E+00  0.39999999673E+01  0.40000000000E+01  0.51109989000E-03 0.  1.
     -623   -1    0    0    0    0  0.00000000000E+00  0.00000000000E+00  0.12525980253E-10  0.17130000000E+03  0.17130000000E+03 0.  1.
       11    1    1    2    0    0  0.96542236678E-01 -0.96497269029E-01 -0.55934178002E-01  0.14751616821E+00  0.51109989000E-03 0.  1.
     -623    1    1    2    0    0 -0.23114505149E+00  0.14319881304E+00  0.51139052996E+00  0.17130097914E+03  0.17130000000E+03 0.  1.
      622    1    1    2    0    0  0.13460281481E+00 -0.46701544008E-01  0.35445436154E+01  0.38515046921E+01  0.15000000000E+01 0.  1.
</event>
<event>
 5   0  0.6596100E+00  0.9118800E+02  0.7818608E-02  0.1180000E+00
       11   -1    0    0    0    0  0.00000000000E+00  0.00000000000E+00  0.39999999673E+01  0.40000000000E+01  0.51109989000E-03 0. -1.
     -623   -1    0    0    0    0  0.00000000000E+00  0.00000000000E+00  0.12525980253E-10  0.17130000000E+03  0.17130000000E+03 0.  1.
       11    1    1    2    0    0  0.16865822291E+00  0.34197439411E+00  0.10738487241E+01  0.11395364961E+01  0.51109989000E-03 0. -1.
     -623    1    1    2    0    0  0.82814629964E+00  0.51126171009E-01  0.74363265080E+00  0.17130362352E+03  0.17130000000E+03 0.  1.
      622    1    1    2    0    0 -0.99680452255E+00 -0.39310056512E+00  0.21825185925E+01  0.28568399880E+01  0.15000000000E+01 0. -1.
</event>
<event>
 5   0  0.6596100E+00  0.9118800E+02  0.7818608E-02  0.1180000E+00
       11   -1    0    0    0    0  0.00000000000E+00  0.00000000000E+00  0.39999999673E+01  0.40000000000E+01  0.51109989000E-03 0.  1.
     -623   -1    0    0    0    0  0.00000000000E+00  0.00000000000E+00  0.12525980253E-10  0.17130000000E+03  0.17130000000E+03 0.  1.
       11    1    1    2    0    0  0.47353818869E-01  0.51425765909E-01  0.26695927042E-01  0.74832662008E-01  0.51109989000E-03 0.  1.
     -623    1    1    2    0    0 -0.19070872857E+00 -0.78395279527E-01  0.34950940226E+00  0.17130048065E+03  0.17130000000E+03 0.  1.
      622    1    1    2    0    0  0.14335490970E+00  0.26969513619E-01  0.36237946381E+01  0.39246866835E+01  0.15000000000E+01 0.  1.
</event>
<event>
 5   0  0.6596100E+00  0.9118800E+02  0.7818608E-02  0.1180000E+00
       11   -1    0    0    0    0  0.00000000000E+00  0.00000000000E+00  0.39999999673E+01  0.40000000000E+01  0.51109989000E-03 0. -1.
     -623   -1    0    0    0    0  0.00000000000E+00  0.00000000000E+00  0.12525980253E-10  0.17130000000E+03  0.17130000000E+03 0.  1.
       11    1    1    2    0    0  0.29772392658E-02  0.46145448677E-01  0.15301382833E+00  0.15984917663E+00  0.51109989000E-03 0. -1.
     -623    1    1    2    0    0 -0.42192504493E-01  0.17789888115E+00  0.31966638654E+00  0.17130039584E+03  0.17130000000E+03 0.  1.
      622    1    1    2    0    0  0.39215265227E-01 -0.22404432982E+00  0.35273197525E+01  0.38397549837E+01  0.15000000000E+01 0. -1.
</event>
<event>
 5   0  0.6596100E+00  0.9118800E+02  0.7818608E-02  0.1180000E+00
       11   -1    0    0    0    0  0.00000000000E+00  0.00000000000E+00  0.39999999673E+01  0.40000000000E+01  0.51109989000E-03 0.  1.
     -623   -1    0    0    0    0  0.00000000000E+00  0.00000000000E+00  0.12525980253E-10  0.17130000000E+03  0.17130000000E+03 0. -1.
       11    1    1    2    0    0 -0.64942946067E-01  0.24769377911E+00  0.38747863310E+00  0.46444563384E+00  0.51109989000E-03 0.  1.
     -623    1    1    2    0    0  0.17091455759E+00 -0.83763653912E-01  0.41757291490E+00  0.17130061470E+03  0.17130000000E+03 0. -1.
      622    1    1    2    0    0 -0.10597161153E+00 -0.16393012520E+00  0.31949484194E+01  0.35349396700E+01  0.15000000000E+01 0.  1.
</event>
<event>
 5   0  0.6596100E+00  0.9118800E+02  0.7818608E-02  0.1180000E+00
       11   -1    0    0    0    0  0.00000000000E+00  0.00000000000E+00  0.39999999673E+01  0.40000000000E+01  0.51109989000E-03 0.  1.
     -623   -1    0    0    0    0  0.00000000000E+00  0.00000000000E+00  0.12525980253E-10  0.17130000000E+03  0.17130000000E+03 0.  1.
       11    1    1    2    0    0  0.24101238440E-01 -0.12960132060E-01 -0.14436955291E+00  0.14694102132E+00  0.51109989000E-03 0.  1.
     -623    1    1    2    0    0 -0.75772683862E-01  0.94679572383E-01  0.59777278185E+00  0.17130108592E+03  0.17130000000E+03 0.  1.
      622    1    1    2    0    0  0.51671445422E-01 -0.81719440323E-01  0.35465967384E+01  0.38519730568E+01  0.15000000000E+01 0.  1.
</event>
<event>
 5   0  0.6596100E+00  0.9118800E+02  0.7818608E-02  0.1180000E+00
       11   -1    0    0    0    0  0.00000000000E+00  0.00000000000E+00  0.39999999673E+01  0.40000000000E+01  0.51109989000E-03 0.  1.
     -623   -1    0    0    0    0  0.00000000000E+00  0.00000000000E+00  0.12525980253E-10  0.17130000000E+03  0.17130000000E+03 0. -1.
       11    1    1    2    0    0  0.21508681161E+00 -0.41784342020E+00  0.85469961043E+00  0.97538051326E+00  0.51109989000E-03 0.  1.
     -623    1    1    2    0    0  0.12956418068E+00  0.13417162157E+00  0.55822601366E+00  0.17130101110E+03  0.17130000000E+03 0. -1.
      622    1    1    2    0    0 -0.34465099229E+00  0.28367179863E+00  0.25870743433E+01  0.30236083829E+01  0.15000000000E+01 0.  1.
</event>
<event>
 5   0  0.6596100E+00  0.9118800E+02  0.7818608E-02  0.1180000E+00
       11   -1    0    0    0    0  0.00000000000E+00  0.00000000000E+00  0.39999999673E+01  0.40000000000E+01  0.51109989000E-03 0.  1.
     -623   -1    0    0    0    0  0.00000000000E+00  0.00000000000E+00  0.12525980253E-10  0.17130000000E+03  0.17130000000E+03 0.  1.
       11    1    1    2    0    0 -0.19144227427E-01  0.13377010298E+00  0.21928887882E+00  0.25758263818E+00  0.51109989000E-03 0.  1.
     -623    1    1    2    0    0  0.50820200181E-01 -0.19260882867E+00  0.35322953857E+00  0.17130048001E+03  0.17130000000E+03 0.  1.
      622    1    1    2    0    0 -0.31675972754E-01  0.58838725689E-01  0.34274815500E+01  0.37419373509E+01  0.15000000000E+01 0.  1.
</event>
<event>
 5   0  0.6596100E+00  0.9118800E+02  0.7818608E-02  0.1180000E+00
       11   -1    0    0    0    0  0.00000000000E+00  0.00000000000E+00  0.39999999673E+01  0.40000000000E+01  0.51109989000E-03 0.  1.
     -623   -1    0    0    0    0  0.00000000000E+00  0.00000000000E+00  0.12525980253E-10  0.17130000000E+03  0.17130000000E+03 0.  1.
       11    1    1    2    0    0  0.31110007116E-01  0.59774894776E+00  0.57659709454E+00  0.83110535297E+00  0.51109989000E-03 0.  1.
     -623    1    1    2    0    0  0.34264658781E+00 -0.69631878374E+00  0.66238226150E+00  0.17130303855E+03  0.17130000000E+03 0.  1.
      622    1    1    2    0    0 -0.37375659493E+00  0.98569835985E-01  0.27610206113E+01  0.31658560961E+01  0.15000000000E+01 0.  1.
</event>
<event>
 5   0  0.6596100E+00  0.9118800E+02  0.7818608E-02  0.1180000E+00
       11   -1    0    0    0    0  0.00000000000E+00  0.00000000000E+00  0.39999999673E+01  0.40000000000E+01  0.51109989000E-03 0. -1.
     -623   -1    0    0    0    0  0.00000000000E+00  0.00000000000E+00  0.12525980253E-10  0.17130000000E+03  0.17130000000E+03 0. -1.
       11    1    1    2    0    0 -0.37451709855E-01  0.31020296145E-01  0.58282753223E+00  0.58485304384E+00  0.51109989000E-03 0. -1.
     -623    1    1    2    0    0  0.96322762813E-01 -0.51468305356E+00  0.38940997989E+00  0.17130124289E+03  0.17130000000E+03 0. -1.
      622    1    1    2    0    0 -0.58871052959E-01  0.48366275742E+00  0.30277624552E+01  0.34139040627E+01  0.15000000000E+01 0.  0.
</event>
<event>
 5   0  0.6596100E+00  0.9118800E+02  0.7818608E-02  0.1180000E+00
       11   -1    0    0    0    0  0.00000000000E+00  0.00000000000E+00  0.39999999673E+01  0.40000000000E+01  0.51109989000E-03 0. -1.
     -623   -1    0    0    0    0  0.00000000000E+00  0.00000000000E+00  0.12525980253E-10  0.17130000000E+03  0.17130000000E+03 0.  1.
       11    1    1    2    0    0  0.20505151367E-01  0.16821596400E+00  0.88744335495E-01  0.19129268173E+00  0.51109989000E-03 0. -1.
     -623    1    1    2    0    0  0.16352685929E+00  0.93603449512E-01  0.42571180279E+00  0.17130063261E+03  0.17130000000E+03 0.  1.
      622    1    1    2    0    0 -0.18403201066E+00 -0.26181941351E+00  0.34855438291E+01  0.38080747065E+01  0.15000000000E+01 0. -1.
</event>
<event>
 5   0  0.6596100E+00  0.9118800E+02  0.7818608E-02  0.1180000E+00
       11   -1    0    0    0    0  0.00000000000E+00  0.00000000000E+00  0.39999999673E+01  0.40000000000E+01  0.51109989000E-03 0. -1.
     -623   -1    0    0    0    0  0.00000000000E+00  0.00000000000E+00  0.12525980253E-10  0.17130000000E+03  0.17130000000E+03 0.  1.
       11    1    1    2    0    0 -0.26064268600E+00 -0.11282985622E+00  0.31549904195E+00  0.42450570422E+00  0.51109989000E-03 0. -1.
     -623    1    1    2    0    0  0.16160925023E+00 -0.11544773078E+00  0.44919464302E+00  0.17130070409E+03  0.17130000000E+03 0.  1.
      622    1    1    2    0    0  0.99033435766E-01  0.22827758700E+00  0.32353062824E+01  0.35747902063E+01  0.15000000000E+01 0. -1.
</event>
<event>
 5   0  0.6596100E+00  0.9118800E+02  0.7818608E-02  0.1180000E+00
       11   -1    0    0    0    0  0.00000000000E+00  0.00000000000E+00  0.39999999673E+01  0.40000000000E+01  0.51109989000E-03 0. -1.
     -623   -1    0    0    0    0  0.00000000000E+00  0.00000000000E+00  0.12525980253E-10  0.17130000000E+03  0.17130000000E+03 0.  1.
       11    1    1    2    0    0  0.61989253478E-01  0.20517239407E+00  0.51701562742E+00  0.55968187308E+00  0.51109989000E-03 0. -1.
     -623    1    1    2    0    0 -0.95715937436E-01 -0.19314159004E+00  0.38773727980E+00  0.17130057445E+03  0.17130000000E+03 0.  1.
      622    1    1    2    0    0  0.33726683958E-01 -0.12030804024E-01  0.30952470601E+01  0.34397436813E+01  0.15000000000E+01 0. -1.
</event>
<event>
 5   0  0.6596100E+00  0.9118800E+02  0.7818608E-02  0.1180000E+00
       11   -1    0    0    0    0  0.00000000000E+00  0.00000000000E+00  0.39999999673E+01  0.40000000000E+01  0.51109989000E-03 0.  1.
     -623   -1    0    0    0    0  0.00000000000E+00  0.00000000000E+00  0.12525980253E-10  0.17130000000E+03  0.17130000000E+03 0. -1.
       11    1    1    2    0    0 -0.35025953814E-01 -0.89002993415E-01  0.13819056685E+00  0.16806321509E+00  0.51109989000E-03 0.  1.
     -623    1    1    2    0    0  0.96475022400E-02 -0.20305306749E-01  0.33780837176E+00  0.17130033456E+03  0.17130000000E+03 0. -1.
      622    1    1    2    0    0  0.25378451574E-01  0.10930830016E+00  0.35240010288E+01  0.38316022263E+01  0.15000000000E+01 0.  1.
</event>
<event>
 5   0  0.6596100E+00  0.9118800E+02  0.7818608E-02  0.1180000E+00
       11   -1    0    0    0    0  0.00000000000E+00  0.00000000000E+00  0.39999999673E+01  0.40000000000E+01  0.51109989000E-03 0. -1.
     -623   -1    0    0    0    0  0.00000000000E+00  0.00000000000E+00  0.12525980253E-10  0.17130000000E+03  0.17130000000E+03 0. -1.
       11    1    1    2    0    0  0.40527717049E-01  0.27959713169E+00  0.14988860249E+00  0.31981855212E+00  0.51109989000E-03 0. -1.
     -623    1    1    2    0    0  0.38020913534E+00  0.13182851330E+00  0.54290173983E+00  0.17130133298E+03  0.17130000000E+03 0. -1.
      622    1    1    2    0    0 -0.42073685239E+00 -0.41142564499E+00  0.33072096250E+01  0.36788484699E+01  0.15000000000E+01 0. -1.
</event>
<event>
 5   0  0.6596100E+00  0.9118800E+02  0.7818608E-02  0.1180000E+00
       11   -1    0    0    0    0  0.00000000000E+00  0.00000000000E+00  0.39999999673E+01  0.40000000000E+01  0.51109989000E-03 0. -1.
     -623   -1    0    0    0    0  0.00000000000E+00  0.00000000000E+00  0.12525980253E-10  0.17130000000E+03  0.17130000000E+03 0. -1.
       11    1    1    2    0    0  0.11002337717E+00 -0.82745869283E-01  0.88288553906E+00  0.89355422818E+00  0.51109989000E-03 0. -1.
     -623    1    1    2    0    0 -0.17999930408E+00 -0.39197707920E+00  0.44076408201E+00  0.17130111009E+03  0.17130000000E+03 0. -1.
      622    1    1    2    0    0  0.69975926907E-01  0.47472294848E+00  0.26763503463E+01  0.31053356798E+01  0.15000000000E+01 0.  0.
</event>
<event>
 5   0  0.6596100E+00  0.9118800E+02  0.7818608E-02  0.1180000E+00
       11   -1    0    0    0    0  0.00000000000E+00  0.00000000000E+00  0.39999999673E+01  0.40000000000E+01  0.51109989000E-03 0.  1.
     -623   -1    0    0    0    0  0.00000000000E+00  0.00000000000E+00  0.12525980253E-10  0.17130000000E+03  0.17130000000E+03 0. -1.
       11    1    1    2    0    0  0.15011546710E+00 -0.76302544395E-01 -0.28510191395E+00  0.33111945624E+00  0.51109989000E-03 0.  1.
     -623    1    1    2    0    0  0.21230923895E+00  0.90630854386E-01  0.95970448527E+00  0.17130284388E+03  0.17130000000E+03 0. -1.
      622    1    1    2    0    0 -0.36242470605E+00 -0.14328309991E-01  0.33253973960E+01  0.36660366623E+01  0.15000000000E+01 0.  1.
</event>
<event>
 5   0  0.6596100E+00  0.9118800E+02  0.7818608E-02  0.1180000E+00
       11   -1    0    0    0    0  0.00000000000E+00  0.00000000000E+00  0.39999999673E+01  0.40000000000E+01  0.51109989000E-03 0.  1.
     -623   -1    0    0    0    0  0.00000000000E+00  0.00000000000E+00  0.12525980253E-10  0.17130000000E+03  0.17130000000E+03 0.  1.
       11    1    1    2    0    0 -0.88920056778E-01  0.23725806747E+00  0.36776724695E+00  0.44659957034E+00  0.51109989000E-03 0.  1.
     -623    1    1    2    0    0  0.21189556729E+00 -0.14723522966E+00  0.41532913296E+00  0.17130069783E+03  0.17130000000E+03 0.  1.
      622    1    1    2    0    0 -0.12297551051E+00 -0.90022837806E-01  0.32169035874E+01  0.35527026020E+01  0.15000000000E+01 0.  1.
</event>
<event>
 5   0  0.6596100E+00  0.9118800E+02  0.7818608E-02  0.1180000E+00
       11   -1    0    0    0    0  0.00000000000E+00  0.00000000000E+00  0.39999999673E+01  0.40000000000E+01  0.51109989000E-03 0.  1.
     -623   -1    0    0    0    0  0.00000000000E+00  0.00000000000E+00  0.12525980253E-10  0.17130000000E+03  0.17130000000E+03 0.  1.
       11    1    1    2    0    0 -0.80513189978E-01 -0.28251252329E-01  0.47206456790E-01  0.97515218322E-01  0.51109989000E-03 0.  1.
     -623    1    1    2    0    0  0.10633434668E+00 -0.13669588715E+00  0.35446505052E+00  0.17130045428E+03  0.17130000000E+03 0.  1.
      622    1    1    2    0    0 -0.25821156697E-01  0.16494713948E+00  0.35983284601E+01  0.39020304967E+01  0.15000000000E+01 0.  1.
</event>
<event>
 5   0  0.6596100E+00  0.9118800E+02  0.7818608E-02  0.1180000E+00
       11   -1    0    0    0    0  0.00000000000E+00  0.00000000000E+00  0.39999999673E+01  0.40000000000E+01  0.51109989000E-03 0.  1.
     -623   -1    0    0    0    0  0.00000000000E+00  0.00000000000E+00  0.12525980253E-10  0.17130000000E+03  0.17130000000E+03 0.  1.
       11    1    1    2    0    0 -0.10735326008E+00  0.41396584109E-01  0.86174450854E-01  0.14375220633E+00  0.51109989000E-03 0.  1.
     -623    1    1    2    0    0 -0.21004900662E+00  0.71178599556E-01  0.37788035358E+00  0.17130056036E+03  0.17130000000E+03 0.  1.
      622    1    1    2    0    0  0.31740226669E+00 -0.11257518366E+00  0.35359451629E+01  0.38556874311E+01  0.15000000000E+01 0.  1.
</event>
<event>
 5   0  0.6596100E+00  0.9118800E+02  0.7818608E-02  0.1180000E+00
       11   -1    0    0    0    0  0.00000000000E+00  0.00000000000E+00  0.39999999673E+01  0.40000000000E+01  0.51109989000E-03 0. -1.
     -623   -1    0    0    0    0  0.00000000000E+00  0.00000000000E+00  0.12525980253E-10  0.17130000000E+03  0.17130000000E+03 0. -1.
       11    1    1    2    0    0  0.16789646725E+00 -0.60485978165E-01  0.42627100571E+00  0.46212012378E+00  0.51109989000E-03 0. -1.
     -623    1    1    2    0    0  0.14324829306E+00  0.15802693809E+00  0.38684352468E+00  0.17130056959E+03  0.17130000000E+03 0. -1.
      622    1    1    2    0    0 -0.31114476031E+00 -0.97540959922E-01  0.31868854370E+01  0.35373102902E+01  0.15000000000E+01 0. -1.
</event>
<event>
 5   0  0.6596100E+00  0.9118800E+02  0.7818608E-02  0.1180000E+00
       11   -1    0    0    0    0  0.00000000000E+00  0.00000000000E+00  0.39999999673E+01  0.40000000000E+01  0.51109989000E-03 0.  1.
     -623   -1    0    0    0    0  0.00000000000E+00  0.00000000000E+00  0.12525980253E-10  0.17130000000E+03  0.17130000000E+03 0. -1.
       11    1    1    2    0    0  0.39053796458E+00  0.35183226993E+00  0.84586105350E+00  0.99588504909E+00  0.51109989000E-03 0.  1.
     -623    1    1    2    0    0 -0.11676396063E-01 -0.46173714205E-01  0.59847394338E+00  0.17130105207E+03  0.17130000000E+03 0. -1.
      622    1    1    2    0    0 -0.37886156852E+00 -0.30565855572E+00  0.25556649705E+01  0.30030628835E+01  0.15000000000E+01 0.  0.
</event>
<event>
 5   0  0.6596100E+00  0.9118800E+02  0.7818608E-02  0.1180000E+00
       11   -1    0    0    0    0  0.00000000000E+00  0.00000000000E+00  0.39999999673E+01  0.40000000000E+01  0.51109989000E-03 0.  1.
     -623   -1    0    0    0    0  0.00000000000E+00  0.00000000000E+00  0.12525980253E-10  0.17130000000E+03  0.17130000000E+03 0.  1.
       11    1    1    2    0    0  0.10178413037E-01  0.74344448345E-01  0.46209843112E+00  0.46815159762E+00  0.51109989000E-03 0.  1.
     -623    1    1    2    0    0  0.43236578564E-01 -0.33204291151E+00  0.35202249353E+00  0.17130068897E+03  0.17130000000E+03 0.  1.
      622    1    1    2    0    0 -0.53414991601E-01  0.25769846316E+00  0.31858790427E+01  0.35311594320E+01  0.15000000000E+01 0.  1.
</event>
<event>
 5   0  0.6596100E+00  0.9118800E+02  0.7818608E-02  0.1180000E+00
       11   -1    0    0    0    0  0.00000000000E+00  0.00000000000E+00  0.39999999673E+01  0.40000000000E+01  0.51109989000E-03 0. -1.
     -623   -1    0    0    0    0  0.00000000000E+00  0.00000000000E+00  0.12525980253E-10  0.17130000000E+03  0.17130000000E+03 0. -1.
       11    1    1    2    0    0 -0.12866973253E-01 -0.21999589344E-02 -0.19672165830E-01  0.23614701971E-01  0.51109989000E-03 0. -1.
     -623    1    1    2    0    0 -0.95039093367E-01 -0.16459664870E+00  0.34290624902E+00  0.17130044865E+03  0.17130000000E+03 0. -1.
      622    1    1    2    0    0  0.10790606662E+00  0.16679660764E+00  0.36767658842E+01  0.39759366437E+01  0.15000000000E+01 0. -1.
</event>
<event>
 5   0  0.6596100E+00  0.9118800E+02  0.7818608E-02  0.1180000E+00
       11   -1    0    0    0    0  0.00000000000E+00  0.00000000000E+00  0.39999999673E+01  0.40000000000E+01  0.51109989000E-03 0. -1.
     -623   -1    0    0    0    0  0.00000000000E+00  0.00000000000E+00  0.12525980253E-10  0.17130000000E+03  0.17130000000E+03 0.  1.
       11    1    1    2    0    0 -0.68710036915E-01  0.64551507494E-01  0.41999996850E-01  0.10320962769E+00  0.51109989000E-03 0. -1.
     -623    1    1    2    0    0  0.10525304051E+00 -0.18723897975E+00  0.36432233592E+00  0.17130052209E+03  0.17130000000E+03 0.  1.
      622    1    1    2    0    0 -0.36543003593E-01  0.12268747225E+00  0.35936776346E+01  0.38962682849E+01  0.15000000000E+01 0. -1.
</event>
<event>
 5   0  0.6596100E+00  0.9118800E+02  0.7818608E-02  0.1180000E+00
       11   -1    0    0    0    0  0.00000000000E+00  0.00000000000E+00  0.39999999673E+01  0.40000000000E+01  0.51109989000E-03 0.  1.
     -623   -1    0    0    0    0  0.00000000000E+00  0.00000000000E+00  0.12525980253E-10  0.17130000000E+03  0.17130000000E+03 0. -1.
       11    1    1    2    0    0 -0.17018184106E+00  0.27726143315E+00  0.85691125364E+00  0.91658764948E+00  0.51109989000E-03 0.  1.
     -623    1    1    2    0    0  0.20947243942E+00 -0.43648812572E+00  0.45560272208E+00  0.17130129005E+03  0.17130000000E+03 0. -1.
      622    1    1    2    0    0 -0.39290598368E-01  0.15922669257E+00  0.26874859916E+01  0.30821222958E+01  0.15000000000E+01 0.  1.
</event>
<event>
 5   0  0.6596100E+00  0.9118800E+02  0.7818608E-02  0.1180000E+00
       11   -1    0    0    0    0  0.00000000000E+00  0.00000000000E+00  0.39999999673E+01  0.40000000000E+01  0.51109989000E-03 0. -1.
     -623   -1    0    0    0    0  0.00000000000E+00  0.00000000000E+00  0.12525980253E-10  0.17130000000E+03  0.17130000000E+03 0. -1.
       11    1    1    2    0    0  0.19329550940E-01  0.11029282133E+00 -0.58407818305E-03  0.11197651694E+00  0.51109989000E-03 0. -1.
     -623    1    1    2    0    0  0.18940204522E+00 -0.23306562674E+00  0.42259793443E+00  0.17130078453E+03  0.17130000000E+03 0. -1.
      622    1    1    2    0    0 -0.20873159616E+00  0.12277280541E+00  0.35779861111E+01  0.38872389497E+01  0.15000000000E+01 0. -1.
</event>
<event>
 5   0  0.6596100E+00  0.9118800E+02  0.7818608E-02  0.1180000E+00
       11   -1    0    0    0    0  0.00000000000E+00  0.00000000000E+00  0.39999999673E+01  0.40000000000E+01  0.51109989000E-03 0.  1.
     -623   -1    0    0    0    0  0.00000000000E+00  0.00000000000E+00  0.12525980253E-10  0.17130000000E+03  0.17130000000E+03 0.  1.
       11    1    1    2    0    0 -0.10587758293E+00  0.28399434270E+00  0.26584372201E+00  0.40315753125E+00  0.51109989000E-03 0.  1.
     -623    1    1    2    0    0  0.13453089264E+00 -0.16231556522E+00  0.46825476779E+00  0.17130076972E+03  0.17130000000E+03 0.  1.
      622    1    1    2    0    0 -0.28653309709E-01 -0.12167877748E+00  0.32659014776E+01  0.35960727465E+01  0.15000000000E+01 0.  1.
</event>
<event>
 5   0  0.6596100E+00  0.9118800E+02  0.7818608E-02  0.1180000E+00
       11   -1    0    0    0    0  0.00000000000E+00  0.00000000000E+00  0.39999999673E+01  0.40000000000E+01  0.51109989000E-03 0.  1.
     -623   -1    0    0    0    0  0.00000000000E+00  0.00000000000E+00  0.12525980253E-10  0.17130000000E+03  0.17130000000E+03 0.  1.
       11    1    1    2    0    0  0.95736216611E-01 -0.21070483710E-01  0.22008528662E+00  0.24092983017E+00  0.51109989000E-03 0.  1.
     -623    1    1    2    0    0 -0.33608252199E-01 -0.97534111613E-01  0.33608403320E+00  0.17130036076E+03  0.17130000000E+03 0.  1.
      622    1    1    2    0    0 -0.62127964413E-01  0.11860459532E+00  0.34438306475E+01  0.37587094145E+01  0.15000000000E+01 0.  1.
</event>
<event>
 5   0  0.6596100E+00  0.9118800E+02  0.7818608E-02  0.1180000E+00
       11   -1    0    0    0    0  0.00000000000E+00  0.00000000000E+00  0.39999999673E+01  0.40000000000E+01  0.51109989000E-03 0. -1.
     -623   -1    0    0    0    0  0.00000000000E+00  0.00000000000E+00  0.12525980253E-10  0.17130000000E+03  0.17130000000E+03 0.  1.
       11    1    1    2    0    0  0.98419503997E-01  0.22992305820E+00  0.43192435566E+00  0.49910912803E+00  0.51109989000E-03 0. -1.
     -623    1    1    2    0    0 -0.91945746357E-01 -0.27967758361E+00  0.40602256005E+00  0.17130073417E+03  0.17130000000E+03 0.  1.
      622    1    1    2    0    0 -0.64737576399E-02  0.49754525408E-01  0.31620530517E+01  0.35001566999E+01  0.15000000000E+01 0. -1.
</event>
<event>
 5   0  0.6596100E+00  0.9118800E+02  0.7818608E-02  0.1180000E+00
       11   -1    0    0    0    0  0.00000000000E+00  0.00000000000E+00  0.39999999673E+01  0.40000000000E+01  0.51109989000E-03 0.  1.
     -623   -1    0    0    0    0  0.00000000000E+00  0.00000000000E+00  0.12525980253E-10  0.17130000000E+03  0.17130000000E+03 0.  1.
       11    1    1    2    0    0 -0.11825491649E+00  0.39728064810E-01  0.62081707340E-01  0.13934469497E+00  0.51109989000E-03 0.  1.
     -623    1    1    2    0    0  0.20623498370E-01  0.13891556748E+00  0.38694723663E+00  0.17130049460E+03  0.17130000000E+03 0.  1.
      622    1    1    2    0    0  0.97631418121E-01 -0.17864363229E+00  0.35509710234E+01  0.38601607026E+01  0.15000000000E+01 0.  1.
</event>
<event>
 5   0  0.6596100E+00  0.9118800E+02  0.7818608E-02  0.1180000E+00
       11   -1    0    0    0    0  0.00000000000E+00  0.00000000000E+00  0.39999999673E+01  0.40000000000E+01  0.51109989000E-03 0. -1.
     -623   -1    0    0    0    0  0.00000000000E+00  0.00000000000E+00  0.12525980253E-10  0.17130000000E+03  0.17130000000E+03 0. -1.
       11    1    1    2    0    0  0.12262834352E+00  0.10994657151E+00  0.14608690598E+00  0.22015359307E+00  0.51109989000E-03 0. -1.
     -623    1    1    2    0    0  0.58323438088E-01 -0.23139542430E+00  0.39196284767E+00  0.17130061465E+03  0.17130000000E+03 0. -1.
      622    1    1    2    0    0 -0.18095178161E+00  0.12144885280E+00  0.34619502137E+01  0.37792317544E+01  0.15000000000E+01 0. -1.
</event>
<event>
 5   0  0.6596100E+00  0.9118800E+02  0.7818608E-02  0.1180000E+00
       11   -1    0    0    0    0  0.00000000000E+00  0.00000000000E+00  0.39999999673E+01  0.40000000000E+01  0.51109989000E-03 0. -1.
     -623   -1    0    0    0    0  0.00000000000E+00  0.00000000000E+00  0.12525980253E-10  0.17130000000E+03  0.17130000000E+03 0.  1.
       11    1    1    2    0    0  0.41169225292E-01 -0.73237267536E-01  0.14321303359E-01  0.85228888414E-01  0.51109989000E-03 0. -1.
     -623    1    1    2    0    0 -0.40068155472E+00 -0.14622700209E+00  0.39537365197E+00  0.17130098730E+03  0.17130000000E+03 0.  1.
      622    1    1    2    0    0  0.35951232943E+00  0.21946426962E+00  0.35903050120E+01  0.39137838162E+01  0.15000000000E+01 0. -1.
</event>
<event>
 5   0  0.6596100E+00  0.9118800E+02  0.7818608E-02  0.1180000E+00
       11   -1    0    0    0    0  0.00000000000E+00  0.00000000000E+00  0.39999999673E+01  0.40000000000E+01  0.51109989000E-03 0.  1.
     -623   -1    0    0    0    0  0.00000000000E+00  0.00000000000E+00  0.12525980253E-10  0.17130000000E+03  0.17130000000E+03 0. -1.
       11    1    1    2    0    0  0.69948222146E-01  0.18146397836E-01  0.45635620621E+00  0.46204252370E+00  0.51109989000E-03 0.  1.
     -623    1    1    2    0    0  0.21987544031E+00 -0.75581481643E-01  0.35363632473E+00  0.17130052281E+03  0.17130000000E+03 0. -1.
      622    1    1    2    0    0 -0.28982366246E+00  0.57435083808E-01  0.31900074364E+01  0.35374346621E+01  0.15000000000E+01 0.  1.
</event>
<event>
 5   0  0.6596100E+00  0.9118800E+02  0.7818608E-02  0.1180000E+00
       11   -1    0    0    0    0  0.00000000000E+00  0.00000000000E+00  0.39999999673E+01  0.40000000000E+01  0.51109989000E-03 0.  1.
     -623   -1    0    0    0    0  0.00000000000E+00  0.00000000000E+00  0.12525980253E-10  0.17130000000E+03  0.17130000000E+03 0. -1.
       11    1    1    2    0    0  0.18756366378E-01 -0.69548252847E-01 -0.49428674398E-01  0.87362553925E-01  0.51109989000E-03 0.  1.
     -623    1    1    2    0    0 -0.24009442589E+00  0.26782394258E+00  0.44903025267E+00  0.17130096615E+03  0.17130000000E+03 0. -1.
      622    1    1    2    0    0  0.22133805951E+00 -0.19827568973E+00  0.36003983891E+01  0.39116712983E+01  0.15000000000E+01 0.  1.
</event>
<event>
 5   0  0.6596100E+00  0.9118800E+02  0.7818608E-02  0.1180000E+00
       11   -1    0    0    0    0  0.00000000000E+00  0.00000000000E+00  0.39999999673E+01  0.40000000000E+01  0.51109989000E-03 0. -1.
     -623   -1    0    0    0    0  0.00000000000E+00  0.00000000000E+00  0.12525980253E-10  0.17130000000E+03  0.17130000000E+03 0. -1.
       11    1    1    2    0    0 -0.16585427406E+00  0.13703084293E+00  0.23200652925E-01  0.21638766983E+00  0.51109989000E-03 0. -1.
     -623    1    1    2    0    0  0.19211835301E+00  0.20346295730E-01  0.50783043995E+00  0.17130086169E+03  0.17130000000E+03 0. -1.
      622    1    1    2    0    0 -0.26264078957E-01 -0.15737713866E+00  0.34689688745E+01  0.37827506418E+01  0.15000000000E+01 0. -1.
</event>
<event>
 5   0  0.6596100E+00  0.9118800E+02  0.7818608E-02  0.1180000E+00
       11   -1    0    0    0    0  0.00000000000E+00  0.00000000000E+00  0.39999999673E+01  0.40000000000E+01  0.51109989000E-03 0. -1.
     -623   -1    0    0    0    0  0.00000000000E+00  0.00000000000E+00  0.12525980253E-10  0.17130000000E+03  0.17130000000E+03 0.  1.
       11    1    1    2    0    0  0.82510508479E-02  0.64232814191E-01  0.21343513218E-01  0.68189009661E-01  0.51109989000E-03 0. -1.
     -623    1    1    2    0    0 -0.49169333357E-01 -0.46300193454E-01  0.34488333111E+00  0.17130036050E+03  0.17130000000E+03 0.  1.
      622    1    1    2    0    0  0.40918282509E-01 -0.17932620736E-01  0.36337731230E+01  0.39314504950E+01  0.15000000000E+01 0. -1.
</event>
<event>
 5   0  0.6596100E+00  0.9118800E+02  0.7818608E-02  0.1180000E+00
       11   -1    0    0    0    0  0.00000000000E+00  0.00000000000E+00  0.39999999673E+01  0.40000000000E+01  0.51109989000E-03 0. -1.
     -623   -1    0    0    0    0  0.00000000000E+00  0.00000000000E+00  0.12525980253E-10  0.17130000000E+03  0.17130000000E+03 0. -1.
       11    1    1    2    0    0  0.33872151881E+00 -0.22952538273E-01  0.64997719184E+00  0.73330055056E+00  0.51109989000E-03 0. -1.
     -623    1    1    2    0    0 -0.92238086075E-02 -0.33283443541E+00  0.49004383609E+00  0.17130102454E+03  0.17130000000E+03 0. -1.
      622    1    1    2    0    0 -0.32949771020E+00  0.35578697368E+00  0.28599789394E+01  0.32656749143E+01  0.15000000000E+01 0. -1.
</event>
<event>
 5   0  0.6596100E+00  0.9118800E+02  0.7818608E-02  0.1180000E+00
       11   -1    0    0    0    0  0.00000000000E+00  0.00000000000E+00  0.39999999673E+01  0.40000000000E+01  0.51109989000E-03 0.  1.
     -623   -1    0    0    0    0  0.00000000000E+00  0.00000000000E+00  0.12525980253E-10  0.17130000000E+03  0.17130000000E+03 0.  1.
       11    1    1    2    0    0  0.30348358243E+00 -0.64111404313E-01  0.36951651267E+00  0.48244716946E+00  0.51109989000E-03 0.  1.
     -623    1    1    2    0    0 -0.13786154892E+00  0.99126778453E-01  0.45405525583E+00  0.17130068592E+03  0.17130000000E+03 0.  1.
      622    1    1    2    0    0 -0.16562203350E+00 -0.35015374140E-01  0.31764281989E+01  0.35168669063E+01  0.15000000000E+01 0.  1.
</event>
<event>
 5   0  0.6596100E+00  0.9118800E+02  0.7818608E-02  0.1180000E+00
       11   -1    0    0    0    0  0.00000000000E+00  0.00000000000E+00  0.39999999673E+01  0.40000000000E+01  0.51109989000E-03 0. -1.
     -623   -1    0    0    0    0  0.00000000000E+00  0.00000000000E+00  0.12525980253E-10  0.17130000000E+03  0.17130000000E+03 0. -1.
       11    1    1    2    0    0 -0.45492998026E-02 -0.19884100190E+00  0.21883523005E+00  0.29571533491E+00  0.51109989000E-03 0. -1.
     -623    1    1    2    0    0  0.44762597498E+00 -0.30077863705E+00  0.46229752361E+00  0.17130147272E+03  0.17130000000E+03 0. -1.
      622    1    1    2    0    0 -0.44307667518E+00  0.49961963895E+00  0.33188672137E+01  0.37028119458E+01  0.15000000000E+01 0. -1.
</event>
<event>
 5   0  0.6596100E+00  0.9118800E+02  0.7818608E-02  0.1180000E+00
       11   -1    0    0    0    0  0.00000000000E+00  0.00000000000E+00  0.39999999673E+01  0.40000000000E+01  0.51109989000E-03 0.  1.
     -623   -1    0    0    0    0  0.00000000000E+00  0.00000000000E+00  0.12525980253E-10  0.17130000000E+03  0.17130000000E+03 0. -1.
       11    1    1    2    0    0  0.14397177715E+00 -0.95135801498E-02  0.10712844260E+00  0.17970850080E+00  0.51109989000E-03 0.  1.
     -623    1    1    2    0    0 -0.21199935509E+00 -0.24227114242E+00  0.38988666168E+00  0.17130074621E+03  0.17130000000E+03 0. -1.
      622    1    1    2    0    0  0.68027577942E-01  0.25178472257E+00  0.35029848631E+01  0.38195452935E+01  0.15000000000E+01 0.  1.
</event>
<event>
 5   0  0.6596100E+00  0.9118800E+02  0.7818608E-02  0.1180000E+00
       11   -1    0    0    0    0  0.00000000000E+00  0.00000000000E+00  0.39999999673E+01  0.40000000000E+01  0.51109989000E-03 0.  1.
     -623   -1    0    0    0    0  0.00000000000E+00  0.00000000000E+00  0.12525980253E-10  0.17130000000E+03  0.17130000000E+03 0. -1.
       11    1    1    2    0    0  0.17032647974E+00 -0.41504939281E+00  0.91597998928E+00  0.10199493665E+01  0.51109989000E-03 0.  1.
     -623    1    1    2    0    0 -0.65704184966E+00  0.36320036105E+00  0.55896796649E+00  0.17130255708E+03  0.17130000000E+03 0. -1.
      622    1    1    2    0    0  0.48671536992E+00  0.51849031758E-01  0.25250520116E+01  0.29774935491E+01  0.15000000000E+01 0.  1.
</event>
<event>
 5   0  0.6596100E+00  0.9118800E+02  0.7818608E-02  0.1180000E+00
       11   -1    0    0    0    0  0.00000000000E+00  0.00000000000E+00  0.39999999673E+01  0.40000000000E+01  0.51109989000E-03 0.  1.
     -623   -1    0    0    0    0  0.00000000000E+00  0.00000000000E+00  0.12525980253E-10  0.17130000000E+03  0.17130000000E+03 0. -1.
       11    1    1    2    0    0  0.44034949183E-01  0.47236098660E-01  0.28351361535E-01  0.70529332125E-01  0.51109989000E-03 0.  1.
     -623    1    1    2    0    0 -0.37319673031E+00 -0.20784721377E+00  0.35924624044E+00  0.17130090932E+03  0.17130000000E+03 0. -1.
      622    1    1    2    0    0  0.32916178112E+00  0.16061111511E+00  0.36124023654E+01  0.39285613471E+01  0.15000000000E+01 0.  1.
</event>
<event>
 5   0  0.6596100E+00  0.9118800E+02  0.7818608E-02  0.1180000E+00
       11   -1    0    0    0    0  0.00000000000E+00  0.00000000000E+00  0.39999999673E+01  0.40000000000E+01  0.51109989000E-03 0.  1.
     -623   -1    0    0    0    0  0.00000000000E+00  0.00000000000E+00  0.12525980253E-10  0.17130000000E+03  0.17130000000E+03 0.  1.
       11    1    1    2    0    0  0.24920616832E-01 -0.55437069861E-01  0.24183482263E-01  0.65417183488E-01  0.51109989000E-03 0.  1.
     -623    1    1    2    0    0 -0.17706442835E+00 -0.17111444399E-01  0.34275912489E+00  0.17130043528E+03  0.17130000000E+03 0.  1.
      622    1    1    2    0    0  0.15214381151E+00  0.72548514259E-01  0.36330573602E+01  0.39341475327E+01  0.15000000000E+01 0.  1.
</event>
<event>
 5   0  0.6596100E+00  0.9118800E+02  0.7818608E-02  0.1180000E+00
       11   -1    0    0    0    0  0.00000000000E+00  0.00000000000E+00  0.39999999673E+01  0.40000000000E+01  0.51109989000E-03 0.  1.
     -623   -1    0    0    0    0  0.00000000000E+00  0.00000000000E+00  0.12525980253E-10  0.17130000000E+03  0.17130000000E+03 0.  1.
       11    1    1    2    0    0  0.55849843107E-01 -0.12102125689E+00  0.91688205583E-01  0.16177866935E+00  0.51109989000E-03 0.  1.
     -623    1    1    2    0    0 -0.90196039303E-01  0.12411977745E+00  0.37602378440E+00  0.17130048142E+03  0.17130000000E+03 0.  1.
      622    1    1    2    0    0  0.34346196196E-01 -0.30985205650E-02  0.35322879774E+01  0.38377399100E+01  0.15000000000E+01 0.  1.
</event>
<event>
 5   0  0.6596100E+00  0.9118800E+02  0.7818608E-02  0.1180000E+00
       11   -1    0    0    0    0  0.00000000000E+00  0.00000000000E+00  0.39999999673E+01  0.40000000000E+01  0.51109989000E-03 0.  1.
     -623   -1    0    0    0    0  0.00000000000E+00  0.00000000000E+00  0.12525980253E-10  0.17130000000E+03  0.17130000000E+03 0. -1.
       11    1    1    2    0    0  0.52139852791E-01  0.73133642885E-02 -0.34276086478E-01  0.62826434514E-01  0.51109989000E-03 0.  1.
     -623    1    1    2    0    0 -0.95439609066E-02 -0.30023713026E-01  0.39485309233E+00  0.17130045797E+03  0.17130000000E+03 0. -1.
      622    1    1    2    0    0 -0.42595891885E-01  0.22710348738E-01  0.36394229615E+01  0.39367155933E+01  0.15000000000E+01 0.  1.
</event>
<event>
 5   0  0.6596100E+00  0.9118800E+02  0.7818608E-02  0.1180000E+00
       11   -1    0    0    0    0  0.00000000000E+00  0.00000000000E+00  0.39999999673E+01  0.40000000000E+01  0.51109989000E-03 0.  1.
     -623   -1    0    0    0    0  0.00000000000E+00  0.00000000000E+00  0.12525980253E-10  0.17130000000E+03  0.17130000000E+03 0.  1.
       11    1    1    2    0    0  0.75049803583E-01  0.15908698948E+00  0.16344373999E+00  0.24011509865E+00  0.51109989000E-03 0.  1.
     -623    1    1    2    0    0 -0.19717122114E+00 -0.11549175711E-01  0.39478682695E+00  0.17130056879E+03  0.17130000000E+03 0.  1.
      622    1    1    2    0    0  0.12212141756E+00 -0.14753781377E+00  0.34417694004E+01  0.37593161150E+01  0.15000000000E+01 0.  1.
</event>
<event>
 5   0  0.6596100E+00  0.9118800E+02  0.7818608E-02  0.1180000E+00
       11   -1    0    0    0    0  0.00000000000E+00  0.00000000000E+00  0.39999999673E+01  0.40000000000E+01  0.51109989000E-03 0. -1.
     -623   -1    0    0    0    0  0.00000000000E+00  0.00000000000E+00  0.12525980253E-10  0.17130000000E+03  0.17130000000E+03 0. -1.
       11    1    1    2    0    0 -0.33252335777E-02 -0.85454233653E-02 -0.12384416904E-01  0.15418055779E-01  0.51109989000E-03 0. -1.
     -623    1    1    2    0    0 -0.30273538106E+00 -0.93267103144E-01  0.33571483030E+00  0.17130062187E+03  0.17130000000E+03 0. -1.
      622    1    1    2    0    0  0.30606061463E+00  0.10181252651E+00  0.36766695540E+01  0.39839600775E+01  0.15000000000E+01 0. -1.
</event>
<event>
 5   0  0.6596100E+00  0.9118800E+02  0.7818608E-02  0.1180000E+00
       11   -1    0    0    0    0  0.00000000000E+00  0.00000000000E+00  0.39999999673E+01  0.40000000000E+01  0.51109989000E-03 0. -1.
     -623   -1    0    0    0    0  0.00000000000E+00  0.00000000000E+00  0.12525980253E-10  0.17130000000E+03  0.17130000000E+03 0. -1.
       11    1    1    2    0    0 -0.26195250231E+00  0.69967112610E-01 -0.79832591897E-01  0.28264467846E+00  0.51109989000E-03 0. -1.
     -623    1    1    2    0    0  0.45530618625E+00  0.17868069648E+00  0.69548096919E+00  0.17130211010E+03  0.17130000000E+03 0. -1.
      622    1    1    2    0    0 -0.19335368395E+00 -0.24864780909E+00  0.33843515901E+01  0.37152452228E+01  0.15000000000E+01 0. -1.
</event>
<event>
 5   0  0.6596100E+00  0.9118800E+02  0.7818608E-02  0.1180000E+00
       11   -1    0    0    0    0  0.00000000000E+00  0.00000000000E+00  0.39999999673E+01  0.40000000000E+01  0.51109989000E-03 0. -1.
     -623   -1    0    0    0    0  0.00000000000E+00  0.00000000000E+00  0.12525980253E-10  0.17130000000E+03  0.17130000000E+03 0. -1.
       11    1    1    2    0    0 -0.29548048981E-01  0.35826931884E-01  0.29873092393E+00  0.30231950380E+00  0.51109989000E-03 0. -1.
     -623    1    1    2    0    0  0.24689280324E+00  0.60826942368E-01  0.33043709981E+00  0.17130050743E+03  0.17130000000E+03 0. -1.
      622    1    1    2    0    0 -0.21734475426E+00 -0.96653874253E-01  0.33708319436E+01  0.36971730695E+01  0.15000000000E+01 0. -1.
</event>
<event>
 5   0  0.6596100E+00  0.9118800E+02  0.7818608E-02  0.1180000E+00
       11   -1    0    0    0    0  0.00000000000E+00  0.00000000000E+00  0.39999999673E+01  0.40000000000E+01  0.51109989000E-03 0. -1.
     -623   -1    0    0    0    0  0.00000000000E+00  0.00000000000E+00  0.12525980253E-10  0.17130000000E+03  0.17130000000E+03 0. -1.
       11    1    1    2    0    0 -0.24276437062E+00  0.64993372509E-01  0.67524960293E+00  0.72050049660E+00  0.51109989000E-03 0. -1.
     -623    1    1    2    0    0 -0.65828254391E-01 -0.22033312547E+00  0.42971840854E+00  0.17130069334E+03  0.17130000000E+03 0. -1.
      622    1    1    2    0    0  0.30859262501E+00  0.15533975296E+00  0.28950319559E+01  0.32788061658E+01  0.15000000000E+01 0. -1.
</event>
<event>
 5   0  0.6596100E+00  0.9118800E+02  0.7818608E-02  0.1180000E+00
       11   -1    0    0    0    0  0.00000000000E+00  0.00000000000E+00  0.39999999673E+01  0.40000000000E+01  0.51109989000E-03 0. -1.
     -623   -1    0    0    0    0  0.00000000000E+00  0.00000000000E+00  0.12525980253E-10  0.17130000000E+03  0.17130000000E+03 0.  1.
       11    1    1    2    0    0  0.42440036341E-01  0.59052099854E-01 -0.25852289646E-01  0.77181016350E-01  0.51109989000E-03 0. -1.
     -623    1    1    2    0    0 -0.65485354519E-01 -0.95655337596E-02  0.40207984909E+00  0.17130048467E+03  0.17130000000E+03 0.  1.
      622    1    1    2    0    0  0.23045318178E-01 -0.49486566094E-01  0.36237724079E+01  0.39223343141E+01  0.15000000000E+01 0. -1.
</event>
<event>
 5   0  0.6596100E+00  0.9118800E+02  0.7818608E-02  0.1180000E+00
       11   -1    0    0    0    0  0.00000000000E+00  0.00000000000E+00  0.39999999673E+01  0.40000000000E+01  0.51109989000E-03 0.  1.
     -623   -1    0    0    0    0  0.00000000000E+00  0.00000000000E+00  0.12525980253E-10  0.17130000000E+03  0.17130000000E+03 0.  1.
       11    1    1    2    0    0  0.14039884592E+00 -0.19863548808E+00  0.16945085923E+00  0.29644855874E+00  0.51109989000E-03 0.  1.
     -623    1    1    2    0    0 -0.30031919352E-01  0.20041443363E+00  0.44692629189E+00  0.17130070289E+03  0.17130000000E+03 0.  1.
      622    1    1    2    0    0 -0.11036692657E+00 -0.17789455478E-02  0.33836228162E+01  0.37028485502E+01  0.15000000000E+01 0.  1.
</event>
<event>
 5   0  0.6596100E+00  0.9118800E+02  0.7818608E-02  0.1180000E+00
       11   -1    0    0    0    0  0.00000000000E+00  0.00000000000E+00  0.39999999673E+01  0.40000000000E+01  0.51109989000E-03 0. -1.
     -623   -1    0    0    0    0  0.00000000000E+00  0.00000000000E+00  0.12525980253E-10  0.17130000000E+03  0.17130000000E+03 0. -1.
       11    1    1    2    0    0 -0.18927792303E+00  0.19240003635E+00  0.39912144252E+00  0.48181126308E+00  0.51109989000E-03 0. -1.
     -623    1    1    2    0    0  0.28986450692E+00  0.35938615782E-01  0.42915001563E+00  0.17130078658E+03  0.17130000000E+03 0. -1.
      622    1    1    2    0    0 -0.10058658390E+00 -0.22833865213E+00  0.31717285092E+01  0.35174021574E+01  0.15000000000E+01 0. -1.
</event>
<event>
 5   0  0.6596100E+00  0.9118800E+02  0.7818608E-02  0.1180000E+00
       11   -1    0    0    0    0  0.00000000000E+00  0.00000000000E+00  0.39999999673E+01  0.40000000000E+01  0.51109989000E-03 0. -1.
     -623   -1    0    0    0    0  0.00000000000E+00  0.00000000000E+00  0.12525980253E-10  0.17130000000E+03  0.17130000000E+03 0. -1.
       11    1    1    2    0    0 -0.35613035311E-01 -0.19026159090E+00 -0.20541343605E-02  0.19357748306E+00  0.51109989000E-03 0. -1.
     -623    1    1    2    0    0 -0.10602391118E+00  0.47333439236E+00  0.51960730679E+00  0.17130147483E+03  0.17130000000E+03 0. -1.
      622    1    1    2    0    0  0.14163694649E+00 -0.28307280146E+00  0.34824467949E+01  0.38049476889E+01  0.15000000000E+01 0. -1.
</event>
<event>
 5   0  0.6596100E+00  0.9118800E+02  0.7818608E-02  0.1180000E+00
       11   -1    0    0    0    0  0.00000000000E+00  0.00000000000E+00  0.39999999673E+01  0.40000000000E+01  0.51109989000E-03 0. -1.
     -623   -1    0    0    0    0  0.00000000000E+00  0.00000000000E+00  0.12525980253E-10  0.17130000000E+03  0.17130000000E+03 0. -1.
       11    1    1    2    0    0  0.26680012282E+00 -0.16473563113E+00  0.24902037946E+00  0.40041421592E+00  0.51109989000E-03 0. -1.
     -623    1    1    2    0    0 -0.13036336819E+00 -0.53669741572E-01  0.48980747837E+00  0.17130075828E+03  0.17130000000E+03 0. -1.
      622    1    1    2    0    0 -0.13643675464E+00  0.21840537270E+00  0.32611721095E+01  0.35988275067E+01  0.15000000000E+01 0. -1.
</event>
<event>
 5   0  0.6596100E+00  0.9118800E+02  0.7818608E-02  0.1180000E+00
       11   -1    0    0    0    0  0.00000000000E+00  0.00000000000E+00  0.39999999673E+01  0.40000000000E+01  0.51109989000E-03 0. -1.
     -623   -1    0    0    0    0  0.00000000000E+00  0.00000000000E+00  0.12525980253E-10  0.17130000000E+03  0.17130000000E+03 0.  1.
       11    1    1    2    0    0 -0.73220978271E-01  0.32640501435E-02  0.20106521474E-01  0.76003283547E-01  0.51109989000E-03 0. -1.
     -623    1    1    2    0    0  0.17619947000E+00 -0.26439040426E-01  0.35594818022E+00  0.17130046248E+03  0.17130000000E+03 0.  1.
      622    1    1    2    0    0 -0.10297849173E+00  0.23174990282E-01  0.36239452657E+01  0.39235342408E+01  0.15000000000E+01 0. -1.
</event>
<event>
 5   0  0.6596100E+00  0.9118800E+02  0.7818608E-02  0.1180000E+00
       11   -1    0    0    0    0  0.00000000000E+00  0.00000000000E+00  0.39999999673E+01  0.40000000000E+01  0.51109989000E-03 0. -1.
     -623   -1    0    0    0    0  0.00000000000E+00  0.00000000000E+00  0.12525980253E-10  0.17130000000E+03  0.17130000000E+03 0. -1.
       11    1    1    2    0    0 -0.25446389845E+00 -0.33776358382E+00  0.71686470557E+00  0.83230486090E+00  0.51109989000E-03 0. -1.
     -623    1    1    2    0    0  0.41766694101E+00  0.16487483162E+00  0.50476732386E+00  0.17130133222E+03  0.17130000000E+03 0. -1.
      622    1    1    2    0    0 -0.16320304256E+00  0.17288875220E+00  0.27783679379E+01  0.31663629218E+01  0.15000000000E+01 0. -1.
</event>
<event>
 5   0  0.6596100E+00  0.9118800E+02  0.7818608E-02  0.1180000E+00
       11   -1    0    0    0    0  0.00000000000E+00  0.00000000000E+00  0.39999999673E+01  0.40000000000E+01  0.51109989000E-03 0.  1.
     -623   -1    0    0    0    0  0.00000000000E+00  0.00000000000E+00  0.12525980253E-10  0.17130000000E+03  0.17130000000E+03 0. -1.
       11    1    1    2    0    0  0.74601651820E-01  0.64384944496E-01 -0.11593238710E+00  0.15215586460E+00  0.51109989000E-03 0.  1.
     -623    1    1    2    0    0 -0.77051779285E-01  0.79761172257E-01  0.57652860274E+00  0.17130100608E+03  0.17130000000E+03 0. -1.
      622    1    1    2    0    0  0.24501274649E-02 -0.14414611675E+00  0.35394037517E+01  0.38468380553E+01  0.15000000000E+01 0.  1.
</event>
<event>
 5   0  0.6596100E+00  0.9118800E+02  0.7818608E-02  0.1180000E+00
       11   -1    0    0    0    0  0.00000000000E+00  0.00000000000E+00  0.39999999673E+01  0.40000000000E+01  0.51109989000E-03 0.  1.
     -623   -1    0    0    0    0  0.00000000000E+00  0.00000000000E+00  0.12525980253E-10  0.17130000000E+03  0.17130000000E+03 0.  1.
       11    1    1    2    0    0  0.20394229608E+00 -0.14778351180E+00  0.54547114202E-01  0.25769764333E+00  0.51109989000E-03 0.  1.
     -623    1    1    2    0    0  0.80028247272E-02  0.17826481681E+00  0.52459475661E+00  0.17130089621E+03  0.17130000000E+03 0.  1.
      622    1    1    2    0    0 -0.21194512080E+00 -0.30481305018E-01  0.34208580965E+01  0.37414061475E+01  0.15000000000E+01 0.  1.
</event>
<event>
 5   0  0.6596100E+00  0.9118800E+02  0.7818608E-02  0.1180000E+00
       11   -1    0    0    0    0  0.00000000000E+00  0.00000000000E+00  0.39999999673E+01  0.40000000000E+01  0.51109989000E-03 0. -1.
     -623   -1    0    0    0    0  0.00000000000E+00  0.00000000000E+00  0.12525980253E-10  0.17130000000E+03  0.17130000000E+03 0.  1.
       11    1    1    2    0    0 -0.32106266628E+00 -0.18558583783E+00  0.16908831838E+00  0.40757141646E+00  0.51109989000E-03 0. -1.
     -623    1    1    2    0    0  0.20117562310E+00  0.90973890780E-01  0.57141010804E+00  0.17130109532E+03  0.17130000000E+03 0.  1.
      622    1    1    2    0    0  0.11988704317E+00  0.94611947051E-01  0.32595015409E+01  0.35913332648E+01  0.15000000000E+01 0. -1.
</event>
<event>
 5   0  0.6596100E+00  0.9118800E+02  0.7818608E-02  0.1180000E+00
       11   -1    0    0    0    0  0.00000000000E+00  0.00000000000E+00  0.39999999673E+01  0.40000000000E+01  0.51109989000E-03 0. -1.
     -623   -1    0    0    0    0  0.00000000000E+00  0.00000000000E+00  0.12525980253E-10  0.17130000000E+03  0.17130000000E+03 0. -1.
       11    1    1    2    0    0 -0.16441132153E+00 -0.16370607535E+00  0.51529773859E+00  0.56512191815E+00  0.51109989000E-03 0. -1.
     -623    1    1    2    0    0 -0.10232897433E+00  0.33176303169E+00  0.41172672074E+00  0.17130084663E+03  0.17130000000E+03 0. -1.
      622    1    1    2    0    0  0.26674029586E+00 -0.16805695634E+00  0.30729755080E+01  0.34340314499E+01  0.15000000000E+01 0. -1.
</event>
<event>
 5   0  0.6596100E+00  0.9118800E+02  0.7818608E-02  0.1180000E+00
       11   -1    0    0    0    0  0.00000000000E+00  0.00000000000E+00  0.39999999673E+01  0.40000000000E+01  0.51109989000E-03 0. -1.
     -623   -1    0    0    0    0  0.00000000000E+00  0.00000000000E+00  0.12525980253E-10  0.17130000000E+03  0.17130000000E+03 0.  1.
       11    1    1    2    0    0 -0.16789543412E+00 -0.90575651202E-01  0.10323657059E+00  0.21691213917E+00  0.51109989000E-03 0. -1.
     -623    1    1    2    0    0  0.64600446902E-02  0.16928412382E+00  0.42908436311E+00  0.17130062117E+03  0.17130000000E+03 0.  1.
      622    1    1    2    0    0  0.16143538943E+00 -0.78708472620E-01  0.34676790337E+01  0.37824666937E+01  0.15000000000E+01 0. -1.
</event>
<event>
 5   0  0.6596100E+00  0.9118800E+02  0.7818608E-02  0.1180000E+00
       11   -1    0    0    0    0  0.00000000000E+00  0.00000000000E+00  0.39999999673E+01  0.40000000000E+01  0.51109989000E-03 0. -1.
     -623   -1    0    0    0    0  0.00000000000E+00  0.00000000000E+00  0.12525980253E-10  0.17130000000E+03  0.17130000000E+03 0. -1.
       11    1    1    2    0    0 -0.58783104737E-01  0.42633212953E-01  0.19985749692E-02  0.72645025801E-01  0.51109989000E-03 0. -1.
     -623    1    1    2    0    0  0.16309924206E+00 -0.64614248069E-01  0.37048159723E+00  0.17130049046E+03  0.17130000000E+03 0. -1.
      622    1    1    2    0    0 -0.10431613732E+00  0.21981035116E-01  0.36275197952E+01  0.39268645109E+01  0.15000000000E+01 0. -1.
</event>
<event>
 5   0  0.6596100E+00  0.9118800E+02  0.7818608E-02  0.1180000E+00
       11   -1    0    0    0    0  0.00000000000E+00  0.00000000000E+00  0.39999999673E+01  0.40000000000E+01  0.51109989000E-03 0. -1.
     -623   -1    0    0    0    0  0.00000000000E+00  0.00000000000E+00  0.12525980253E-10  0.17130000000E+03  0.17130000000E+03 0.  1.
       11    1    1    2    0    0 -0.11557544633E+00  0.39062258757E-01  0.97413435834E-01  0.15611912938E+00  0.51109989000E-03 0. -1.
     -623    1    1    2    0    0  0.70815128408E-01  0.14033893446E+00  0.36880307700E+00  0.17130046913E+03  0.17130000000E+03 0.  1.
      622    1    1    2    0    0  0.44760317923E-01 -0.17940119321E+00  0.35337834545E+01  0.38434117367E+01  0.15000000000E+01 0. -1.
</event>
<event>
 5   0  0.6596100E+00  0.9118800E+02  0.7818608E-02  0.1180000E+00
       11   -1    0    0    0    0  0.00000000000E+00  0.00000000000E+00  0.39999999673E+01  0.40000000000E+01  0.51109989000E-03 0.  1.
     -623   -1    0    0    0    0  0.00000000000E+00  0.00000000000E+00  0.12525980253E-10  0.17130000000E+03  0.17130000000E+03 0. -1.
       11    1    1    2    0    0 -0.25221993283E-01 -0.10350639705E+00 -0.63634107803E-01  0.12409385188E+00  0.51109989000E-03 0.  1.
     -623    1    1    2    0    0  0.21612317876E+00 -0.19914807342E-01  0.49792269684E+00  0.17130086116E+03  0.17130000000E+03 0. -1.
      622    1    1    2    0    0 -0.19090118548E+00  0.12342120439E+00  0.35657113783E+01  0.38750449920E+01  0.15000000000E+01 0.  1.
</event>
<event>
 5   0  0.6596100E+00  0.9118800E+02  0.7818608E-02  0.1180000E+00
       11   -1    0    0    0    0  0.00000000000E+00  0.00000000000E+00  0.39999999673E+01  0.40000000000E+01  0.51109989000E-03 0.  1.
     -623   -1    0    0    0    0  0.00000000000E+00  0.00000000000E+00  0.12525980253E-10  0.17130000000E+03  0.17130000000E+03 0. -1.
       11    1    1    2    0    0  0.25865705615E-01 -0.38381178081E-01 -0.35107800853E-01  0.58094478750E-01  0.51109989000E-03 0.  1.
     -623    1    1    2    0    0  0.13810653961E-01  0.39137376691E-01  0.39045460528E+00  0.17130045002E+03  0.17130000000E+03 0. -1.
      622    1    1    2    0    0 -0.39676359576E-01 -0.75619860991E-03  0.36446531629E+01  0.39414555006E+01  0.15000000000E+01 0.  1.
</event>
<event>
 5   0  0.6596100E+00  0.9118800E+02  0.7818608E-02  0.1180000E+00
       11   -1    0    0    0    0  0.00000000000E+00  0.00000000000E+00  0.39999999673E+01  0.40000000000E+01  0.51109989000E-03 0.  1.
     -623   -1    0    0    0    0  0.00000000000E+00  0.00000000000E+00  0.12525980253E-10  0.17130000000E+03  0.17130000000E+03 0.  1.
       11    1    1    2    0    0 -0.12121247774E+00 -0.82000265115E-01  0.63090520020E+00  0.64765588170E+00  0.51109989000E-03 0.  1.
     -623    1    1    2    0    0  0.14101502089E+00 -0.19749099823E+00  0.38486072015E+00  0.17130060422E+03  0.17130000000E+03 0.  1.
      622    1    1    2    0    0 -0.19802543155E-01  0.27949126335E+00  0.29842340470E+01  0.33517398996E+01  0.15000000000E+01 0.  1.
</event>
<event>
 5   0  0.6596100E+00  0.9118800E+02  0.7818608E-02  0.1180000E+00
       11   -1    0    0    0    0  0.00000000000E+00  0.00000000000E+00  0.39999999673E+01  0.40000000000E+01  0.51109989000E-03 0. -1.
     -623   -1    0    0    0    0  0.00000000000E+00  0.00000000000E+00  0.12525980253E-10  0.17130000000E+03  0.17130000000E+03 0.  1.
       11    1    1    2    0    0  0.31072657058E-01 -0.33996242414E+00  0.39128987712E+00  0.51927640906E+00  0.51109989000E-03 0. -1.
     -623    1    1    2    0    0  0.18274278098E-01  0.33246175062E+00  0.46924845624E+00  0.17130096631E+03  0.17130000000E+03 0.  1.
      622    1    1    2    0    0 -0.49346935155E-01  0.75006735236E-02  0.31394616340E+01  0.34797572805E+01  0.15000000000E+01 0. -1.
</event>
<event>
 5   0  0.6596100E+00  0.9118800E+02  0.7818608E-02  0.1180000E+00
       11   -1    0    0    0    0  0.00000000000E+00  0.00000000000E+00  0.39999999673E+01  0.40000000000E+01  0.51109989000E-03 0. -1.
     -623   -1    0    0    0    0  0.00000000000E+00  0.00000000000E+00  0.12525980253E-10  0.17130000000E+03  0.17130000000E+03 0. -1.
       11    1    1    2    0    0 -0.10213982751E-01 -0.68713445336E-01 -0.56524431703E-01  0.89560792851E-01  0.51109989000E-03 0. -1.
     -623    1    1    2    0    0  0.10042227876E+00 -0.20612205417E+00  0.45765207723E+00  0.17130076479E+03  0.17130000000E+03 0. -1.
      622    1    1    2    0    0 -0.90208296011E-01  0.27483549951E+00  0.35988723218E+01  0.39096744209E+01  0.15000000000E+01 0. -1.
</event>
<event>
 5   0  0.6596100E+00  0.9118800E+02  0.7818608E-02  0.1180000E+00
       11   -1    0    0    0    0  0.00000000000E+00  0.00000000000E+00  0.39999999673E+01  0.40000000000E+01  0.51109989000E-03 0.  1.
     -623   -1    0    0    0    0  0.00000000000E+00  0.00000000000E+00  0.12525980253E-10  0.17130000000E+03  0.17130000000E+03 0. -1.
       11    1    1    2    0    0  0.17502346930E-01  0.29194853118E-01  0.11438779945E+01  0.11443844630E+01  0.51109989000E-03 0.  1.
     -623    1    1    2    0    0 -0.11006632924E+00 -0.29765355705E+00  0.44387419307E+00  0.17130086905E+03  0.17130000000E+03 0. -1.
      622    1    1    2    0    0  0.92563982314E-01  0.26845870393E+00  0.24122477798E+01  0.28547464892E+01  0.15000000000E+01 0. -1.
</event>
<event>
 5   0  0.6596100E+00  0.9118800E+02  0.7818608E-02  0.1180000E+00
       11   -1    0    0    0    0  0.00000000000E+00  0.00000000000E+00  0.39999999673E+01  0.40000000000E+01  0.51109989000E-03 0.  1.
     -623   -1    0    0    0    0  0.00000000000E+00  0.00000000000E+00  0.12525980253E-10  0.17130000000E+03  0.17130000000E+03 0. -1.
       11    1    1    2    0    0 -0.88174107139E-01 -0.31285869973E+00  0.45471749837E+00  0.55894856983E+00  0.51109989000E-03 0.  1.
     -623    1    1    2    0    0  0.14362728040E+00  0.19751167251E+00  0.45187727042E+00  0.17130077009E+03  0.17130000000E+03 0. -1.
      622    1    1    2    0    0 -0.55453173260E-01  0.11534702723E+00  0.30934051986E+01  0.34402813422E+01  0.15000000000E+01 0.  1.
</event>
<event>
 5   0  0.6596100E+00  0.9118800E+02  0.7818608E-02  0.1180000E+00
       11   -1    0    0    0    0  0.00000000000E+00  0.00000000000E+00  0.39999999673E+01  0.40000000000E+01  0.51109989000E-03 0.  1.
     -623   -1    0    0    0    0  0.00000000000E+00  0.00000000000E+00  0.12525980253E-10  0.17130000000E+03  0.17130000000E+03 0. -1.
       11    1    1    2    0    0 -0.17040619848E-01 -0.17314775077E+00  0.35888494883E-01  0.17764788659E+00  0.51109989000E-03 0.  1.
     -623    1    1    2    0    0 -0.40406408996E+00  0.10301667587E+00  0.47567331614E+00  0.17130116796E+03  0.17130000000E+03 0. -1.
      622    1    1    2    0    0  0.42110470981E+00  0.70131074903E-01  0.34884381563E+01  0.38211841509E+01  0.15000000000E+01 0.  1.
</event>
<event>
 5   0  0.6596100E+00  0.9118800E+02  0.7818608E-02  0.1180000E+00
       11   -1    0    0    0    0  0.00000000000E+00  0.00000000000E+00  0.39999999673E+01  0.40000000000E+01  0.51109989000E-03 0.  1.
     -623   -1    0    0    0    0  0.00000000000E+00  0.00000000000E+00  0.12525980253E-10  0.17130000000E+03  0.17130000000E+03 0. -1.
       11    1    1    2    0    0  0.41187350641E-03  0.48831706304E-01  0.12881391571E-03  0.48836287701E-01  0.51109989000E-03 0.  1.
     -623    1    1    2    0    0  0.89082098296E-01 -0.21271798523E-01  0.34611014199E+00  0.17130037414E+03  0.17130000000E+03 0. -1.
      622    1    1    2    0    0 -0.89493971802E-01 -0.27559907781E-01  0.36537610115E+01  0.39507895728E+01  0.15000000000E+01 0.  1.
</event>
<event>
 5   0  0.6596100E+00  0.9118800E+02  0.7818608E-02  0.1180000E+00
       11   -1    0    0    0    0  0.00000000000E+00  0.00000000000E+00  0.39999999673E+01  0.40000000000E+01  0.51109989000E-03 0.  1.
     -623   -1    0    0    0    0  0.00000000000E+00  0.00000000000E+00  0.12525980253E-10  0.17130000000E+03  0.17130000000E+03 0. -1.
       11    1    1    2    0    0 -0.84633778311E-01  0.21264694816E+00  0.70544581887E-01  0.23949613827E+00  0.51109989000E-03 0.  1.
     -623    1    1    2    0    0 -0.11958617443E+00  0.40346876256E+00  0.54423795785E+00  0.17130138144E+03  0.17130000000E+03 0. -1.
      622    1    1    2    0    0  0.20421995274E+00 -0.61611571071E+00  0.33852174276E+01  0.37591224229E+01  0.15000000000E+01 0.  1.
</event>
<event>
 5   0  0.6596100E+00  0.9118800E+02  0.7818608E-02  0.1180000E+00
       11   -1    0    0    0    0  0.00000000000E+00  0.00000000000E+00  0.39999999673E+01  0.40000000000E+01  0.51109989000E-03 0.  1.
     -623   -1    0    0    0    0  0.00000000000E+00  0.00000000000E+00  0.12525980253E-10  0.17130000000E+03  0.17130000000E+03 0. -1.
       11    1    1    2    0    0 -0.88436599719E-01 -0.12589992212E+00  0.88291432988E-01  0.17739070134E+00  0.51109989000E-03 0.  1.
     -623    1    1    2    0    0  0.84169485358E-01  0.29671430037E+00  0.40066287070E+00  0.17130074622E+03  0.17130000000E+03 0. -1.
      622    1    1    2    0    0  0.42671143610E-02 -0.17081437824E+00  0.35110456637E+01  0.38218630813E+01  0.15000000000E+01 0.  1.
</event>
<event>
 5   0  0.6596100E+00  0.9118800E+02  0.7818608E-02  0.1180000E+00
       11   -1    0    0    0    0  0.00000000000E+00  0.00000000000E+00  0.39999999673E+01  0.40000000000E+01  0.51109989000E-03 0. -1.
     -623   -1    0    0    0    0  0.00000000000E+00  0.00000000000E+00  0.12525980253E-10  0.17130000000E+03  0.17130000000E+03 0. -1.
       11    1    1    2    0    0 -0.89290851323E-01 -0.10527454854E+00  0.76990372153E-02  0.13825745223E+00  0.51109989000E-03 0. -1.
     -623    1    1    2    0    0  0.90221121025E-01  0.36473885797E+00  0.44432960400E+00  0.17130098833E+03  0.17130000000E+03 0. -1.
      622    1    1    2    0    0 -0.93026970199E-03 -0.25946430943E+00  0.35479713261E+01  0.38607542170E+01  0.15000000000E+01 0. -1.
</event>
<event>
 5   0  0.6596100E+00  0.9118800E+02  0.7818608E-02  0.1180000E+00
       11   -1    0    0    0    0  0.00000000000E+00  0.00000000000E+00  0.39999999673E+01  0.40000000000E+01  0.51109989000E-03 0.  1.
     -623   -1    0    0    0    0  0.00000000000E+00  0.00000000000E+00  0.12525980253E-10  0.17130000000E+03  0.17130000000E+03 0. -1.
       11    1    1    2    0    0 -0.79709975099E-01  0.18178782104E+00  0.24940627385E+00  0.31875420416E+00  0.51109989000E-03 0.  1.
     -623    1    1    2    0    0  0.10342293250E+00 -0.22269216321E+00  0.38982380352E+00  0.17130061953E+03  0.17130000000E+03 0. -1.
      622    1    1    2    0    0 -0.23712957402E-01  0.40904342168E-01  0.33607698900E+01  0.36806262678E+01  0.15000000000E+01 0.  1.
</event>
<event>
 5   0  0.6596100E+00  0.9118800E+02  0.7818608E-02  0.1180000E+00
       11   -1    0    0    0    0  0.00000000000E+00  0.00000000000E+00  0.39999999673E+01  0.40000000000E+01  0.51109989000E-03 0.  1.
     -623   -1    0    0    0    0  0.00000000000E+00  0.00000000000E+00  0.12525980253E-10  0.17130000000E+03  0.17130000000E+03 0. -1.
       11    1    1    2    0    0  0.20112248255E+00  0.23954290680E-01  0.75216398231E-01  0.21605978066E+00  0.51109989000E-03 0.  1.
     -623    1    1    2    0    0  0.10087775018E-01  0.54141770277E-01  0.45883815034E+00  0.17130062337E+03  0.17130000000E+03 0. -1.
      622    1    1    2    0    0 -0.21121025757E+00 -0.78096060957E-01  0.34659454188E+01  0.37833168535E+01  0.15000000000E+01 0.  1.
</event>
<event>
 5   0  0.6596100E+00  0.9118800E+02  0.7818608E-02  0.1180000E+00
       11   -1    0    0    0    0  0.00000000000E+00  0.00000000000E+00  0.39999999673E+01  0.40000000000E+01  0.51109989000E-03 0. -1.
     -623   -1    0    0    0    0  0.00000000000E+00  0.00000000000E+00  0.12525980253E-10  0.17130000000E+03  0.17130000000E+03 0. -1.
       11    1    1    2    0    0  0.50554132842E-01  0.27441966941E+00  0.43976399442E+00  0.52082099355E+00  0.51109989000E-03 0. -1.
     -623    1    1    2    0    0 -0.68220370210E+00  0.99861716140E-02  0.50077929526E+00  0.17130209071E+03  0.17130000000E+03 0. -1.
      622    1    1    2    0    0  0.63164956926E+00 -0.28440584103E+00  0.30594566777E+01  0.34770882967E+01  0.15000000000E+01 0. -1.
</event>
<event>
 5   0  0.6596100E+00  0.9118800E+02  0.7818608E-02  0.1180000E+00
       11   -1    0    0    0    0  0.00000000000E+00  0.00000000000E+00  0.39999999673E+01  0.40000000000E+01  0.51109989000E-03 0. -1.
     -623   -1    0    0    0    0  0.00000000000E+00  0.00000000000E+00  0.12525980253E-10  0.17130000000E+03  0.17130000000E+03 0. -1.
       11    1    1    2    0    0  0.50541440493E-01  0.38172312587E-01 -0.46521991651E-02  0.63509580660E-01  0.51109989000E-03 0. -1.
     -623    1    1    2    0    0 -0.13017781321E+00  0.69405537768E-01  0.36811149936E+00  0.17130045905E+03  0.17130000000E+03 0. -1.
      622    1    1    2    0    0  0.79636372721E-01 -0.10757785036E+00  0.36365406672E+01  0.39360313731E+01  0.15000000000E+01 0. -1.
</event>
<event>
 5   0  0.6596100E+00  0.9118800E+02  0.7818608E-02  0.1180000E+00
       11   -1    0    0    0    0  0.00000000000E+00  0.00000000000E+00  0.39999999673E+01  0.40000000000E+01  0.51109989000E-03 0.  1.
     -623   -1    0    0    0    0  0.00000000000E+00  0.00000000000E+00  0.12525980253E-10  0.17130000000E+03  0.17130000000E+03 0. -1.
       11    1    1    2    0    0 -0.11406848114E+00  0.57028292875E-01  0.24726030488E-02  0.12755477085E+00  0.51109989000E-03 0.  1.
     -623    1    1    2    0    0 -0.87293906754E-01 -0.16518831552E+00  0.43543363009E+00  0.17130065531E+03  0.17130000000E+03 0. -1.
      622    1    1    2    0    0  0.20136238789E+00  0.10816002265E+00  0.35620937342E+01  0.38717899185E+01  0.15000000000E+01 0.  1.
</event>
<event>
 5   0  0.6596100E+00  0.9118800E+02  0.7818608E-02  0.1180000E+00
       11   -1    0    0    0    0  0.00000000000E+00  0.00000000000E+00  0.39999999673E+01  0.40000000000E+01  0.51109989000E-03 0. -1.
     -623   -1    0    0    0    0  0.00000000000E+00  0.00000000000E+00  0.12525980253E-10  0.17130000000E+03  0.17130000000E+03 0. -1.
       11    1    1    2    0    0  0.79596645108E-01  0.11748600512E+00  0.20495748543E+00  0.24929183574E+00  0.51109989000E-03 0. -1.
     -623    1    1    2    0    0 -0.27632207800E+00 -0.39149686688E+00  0.37511244863E+00  0.17130108095E+03  0.17130000000E+03 0. -1.
      622    1    1    2    0    0  0.19672543289E+00  0.27401086177E+00  0.34199300333E+01  0.37496272189E+01  0.15000000000E+01 0. -1.
</event>
<event>
 5   0  0.6596100E+00  0.9118800E+02  0.7818608E-02  0.1180000E+00
       11   -1    0    0    0    0  0.00000000000E+00  0.00000000000E+00  0.39999999673E+01  0.40000000000E+01  0.51109989000E-03 0. -1.
     -623   -1    0    0    0    0  0.00000000000E+00  0.00000000000E+00  0.12525980253E-10  0.17130000000E+03  0.17130000000E+03 0.  1.
       11    1    1    2    0    0  0.67295829134E-01  0.44118850875E-01  0.37680600859E+00  0.38530277829E+00  0.51109989000E-03 0. -1.
     -623    1    1    2    0    0 -0.31569974850E+00 -0.23388575656E+00  0.35020215701E+00  0.17130080855E+03  0.17130000000E+03 0.  1.
      622    1    1    2    0    0  0.24840391937E+00  0.18976690569E+00  0.32729918018E+01  0.36138886701E+01  0.15000000000E+01 0. -1.
</event>
<event>
 5   0  0.6596100E+00  0.9118800E+02  0.7818608E-02  0.1180000E+00
       11   -1    0    0    0    0  0.00000000000E+00  0.00000000000E+00  0.39999999673E+01  0.40000000000E+01  0.51109989000E-03 0.  1.
     -623   -1    0    0    0    0  0.00000000000E+00  0.00000000000E+00  0.12525980253E-10  0.17130000000E+03  0.17130000000E+03 0.  1.
       11    1    1    2    0    0  0.17813213572E+00  0.48470466131E-02  0.96496227468E-01  0.20264830317E+00  0.51109989000E-03 0.  1.
     -623    1    1    2    0    0  0.15111096214E+00  0.34789303524E+00  0.44960970452E+00  0.17130100996E+03  0.17130000000E+03 0.  1.
      622    1    1    2    0    0 -0.32924309786E+00 -0.35274008186E+00  0.34538940354E+01  0.37963417378E+01  0.15000000000E+01 0.  1.
</event>
<event>
 5   0  0.6596100E+00  0.9118800E+02  0.7818608E-02  0.1180000E+00
       11   -1    0    0    0    0  0.00000000000E+00  0.00000000000E+00  0.39999999673E+01  0.40000000000E+01  0.51109989000E-03 0.  1.
     -623   -1    0    0    0    0  0.00000000000E+00  0.00000000000E+00  0.12525980253E-10  0.17130000000E+03  0.17130000000E+03 0.  1.
       11    1    1    2    0    0  0.25734723289E-02 -0.16027755002E+00  0.15754008392E+00  0.22475465527E+00  0.51109989000E-03 0.  1.
     -623    1    1    2    0    0 -0.11289308516E+00  0.18167666667E+00  0.38042991819E+00  0.17130055598E+03  0.17130000000E+03 0.  1.
      622    1    1    2    0    0  0.11031961283E+00 -0.21399116644E-01  0.34620299653E+01  0.37746893673E+01  0.15000000000E+01 0.  1.
</event>
<event>
 5   0  0.6596100E+00  0.9118800E+02  0.7818608E-02  0.1180000E+00
       11   -1    0    0    0    0  0.00000000000E+00  0.00000000000E+00  0.39999999673E+01  0.40000000000E+01  0.51109989000E-03 0.  1.
     -623   -1    0    0    0    0  0.00000000000E+00  0.00000000000E+00  0.12525980253E-10  0.17130000000E+03  0.17130000000E+03 0. -1.
       11    1    1    2    0    0 -0.67222355470E-01 -0.93707932412E-01  0.20315384247E+00  0.23360600721E+00  0.51109989000E-03 0.  1.
     -623    1    1    2    0    0  0.75432995194E-01  0.42982211322E+00  0.35945520112E+00  0.17130093300E+03  0.17130000000E+03 0. -1.
      622    1    1    2    0    0 -0.82106397235E-02 -0.33611418081E+00  0.34373909238E+01  0.37654609970E+01  0.15000000000E+01 0.  1.
</event>
<event>
 5   0  0.6596100E+00  0.9118800E+02  0.7818608E-02  0.1180000E+00
       11   -1    0    0    0    0  0.00000000000E+00  0.00000000000E+00  0.39999999673E+01  0.40000000000E+01  0.51109989000E-03 0. -1.
     -623   -1    0    0    0    0  0.00000000000E+00  0.00000000000E+00  0.12525980253E-10  0.17130000000E+03  0.17130000000E+03 0.  1.
       11    1    1    2    0    0  0.10582004618E+00 -0.18334000518E+00  0.16520480938E+00  0.26852249429E+00  0.51109989000E-03 0. -1.
     -623    1    1    2    0    0 -0.31485356327E-02  0.98343706148E-01  0.42128055593E+00  0.17130054629E+03  0.17130000000E+03 0.  1.
      622    1    1    2    0    0 -0.10267151055E+00  0.84996299028E-01  0.34135146020E+01  0.37309312173E+01  0.15000000000E+01 0. -1.
</event>
<event>
 5   0  0.6596100E+00  0.9118800E+02  0.7818608E-02  0.1180000E+00
       11   -1    0    0    0    0  0.00000000000E+00  0.00000000000E+00  0.39999999673E+01  0.40000000000E+01  0.51109989000E-03 0. -1.
     -623   -1    0    0    0    0  0.00000000000E+00  0.00000000000E+00  0.12525980253E-10  0.17130000000E+03  0.17130000000E+03 0. -1.
       11    1    1    2    0    0  0.20574785264E+00 -0.16005970129E+00  0.59729643901E+00  0.65170129977E+00  0.51109989000E-03 0. -1.
     -623    1    1    2    0    0 -0.13700044064E+00 -0.40420846586E-01  0.41734214833E+00  0.17130056794E+03  0.17130000000E+03 0. -1.
      622    1    1    2    0    0 -0.68747412005E-01  0.20048054788E+00  0.29853613800E+01  0.33477307577E+01  0.15000000000E+01 0. -1.
</event>
<event>
 5   0  0.6596100E+00  0.9118800E+02  0.7818608E-02  0.1180000E+00
       11   -1    0    0    0    0  0.00000000000E+00  0.00000000000E+00  0.39999999673E+01  0.40000000000E+01  0.51109989000E-03 0.  1.
     -623   -1    0    0    0    0  0.00000000000E+00  0.00000000000E+00  0.12525980253E-10  0.17130000000E+03  0.17130000000E+03 0. -1.
       11    1    1    2    0    0  0.43091291408E-01 -0.11584004029E-01  0.29341947333E+00  0.29679335757E+00  0.51109989000E-03 0.  1.
     -623    1    1    2    0    0 -0.26751396038E-01  0.60907476311E-02  0.32114159225E+00  0.17130030322E+03  0.17130000000E+03 0. -1.
      622    1    1    2    0    0 -0.16339895370E-01  0.54932563983E-02  0.33854389018E+01  0.37029034184E+01  0.15000000000E+01 0.  1.
</event>
<event>
 5   0  0.6596100E+00  0.9118800E+02  0.7818608E-02  0.1180000E+00
       11   -1    0    0    0    0  0.00000000000E+00  0.00000000000E+00  0.39999999673E+01  0.40000000000E+01  0.51109989000E-03 0.  1.
     -623   -1    0    0    0    0  0.00000000000E+00  0.00000000000E+00  0.12525980253E-10  0.17130000000E+03  0.17130000000E+03 0.  1.
       11    1    1    2    0    0  0.10974484577E+00  0.15388401516E-01  0.73893501636E-01  0.13319626452E+00  0.51109989000E-03 0.  1.
     -623    1    1    2    0    0 -0.24371796338E+00  0.41388909879E+00  0.39180718010E+00  0.17130112147E+03  0.17130000000E+03 0.  1.
      622    1    1    2    0    0  0.13397311761E+00 -0.42927750031E+00  0.35342992856E+01  0.38656822695E+01  0.15000000000E+01 0.  1.
</event>
<event>
 5   0  0.6596100E+00  0.9118800E+02  0.7818608E-02  0.1180000E+00
       11   -1    0    0    0    0  0.00000000000E+00  0.00000000000E+00  0.39999999673E+01  0.40000000000E+01  0.51109989000E-03 0. -1.
     -623   -1    0    0    0    0  0.00000000000E+00  0.00000000000E+00  0.12525980253E-10  0.17130000000E+03  0.17130000000E+03 0.  1.
       11    1    1    2    0    0 -0.15658606481E+00 -0.95206841180E-01  0.35419371805E-01  0.18665029178E+00  0.51109989000E-03 0. -1.
     -623    1    1    2    0    0  0.49954512108E-01  0.73735771103E-02  0.46204691565E+00  0.17130063058E+03  0.17130000000E+03 0.  1.
      622    1    1    2    0    0  0.10663155270E+00  0.87833264070E-01  0.35025336799E+01  0.38127191280E+01  0.15000000000E+01 0. -1.
</event>
<event>
 5   0  0.6596100E+00  0.9118800E+02  0.7818608E-02  0.1180000E+00
       11   -1    0    0    0    0  0.00000000000E+00  0.00000000000E+00  0.39999999673E+01  0.40000000000E+01  0.51109989000E-03 0.  1.
     -623   -1    0    0    0    0  0.00000000000E+00  0.00000000000E+00  0.12525980253E-10  0.17130000000E+03  0.17130000000E+03 0.  1.
       11    1    1    2    0    0  0.39897963258E-01 -0.82210296311E-01  0.13464625759E+00  0.16272755205E+00  0.51109989000E-03 0.  1.
     -623    1    1    2    0    0 -0.10418192536E+00  0.78421626357E-01  0.33440095667E+00  0.17130037603E+03  0.17130000000E+03 0.  1.
      622    1    1    2    0    0  0.64283962103E-01  0.37886699545E-02  0.35309527531E+01  0.38368964185E+01  0.15000000000E+01 0.  1.
</event>
<event>
 5   0  0.6596100E+00  0.9118800E+02  0.7818608E-02  0.1180000E+00
       11   -1    0    0    0    0  0.00000000000E+00  0.00000000000E+00  0.39999999673E+01  0.40000000000E+01  0.51109989000E-03 0.  1.
     -623   -1    0    0    0    0  0.00000000000E+00  0.00000000000E+00  0.12525980253E-10  0.17130000000E+03  0.17130000000E+03 0.  1.
       11    1    1    2    0    0 -0.70093266552E-01  0.21985093810E-01  0.13995283463E-01  0.74783283882E-01  0.51109989000E-03 0.  1.
     -623    1    1    2    0    0  0.30838575842E+00 -0.20991954029E+00  0.37230031771E+00  0.17130081078E+03  0.17130000000E+03 0.  1.
      622    1    1    2    0    0 -0.23829249187E+00  0.18793444648E+00  0.36137043662E+01  0.39244059314E+01  0.15000000000E+01 0.  1.
</event>
<event>
 5   0  0.6596100E+00  0.9118800E+02  0.7818608E-02  0.1180000E+00
       11   -1    0    0    0    0  0.00000000000E+00  0.00000000000E+00  0.39999999673E+01  0.40000000000E+01  0.51109989000E-03 0.  1.
     -623   -1    0    0    0    0  0.00000000000E+00  0.00000000000E+00  0.12525980253E-10  0.17130000000E+03  0.17130000000E+03 0.  1.
       11    1    1    2    0    0 -0.53460284780E-01  0.22679156804E-01 -0.12982404813E-01  0.59507564729E-01  0.51109989000E-03 0.  1.
     -623    1    1    2    0    0 -0.86401900720E-01 -0.96899593959E-01  0.37308937385E+00  0.17130045549E+03  0.17130000000E+03 0.  1.
      622    1    1    2    0    0  0.13986218550E+00  0.74220437155E-01  0.36398929983E+01  0.39400369470E+01  0.15000000000E+01 0.  1.
</event>
<event>
 5   0  0.6596100E+00  0.9118800E+02  0.7818608E-02  0.1180000E+00
       11   -1    0    0    0    0  0.00000000000E+00  0.00000000000E+00  0.39999999673E+01  0.40000000000E+01  0.51109989000E-03 0.  1.
     -623   -1    0    0    0    0  0.00000000000E+00  0.00000000000E+00  0.12525980253E-10  0.17130000000E+03  0.17130000000E+03 0. -1.
       11    1    1    2    0    0  0.12941374206E+00 -0.47086586832E-01  0.98895050967E+00  0.99849308215E+00  0.51109989000E-03 0.  1.
     -623    1    1    2    0    0  0.23826975382E+00 -0.10438283946E-01  0.43885725405E+00  0.17130072819E+03  0.17130000000E+03 0. -1.
      622    1    1    2    0    0 -0.36768349588E+00  0.57524870777E-01  0.25721922036E+01  0.30007787317E+01  0.15000000000E+01 0.  0.
</event>
<event>
 5   0  0.6596100E+00  0.9118800E+02  0.7818608E-02  0.1180000E+00
       11   -1    0    0    0    0  0.00000000000E+00  0.00000000000E+00  0.39999999673E+01  0.40000000000E+01  0.51109989000E-03 0.  1.
     -623   -1    0    0    0    0  0.00000000000E+00  0.00000000000E+00  0.12525980253E-10  0.17130000000E+03  0.17130000000E+03 0.  1.
       11    1    1    2    0    0 -0.18618116289E+00 -0.36887551317E-01 -0.95596057703E-01  0.21251584489E+00  0.51109989000E-03 0.  1.
     -623    1    1    2    0    0  0.10752636280E+00  0.47671623966E-01  0.61997661078E+00  0.17130116230E+03  0.17130000000E+03 0.  1.
      622    1    1    2    0    0  0.78654800085E-01 -0.10784072649E-01  0.34756194143E+01  0.37863218546E+01  0.15000000000E+01 0.  1.
</event>
<event>
 5   0  0.6596100E+00  0.9118800E+02  0.7818608E-02  0.1180000E+00
       11   -1    0    0    0    0  0.00000000000E+00  0.00000000000E+00  0.39999999673E+01  0.40000000000E+01  0.51109989000E-03 0. -1.
     -623   -1    0    0    0    0  0.00000000000E+00  0.00000000000E+00  0.12525980253E-10  0.17130000000E+03  0.17130000000E+03 0. -1.
       11    1    1    2    0    0 -0.16575473254E+00 -0.53165835757E-01  0.27613998560E+00  0.32642731246E+00  0.51109989000E-03 0. -1.
     -623    1    1    2    0    0  0.83027036891E-01 -0.42250012998E-01  0.37333565231E+00  0.17130043216E+03  0.17130000000E+03 0. -1.
      622    1    1    2    0    0  0.82727695647E-01  0.95415848755E-01  0.33505243295E+01  0.36731405280E+01  0.15000000000E+01 0.  0.
</event>
<event>
 5   0  0.6596100E+00  0.9118800E+02  0.7818608E-02  0.1180000E+00
       11   -1    0    0    0    0  0.00000000000E+00  0.00000000000E+00  0.39999999673E+01  0.40000000000E+01  0.51109989000E-03 0. -1.
     -623   -1    0    0    0    0  0.00000000000E+00  0.00000000000E+00  0.12525980253E-10  0.17130000000E+03  0.17130000000E+03 0. -1.
       11    1    1    2    0    0 -0.44705236617E-01  0.37181094596E-01  0.25098689493E-01  0.63334014666E-01  0.51109989000E-03 0. -1.
     -623    1    1    2    0    0  0.17755228628E+00  0.20144241082E+00  0.34608048185E+00  0.17130056006E+03  0.17130000000E+03 0. -1.
      622    1    1    2    0    0 -0.13284704967E+00 -0.23862350542E+00  0.36288207960E+01  0.39361059292E+01  0.15000000000E+01 0. -1.
</event>
<event>
 5   0  0.6596100E+00  0.9118800E+02  0.7818608E-02  0.1180000E+00
       11   -1    0    0    0    0  0.00000000000E+00  0.00000000000E+00  0.39999999673E+01  0.40000000000E+01  0.51109989000E-03 0.  1.
     -623   -1    0    0    0    0  0.00000000000E+00  0.00000000000E+00  0.12525980253E-10  0.17130000000E+03  0.17130000000E+03 0.  1.
       11    1    1    2    0    0 -0.88035766302E-01  0.23259029763E+00  0.87354698750E+00  0.90825830208E+00  0.51109989000E-03 0.  1.
     -623    1    1    2    0    0  0.32308606880E+00 -0.62028178105E+00  0.46363308479E+00  0.17130205512E+03  0.17130000000E+03 0.  1.
      622    1    1    2    0    0 -0.23505030249E+00  0.38769148342E+00  0.26628198951E+01  0.30896865738E+01  0.15000000000E+01 0. -1.
</event>
<event>
 5   0  0.6596100E+00  0.9118800E+02  0.7818608E-02  0.1180000E+00
       11   -1    0    0    0    0  0.00000000000E+00  0.00000000000E+00  0.39999999673E+01  0.40000000000E+01  0.51109989000E-03 0. -1.
     -623   -1    0    0    0    0  0.00000000000E+00  0.00000000000E+00  0.12525980253E-10  0.17130000000E+03  0.17130000000E+03 0.  1.
       11    1    1    2    0    0 -0.86168518024E-01 -0.12123827516E-01 -0.30560962253E-01  0.92229248768E-01  0.51109989000E-03 0. -1.
     -623    1    1    2    0    0 -0.11551328689E+00  0.16487590496E+00  0.43174346785E+00  0.17130066237E+03  0.17130000000E+03 0.  1.
      622    1    1    2    0    0  0.20168180491E+00 -0.15275207744E+00  0.35988174618E+01  0.39071083771E+01  0.15000000000E+01 0. -1.
</event>
<event>
 5   0  0.6596100E+00  0.9118800E+02  0.7818608E-02  0.1180000E+00
       11   -1    0    0    0    0  0.00000000000E+00  0.00000000000E+00  0.39999999673E+01  0.40000000000E+01  0.51109989000E-03 0. -1.
     -623   -1    0    0    0    0  0.00000000000E+00  0.00000000000E+00  0.12525980253E-10  0.17130000000E+03  0.17130000000E+03 0. -1.
       11    1    1    2    0    0  0.65287055924E-01 -0.14195766600E+00  0.49211336495E-01  0.16381817808E+00  0.51109989000E-03 0. -1.
     -623    1    1    2    0    0 -0.10054550848E+00 -0.10929008068E+00  0.42980981999E+00  0.17130060359E+03  0.17130000000E+03 0. -1.
      622    1    1    2    0    0  0.35258452558E-01  0.25124774668E+00  0.35209788109E+01  0.38355782322E+01  0.15000000000E+01 0. -1.
</event>
<event>
 5   0  0.6596100E+00  0.9118800E+02  0.7818608E-02  0.1180000E+00
       11   -1    0    0    0    0  0.00000000000E+00  0.00000000000E+00  0.39999999673E+01  0.40000000000E+01  0.51109989000E-03 0.  1.
     -623   -1    0    0    0    0  0.00000000000E+00  0.00000000000E+00  0.12525980253E-10  0.17130000000E+03  0.17130000000E+03 0. -1.
       11    1    1    2    0    0 -0.78817408149E-01  0.18329518976E+00  0.20598705433E+00  0.28677558856E+00  0.51109989000E-03 0.  1.
     -623    1    1    2    0    0 -0.33354750486E+00  0.18090855519E+00  0.44319682215E+00  0.17130099359E+03  0.17130000000E+03 0. -1.
      622    1    1    2    0    0  0.41236491301E+00 -0.36420374495E+00  0.33508160909E+01  0.37122308204E+01  0.15000000000E+01 0.  1.
</event>
<event>
 5   0  0.6596100E+00  0.9118800E+02  0.7818608E-02  0.1180000E+00
       11   -1    0    0    0    0  0.00000000000E+00  0.00000000000E+00  0.39999999673E+01  0.40000000000E+01  0.51109989000E-03 0.  1.
     -623   -1    0    0    0    0  0.00000000000E+00  0.00000000000E+00  0.12525980253E-10  0.17130000000E+03  0.17130000000E+03 0.  1.
       11    1    1    2    0    0 -0.44145398672E-01  0.18100604619E-01 -0.16089026518E-01  0.50354405041E-01  0.51109989000E-03 0.  1.
     -623    1    1    2    0    0 -0.15250268131E+00 -0.27179222347E-01  0.36817603626E+00  0.17130046570E+03  0.17130000000E+03 0.  1.
      622    1    1    2    0    0  0.19664807998E+00  0.90786177278E-02  0.36479129576E+01  0.39491798940E+01  0.15000000000E+01 0.  1.
</event>
<event>
 5   0  0.6596100E+00  0.9118800E+02  0.7818608E-02  0.1180000E+00
       11   -1    0    0    0    0  0.00000000000E+00  0.00000000000E+00  0.39999999673E+01  0.40000000000E+01  0.51109989000E-03 0. -1.
     -623   -1    0    0    0    0  0.00000000000E+00  0.00000000000E+00  0.12525980253E-10  0.17130000000E+03  0.17130000000E+03 0.  1.
       11    1    1    2    0    0 -0.62576272916E-01  0.42727764644E-01  0.21115000906E+00  0.22433465928E+00  0.51109989000E-03 0. -1.
     -623    1    1    2    0    0  0.14112119650E+00  0.39742284166E+00  0.35387291214E+00  0.17130088466E+03  0.17130000000E+03 0.  1.
      622    1    1    2    0    0 -0.78544923583E-01 -0.44015060631E+00  0.34349770462E+01  0.37747806782E+01  0.15000000000E+01 0. -1.
</event>
<event>
 5   0  0.6596100E+00  0.9118800E+02  0.7818608E-02  0.1180000E+00
       11   -1    0    0    0    0  0.00000000000E+00  0.00000000000E+00  0.39999999673E+01  0.40000000000E+01  0.51109989000E-03 0.  1.
     -623   -1    0    0    0    0  0.00000000000E+00  0.00000000000E+00  0.12525980253E-10  0.17130000000E+03  0.17130000000E+03 0.  1.
       11    1    1    2    0    0 -0.44285124530E+00 -0.22451115830E+00  0.45456011591E+00  0.67316242160E+00  0.51109989000E-03 0.  1.
     -623    1    1    2    0    0  0.16325081756E+00  0.41407137270E-01  0.59608491783E+00  0.17130111991E+03  0.17130000000E+03 0.  1.
      622    1    1    2    0    0  0.27960042774E+00  0.18310402103E+00  0.29493549336E+01  0.33257176678E+01  0.15000000000E+01 0.  1.
</event>
<event>
 5   0  0.6596100E+00  0.9118800E+02  0.7818608E-02  0.1180000E+00
       11   -1    0    0    0    0  0.00000000000E+00  0.00000000000E+00  0.39999999673E+01  0.40000000000E+01  0.51109989000E-03 0. -1.
     -623   -1    0    0    0    0  0.00000000000E+00  0.00000000000E+00  0.12525980253E-10  0.17130000000E+03  0.17130000000E+03 0.  1.
       11    1    1    2    0    0  0.47103992330E-01  0.14818708027E+00  0.17716317941E+00  0.23572282497E+00  0.51109989000E-03 0. -1.
     -623    1    1    2    0    0  0.73791018588E-01 -0.20110478731E+00  0.37344640277E+00  0.17130054101E+03  0.17130000000E+03 0.  1.
      622    1    1    2    0    0 -0.12089501092E+00  0.52917707039E-01  0.34493903852E+01  0.37637361646E+01  0.15000000000E+01 0. -1.
</event>
<event>
 5   0  0.6596100E+00  0.9118800E+02  0.7818608E-02  0.1180000E+00
       11   -1    0    0    0    0  0.00000000000E+00  0.00000000000E+00  0.39999999673E+01  0.40000000000E+01  0.51109989000E-03 0. -1.
     -623   -1    0    0    0    0  0.00000000000E+00  0.00000000000E+00  0.12525980253E-10  0.17130000000E+03  0.17130000000E+03 0. -1.
       11    1    1    2    0    0 -0.37048188870E-01  0.24057184268E-02  0.70615829419E+00  0.70713375924E+00  0.51109989000E-03 0. -1.
     -623    1    1    2    0    0 -0.66889654107E-02 -0.36414751243E+00  0.38613075671E+00  0.17130082237E+03  0.17130000000E+03 0. -1.
      622    1    1    2    0    0  0.43737154280E-01  0.36174179401E+00  0.29077109165E+01  0.32920438694E+01  0.15000000000E+01 0. -1.
</event>
<event>
 5   0  0.6596100E+00  0.9118800E+02  0.7818608E-02  0.1180000E+00
       11   -1    0    0    0    0  0.00000000000E+00  0.00000000000E+00  0.39999999673E+01  0.40000000000E+01  0.51109989000E-03 0. -1.
     -623   -1    0    0    0    0  0.00000000000E+00  0.00000000000E+00  0.12525980253E-10  0.17130000000E+03  0.17130000000E+03 0.  1.
       11    1    1    2    0    0 -0.92589896042E-01  0.19619700975E+00  0.44996329772E+00  0.49953316807E+00  0.51109989000E-03 0. -1.
     -623    1    1    2    0    0  0.64042410752E+00 -0.17939830149E+00  0.43717260142E+00  0.17130184893E+03  0.17130000000E+03 0.  1.
      622    1    1    2    0    0 -0.54783421147E+00 -0.16798708253E-01  0.31128640682E+01  0.34986179024E+01  0.15000000000E+01 0. -1.
</event>
<event>
 5   0  0.6596100E+00  0.9118800E+02  0.7818608E-02  0.1180000E+00
       11   -1    0    0    0    0  0.00000000000E+00  0.00000000000E+00  0.39999999673E+01  0.40000000000E+01  0.51109989000E-03 0. -1.
     -623   -1    0    0    0    0  0.00000000000E+00  0.00000000000E+00  0.12525980253E-10  0.17130000000E+03  0.17130000000E+03 0. -1.
       11    1    1    2    0    0  0.47537171109E-01  0.93077318495E-01  0.44790110448E-03  0.10451617910E+00  0.51109989000E-03 0. -1.
     -623    1    1    2    0    0 -0.24637439270E+00 -0.60866747419E-01  0.41083111501E+00  0.17130068064E+03  0.17130000000E+03 0. -1.
      622    1    1    2    0    0  0.19883722159E+00 -0.32210571076E-01  0.35887209512E+01  0.38948031821E+01  0.15000000000E+01 0. -1.
</event>
<event>
 5   0  0.6596100E+00  0.9118800E+02  0.7818608E-02  0.1180000E+00
       11   -1    0    0    0    0  0.00000000000E+00  0.00000000000E+00  0.39999999673E+01  0.40000000000E+01  0.51109989000E-03 0. -1.
     -623   -1    0    0    0    0  0.00000000000E+00  0.00000000000E+00  0.12525980253E-10  0.17130000000E+03  0.17130000000E+03 0.  1.
       11    1    1    2    0    0  0.20075123531E+00  0.16957174157E+00  0.21022837568E+00  0.33652914462E+00  0.51109989000E-03 0. -1.
     -623    1    1    2    0    0 -0.18442472747E+00 -0.93780925254E-01  0.44914610643E+00  0.17130071377E+03  0.17130000000E+03 0.  1.
      622    1    1    2    0    0 -0.16326507835E-01 -0.75790816313E-01  0.33406254852E+01  0.36627570811E+01  0.15000000000E+01 0. -1.
</event>
<event>
 5   0  0.6596100E+00  0.9118800E+02  0.7818608E-02  0.1180000E+00
       11   -1    0    0    0    0  0.00000000000E+00  0.00000000000E+00  0.39999999673E+01  0.40000000000E+01  0.51109989000E-03 0. -1.
     -623   -1    0    0    0    0  0.00000000000E+00  0.00000000000E+00  0.12525980253E-10  0.17130000000E+03  0.17130000000E+03 0. -1.
       11    1    1    2    0    0 -0.66351099068E-01  0.21542703408E+00  0.65069897923E+00  0.68863684054E+00  0.51109989000E-03 0. -1.
     -623    1    1    2    0    0  0.16559941482E+00 -0.69932891710E-01  0.40305889554E+00  0.17130056851E+03  0.17130000000E+03 0. -1.
      622    1    1    2    0    0 -0.99248315752E-01 -0.14549414237E+00  0.29462420926E+01  0.33107946541E+01  0.15000000000E+01 0. -1.
</event>
<event>
 5   0  0.6596100E+00  0.9118800E+02  0.7818608E-02  0.1180000E+00
       11   -1    0    0    0    0  0.00000000000E+00  0.00000000000E+00  0.39999999673E+01  0.40000000000E+01  0.51109989000E-03 0. -1.
     -623   -1    0    0    0    0  0.00000000000E+00  0.00000000000E+00  0.12525980253E-10  0.17130000000E+03  0.17130000000E+03 0. -1.
       11    1    1    2    0    0  0.77043571675E-01 -0.20431892758E+00  0.21803287043E+00  0.30857823953E+00  0.51109989000E-03 0. -1.
     -623    1    1    2    0    0 -0.40013202919E+00 -0.41541407347E-01  0.43469913712E+00  0.17130102392E+03  0.17130000000E+03 0. -1.
      622    1    1    2    0    0  0.32308845751E+00  0.24586033493E+00  0.33472679598E+01  0.36903978445E+01  0.15000000000E+01 0. -1.
</event>
<event>
 5   0  0.6596100E+00  0.9118800E+02  0.7818608E-02  0.1180000E+00
       11   -1    0    0    0    0  0.00000000000E+00  0.00000000000E+00  0.39999999673E+01  0.40000000000E+01  0.51109989000E-03 0.  1.
     -623   -1    0    0    0    0  0.00000000000E+00  0.00000000000E+00  0.12525980253E-10  0.17130000000E+03  0.17130000000E+03 0. -1.
       11    1    1    2    0    0  0.13902402302E+00  0.35717448918E-01  0.18364252298E+00  0.23308421783E+00  0.51109989000E-03 0.  1.
     -623    1    1    2    0    0 -0.25230371727E+00 -0.15846033505E+00  0.36572510431E+00  0.17130064951E+03  0.17130000000E+03 0. -1.
      622    1    1    2    0    0  0.11327969425E+00  0.12274288613E+00  0.34506323401E+01  0.37662662747E+01  0.15000000000E+01 0.  1.
</event>
<event>
 5   0  0.6596100E+00  0.9118800E+02  0.7818608E-02  0.1180000E+00
       11   -1    0    0    0    0  0.00000000000E+00  0.00000000000E+00  0.39999999673E+01  0.40000000000E+01  0.51109989000E-03 0.  1.
     -623   -1    0    0    0    0  0.00000000000E+00  0.00000000000E+00  0.12525980253E-10  0.17130000000E+03  0.17130000000E+03 0.  1.
       11    1    1    2    0    0  0.13365245350E-01 -0.11288245012E+00  0.13609780364E+00  0.17732442219E+00  0.51109989000E-03 0.  1.
     -623    1    1    2    0    0 -0.73512559036E-02  0.15812307732E+00  0.34857924925E+00  0.17130042780E+03  0.17130000000E+03 0.  1.
      622    1    1    2    0    0 -0.60139894468E-02 -0.45240627198E-01  0.35153229145E+01  0.38222477779E+01  0.15000000000E+01 0.  1.
</event>
<event>
 5   0  0.6596100E+00  0.9118800E+02  0.7818608E-02  0.1180000E+00
       11   -1    0    0    0    0  0.00000000000E+00  0.00000000000E+00  0.39999999673E+01  0.40000000000E+01  0.51109989000E-03 0. -1.
     -623   -1    0    0    0    0  0.00000000000E+00  0.00000000000E+00  0.12525980253E-10  0.17130000000E+03  0.17130000000E+03 0.  1.
       11    1    1    2    0    0 -0.20294552827E-01  0.66024290563E-01  0.99081284783E-01  0.12078260651E+00  0.51109989000E-03 0. -1.
     -623    1    1    2    0    0 -0.33208402227E-02 -0.16783103544E+00  0.32539500786E+00  0.17130039130E+03  0.17130000000E+03 0.  1.
      622    1    1    2    0    0  0.23615393049E-01  0.10180674488E+00  0.35755236747E+01  0.38788260916E+01  0.15000000000E+01 0. -1.
</event>
<event>
 5   0  0.6596100E+00  0.9118800E+02  0.7818608E-02  0.1180000E+00
       11   -1    0    0    0    0  0.00000000000E+00  0.00000000000E+00  0.39999999673E+01  0.40000000000E+01  0.51109989000E-03 0.  1.
     -623   -1    0    0    0    0  0.00000000000E+00  0.00000000000E+00  0.12525980253E-10  0.17130000000E+03  0.17130000000E+03 0. -1.
       11    1    1    2    0    0 -0.50783302598E-01 -0.15031508329E+00  0.84182441360E-01  0.17961211747E+00  0.51109989000E-03 0.  1.
     -623    1    1    2    0    0  0.29157306583E+00  0.39230599252E-01  0.41306016498E+00  0.17130075065E+03  0.17130000000E+03 0. -1.
      622    1    1    2    0    0 -0.24078976323E+00  0.11108448403E+00  0.35027573610E+01  0.38196372345E+01  0.15000000000E+01 0.  1.
</event>
<event>
 5   0  0.6596100E+00  0.9118800E+02  0.7818608E-02  0.1180000E+00
       11   -1    0    0    0    0  0.00000000000E+00  0.00000000000E+00  0.39999999673E+01  0.40000000000E+01  0.51109989000E-03 0.  1.
     -623   -1    0    0    0    0  0.00000000000E+00  0.00000000000E+00  0.12525980253E-10  0.17130000000E+03  0.17130000000E+03 0. -1.
       11    1    1    2    0    0 -0.21730113485E-02 -0.15325618959E+00  0.12377882790E+00  0.19701177906E+00  0.51109989000E-03 0.  1.
     -623    1    1    2    0    0 -0.32999724855E-01  0.19394147455E+00  0.38255271358E+00  0.17130054013E+03  0.17130000000E+03 0. -1.
      622    1    1    2    0    0  0.35172736203E-01 -0.40685284952E-01  0.34936684259E+01  0.38024480909E+01  0.15000000000E+01 0.  1.
</event>
<event>
 5   0  0.6596100E+00  0.9118800E+02  0.7818608E-02  0.1180000E+00
       11   -1    0    0    0    0  0.00000000000E+00  0.00000000000E+00  0.39999999673E+01  0.40000000000E+01  0.51109989000E-03 0.  1.
     -623   -1    0    0    0    0  0.00000000000E+00  0.00000000000E+00  0.12525980253E-10  0.17130000000E+03  0.17130000000E+03 0.  1.
       11    1    1    2    0    0 -0.12956607426E+00  0.53174144741E-01 -0.80095900280E-01  0.16133961613E+00  0.51109989000E-03 0.  1.
     -623    1    1    2    0    0 -0.62878011328E-01  0.30145736651E-02  0.55331646366E+00  0.17130090520E+03  0.17130000000E+03 0.  1.
      622    1    1    2    0    0  0.19244408559E+00 -0.56188718406E-01  0.35267794040E+01  0.38377551853E+01  0.15000000000E+01 0.  1.
</event>
<event>
 5   0  0.6596100E+00  0.9118800E+02  0.7818608E-02  0.1180000E+00
       11   -1    0    0    0    0  0.00000000000E+00  0.00000000000E+00  0.39999999673E+01  0.40000000000E+01  0.51109989000E-03 0.  1.
     -623   -1    0    0    0    0  0.00000000000E+00  0.00000000000E+00  0.12525980253E-10  0.17130000000E+03  0.17130000000E+03 0.  1.
       11    1    1    2    0    0 -0.65420557036E-01 -0.10901808425E+00  0.14121082145E+00  0.19001460284E+00  0.51109989000E-03 0.  1.
     -623    1    1    2    0    0  0.87430113494E-01  0.16288032470E-01  0.35823556617E+00  0.17130039767E+03  0.17130000000E+03 0.  1.
      622    1    1    2    0    0 -0.22009556458E-01  0.92730051775E-01  0.35005535797E+01  0.38095877267E+01  0.15000000000E+01 0.  1.
</event>
<event>
 5   0  0.6596100E+00  0.9118800E+02  0.7818608E-02  0.1180000E+00
       11   -1    0    0    0    0  0.00000000000E+00  0.00000000000E+00  0.39999999673E+01  0.40000000000E+01  0.51109989000E-03 0. -1.
     -623   -1    0    0    0    0  0.00000000000E+00  0.00000000000E+00  0.12525980253E-10  0.17130000000E+03  0.17130000000E+03 0. -1.
       11    1    1    2    0    0 -0.15294458771E+00 -0.21030600915E+00  0.48555633084E+00  0.55080475310E+00  0.51109989000E-03 0. -1.
     -623    1    1    2    0    0  0.13807870047E-01  0.51832331573E+00  0.42840945022E+00  0.17130132044E+03  0.17130000000E+03 0. -1.
      622    1    1    2    0    0  0.13913671766E+00 -0.30801730658E+00  0.30860341863E+01  0.34478748072E+01  0.15000000000E+01 0. -1.
</event>
<event>
 5   0  0.6596100E+00  0.9118800E+02  0.7818608E-02  0.1180000E+00
       11   -1    0    0    0    0  0.00000000000E+00  0.00000000000E+00  0.39999999673E+01  0.40000000000E+01  0.51109989000E-03 0. -1.
     -623   -1    0    0    0    0  0.00000000000E+00  0.00000000000E+00  0.12525980253E-10  0.17130000000E+03  0.17130000000E+03 0.  1.
       11    1    1    2    0    0 -0.63639521499E-01 -0.35207199432E-02 -0.71444173039E-01  0.95744008950E-01  0.51109989000E-03 0. -1.
     -623    1    1    2    0    0  0.11193895784E+00 -0.13158487653E+00  0.47048542467E+00  0.17130073322E+03  0.17130000000E+03 0.  1.
      622    1    1    2    0    0 -0.48299436343E-01  0.13510559647E+00  0.36009587157E+01  0.39035227718E+01  0.15000000000E+01 0. -1.
</event>
<event>
 5   0  0.6596100E+00  0.9118800E+02  0.7818608E-02  0.1180000E+00
       11   -1    0    0    0    0  0.00000000000E+00  0.00000000000E+00  0.39999999673E+01  0.40000000000E+01  0.51109989000E-03 0.  1.
     -623   -1    0    0    0    0  0.00000000000E+00  0.00000000000E+00  0.12525980253E-10  0.17130000000E+03  0.17130000000E+03 0.  1.
       11    1    1    2    0    0 -0.94006932263E-01  0.12460647053E+00  0.35033311321E+00  0.38353308493E+00  0.51109989000E-03 0.  1.
     -623    1    1    2    0    0  0.14886545956E+00 -0.24752599726E+00  0.36239127331E+00  0.17130062684E+03  0.17130000000E+03 0.  1.
      622    1    1    2    0    0 -0.54858527294E-01  0.12291952673E+00  0.32872755808E+01  0.36158400701E+01  0.15000000000E+01 0.  1.
</event>
<event>
 5   0  0.6596100E+00  0.9118800E+02  0.7818608E-02  0.1180000E+00
       11   -1    0    0    0    0  0.00000000000E+00  0.00000000000E+00  0.39999999673E+01  0.40000000000E+01  0.51109989000E-03 0.  1.
     -623   -1    0    0    0    0  0.00000000000E+00  0.00000000000E+00  0.12525980253E-10  0.17130000000E+03  0.17130000000E+03 0. -1.
       11    1    1    2    0    0 -0.70894981415E-01 -0.26063272690E-01 -0.23053154881E-01  0.78975323654E-01  0.51109989000E-03 0.  1.
     -623    1    1    2    0    0  0.58878727830E-01 -0.11223152062E+00  0.40351305505E+00  0.17130052214E+03  0.17130000000E+03 0. -1.
      622    1    1    2    0    0  0.12016253585E-01  0.13829479331E+00  0.36195400672E+01  0.39205025364E+01  0.15000000000E+01 0.  1.
</event>
<event>
 5   0  0.6596100E+00  0.9118800E+02  0.7818608E-02  0.1180000E+00
       11   -1    0    0    0    0  0.00000000000E+00  0.00000000000E+00  0.39999999673E+01  0.40000000000E+01  0.51109989000E-03 0.  1.
     -623   -1    0    0    0    0  0.00000000000E+00  0.00000000000E+00  0.12525980253E-10  0.17130000000E+03  0.17130000000E+03 0.  1.
       11    1    1    2    0    0  0.24181055949E+00  0.62846309205E-01 -0.80276476407E-01  0.26242442559E+00  0.51109989000E-03 0.  1.
     -623    1    1    2    0    0 -0.28396598778E+00 -0.49745966813E+00  0.68743971921E+00  0.17130233704E+03  0.17130000000E+03 0.  1.
      622    1    1    2    0    0  0.42155428298E-01  0.43461335892E+00  0.33928367246E+01  0.37352385321E+01  0.15000000000E+01 0.  1.
</event>
<event>
 5   0  0.6596100E+00  0.9118800E+02  0.7818608E-02  0.1180000E+00
       11   -1    0    0    0    0  0.00000000000E+00  0.00000000000E+00  0.39999999673E+01  0.40000000000E+01  0.51109989000E-03 0.  1.
     -623   -1    0    0    0    0  0.00000000000E+00  0.00000000000E+00  0.12525980253E-10  0.17130000000E+03  0.17130000000E+03 0.  1.
       11    1    1    2    0    0  0.56291449011E-01 -0.48312066619E-01 -0.27023429738E-01  0.78951314045E-01  0.51109989000E-03 0.  1.
     -623    1    1    2    0    0 -0.53202589696E-01  0.10042083619E+00  0.40516683350E+00  0.17130051686E+03  0.17130000000E+03 0.  1.
      622    1    1    2    0    0 -0.30888593149E-02 -0.52108769572E-01  0.36218565636E+01  0.39205318303E+01  0.15000000000E+01 0.  1.
</event>
<event>
 5   0  0.6596100E+00  0.9118800E+02  0.7818608E-02  0.1180000E+00
       11   -1    0    0    0    0  0.00000000000E+00  0.00000000000E+00  0.39999999673E+01  0.40000000000E+01  0.51109989000E-03 0. -1.
     -623   -1    0    0    0    0  0.00000000000E+00  0.00000000000E+00  0.12525980253E-10  0.17130000000E+03  0.17130000000E+03 0.  1.
       11    1    1    2    0    0 -0.75817368489E-02 -0.17115916645E+00 -0.51427844412E-01  0.17887992452E+00  0.51109989000E-03 0. -1.
     -623    1    1    2    0    0  0.15794304047E+00  0.32332518114E+00  0.54490739145E+00  0.17130124462E+03  0.17130000000E+03 0.  1.
      622    1    1    2    0    0 -0.15036130362E+00 -0.15216601469E+00  0.35065204203E+01  0.38198754529E+01  0.15000000000E+01 0. -1.
</event>
<event>
 5   0  0.6596100E+00  0.9118800E+02  0.7818608E-02  0.1180000E+00
       11   -1    0    0    0    0  0.00000000000E+00  0.00000000000E+00  0.39999999673E+01  0.40000000000E+01  0.51109989000E-03 0. -1.
     -623   -1    0    0    0    0  0.00000000000E+00  0.00000000000E+00  0.12525980253E-10  0.17130000000E+03  0.17130000000E+03 0. -1.
       11    1    1    2    0    0  0.41351499421E-02  0.28941706753E-01 -0.15553118898E-01  0.33119217729E-01  0.51109989000E-03 0. -1.
     -623    1    1    2    0    0  0.66354666527E-02  0.56554088708E-01  0.34460052531E+00  0.17130035608E+03  0.17130000000E+03 0. -1.
      622    1    1    2    0    0 -0.10770616595E-01 -0.85495795461E-01  0.36709525609E+01  0.39665247058E+01  0.15000000000E+01 0. -1.
</event>
<event>
 5   0  0.6596100E+00  0.9118800E+02  0.7818608E-02  0.1180000E+00
       11   -1    0    0    0    0  0.00000000000E+00  0.00000000000E+00  0.39999999673E+01  0.40000000000E+01  0.51109989000E-03 0.  1.
     -623   -1    0    0    0    0  0.00000000000E+00  0.00000000000E+00  0.12525980253E-10  0.17130000000E+03  0.17130000000E+03 0. -1.
       11    1    1    2    0    0  0.45453110133E+00  0.81025105000E-01  0.18779359230E+00  0.49842781248E+00  0.51109989000E-03 0.  1.
     -623    1    1    2    0    0  0.20056316344E+00 -0.21962053914E+00  0.72186757839E+00  0.17130177918E+03  0.17130000000E+03 0. -1.
      622    1    1    2    0    0 -0.65509426477E+00  0.13859543414E+00  0.30903387967E+01  0.34997930036E+01  0.15000000000E+01 0.  1.
</event>
<event>
 5   0  0.6596100E+00  0.9118800E+02  0.7818608E-02  0.1180000E+00
       11   -1    0    0    0    0  0.00000000000E+00  0.00000000000E+00  0.39999999673E+01  0.40000000000E+01  0.51109989000E-03 0.  1.
     -623   -1    0    0    0    0  0.00000000000E+00  0.00000000000E+00  0.12525980253E-10  0.17130000000E+03  0.17130000000E+03 0. -1.
       11    1    1    2    0    0 -0.13713262084E-01 -0.67465269351E-01 -0.77045273364E-02  0.69276526256E-01  0.51109989000E-03 0.  1.
     -623    1    1    2    0    0 -0.27104250716E+00 -0.18948777736E+00  0.39558927275E+00  0.17130077601E+03  0.17130000000E+03 0. -1.
      622    1    1    2    0    0  0.28475576924E+00  0.25695304671E+00  0.36121152219E+01  0.39299474669E+01  0.15000000000E+01 0.  1.
</event>
<event>
 5   0  0.6596100E+00  0.9118800E+02  0.7818608E-02  0.1180000E+00
       11   -1    0    0    0    0  0.00000000000E+00  0.00000000000E+00  0.39999999673E+01  0.40000000000E+01  0.51109989000E-03 0.  1.
     -623   -1    0    0    0    0  0.00000000000E+00  0.00000000000E+00  0.12525980253E-10  0.17130000000E+03  0.17130000000E+03 0.  1.
       11    1    1    2    0    0  0.49640457924E-01  0.28201862339E+00  0.14063357922E+00  0.31902467590E+00  0.51109989000E-03 0.  1.
     -623    1    1    2    0    0 -0.28641857324E+00  0.10036736872E+00  0.52930662817E+00  0.17130108661E+03  0.17130000000E+03 0.  1.
      622    1    1    2    0    0  0.23677811531E+00 -0.38238599212E+00  0.33300597600E+01  0.36798887113E+01  0.15000000000E+01 0.  1.
</event>
<event>
 5   0  0.6596100E+00  0.9118800E+02  0.7818608E-02  0.1180000E+00
       11   -1    0    0    0    0  0.00000000000E+00  0.00000000000E+00  0.39999999673E+01  0.40000000000E+01  0.51109989000E-03 0. -1.
     -623   -1    0    0    0    0  0.00000000000E+00  0.00000000000E+00  0.12525980253E-10  0.17130000000E+03  0.17130000000E+03 0.  1.
       11    1    1    2    0    0  0.14466229330E+00  0.13979278935E+00  0.34838052296E+00  0.40229150259E+00  0.51109989000E-03 0. -1.
     -623    1    1    2    0    0  0.35098760935E-01 -0.13641871128E+00  0.38701859221E+00  0.17130049511E+03  0.17130000000E+03 0.  1.
      622    1    1    2    0    0 -0.17976105423E+00 -0.33740780641E-02  0.32646008522E+01  0.35972133861E+01  0.15000000000E+01 0. -1.
</event>
<event>
 5   0  0.6596100E+00  0.9118800E+02  0.7818608E-02  0.1180000E+00
       11   -1    0    0    0    0  0.00000000000E+00  0.00000000000E+00  0.39999999673E+01  0.40000000000E+01  0.51109989000E-03 0.  1.
     -623   -1    0    0    0    0  0.00000000000E+00  0.00000000000E+00  0.12525980253E-10  0.17130000000E+03  0.17130000000E+03 0. -1.
       11    1    1    2    0    0 -0.54882054520E-01  0.16362629320E+00 -0.23749184683E-01  0.17421219456E+00  0.51109989000E-03 0.  1.
     -623    1    1    2    0    0  0.16823662166E+00 -0.30971243570E+00  0.51036454005E+00  0.17130112287E+03  0.17130000000E+03 0. -1.
      622    1    1    2    0    0 -0.11335456714E+00  0.14608614249E+00  0.35133846120E+01  0.38246649331E+01  0.15000000000E+01 0.  1.
</event>
<event>
 5   0  0.6596100E+00  0.9118800E+02  0.7818608E-02  0.1180000E+00
       11   -1    0    0    0    0  0.00000000000E+00  0.00000000000E+00  0.39999999673E+01  0.40000000000E+01  0.51109989000E-03 0.  1.
     -623   -1    0    0    0    0  0.00000000000E+00  0.00000000000E+00  0.12525980253E-10  0.17130000000E+03  0.17130000000E+03 0. -1.
       11    1    1    2    0    0  0.84515378238E-01 -0.53033616448E-01  0.26671188035E-02  0.99813768479E-01  0.51109989000E-03 0.  1.
     -623    1    1    2    0    0 -0.11614384230E+00 -0.14467507222E-01  0.39844836228E+00  0.17130050338E+03  0.17130000000E+03 0. -1.
      622    1    1    2    0    0  0.31628464059E-01  0.67501123670E-01  0.35988844863E+01  0.38996828470E+01  0.15000000000E+01 0.  1.
</event>
<event>
 5   0  0.6596100E+00  0.9118800E+02  0.7818608E-02  0.1180000E+00
       11   -1    0    0    0    0  0.00000000000E+00  0.00000000000E+00  0.39999999673E+01  0.40000000000E+01  0.51109989000E-03 0.  1.
     -623   -1    0    0    0    0  0.00000000000E+00  0.00000000000E+00  0.12525980253E-10  0.17130000000E+03  0.17130000000E+03 0. -1.
       11    1    1    2    0    0 -0.81507338290E-01  0.35697614260E+00  0.79038440235E+00  0.87108161345E+00  0.51109989000E-03 0.  1.
     -623    1    1    2    0    0  0.18992990526E-01 -0.37421849989E+00  0.46564013964E+00  0.17130104267E+03  0.17130000000E+03 0. -1.
      622    1    1    2    0    0  0.62514347765E-01  0.17242357288E-01  0.27439754254E+01  0.31278757133E+01  0.15000000000E+01 0.  1.
</event>
<event>
 5   0  0.6596100E+00  0.9118800E+02  0.7818608E-02  0.1180000E+00
       11   -1    0    0    0    0  0.00000000000E+00  0.00000000000E+00  0.39999999673E+01  0.40000000000E+01  0.51109989000E-03 0. -1.
     -623   -1    0    0    0    0  0.00000000000E+00  0.00000000000E+00  0.12525980253E-10  0.17130000000E+03  0.17130000000E+03 0. -1.
       11    1    1    2    0    0 -0.10644525112E+00 -0.31712131573E-01  0.10398950154E+00  0.15215231983E+00  0.51109989000E-03 0. -1.
     -623    1    1    2    0    0  0.15319462570E+00 -0.25348461649E+00  0.36508352473E+00  0.17130064509E+03  0.17130000000E+03 0. -1.
      622    1    1    2    0    0 -0.46749374578E-01  0.28519674806E+00  0.35309269411E+01  0.38472025879E+01  0.15000000000E+01 0. -1.
</event>
<event>
 5   0  0.6596100E+00  0.9118800E+02  0.7818608E-02  0.1180000E+00
       11   -1    0    0    0    0  0.00000000000E+00  0.00000000000E+00  0.39999999673E+01  0.40000000000E+01  0.51109989000E-03 0.  1.
     -623   -1    0    0    0    0  0.00000000000E+00  0.00000000000E+00  0.12525980253E-10  0.17130000000E+03  0.17130000000E+03 0. -1.
       11    1    1    2    0    0 -0.12470600588E+00  0.78322493478E-01  0.37663065077E+00  0.40439696983E+00  0.51109989000E-03 0.  1.
     -623    1    1    2    0    0  0.63633080986E-01  0.50577987271E-01  0.35914352803E+00  0.17130039577E+03  0.17130000000E+03 0. -1.
      622    1    1    2    0    0  0.61072924897E-01 -0.12890048075E+00  0.32642257886E+01  0.35952072590E+01  0.15000000000E+01 0.  1.
</event>
<event>
 5   0  0.6596100E+00  0.9118800E+02  0.7818608E-02  0.1180000E+00
       11   -1    0    0    0    0  0.00000000000E+00  0.00000000000E+00  0.39999999673E+01  0.40000000000E+01  0.51109989000E-03 0.  1.
     -623   -1    0    0    0    0  0.00000000000E+00  0.00000000000E+00  0.12525980253E-10  0.17130000000E+03  0.17130000000E+03 0. -1.
       11    1    1    2    0    0 -0.48523080637E-01  0.32897222526E-02 -0.82848995855E-01  0.96070437510E-01  0.51109989000E-03 0.  1.
     -623    1    1    2    0    0  0.20843365256E-03  0.15505193677E-01  0.47969349313E+00  0.17130067235E+03  0.17130000000E+03 0. -1.
      622    1    1    2    0    0  0.48314646985E-01 -0.18794915929E-01  0.36031554701E+01  0.39032572162E+01  0.15000000000E+01 0.  1.
</event>
<event>
 5   0  0.6596100E+00  0.9118800E+02  0.7818608E-02  0.1180000E+00
       11   -1    0    0    0    0  0.00000000000E+00  0.00000000000E+00  0.39999999673E+01  0.40000000000E+01  0.51109989000E-03 0. -1.
     -623   -1    0    0    0    0  0.00000000000E+00  0.00000000000E+00  0.12525980253E-10  0.17130000000E+03  0.17130000000E+03 0.  1.
       11    1    1    2    0    0 -0.33417708413E-02  0.49496759849E-02 -0.24302793287E-01  0.25031054899E-01  0.51109989000E-03 0. -1.
     -623    1    1    2    0    0  0.35817446701E-01 -0.33798789468E-01  0.34385559022E+00  0.17130035219E+03  0.17130000000E+03 0.  1.
      622    1    1    2    0    0 -0.32475675860E-01  0.28849113483E-01  0.36804471704E+01  0.39746167507E+01  0.15000000000E+01 0. -1.
</event>
<event>
 5   0  0.6596100E+00  0.9118800E+02  0.7818608E-02  0.1180000E+00
       11   -1    0    0    0    0  0.00000000000E+00  0.00000000000E+00  0.39999999673E+01  0.40000000000E+01  0.51109989000E-03 0. -1.
     -623   -1    0    0    0    0  0.00000000000E+00  0.00000000000E+00  0.12525980253E-10  0.17130000000E+03  0.17130000000E+03 0.  1.
       11    1    1    2    0    0 -0.23376335641E+00  0.91862146083E-01  0.48032599149E+00  0.54203070024E+00  0.51109989000E-03 0. -1.
     -623    1    1    2    0    0 -0.44298624835E-01 -0.72196233909E-01  0.41706368571E+00  0.17130052865E+03  0.17130000000E+03 0.  1.
      622    1    1    2    0    0  0.27806198124E+00 -0.19665912174E-01  0.31026102902E+01  0.34574406468E+01  0.15000000000E+01 0. -1.
</event>
<event>
 5   0  0.6596100E+00  0.9118800E+02  0.7818608E-02  0.1180000E+00
       11   -1    0    0    0    0  0.00000000000E+00  0.00000000000E+00  0.39999999673E+01  0.40000000000E+01  0.51109989000E-03 0.  1.
     -623   -1    0    0    0    0  0.00000000000E+00  0.00000000000E+00  0.12525980253E-10  0.17130000000E+03  0.17130000000E+03 0.  1.
       11    1    1    2    0    0  0.20700177246E+00 -0.26940013739E+00  0.28404709308E+00  0.44284216165E+00  0.51109989000E-03 0.  1.
     -623    1    1    2    0    0  0.52383302764E-01  0.97315964545E-01  0.50645150408E+00  0.17130078432E+03  0.17130000000E+03 0.  1.
      622    1    1    2    0    0 -0.25938507522E+00  0.17208417284E+00  0.32095013702E+01  0.35563735216E+01  0.15000000000E+01 0.  1.
</event>
<event>
 5   0  0.6596100E+00  0.9118800E+02  0.7818608E-02  0.1180000E+00
       11   -1    0    0    0    0  0.00000000000E+00  0.00000000000E+00  0.39999999673E+01  0.40000000000E+01  0.51109989000E-03 0. -1.
     -623   -1    0    0    0    0  0.00000000000E+00  0.00000000000E+00  0.12525980253E-10  0.17130000000E+03  0.17130000000E+03 0.  1.
       11    1    1    2    0    0  0.16278052835E+00  0.50973198092E-01  0.29907274612E+00  0.34429716239E+00  0.51109989000E-03 0. -1.
     -623    1    1    2    0    0  0.11765725600E+00 -0.26377713448E+00  0.38652468349E+00  0.17130067958E+03  0.17130000000E+03 0.  1.
      622    1    1    2    0    0 -0.28043778435E+00  0.21280393639E+00  0.33144025378E+01  0.36550232624E+01  0.15000000000E+01 0. -1.
</event>
<event>
 5   0  0.6596100E+00  0.9118800E+02  0.7818608E-02  0.1180000E+00
       11   -1    0    0    0    0  0.00000000000E+00  0.00000000000E+00  0.39999999673E+01  0.40000000000E+01  0.51109989000E-03 0.  1.
     -623   -1    0    0    0    0  0.00000000000E+00  0.00000000000E+00  0.12525980253E-10  0.17130000000E+03  0.17130000000E+03 0. -1.
       11    1    1    2    0    0 -0.13370679932E+00  0.49249521405E-02 -0.12276980167E-01  0.13436051802E+00  0.51109989000E-03 0.  1.
     -623    1    1    2    0    0  0.32440549713E+00 -0.10662555096E+00  0.45712384986E+00  0.17130095029E+03  0.17130000000E+03 0. -1.
      622    1    1    2    0    0 -0.19069869781E+00  0.10170059882E+00  0.35551530977E+01  0.38646891923E+01  0.15000000000E+01 0.  1.
</event>
<event>
 5   0  0.6596100E+00  0.9118800E+02  0.7818608E-02  0.1180000E+00
       11   -1    0    0    0    0  0.00000000000E+00  0.00000000000E+00  0.39999999673E+01  0.40000000000E+01  0.51109989000E-03 0.  1.
     -623   -1    0    0    0    0  0.00000000000E+00  0.00000000000E+00  0.12525980253E-10  0.17130000000E+03  0.17130000000E+03 0.  1.
       11    1    1    2    0    0 -0.66801257546E-01  0.12517043601E-01  0.96601901104E-01  0.11811550663E+00  0.51109989000E-03 0.  1.
     -623    1    1    2    0    0  0.12946383030E+00  0.20348975473E+00  0.33063352864E+00  0.17130048887E+03  0.17130000000E+03 0.  1.
      622    1    1    2    0    0 -0.62662572752E-01 -0.21600679833E+00  0.35727645376E+01  0.38813956222E+01  0.15000000000E+01 0.  1.
</event>
<event>
 5   0  0.6596100E+00  0.9118800E+02  0.7818608E-02  0.1180000E+00
       11   -1    0    0    0    0  0.00000000000E+00  0.00000000000E+00  0.39999999673E+01  0.40000000000E+01  0.51109989000E-03 0.  1.
     -623   -1    0    0    0    0  0.00000000000E+00  0.00000000000E+00  0.12525980253E-10  0.17130000000E+03  0.17130000000E+03 0. -1.
       11    1    1    2    0    0 -0.42639498239E-01 -0.23546700120E+00 -0.11685321434E+00  0.26630390607E+00  0.51109989000E-03 0.  1.
     -623    1    1    2    0    0  0.50467679453E-02  0.36275719661E+00  0.70228805000E+00  0.17130182377E+03  0.17130000000E+03 0. -1.
      622    1    1    2    0    0  0.37592730293E-01 -0.12729019541E+00  0.34145651317E+01  0.37318723244E+01  0.15000000000E+01 0.  1.
</event>
<event>
 5   0  0.6596100E+00  0.9118800E+02  0.7818608E-02  0.1180000E+00
       11   -1    0    0    0    0  0.00000000000E+00  0.00000000000E+00  0.39999999673E+01  0.40000000000E+01  0.51109989000E-03 0. -1.
     -623   -1    0    0    0    0  0.00000000000E+00  0.00000000000E+00  0.12525980253E-10  0.17130000000E+03  0.17130000000E+03 0. -1.
       11    1    1    2    0    0 -0.15071974592E+00  0.42530262127E-01  0.20150395808E+00  0.25520456766E+00  0.51109989000E-03 0. -1.
     -623    1    1    2    0    0  0.33867291162E+00  0.15367683796E+00  0.37891893362E+00  0.17130082281E+03  0.17130000000E+03 0. -1.
      622    1    1    2    0    0 -0.18795316570E+00 -0.19620710008E+00  0.34195770757E+01  0.37439726221E+01  0.15000000000E+01 0. -1.
</event>
<event>
 5   0  0.6596100E+00  0.9118800E+02  0.7818608E-02  0.1180000E+00
       11   -1    0    0    0    0  0.00000000000E+00  0.00000000000E+00  0.39999999673E+01  0.40000000000E+01  0.51109989000E-03 0.  1.
     -623   -1    0    0    0    0  0.00000000000E+00  0.00000000000E+00  0.12525980253E-10  0.17130000000E+03  0.17130000000E+03 0. -1.
       11    1    1    2    0    0 -0.44128873614E-01  0.12312787357E+00 -0.31062108084E-01  0.13443565939E+00  0.51109989000E-03 0.  1.
     -623    1    1    2    0    0  0.13090351046E+00 -0.28442447139E+00  0.47413122511E+00  0.17130094230E+03  0.17130000000E+03 0. -1.
      622    1    1    2    0    0 -0.86774636845E-01  0.16129659781E+00  0.35569308503E+01  0.38646220390E+01  0.15000000000E+01 0.  1.
</event>
<event>
 5   0  0.6596100E+00  0.9118800E+02  0.7818608E-02  0.1180000E+00
       11   -1    0    0    0    0  0.00000000000E+00  0.00000000000E+00  0.39999999673E+01  0.40000000000E+01  0.51109989000E-03 0. -1.
     -623   -1    0    0    0    0  0.00000000000E+00  0.00000000000E+00  0.12525980253E-10  0.17130000000E+03  0.17130000000E+03 0.  1.
       11    1    1    2    0    0  0.42171251585E-01 -0.58245783874E+00  0.59325554222E+00  0.83245897675E+00  0.51109989000E-03 0. -1.
     -623    1    1    2    0    0  0.18096684702E+00  0.17629745812E+00  0.65730959508E+00  0.17130144741E+03  0.17130000000E+03 0.  1.
      622    1    1    2    0    0 -0.22313809861E+00  0.40616038062E+00  0.27494348301E+01  0.31660936105E+01  0.15000000000E+01 0. -1.
</event>
<event>
 5   0  0.6596100E+00  0.9118800E+02  0.7818608E-02  0.1180000E+00
       11   -1    0    0    0    0  0.00000000000E+00  0.00000000000E+00  0.39999999673E+01  0.40000000000E+01  0.51109989000E-03 0.  1.
     -623   -1    0    0    0    0  0.00000000000E+00  0.00000000000E+00  0.12525980253E-10  0.17130000000E+03  0.17130000000E+03 0. -1.
       11    1    1    2    0    0  0.20617527458E-02 -0.53003817963E-01  0.64027506827E+00  0.64246873839E+00  0.51109989000E-03 0.  1.
     -623    1    1    2    0    0  0.18272156160E+00  0.63160359197E-01  0.36214834544E+00  0.17130049191E+03  0.17130000000E+03 0. -1.
      622    1    1    2    0    0 -0.18478331434E+00 -0.10156541234E-01  0.29975765537E+01  0.33570393539E+01  0.15000000000E+01 0.  1.
</event>
<event>
 5   0  0.6596100E+00  0.9118800E+02  0.7818608E-02  0.1180000E+00
       11   -1    0    0    0    0  0.00000000000E+00  0.00000000000E+00  0.39999999673E+01  0.40000000000E+01  0.51109989000E-03 0.  1.
     -623   -1    0    0    0    0  0.00000000000E+00  0.00000000000E+00  0.12525980253E-10  0.17130000000E+03  0.17130000000E+03 0.  1.
       11    1    1    2    0    0 -0.10338878692E+00 -0.50668463052E-01  0.53691394922E+00  0.54912055552E+00  0.51109989000E-03 0.  1.
     -623    1    1    2    0    0  0.25525794074E+00  0.19336274443E+00  0.36301780400E+00  0.17130068397E+03  0.17130000000E+03 0.  1.
      622    1    1    2    0    0 -0.15186915381E+00 -0.14269428138E+00  0.31000682141E+01  0.34501954771E+01  0.15000000000E+01 0.  1.
</event>
<event>
 5   0  0.6596100E+00  0.9118800E+02  0.7818608E-02  0.1180000E+00
       11   -1    0    0    0    0  0.00000000000E+00  0.00000000000E+00  0.39999999673E+01  0.40000000000E+01  0.51109989000E-03 0.  1.
     -623   -1    0    0    0    0  0.00000000000E+00  0.00000000000E+00  0.12525980253E-10  0.17130000000E+03  0.17130000000E+03 0. -1.
       11    1    1    2    0    0  0.41623705124E-01 -0.59470660554E-02 -0.45417504832E-01  0.61894356699E-01  0.51109989000E-03 0.  1.
     -623    1    1    2    0    0  0.56918472604E-01  0.23569746784E-01  0.40608004079E+00  0.17130049240E+03  0.17130000000E+03 0. -1.
      622    1    1    2    0    0 -0.98542177727E-01 -0.17622680729E-01  0.36393374314E+01  0.39376132440E+01  0.15000000000E+01 0.  1.
</event>
<event>
 5   0  0.6596100E+00  0.9118800E+02  0.7818608E-02  0.1180000E+00
       11   -1    0    0    0    0  0.00000000000E+00  0.00000000000E+00  0.39999999673E+01  0.40000000000E+01  0.51109989000E-03 0. -1.
     -623   -1    0    0    0    0  0.00000000000E+00  0.00000000000E+00  0.12525980253E-10  0.17130000000E+03  0.17130000000E+03 0. -1.
       11    1    1    2    0    0  0.44688387088E-01  0.12141133147E-01 -0.26154875025E-02  0.46384922686E-01  0.51109989000E-03 0. -1.
     -623    1    1    2    0    0 -0.32653433723E-02 -0.45409040016E-01  0.34536937910E+00  0.17130035421E+03  0.17130000000E+03 0. -1.
      622    1    1    2    0    0 -0.41423043716E-01  0.33267906869E-01  0.36572460758E+01  0.39532608668E+01  0.15000000000E+01 0. -1.
</event>
<event>
 5   0  0.6596100E+00  0.9118800E+02  0.7818608E-02  0.1180000E+00
       11   -1    0    0    0    0  0.00000000000E+00  0.00000000000E+00  0.39999999673E+01  0.40000000000E+01  0.51109989000E-03 0.  1.
     -623   -1    0    0    0    0  0.00000000000E+00  0.00000000000E+00  0.12525980253E-10  0.17130000000E+03  0.17130000000E+03 0.  1.
       11    1    1    2    0    0  0.14879512026E+00 -0.66968251128E-01  0.98175743836E-01  0.19042970454E+00  0.51109989000E-03 0.  1.
     -623    1    1    2    0    0  0.24127210401E-01 -0.24269110106E+00  0.41874903003E+00  0.17130068544E+03  0.17130000000E+03 0.  1.
      622    1    1    2    0    0 -0.17292233066E+00  0.30965935219E+00  0.34830751935E+01  0.38088848565E+01  0.15000000000E+01 0. -1.
</event>
<event>
 5   0  0.6596100E+00  0.9118800E+02  0.7818608E-02  0.1180000E+00
       11   -1    0    0    0    0  0.00000000000E+00  0.00000000000E+00  0.39999999673E+01  0.40000000000E+01  0.51109989000E-03 0. -1.
     -623   -1    0    0    0    0  0.00000000000E+00  0.00000000000E+00  0.12525980253E-10  0.17130000000E+03  0.17130000000E+03 0.  1.
       11    1    1    2    0    0  0.15341347463E-01  0.11576331500E+00 -0.92963405399E-01  0.14926137480E+00  0.51109989000E-03 0. -1.
     -623    1    1    2    0    0  0.20275620227E+00  0.32917578400E+00  0.58274129923E+00  0.17130142747E+03  0.17130000000E+03 0.  1.
      622    1    1    2    0    0 -0.21809754974E+00 -0.44493909899E+00  0.35102220735E+01  0.38493111525E+01  0.15000000000E+01 0. -1.
</event>
<event>
 5   0  0.6596100E+00  0.9118800E+02  0.7818608E-02  0.1180000E+00
       11   -1    0    0    0    0  0.00000000000E+00  0.00000000000E+00  0.39999999673E+01  0.40000000000E+01  0.51109989000E-03 0.  1.
     -623   -1    0    0    0    0  0.00000000000E+00  0.00000000000E+00  0.12525980253E-10  0.17130000000E+03  0.17130000000E+03 0. -1.
       11    1    1    2    0    0 -0.12867247743E+00 -0.74840004876E-01  0.15939658418E+00  0.21809439481E+00  0.51109989000E-03 0.  1.
     -623    1    1    2    0    0  0.71123124969E-01  0.16159371790E+00  0.37098591526E+00  0.17130049271E+03  0.17130000000E+03 0. -1.
      622    1    1    2    0    0  0.57549352463E-01 -0.86753713024E-01  0.34696174679E+01  0.37814128984E+01  0.15000000000E+01 0.  1.
</event>
<event>
 5   0  0.6596100E+00  0.9118800E+02  0.7818608E-02  0.1180000E+00
       11   -1    0    0    0    0  0.00000000000E+00  0.00000000000E+00  0.39999999673E+01  0.40000000000E+01  0.51109989000E-03 0.  1.
     -623   -1    0    0    0    0  0.00000000000E+00  0.00000000000E+00  0.12525980253E-10  0.17130000000E+03  0.17130000000E+03 0.  1.
       11    1    1    2    0    0 -0.24979762073E+00  0.41288257814E-01  0.83291071741E+00  0.87054241479E+00  0.51109989000E-03 0.  1.
     -623    1    1    2    0    0  0.16052142821E+00 -0.34743541801E+00  0.44026098016E+00  0.17130099331E+03  0.17130000000E+03 0.  1.
      622    1    1    2    0    0  0.89276192518E-01  0.30614716019E+00  0.27268282698E+01  0.31284642774E+01  0.15000000000E+01 0.  0.
</event>
<event>
 5   0  0.6596100E+00  0.9118800E+02  0.7818608E-02  0.1180000E+00
       11   -1    0    0    0    0  0.00000000000E+00  0.00000000000E+00  0.39999999673E+01  0.40000000000E+01  0.51109989000E-03 0. -1.
     -623   -1    0    0    0    0  0.00000000000E+00  0.00000000000E+00  0.12525980253E-10  0.17130000000E+03  0.17130000000E+03 0. -1.
       11    1    1    2    0    0  0.61957524860E-01  0.47071753685E-01  0.14140206924E+00  0.16139792840E+00  0.51109989000E-03 0. -1.
     -623    1    1    2    0    0 -0.43100014467E+00  0.41400599600E-01  0.34662502867E+00  0.17130089791E+03  0.17130000000E+03 0. -1.
      622    1    1    2    0    0  0.36904261981E+00 -0.88472353285E-01  0.35119728694E+01  0.38377041637E+01  0.15000000000E+01 0. -1.
</event>
<event>
 5   0  0.6596100E+00  0.9118800E+02  0.7818608E-02  0.1180000E+00
       11   -1    0    0    0    0  0.00000000000E+00  0.00000000000E+00  0.39999999673E+01  0.40000000000E+01  0.51109989000E-03 0.  1.
     -623   -1    0    0    0    0  0.00000000000E+00  0.00000000000E+00  0.12525980253E-10  0.17130000000E+03  0.17130000000E+03 0. -1.
       11    1    1    2    0    0  0.16450018746E+00 -0.15948361861E+00  0.13406338811E+00  0.26545920503E+00  0.51109989000E-03 0.  1.
     -623    1    1    2    0    0  0.43320189970E-02 -0.51483768236E+00  0.51900778369E+00  0.17130155996E+03  0.17130000000E+03 0. -1.
      622    1    1    2    0    0 -0.16883220646E+00  0.67432130097E+00  0.33469287956E+01  0.37329808322E+01  0.15000000000E+01 0.  1.
</event>
<event>
 5   0  0.6596100E+00  0.9118800E+02  0.7818608E-02  0.1180000E+00
       11   -1    0    0    0    0  0.00000000000E+00  0.00000000000E+00  0.39999999673E+01  0.40000000000E+01  0.51109989000E-03 0.  1.
     -623   -1    0    0    0    0  0.00000000000E+00  0.00000000000E+00  0.12525980253E-10  0.17130000000E+03  0.17130000000E+03 0. -1.
       11    1    1    2    0    0  0.85424761377E-01  0.22656867310E+00  0.16083999823E+00  0.29068973105E+00  0.51109989000E-03 0.  1.
     -623    1    1    2    0    0 -0.28161213004E+00 -0.13790796518E-01  0.45997120194E+00  0.17130084959E+03  0.17130000000E+03 0. -1.
      622    1    1    2    0    0  0.19618736866E+00 -0.21277787658E+00  0.33791887672E+01  0.37084606824E+01  0.15000000000E+01 0.  1.
</event>
<event>
 5   0  0.6596100E+00  0.9118800E+02  0.7818608E-02  0.1180000E+00
       11   -1    0    0    0    0  0.00000000000E+00  0.00000000000E+00  0.39999999673E+01  0.40000000000E+01  0.51109989000E-03 0.  1.
     -623   -1    0    0    0    0  0.00000000000E+00  0.00000000000E+00  0.12525980253E-10  0.17130000000E+03  0.17130000000E+03 0. -1.
       11    1    1    2    0    0  0.96675105817E-01 -0.83027314149E-01  0.60274986405E-01  0.14097143749E+00  0.51109989000E-03 0.  1.
     -623    1    1    2    0    0  0.35104769655E-01  0.87827492771E-01  0.38710124522E+00  0.17130046349E+03  0.17130000000E+03 0. -1.
      622    1    1    2    0    0 -0.13177987547E+00 -0.48001786226E-02  0.35526237357E+01  0.38585650681E+01  0.15000000000E+01 0.  1.
</event>
<event>
 5   0  0.6596100E+00  0.9118800E+02  0.7818608E-02  0.1180000E+00
       11   -1    0    0    0    0  0.00000000000E+00  0.00000000000E+00  0.39999999673E+01  0.40000000000E+01  0.51109989000E-03 0.  1.
     -623   -1    0    0    0    0  0.00000000000E+00  0.00000000000E+00  0.12525980253E-10  0.17130000000E+03  0.17130000000E+03 0. -1.
       11    1    1    2    0    0 -0.10242615290E-01  0.60448616633E-01  0.62455009606E+00  0.62755241226E+00  0.51109989000E-03 0.  1.
     -623    1    1    2    0    0  0.15421256871E+00  0.21440222254E-02  0.35953465840E+00  0.17130044673E+03  0.17130000000E+03 0. -1.
      622    1    1    2    0    0 -0.14396995342E+00 -0.62592638858E-01  0.30159152129E+01  0.33720008537E+01  0.15000000000E+01 0.  1.
</event>
<event>
 5   0  0.6596100E+00  0.9118800E+02  0.7818608E-02  0.1180000E+00
       11   -1    0    0    0    0  0.00000000000E+00  0.00000000000E+00  0.39999999673E+01  0.40000000000E+01  0.51109989000E-03 0. -1.
     -623   -1    0    0    0    0  0.00000000000E+00  0.00000000000E+00  0.12525980253E-10  0.17130000000E+03  0.17130000000E+03 0.  1.
       11    1    1    2    0    0 -0.21834816782E+00  0.18638849319E+00  0.89960738590E-01  0.30084844772E+00  0.51109989000E-03 0. -1.
     -623    1    1    2    0    0  0.34586341424E+00  0.81360538197E-01  0.54304058694E+00  0.17130122923E+03  0.17130000000E+03 0.  1.
      622    1    1    2    0    0 -0.12751524642E+00 -0.26774903138E+00  0.33669986418E+01  0.36979223269E+01  0.15000000000E+01 0. -1.
</event>
<event>
 5   0  0.6596100E+00  0.9118800E+02  0.7818608E-02  0.1180000E+00
       11   -1    0    0    0    0  0.00000000000E+00  0.00000000000E+00  0.39999999673E+01  0.40000000000E+01  0.51109989000E-03 0.  1.
     -623   -1    0    0    0    0  0.00000000000E+00  0.00000000000E+00  0.12525980253E-10  0.17130000000E+03  0.17130000000E+03 0. -1.
       11    1    1    2    0    0 -0.28100386834E-01 -0.49154536160E-01  0.63457284751E+00  0.63709399634E+00  0.51109989000E-03 0.  1.
     -623    1    1    2    0    0  0.12378711619E+00  0.26101659816E+00  0.36528748269E+00  0.17130063306E+03  0.17130000000E+03 0. -1.
      622    1    1    2    0    0 -0.95686729357E-01 -0.21186206200E+00  0.30001396372E+01  0.33622729404E+01  0.15000000000E+01 0.  1.
</event>
<event>
 5   0  0.6596100E+00  0.9118800E+02  0.7818608E-02  0.1180000E+00
       11   -1    0    0    0    0  0.00000000000E+00  0.00000000000E+00  0.39999999673E+01  0.40000000000E+01  0.51109989000E-03 0. -1.
     -623   -1    0    0    0    0  0.00000000000E+00  0.00000000000E+00  0.12525980253E-10  0.17130000000E+03  0.17130000000E+03 0.  1.
       11    1    1    2    0    0 -0.51031816086E-01  0.43076055314E-01  0.15530055897E+00  0.16905122784E+00  0.51109989000E-03 0. -1.
     -623    1    1    2    0    0  0.19016487094E+00  0.55921747959E-01  0.32421924698E+00  0.17130042151E+03  0.17130000000E+03 0.  1.
      622    1    1    2    0    0 -0.13913305485E+00 -0.98997803273E-01  0.35204801614E+01  0.38305272664E+01  0.15000000000E+01 0. -1.
</event>
<event>
 5   0  0.6596100E+00  0.9118800E+02  0.7818608E-02  0.1180000E+00
       11   -1    0    0    0    0  0.00000000000E+00  0.00000000000E+00  0.39999999673E+01  0.40000000000E+01  0.51109989000E-03 0. -1.
     -623   -1    0    0    0    0  0.00000000000E+00  0.00000000000E+00  0.12525980253E-10  0.17130000000E+03  0.17130000000E+03 0.  1.
       11    1    1    2    0    0  0.47506743310E-01  0.66818071074E-01 -0.11533140227E-01  0.82793839313E-01  0.51109989000E-03 0. -1.
     -623    1    1    2    0    0 -0.67846627760E-01 -0.40172885703E+00  0.40954826530E+00  0.17130097407E+03  0.17130000000E+03 0.  1.
      622    1    1    2    0    0  0.20339884451E-01  0.33491078595E+00  0.36019848423E+01  0.39162320858E+01  0.15000000000E+01 0. -1.
</event>
<event>
 5   0  0.6596100E+00  0.9118800E+02  0.7818608E-02  0.1180000E+00
       11   -1    0    0    0    0  0.00000000000E+00  0.00000000000E+00  0.39999999673E+01  0.40000000000E+01  0.51109989000E-03 0.  1.
     -623   -1    0    0    0    0  0.00000000000E+00  0.00000000000E+00  0.12525980253E-10  0.17130000000E+03  0.17130000000E+03 0.  1.
       11    1    1    2    0    0  0.23914604842E+00 -0.62226565913E-01  0.27169282357E+00  0.36726043835E+00  0.51109989000E-03 0.  1.
     -623    1    1    2    0    0 -0.26433851709E+00 -0.77149175978E-01  0.42356444276E+00  0.17130074499E+03  0.17130000000E+03 0.  1.
      622    1    1    2    0    0  0.25192468675E-01  0.13937574189E+00  0.33047427010E+01  0.36319945729E+01  0.15000000000E+01 0.  1.
</event>
<event>
 5   0  0.6596100E+00  0.9118800E+02  0.7818608E-02  0.1180000E+00
       11   -1    0    0    0    0  0.00000000000E+00  0.00000000000E+00  0.39999999673E+01  0.40000000000E+01  0.51109989000E-03 0.  1.
     -623   -1    0    0    0    0  0.00000000000E+00  0.00000000000E+00  0.12525980253E-10  0.17130000000E+03  0.17130000000E+03 0.  1.
       11    1    1    2    0    0 -0.73823410490E+00  0.12448201025E+00  0.21825017242E+00  0.77981969935E+00  0.51109989000E-03 0.  1.
     -623    1    1    2    0    0  0.22181714046E+00 -0.81771915283E-03  0.98560877383E+00  0.17130297904E+03  0.17130000000E+03 0.  1.
      622    1    1    2    0    0  0.51641696444E+00 -0.12366429110E+00  0.27961410211E+01  0.32172012601E+01  0.15000000000E+01 0.  0.
</event>
<event>
 5   0  0.6596100E+00  0.9118800E+02  0.7818608E-02  0.1180000E+00
       11   -1    0    0    0    0  0.00000000000E+00  0.00000000000E+00  0.39999999673E+01  0.40000000000E+01  0.51109989000E-03 0. -1.
     -623   -1    0    0    0    0  0.00000000000E+00  0.00000000000E+00  0.12525980253E-10  0.17130000000E+03  0.17130000000E+03 0.  1.
       11    1    1    2    0    0 -0.60557243684E-01 -0.92153937105E-01  0.53638737096E-02  0.11040181272E+00  0.51109989000E-03 0. -1.
     -623    1    1    2    0    0 -0.15099075103E+00  0.23868761817E-01  0.41341457179E+00  0.17130056707E+03  0.17130000000E+03 0.  1.
      622    1    1    2    0    0  0.21154799472E+00  0.68285175288E-01  0.35812215219E+01  0.38890311143E+01  0.15000000000E+01 0. -1.
</event>
<event>
 5   0  0.6596100E+00  0.9118800E+02  0.7818608E-02  0.1180000E+00
       11   -1    0    0    0    0  0.00000000000E+00  0.00000000000E+00  0.39999999673E+01  0.40000000000E+01  0.51109989000E-03 0.  1.
     -623   -1    0    0    0    0  0.00000000000E+00  0.00000000000E+00  0.12525980253E-10  0.17130000000E+03  0.17130000000E+03 0.  1.
       11    1    1    2    0    0  0.28512977152E+00 -0.69210552877E-01  0.12007037328E+00  0.31702719600E+00  0.51109989000E-03 0.  1.
     -623    1    1    2    0    0 -0.14895187098E+00  0.15396061613E-01  0.52038428871E+00  0.17130085587E+03  0.17130000000E+03 0.  1.
      622    1    1    2    0    0 -0.13617790054E+00  0.53814491264E-01  0.33595453054E+01  0.36821169290E+01  0.15000000000E+01 0.  1.
</event>
<event>
 5   0  0.6596100E+00  0.9118800E+02  0.7818608E-02  0.1180000E+00
       11   -1    0    0    0    0  0.00000000000E+00  0.00000000000E+00  0.39999999673E+01  0.40000000000E+01  0.51109989000E-03 0.  1.
     -623   -1    0    0    0    0  0.00000000000E+00  0.00000000000E+00  0.12525980253E-10  0.17130000000E+03  0.17130000000E+03 0. -1.
       11    1    1    2    0    0 -0.39721185189E-01 -0.18167233655E-01 -0.11131505465E-01  0.45077628248E-01  0.51109989000E-03 0.  1.
     -623    1    1    2    0    0 -0.64483264263E+00  0.17342608674E+00  0.42166136227E+00  0.17130182043E+03  0.17130000000E+03 0. -1.
      622    1    1    2    0    0  0.68455382782E+00 -0.15525885309E+00  0.35894701106E+01  0.39531019376E+01  0.15000000000E+01 0.  1.
</event>
<event>
 5   0  0.6596100E+00  0.9118800E+02  0.7818608E-02  0.1180000E+00
       11   -1    0    0    0    0  0.00000000000E+00  0.00000000000E+00  0.39999999673E+01  0.40000000000E+01  0.51109989000E-03 0.  1.
     -623   -1    0    0    0    0  0.00000000000E+00  0.00000000000E+00  0.12525980253E-10  0.17130000000E+03  0.17130000000E+03 0. -1.
       11    1    1    2    0    0  0.16645744165E+00 -0.13102442844E+00 -0.72338789079E-02  0.21196242817E+00  0.51109989000E-03 0.  1.
     -623    1    1    2    0    0 -0.14596633635E+00  0.13384937081E-01  0.53185759197E+00  0.17130088837E+03  0.17130000000E+03 0. -1.
      622    1    1    2    0    0 -0.20491105300E-01  0.11763949136E+00  0.34753762543E+01  0.37871491975E+01  0.15000000000E+01 0.  1.
</event>
<event>
 5   0  0.6596100E+00  0.9118800E+02  0.7818608E-02  0.1180000E+00
       11   -1    0    0    0    0  0.00000000000E+00  0.00000000000E+00  0.39999999673E+01  0.40000000000E+01  0.51109989000E-03 0.  1.
     -623   -1    0    0    0    0  0.00000000000E+00  0.00000000000E+00  0.12525980253E-10  0.17130000000E+03  0.17130000000E+03 0.  1.
       11    1    1    2    0    0 -0.46157164679E+00  0.46748857279E+00  0.34090981202E+00  0.74014438589E+00  0.51109989000E-03 0.  1.
     -623    1    1    2    0    0  0.61966621798E+00  0.13380814638E+00  0.83611908912E+00  0.17130321359E+03  0.17130000000E+03 0.  1.
      622    1    1    2    0    0 -0.15809457118E+00 -0.60129671917E+00  0.28229710662E+01  0.32566420250E+01  0.15000000000E+01 0.  1.
</event>
<event>
 5   0  0.6596100E+00  0.9118800E+02  0.7818608E-02  0.1180000E+00
       11   -1    0    0    0    0  0.00000000000E+00  0.00000000000E+00  0.39999999673E+01  0.40000000000E+01  0.51109989000E-03 0. -1.
     -623   -1    0    0    0    0  0.00000000000E+00  0.00000000000E+00  0.12525980253E-10  0.17130000000E+03  0.17130000000E+03 0.  1.
       11    1    1    2    0    0  0.70395741002E-01 -0.13067568771E+00 -0.39165403241E-01  0.15351184235E+00  0.51109989000E-03 0. -1.
     -623    1    1    2    0    0 -0.12412736052E+00  0.23618812214E+00  0.50020575103E+00  0.17130093811E+03  0.17130000000E+03 0.  1.
      622    1    1    2    0    0  0.53731619522E-01 -0.10551243442E+00  0.35389596196E+01  0.38455500451E+01  0.15000000000E+01 0. -1.
</event>
<event>
 5   0  0.6596100E+00  0.9118800E+02  0.7818608E-02  0.1180000E+00
       11   -1    0    0    0    0  0.00000000000E+00  0.00000000000E+00  0.39999999673E+01  0.40000000000E+01  0.51109989000E-03 0. -1.
     -623   -1    0    0    0    0  0.00000000000E+00  0.00000000000E+00  0.12525980253E-10  0.17130000000E+03  0.17130000000E+03 0. -1.
       11    1    1    2    0    0 -0.74421598542E-01  0.80497309580E-01  0.64175990320E-01  0.12703231926E+00  0.51109989000E-03 0. -1.
     -623    1    1    2    0    0  0.33285054607E+00  0.38987176510E-01  0.37730472137E+00  0.17130074334E+03  0.17130000000E+03 0. -1.
      622    1    1    2    0    0 -0.25842894753E+00 -0.11948448609E+00  0.35585192557E+01  0.38722243422E+01  0.15000000000E+01 0. -1.
</event>
<event>
 5   0  0.6596100E+00  0.9118800E+02  0.7818608E-02  0.1180000E+00
       11   -1    0    0    0    0  0.00000000000E+00  0.00000000000E+00  0.39999999673E+01  0.40000000000E+01  0.51109989000E-03 0. -1.
     -623   -1    0    0    0    0  0.00000000000E+00  0.00000000000E+00  0.12525980253E-10  0.17130000000E+03  0.17130000000E+03 0. -1.
       11    1    1    2    0    0  0.67173133566E-01  0.14908406183E+00  0.69882616183E+00  0.71770227326E+00  0.51109989000E-03 0. -1.
     -623    1    1    2    0    0 -0.22642046859E+00  0.40438606052E+00  0.44041189798E+00  0.17130119310E+03  0.17130000000E+03 0. -1.
      622    1    1    2    0    0  0.15924733502E+00 -0.55347012235E+00  0.28607619076E+01  0.32811046283E+01  0.15000000000E+01 0. -1.
</event>
<event>
 5   0  0.6596100E+00  0.9118800E+02  0.7818608E-02  0.1180000E+00
       11   -1    0    0    0    0  0.00000000000E+00  0.00000000000E+00  0.39999999673E+01  0.40000000000E+01  0.51109989000E-03 0.  1.
     -623   -1    0    0    0    0  0.00000000000E+00  0.00000000000E+00  0.12525980253E-10  0.17130000000E+03  0.17130000000E+03 0.  1.
       11    1    1    2    0    0 -0.16525262430E+00  0.13266294114E+00  0.16984876339E+00  0.27158193871E+00  0.51109989000E-03 0.  1.
     -623    1    1    2    0    0  0.14269382905E+00 -0.32925633274E+00  0.42350510102E+00  0.17130089938E+03  0.17130000000E+03 0.  1.
      622    1    1    2    0    0  0.22558795249E-01  0.19659339161E+00  0.34066461030E+01  0.37275186829E+01  0.15000000000E+01 0.  1.
</event>
<event>
 5   0  0.6596100E+00  0.9118800E+02  0.7818608E-02  0.1180000E+00
       11   -1    0    0    0    0  0.00000000000E+00  0.00000000000E+00  0.39999999673E+01  0.40000000000E+01  0.51109989000E-03 0. -1.
     -623   -1    0    0    0    0  0.00000000000E+00  0.00000000000E+00  0.12525980253E-10  0.17130000000E+03  0.17130000000E+03 0.  1.
       11    1    1    2    0    0 -0.80715254557E-01 -0.11963539741E+00  0.33055987465E-01  0.14805586838E+00  0.51109989000E-03 0. -1.
     -623    1    1    2    0    0  0.17056698219E+00 -0.14822421498E+00  0.43108127925E+00  0.17130069146E+03  0.17130000000E+03 0.  1.
      622    1    1    2    0    0 -0.89851727632E-01  0.26785961238E+00  0.35358627006E+01  0.38512526719E+01  0.15000000000E+01 0. -1.
</event>
<event>
 5   0  0.6596100E+00  0.9118800E+02  0.7818608E-02  0.1180000E+00
       11   -1    0    0    0    0  0.00000000000E+00  0.00000000000E+00  0.39999999673E+01  0.40000000000E+01  0.51109989000E-03 0.  1.
     -623   -1    0    0    0    0  0.00000000000E+00  0.00000000000E+00  0.12525980253E-10  0.17130000000E+03  0.17130000000E+03 0. -1.
       11    1    1    2    0    0  0.21471625459E+00  0.13555908892E+00 -0.16886757712E+00  0.30495221986E+00  0.51109989000E-03 0.  1.
     -623    1    1    2    0    0 -0.29727253640E+00 -0.44173807122E-01  0.79654172231E+00  0.17130211558E+03  0.17130000000E+03 0. -1.
      622    1    1    2    0    0  0.82556281806E-01 -0.91385281796E-01  0.33723258222E+01  0.36929322036E+01  0.15000000000E+01 0.  1.
</event>
<event>
 5   0  0.6596100E+00  0.9118800E+02  0.7818608E-02  0.1180000E+00
       11   -1    0    0    0    0  0.00000000000E+00  0.00000000000E+00  0.39999999673E+01  0.40000000000E+01  0.51109989000E-03 0. -1.
     -623   -1    0    0    0    0  0.00000000000E+00  0.00000000000E+00  0.12525980253E-10  0.17130000000E+03  0.17130000000E+03 0.  1.
       11    1    1    2    0    0  0.56089436662E-01 -0.53758904418E-01 -0.13281752304E-01  0.78820751561E-01  0.51109989000E-03 0. -1.
     -623    1    1    2    0    0 -0.19662897858E+00 -0.27162822858E-01  0.39459671056E+00  0.17130056949E+03  0.17130000000E+03 0.  1.
      622    1    1    2    0    0  0.14053954192E+00  0.80921727276E-01  0.36186850091E+01  0.39206097592E+01  0.15000000000E+01 0. -1.
</event>
<event>
 5   0  0.6596100E+00  0.9118800E+02  0.7818608E-02  0.1180000E+00
       11   -1    0    0    0    0  0.00000000000E+00  0.00000000000E+00  0.39999999673E+01  0.40000000000E+01  0.51109989000E-03 0.  1.
     -623   -1    0    0    0    0  0.00000000000E+00  0.00000000000E+00  0.12525980253E-10  0.17130000000E+03  0.17130000000E+03 0. -1.
       11    1    1    2    0    0  0.45384094477E-01 -0.21157440904E+00  0.26948098562E+00  0.34560629251E+00  0.51109989000E-03 0.  1.
     -623    1    1    2    0    0  0.91015357588E-01  0.12499108246E+00  0.40267839210E+00  0.17130054307E+03  0.17130000000E+03 0. -1.
      622    1    1    2    0    0 -0.13639945207E+00  0.86583326576E-01  0.33278405896E+01  0.36538506364E+01  0.15000000000E+01 0.  1.
</event>
<event>
 5   0  0.6596100E+00  0.9118800E+02  0.7818608E-02  0.1180000E+00
       11   -1    0    0    0    0  0.00000000000E+00  0.00000000000E+00  0.39999999673E+01  0.40000000000E+01  0.51109989000E-03 0.  1.
     -623   -1    0    0    0    0  0.00000000000E+00  0.00000000000E+00  0.12525980253E-10  0.17130000000E+03  0.17130000000E+03 0. -1.
       11    1    1    2    0    0 -0.20712421329E+00 -0.26645133832E-01  0.16046319236E+00  0.26336115927E+00  0.51109989000E-03 0.  1.
     -623    1    1    2    0    0  0.19278070727E+00  0.21031190469E+00  0.42298105629E+00  0.17130075980E+03  0.17130000000E+03 0. -1.
      622    1    1    2    0    0  0.14343506020E-01 -0.18366677086E+00  0.34165557187E+01  0.37358790395E+01  0.15000000000E+01 0.  1.
</event>
<event>
 5   0  0.6596100E+00  0.9118800E+02  0.7818608E-02  0.1180000E+00
       11   -1    0    0    0    0  0.00000000000E+00  0.00000000000E+00  0.39999999673E+01  0.40000000000E+01  0.51109989000E-03 0. -1.
     -623   -1    0    0    0    0  0.00000000000E+00  0.00000000000E+00  0.12525980253E-10  0.17130000000E+03  0.17130000000E+03 0. -1.
       11    1    1    2    0    0 -0.77987528168E-01 -0.10094413123E+00  0.87927205100E-01  0.15492974795E+00  0.51109989000E-03 0. -1.
     -623    1    1    2    0    0 -0.17303642303E-01  0.13917145274E-01  0.37445309395E+00  0.17130041071E+03  0.17130000000E+03 0. -1.
      622    1    1    2    0    0  0.95291170472E-01  0.87026985955E-01  0.35376196683E+01  0.38446595455E+01  0.15000000000E+01 0. -1.
</event>
<event>
 5   0  0.6596100E+00  0.9118800E+02  0.7818608E-02  0.1180000E+00
       11   -1    0    0    0    0  0.00000000000E+00  0.00000000000E+00  0.39999999673E+01  0.40000000000E+01  0.51109989000E-03 0. -1.
     -623   -1    0    0    0    0  0.00000000000E+00  0.00000000000E+00  0.12525980253E-10  0.17130000000E+03  0.17130000000E+03 0. -1.
       11    1    1    2    0    0  0.43475949738E+00 -0.28455390652E+00  0.14830816833E+00  0.54035388431E+00  0.51109989000E-03 0. -1.
     -623    1    1    2    0    0 -0.25850933698E+00 -0.19241182147E+00  0.77821387970E+00  0.17130207082E+03  0.17130000000E+03 0. -1.
      622    1    1    2    0    0 -0.17625016040E+00  0.47696572799E+00  0.30734779193E+01  0.34575752986E+01  0.15000000000E+01 0.  0.
</event>
<event>
 5   0  0.6596100E+00  0.9118800E+02  0.7818608E-02  0.1180000E+00
       11   -1    0    0    0    0  0.00000000000E+00  0.00000000000E+00  0.39999999673E+01  0.40000000000E+01  0.51109989000E-03 0.  1.
     -623   -1    0    0    0    0  0.00000000000E+00  0.00000000000E+00  0.12525980253E-10  0.17130000000E+03  0.17130000000E+03 0.  1.
       11    1    1    2    0    0 -0.79772233579E-02 -0.69015576937E-01  0.26358480245E-01  0.74308927146E-01  0.51109989000E-03 0.  1.
     -623    1    1    2    0    0 -0.23348765794E+00  0.42609727969E+00  0.37271865771E+00  0.17130109455E+03  0.17130000000E+03 0.  1.
      622    1    1    2    0    0  0.24146488129E+00 -0.35708170275E+00  0.36009228294E+01  0.39245965213E+01  0.15000000000E+01 0.  1.
</event>
<event>
 5   0  0.6596100E+00  0.9118800E+02  0.7818608E-02  0.1180000E+00
       11   -1    0    0    0    0  0.00000000000E+00  0.00000000000E+00  0.39999999673E+01  0.40000000000E+01  0.51109989000E-03 0. -1.
     -623   -1    0    0    0    0  0.00000000000E+00  0.00000000000E+00  0.12525980253E-10  0.17130000000E+03  0.17130000000E+03 0.  1.
       11    1    1    2    0    0  0.28967072124E+00  0.26892529187E+00  0.48219147055E-01  0.39819001333E+00  0.51109989000E-03 0. -1.
     -623    1    1    2    0    0  0.57619660916E+00 -0.47750587022E+00  0.80465086505E+00  0.17130352442E+03  0.17130000000E+03 0.  1.
      622    1    1    2    0    0 -0.86586733040E+00  0.20858057835E+00  0.31471299553E+01  0.35982855705E+01  0.15000000000E+01 0. -1.
</event>
<event>
 5   0  0.6596100E+00  0.9118800E+02  0.7818608E-02  0.1180000E+00
       11   -1    0    0    0    0  0.00000000000E+00  0.00000000000E+00  0.39999999673E+01  0.40000000000E+01  0.51109989000E-03 0.  1.
     -623   -1    0    0    0    0  0.00000000000E+00  0.00000000000E+00  0.12525980253E-10  0.17130000000E+03  0.17130000000E+03 0.  1.
       11    1    1    2    0    0  0.22440613624E+00 -0.20797275802E+00  0.14887403549E+00  0.34025655280E+00  0.51109989000E-03 0.  1.
     -623    1    1    2    0    0 -0.38145989756E-01  0.46083541889E+00  0.52929839559E+00  0.17130144185E+03  0.17130000000E+03 0.  1.
      622    1    1    2    0    0 -0.18626014648E+00 -0.25286266087E+00  0.33218275363E+01  0.36583015934E+01  0.15000000000E+01 0.  1.
</event>
<event>
 5   0  0.6596100E+00  0.9118800E+02  0.7818608E-02  0.1180000E+00
       11   -1    0    0    0    0  0.00000000000E+00  0.00000000000E+00  0.39999999673E+01  0.40000000000E+01  0.51109989000E-03 0. -1.
     -623   -1    0    0    0    0  0.00000000000E+00  0.00000000000E+00  0.12525980253E-10  0.17130000000E+03  0.17130000000E+03 0.  1.
       11    1    1    2    0    0  0.27007306908E-01  0.14791637537E+00  0.11189519114E+00  0.18742850304E+00  0.51109989000E-03 0. -1.
     -623    1    1    2    0    0 -0.16586563369E+00 -0.35645069950E+00  0.39295712643E+00  0.17130090188E+03  0.17130000000E+03 0.  1.
      622    1    1    2    0    0  0.13885832678E+00  0.20853432413E+00  0.34951476498E+01  0.38116696201E+01  0.15000000000E+01 0. -1.
</event>
<event>
 5   0  0.6596100E+00  0.9118800E+02  0.7818608E-02  0.1180000E+00
       11   -1    0    0    0    0  0.00000000000E+00  0.00000000000E+00  0.39999999673E+01  0.40000000000E+01  0.51109989000E-03 0. -1.
     -623   -1    0    0    0    0  0.00000000000E+00  0.00000000000E+00  0.12525980253E-10  0.17130000000E+03  0.17130000000E+03 0. -1.
       11    1    1    2    0    0  0.69885117368E-01 -0.59449404430E+00  0.93767398117E+00  0.11124476862E+01  0.51109989000E-03 0. -1.
     -623    1    1    2    0    0 -0.48986654675E+00 -0.83682065954E-01  0.73026599794E+00  0.17130227745E+03  0.17130000000E+03 0. -1.
      622    1    1    2    0    0  0.41998142939E+00  0.67817611026E+00  0.23320599882E+01  0.28852748615E+01  0.15000000000E+01 0. -1.
</event>
<event>
 5   0  0.6596100E+00  0.9118800E+02  0.7818608E-02  0.1180000E+00
       11   -1    0    0    0    0  0.00000000000E+00  0.00000000000E+00  0.39999999673E+01  0.40000000000E+01  0.51109989000E-03 0.  1.
     -623   -1    0    0    0    0  0.00000000000E+00  0.00000000000E+00  0.12525980253E-10  0.17130000000E+03  0.17130000000E+03 0. -1.
       11    1    1    2    0    0 -0.70035737781E-01 -0.15065472250E+00  0.35405203837E+00  0.39109456283E+00  0.51109989000E-03 0.  1.
     -623    1    1    2    0    0 -0.61589821743E-01  0.13858916212E+00  0.36670866507E+00  0.17130045965E+03  0.17130000000E+03 0. -1.
      622    1    1    2    0    0  0.13162555952E+00  0.12065560378E-01  0.32792392639E+01  0.36084457895E+01  0.15000000000E+01 0.  1.
</event>
<event>
 5   0  0.6596100E+00  0.9118800E+02  0.7818608E-02  0.1180000E+00
       11   -1    0    0    0    0  0.00000000000E+00  0.00000000000E+00  0.39999999673E+01  0.40000000000E+01  0.51109989000E-03 0. -1.
     -623   -1    0    0    0    0  0.00000000000E+00  0.00000000000E+00  0.12525980253E-10  0.17130000000E+03  0.17130000000E+03 0.  1.
       11    1    1    2    0    0  0.95739979809E-02  0.30226477335E+00  0.55572241625E+00  0.63267947635E+00  0.51109989000E-03 0. -1.
     -623    1    1    2    0    0 -0.22202889137E+00 -0.81101766439E-01  0.44597974342E+00  0.17130074364E+03  0.17130000000E+03 0.  1.
      622    1    1    2    0    0  0.21245489339E+00 -0.22116300691E+00  0.29982978077E+01  0.33665768818E+01  0.15000000000E+01 0. -1.
</event>
<event>
 5   0  0.6596100E+00  0.9118800E+02  0.7818608E-02  0.1180000E+00
       11   -1    0    0    0    0  0.00000000000E+00  0.00000000000E+00  0.39999999673E+01  0.40000000000E+01  0.51109989000E-03 0.  1.
     -623   -1    0    0    0    0  0.00000000000E+00  0.00000000000E+00  0.12525980253E-10  0.17130000000E+03  0.17130000000E+03 0. -1.
       11    1    1    2    0    0 -0.22831230603E-02 -0.24423810214E+00  0.19028451135E+00  0.30962222089E+00  0.51109989000E-03 0.  1.
     -623    1    1    2    0    0 -0.32562042224E+00  0.26101239422E+00  0.45518542220E+00  0.17130111310E+03  0.17130000000E+03 0. -1.
      622    1    1    2    0    0  0.32790354530E+00 -0.16774292082E-01  0.33545300338E+01  0.36892646774E+01  0.15000000000E+01 0.  1.
</event>
<event>
 5   0  0.6596100E+00  0.9118800E+02  0.7818608E-02  0.1180000E+00
       11   -1    0    0    0    0  0.00000000000E+00  0.00000000000E+00  0.39999999673E+01  0.40000000000E+01  0.51109989000E-03 0. -1.
     -623   -1    0    0    0    0  0.00000000000E+00  0.00000000000E+00  0.12525980253E-10  0.17130000000E+03  0.17130000000E+03 0.  1.
       11    1    1    2    0    0  0.14199404117E+00 -0.42508967622E-01  0.42209375649E+00  0.44736195697E+00  0.51109989000E-03 0. -1.
     -623    1    1    2    0    0 -0.49024162948E-01 -0.30641403428E+00  0.37855035182E+00  0.17130069934E+03  0.17130000000E+03 0.  1.
      622    1    1    2    0    0 -0.92969878218E-01  0.34892300191E+00  0.31993558591E+01  0.35519387062E+01  0.15000000000E+01 0. -1.
</event>
<event>
 5   0  0.6596100E+00  0.9118800E+02  0.7818608E-02  0.1180000E+00
       11   -1    0    0    0    0  0.00000000000E+00  0.00000000000E+00  0.39999999673E+01  0.40000000000E+01  0.51109989000E-03 0.  1.
     -623   -1    0    0    0    0  0.00000000000E+00  0.00000000000E+00  0.12525980253E-10  0.17130000000E+03  0.17130000000E+03 0. -1.
       11    1    1    2    0    0  0.17860698857E-01 -0.90395043608E-01  0.44524443558E+00  0.45467915843E+00  0.51109989000E-03 0.  1.
     -623    1    1    2    0    0 -0.28939961239E+00  0.13477387086E-01  0.35549031734E+00  0.17130061386E+03  0.17130000000E+03 0. -1.
      622    1    1    2    0    0  0.27153891354E+00  0.76917656521E-01  0.31992652144E+01  0.35447069865E+01  0.15000000000E+01 0.  1.
</event>
<event>
 5   0  0.6596100E+00  0.9118800E+02  0.7818608E-02  0.1180000E+00
       11   -1    0    0    0    0  0.00000000000E+00  0.00000000000E+00  0.39999999673E+01  0.40000000000E+01  0.51109989000E-03 0.  1.
     -623   -1    0    0    0    0  0.00000000000E+00  0.00000000000E+00  0.12525980253E-10  0.17130000000E+03  0.17130000000E+03 0.  1.
       11    1    1    2    0    0  0.27097112719E+00  0.53832042573E-02  0.93350541242E-01  0.28665120867E+00  0.51109989000E-03 0.  1.
     -623    1    1    2    0    0  0.16686066018E+00 -0.21905248189E-01  0.53914659157E+00  0.17130093112E+03  0.17130000000E+03 0.  1.
      622    1    1    2    0    0 -0.43783178737E+00  0.16522043932E-01  0.33675028345E+01  0.37124176749E+01  0.15000000000E+01 0.  1.
</event>
<event>
 5   0  0.6596100E+00  0.9118800E+02  0.7818608E-02  0.1180000E+00
       11   -1    0    0    0    0  0.00000000000E+00  0.00000000000E+00  0.39999999673E+01  0.40000000000E+01  0.51109989000E-03 0.  1.
     -623   -1    0    0    0    0  0.00000000000E+00  0.00000000000E+00  0.12525980253E-10  0.17130000000E+03  0.17130000000E+03 0. -1.
       11    1    1    2    0    0 -0.18440538862E+00  0.59908191031E-01  0.63115870719E+00  0.66026957646E+00  0.51109989000E-03 0.  1.
     -623    1    1    2    0    0 -0.28516679396E+00 -0.39632803211E+00  0.44281086761E+00  0.17130126817E+03  0.17130000000E+03 0. -1.
      622    1    1    2    0    0  0.46957218259E+00  0.33641984108E+00  0.29260303926E+01  0.33384622511E+01  0.15000000000E+01 0.  1.
</event>
<event>
 5   0  0.6596100E+00  0.9118800E+02  0.7818608E-02  0.1180000E+00
       11   -1    0    0    0    0  0.00000000000E+00  0.00000000000E+00  0.39999999673E+01  0.40000000000E+01  0.51109989000E-03 0. -1.
     -623   -1    0    0    0    0  0.00000000000E+00  0.00000000000E+00  0.12525980253E-10  0.17130000000E+03  0.17130000000E+03 0.  1.
       11    1    1    2    0    0 -0.30508851790E-01  0.21471739972E+00  0.33493096564E+00  0.39901549437E+00  0.51109989000E-03 0. -1.
     -623    1    1    2    0    0 -0.20411022150E+00  0.15476606301E+00  0.42155071698E+00  0.17130071021E+03  0.17130000000E+03 0.  1.
      622    1    1    2    0    0  0.23461907329E+00 -0.36948346273E+00  0.32435182847E+01  0.36002742954E+01  0.15000000000E+01 0. -1.
</event>
<event>
 5   0  0.6596100E+00  0.9118800E+02  0.7818608E-02  0.1180000E+00
       11   -1    0    0    0    0  0.00000000000E+00  0.00000000000E+00  0.39999999673E+01  0.40000000000E+01  0.51109989000E-03 0.  1.
     -623   -1    0    0    0    0  0.00000000000E+00  0.00000000000E+00  0.12525980253E-10  0.17130000000E+03  0.17130000000E+03 0. -1.
       11    1    1    2    0    0 -0.87095976795E-01  0.14826054287E-01  0.25865240193E-01  0.92058638557E-01  0.51109989000E-03 0.  1.
     -623    1    1    2    0    0  0.14752213479E+00 -0.15934962215E+00  0.36951590755E+00  0.17130053618E+03  0.17130000000E+03 0. -1.
      622    1    1    2    0    0 -0.60426157999E-01  0.14452356787E+00  0.36046188196E+01  0.39074051770E+01  0.15000000000E+01 0.  1.
</event>
<event>
 5   0  0.6596100E+00  0.9118800E+02  0.7818608E-02  0.1180000E+00
       11   -1    0    0    0    0  0.00000000000E+00  0.00000000000E+00  0.39999999673E+01  0.40000000000E+01  0.51109989000E-03 0.  1.
     -623   -1    0    0    0    0  0.00000000000E+00  0.00000000000E+00  0.12525980253E-10  0.17130000000E+03  0.17130000000E+03 0.  1.
       11    1    1    2    0    0 -0.60414870974E-01 -0.91039898149E-01  0.49636196886E+00  0.50824569358E+00  0.51109989000E-03 0.  1.
     -623    1    1    2    0    0  0.45090126426E-01  0.56223547400E-01  0.35113389092E+00  0.17130037504E+03  0.17130000000E+03 0.  1.
      622    1    1    2    0    0  0.15324744548E-01  0.34816350749E-01  0.31525041076E+01  0.34913792653E+01  0.15000000000E+01 0.  1.
</event>
<event>
 5   0  0.6596100E+00  0.9118800E+02  0.7818608E-02  0.1180000E+00
       11   -1    0    0    0    0  0.00000000000E+00  0.00000000000E+00  0.39999999673E+01  0.40000000000E+01  0.51109989000E-03 0. -1.
     -623   -1    0    0    0    0  0.00000000000E+00  0.00000000000E+00  0.12525980253E-10  0.17130000000E+03  0.17130000000E+03 0. -1.
       11    1    1    2    0    0 -0.31324893130E-02  0.14769350882E+00  0.96298243299E-01  0.17634284199E+00  0.51109989000E-03 0. -1.
     -623    1    1    2    0    0 -0.33630124123E+00 -0.78792849945E-01  0.40454811191E+00  0.17130082593E+03  0.17130000000E+03 0. -1.
      622    1    1    2    0    0  0.33943373054E+00 -0.68900658875E-01  0.34991536121E+01  0.38228312230E+01  0.15000000000E+01 0. -1.
</event>
<event>
 5   0  0.6596100E+00  0.9118800E+02  0.7818608E-02  0.1180000E+00
       11   -1    0    0    0    0  0.00000000000E+00  0.00000000000E+00  0.39999999673E+01  0.40000000000E+01  0.51109989000E-03 0. -1.
     -623   -1    0    0    0    0  0.00000000000E+00  0.00000000000E+00  0.12525980253E-10  0.17130000000E+03  0.17130000000E+03 0.  1.
       11    1    1    2    0    0 -0.22761139378E+00 -0.17014612305E+00  0.41964685595E+00  0.50681396459E+00  0.51109989000E-03 0. -1.
     -623    1    1    2    0    0  0.43169123356E+00  0.77259928207E-01  0.43483315466E+00  0.17130111327E+03  0.17130000000E+03 0.  1.
      622    1    1    2    0    0 -0.20407983979E+00  0.92886194842E-01  0.31455199567E+01  0.34920727691E+01  0.15000000000E+01 0. -1.
</event>
<event>
 5   0  0.6596100E+00  0.9118800E+02  0.7818608E-02  0.1180000E+00
       11   -1    0    0    0    0  0.00000000000E+00  0.00000000000E+00  0.39999999673E+01  0.40000000000E+01  0.51109989000E-03 0. -1.
     -623   -1    0    0    0    0  0.00000000000E+00  0.00000000000E+00  0.12525980253E-10  0.17130000000E+03  0.17130000000E+03 0.  1.
       11    1    1    2    0    0  0.17755975206E+00  0.14485971477E+00  0.96997295202E-01  0.24883837930E+00  0.51109989000E-03 0. -1.
     -623    1    1    2    0    0  0.78645421520E-01  0.21859451539E+00  0.49464022275E+00  0.17130087168E+03  0.17130000000E+03 0.  1.
      622    1    1    2    0    0 -0.25620517358E+00 -0.36345423016E+00  0.34083624494E+01  0.37502899428E+01  0.15000000000E+01 0. -1.
</event>
<event>
 5   0  0.6596100E+00  0.9118800E+02  0.7818608E-02  0.1180000E+00
       11   -1    0    0    0    0  0.00000000000E+00  0.00000000000E+00  0.39999999673E+01  0.40000000000E+01  0.51109989000E-03 0. -1.
     -623   -1    0    0    0    0  0.00000000000E+00  0.00000000000E+00  0.12525980253E-10  0.17130000000E+03  0.17130000000E+03 0. -1.
       11    1    1    2    0    0 -0.42569092401E-01  0.22256182712E-01  0.42022431634E-01  0.63824848440E-01  0.51109989000E-03 0. -1.
     -623    1    1    2    0    0  0.13618437325E+00 -0.11206968077E+00  0.32155704131E+00  0.17130039260E+03  0.17130000000E+03 0. -1.
      622    1    1    2    0    0 -0.93615280850E-01  0.89813498055E-01  0.36364204944E+01  0.39357825521E+01  0.15000000000E+01 0. -1.
</event>
<event>
 5   0  0.6596100E+00  0.9118800E+02  0.7818608E-02  0.1180000E+00
       11   -1    0    0    0    0  0.00000000000E+00  0.00000000000E+00  0.39999999673E+01  0.40000000000E+01  0.51109989000E-03 0. -1.
     -623   -1    0    0    0    0  0.00000000000E+00  0.00000000000E+00  0.12525980253E-10  0.17130000000E+03  0.17130000000E+03 0. -1.
       11    1    1    2    0    0 -0.89989539101E-01 -0.55900753802E-01  0.11382509912E+00  0.15549734993E+00  0.51109989000E-03 0. -1.
     -623    1    1    2    0    0  0.11770863722E+00  0.23295404931E+00  0.35152034152E+00  0.17130055951E+03  0.17130000000E+03 0. -1.
      622    1    1    2    0    0 -0.27719098124E-01 -0.17705329550E+00  0.35346545267E+01  0.38439431371E+01  0.15000000000E+01 0. -1.
</event>
<event>
 5   0  0.6596100E+00  0.9118800E+02  0.7818608E-02  0.1180000E+00
       11   -1    0    0    0    0  0.00000000000E+00  0.00000000000E+00  0.39999999673E+01  0.40000000000E+01  0.51109989000E-03 0. -1.
     -623   -1    0    0    0    0  0.00000000000E+00  0.00000000000E+00  0.12525980253E-10  0.17130000000E+03  0.17130000000E+03 0. -1.
       11    1    1    2    0    0 -0.16051618510E-01  0.92030334372E-01 -0.16974619195E-01  0.94950702047E-01  0.51109989000E-03 0. -1.
     -623    1    1    2    0    0  0.10801951495E+00 -0.30367018048E+00  0.41978459931E+00  0.17130081758E+03  0.17130000000E+03 0. -1.
      622    1    1    2    0    0 -0.91967896439E-01  0.21163984611E+00  0.35971899872E+01  0.39042317199E+01  0.15000000000E+01 0. -1.
</event>
<event>
 5   0  0.6596100E+00  0.9118800E+02  0.7818608E-02  0.1180000E+00
       11   -1    0    0    0    0  0.00000000000E+00  0.00000000000E+00  0.39999999673E+01  0.40000000000E+01  0.51109989000E-03 0.  1.
     -623   -1    0    0    0    0  0.00000000000E+00  0.00000000000E+00  0.12525980253E-10  0.17130000000E+03  0.17130000000E+03 0.  1.
       11    1    1    2    0    0 -0.17225190960E+00 -0.63467548073E-01  0.94518786849E-01  0.20647738934E+00  0.51109989000E-03 0.  1.
     -623    1    1    2    0    0  0.13252651920E+00 -0.40961936562E+00  0.45486687006E+00  0.17130114493E+03  0.17130000000E+03 0.  1.
      622    1    1    2    0    0  0.39725390399E-01  0.47308691369E+00  0.34506143105E+01  0.37923776782E+01  0.15000000000E+01 0.  1.
</event>
<event>
 5   0  0.6596100E+00  0.9118800E+02  0.7818608E-02  0.1180000E+00
       11   -1    0    0    0    0  0.00000000000E+00  0.00000000000E+00  0.39999999673E+01  0.40000000000E+01  0.51109989000E-03 0. -1.
     -623   -1    0    0    0    0  0.00000000000E+00  0.00000000000E+00  0.12525980253E-10  0.17130000000E+03  0.17130000000E+03 0. -1.
       11    1    1    2    0    0 -0.30884067085E+00 -0.10961493653E-01  0.85773426008E+00  0.91170775825E+00  0.51109989000E-03 0. -1.
     -623    1    1    2    0    0  0.32340275582E+00 -0.10397772927E+00  0.44625830435E+00  0.17130091812E+03  0.17130000000E+03 0. -1.
      622    1    1    2    0    0 -0.14562084971E-01  0.11493922292E+00  0.26960074029E+01  0.30873741263E+01  0.15000000000E+01 0. -1.
</event>
<event>
 5   0  0.6596100E+00  0.9118800E+02  0.7818608E-02  0.1180000E+00
       11   -1    0    0    0    0  0.00000000000E+00  0.00000000000E+00  0.39999999673E+01  0.40000000000E+01  0.51109989000E-03 0.  1.
     -623   -1    0    0    0    0  0.00000000000E+00  0.00000000000E+00  0.12525980253E-10  0.17130000000E+03  0.17130000000E+03 0. -1.
       11    1    1    2    0    0  0.57520268541E+00 -0.32621507293E+00  0.62806846736E+00  0.91200036405E+00  0.51109989000E-03 0.  1.
     -623    1    1    2    0    0 -0.10241685221E+01  0.11369980499E+00  0.72420907809E+00  0.17130463020E+03  0.17130000000E+03 0. -1.
      622    1    1    2    0    0  0.44896583667E+00  0.21251526794E+00  0.26477224219E+01  0.30833694370E+01  0.15000000000E+01 0.  1.
</event>
<event>
 5   0  0.6596100E+00  0.9118800E+02  0.7818608E-02  0.1180000E+00
       11   -1    0    0    0    0  0.00000000000E+00  0.00000000000E+00  0.39999999673E+01  0.40000000000E+01  0.51109989000E-03 0.  1.
     -623   -1    0    0    0    0  0.00000000000E+00  0.00000000000E+00  0.12525980253E-10  0.17130000000E+03  0.17130000000E+03 0.  1.
       11    1    1    2    0    0 -0.26041097036E-01 -0.37464533022E-01  0.55454713971E-01  0.71813762555E-01  0.51109989000E-03 0.  1.
     -623    1    1    2    0    0  0.17099595476E+00  0.24358709180E+00  0.32339632495E+00  0.17130056380E+03  0.17130000000E+03 0.  1.
      622    1    1    2    0    0 -0.14495485773E+00 -0.20612255878E+00  0.36211489284E+01  0.39276224337E+01  0.15000000000E+01 0.  1.
</event>
<event>
 5   0  0.6596100E+00  0.9118800E+02  0.7818608E-02  0.1180000E+00
       11   -1    0    0    0    0  0.00000000000E+00  0.00000000000E+00  0.39999999673E+01  0.40000000000E+01  0.51109989000E-03 0. -1.
     -623   -1    0    0    0    0  0.00000000000E+00  0.00000000000E+00  0.12525980253E-10  0.17130000000E+03  0.17130000000E+03 0.  1.
       11    1    1    2    0    0 -0.92563816022E-01  0.13132764630E+00 -0.15280416271E-01  0.16139629197E+00  0.51109989000E-03 0. -1.
     -623    1    1    2    0    0 -0.32599110706E+00  0.17045641917E+00  0.52107070514E+00  0.17130118750E+03  0.17130000000E+03 0.  1.
      622    1    1    2    0    0  0.41855492308E+00 -0.30178406547E+00  0.34942096785E+01  0.38374162040E+01  0.15000000000E+01 0. -1.
</event>
<event>
 5   0  0.6596100E+00  0.9118800E+02  0.7818608E-02  0.1180000E+00
       11   -1    0    0    0    0  0.00000000000E+00  0.00000000000E+00  0.39999999673E+01  0.40000000000E+01  0.51109989000E-03 0.  1.
     -623   -1    0    0    0    0  0.00000000000E+00  0.00000000000E+00  0.12525980253E-10  0.17130000000E+03  0.17130000000E+03 0. -1.
       11    1    1    2    0    0 -0.42492689785E-01 -0.68681116152E-01 -0.81355533353E-02  0.81173720207E-01  0.51109989000E-03 0.  1.
     -623    1    1    2    0    0 -0.69766426212E-01 -0.32950649651E-01  0.39142052838E+00  0.17130046457E+03  0.17130000000E+03 0. -1.
      622    1    1    2    0    0  0.11225911600E+00  0.10163176580E+00  0.36167149923E+01  0.39183617062E+01  0.15000000000E+01 0.  1.
</event>
<event>
 5   0  0.6596100E+00  0.9118800E+02  0.7818608E-02  0.1180000E+00
       11   -1    0    0    0    0  0.00000000000E+00  0.00000000000E+00  0.39999999673E+01  0.40000000000E+01  0.51109989000E-03 0.  1.
     -623   -1    0    0    0    0  0.00000000000E+00  0.00000000000E+00  0.12525980253E-10  0.17130000000E+03  0.17130000000E+03 0.  1.
       11    1    1    2    0    0 -0.24986866418E+00  0.93529482311E-01  0.24965499861E+00  0.36539019274E+00  0.51109989000E-03 0.  1.
     -623    1    1    2    0    0  0.11543082275E+00 -0.34603375477E+00  0.45316786146E+00  0.17130098781E+03  0.17130000000E+03 0.  1.
      622    1    1    2    0    0  0.13443784143E+00  0.25250427246E+00  0.32971771073E+01  0.36336219971E+01  0.15000000000E+01 0.  1.
</event>
<event>
 5   0  0.6596100E+00  0.9118800E+02  0.7818608E-02  0.1180000E+00
       11   -1    0    0    0    0  0.00000000000E+00  0.00000000000E+00  0.39999999673E+01  0.40000000000E+01  0.51109989000E-03 0. -1.
     -623   -1    0    0    0    0  0.00000000000E+00  0.00000000000E+00  0.12525980253E-10  0.17130000000E+03  0.17130000000E+03 0.  1.
       11    1    1    2    0    0  0.73148904344E-01  0.60917529485E-01  0.55083186590E-01  0.10998239074E+00  0.51109989000E-03 0. -1.
     -623    1    1    2    0    0 -0.11986392905E-01 -0.43688344272E-01  0.35670505229E+00  0.17130037738E+03  0.17130000000E+03 0.  1.
      622    1    1    2    0    0 -0.61162511438E-01 -0.17229185213E-01  0.35882117285E+01  0.38896402284E+01  0.15000000000E+01 0. -1.
</event>
<event>
 5   0  0.6596100E+00  0.9118800E+02  0.7818608E-02  0.1180000E+00
       11   -1    0    0    0    0  0.00000000000E+00  0.00000000000E+00  0.39999999673E+01  0.40000000000E+01  0.51109989000E-03 0. -1.
     -623   -1    0    0    0    0  0.00000000000E+00  0.00000000000E+00  0.12525980253E-10  0.17130000000E+03  0.17130000000E+03 0. -1.
       11    1    1    2    0    0  0.86425257259E-01 -0.74201053613E-01  0.70283930917E-02  0.11412616256E+00  0.51109989000E-03 0. -1.
     -623    1    1    2    0    0 -0.39071309460E+00  0.74615668655E-01  0.42228666853E+00  0.17130098234E+03  0.17130000000E+03 0. -1.
      622    1    1    2    0    0  0.30428783734E+00 -0.41461504185E-03  0.35706849057E+01  0.38848914986E+01  0.15000000000E+01 0. -1.
</event>
<event>
 5   0  0.6596100E+00  0.9118800E+02  0.7818608E-02  0.1180000E+00
       11   -1    0    0    0    0  0.00000000000E+00  0.00000000000E+00  0.39999999673E+01  0.40000000000E+01  0.51109989000E-03 0. -1.
     -623   -1    0    0    0    0  0.00000000000E+00  0.00000000000E+00  0.12525980253E-10  0.17130000000E+03  0.17130000000E+03 0.  1.
       11    1    1    2    0    0  0.35551255005E-02  0.12460698629E+00  0.15272974144E+00  0.19714506104E+00  0.51109989000E-03 0. -1.
     -623    1    1    2    0    0  0.20874980218E-01 -0.19842883253E+00  0.35413531368E+00  0.17130048226E+03  0.17130000000E+03 0.  1.
      622    1    1    2    0    0 -0.24430105719E-01  0.73821846238E-01  0.34931349122E+01  0.38023726817E+01  0.15000000000E+01 0. -1.
</event>
<event>
 5   0  0.6596100E+00  0.9118800E+02  0.7818608E-02  0.1180000E+00
       11   -1    0    0    0    0  0.00000000000E+00  0.00000000000E+00  0.39999999673E+01  0.40000000000E+01  0.51109989000E-03 0. -1.
     -623   -1    0    0    0    0  0.00000000000E+00  0.00000000000E+00  0.12525980253E-10  0.17130000000E+03  0.17130000000E+03 0.  1.
       11    1    1    2    0    0  0.11058748635E+00 -0.17833700065E+00  0.36821948372E+00  0.42381544020E+00  0.51109989000E-03 0. -1.
     -623    1    1    2    0    0 -0.78544058404E-01 -0.22245136588E+00  0.41110537550E+00  0.17130065575E+03  0.17130000000E+03 0.  1.
      622    1    1    2    0    0 -0.32043427947E-01  0.40078836653E+00  0.32206751081E+01  0.35755288068E+01  0.15000000000E+01 0. -1.
</event>
<event>
 5   0  0.6596100E+00  0.9118800E+02  0.7818608E-02  0.1180000E+00
       11   -1    0    0    0    0  0.00000000000E+00  0.00000000000E+00  0.39999999673E+01  0.40000000000E+01  0.51109989000E-03 0.  1.
     -623   -1    0    0    0    0  0.00000000000E+00  0.00000000000E+00  0.12525980253E-10  0.17130000000E+03  0.17130000000E+03 0. -1.
       11    1    1    2    0    0 -0.26677255216E+00  0.15762652594E+00  0.21769720433E+00  0.37868991307E+00  0.51109989000E-03 0.  1.
     -623    1    1    2    0    0 -0.23493014679E+00  0.22714773956E+00  0.54880516851E+00  0.17130119082E+03  0.17130000000E+03 0. -1.
      622    1    1    2    0    0  0.50170269894E+00 -0.38477426550E+00  0.32334975945E+01  0.36201192698E+01  0.15000000000E+01 0.  1.
</event>
<event>
 5   0  0.6596100E+00  0.9118800E+02  0.7818608E-02  0.1180000E+00
       11   -1    0    0    0    0  0.00000000000E+00  0.00000000000E+00  0.39999999673E+01  0.40000000000E+01  0.51109989000E-03 0. -1.
     -623   -1    0    0    0    0  0.00000000000E+00  0.00000000000E+00  0.12525980253E-10  0.17130000000E+03  0.17130000000E+03 0.  1.
       11    1    1    2    0    0 -0.15696547872E+00 -0.17868720172E+00  0.15601243388E-01  0.23835045120E+00  0.51109989000E-03 0. -1.
     -623    1    1    2    0    0 -0.76495013986E-01 -0.36884882647E-01  0.55041825864E+00  0.17130090535E+03  0.17130000000E+03 0.  1.
      622    1    1    2    0    0  0.23346049270E+00  0.21557208436E+00  0.34339804653E+01  0.37607442031E+01  0.15000000000E+01 0. -1.
</event>
<event>
 5   0  0.6596100E+00  0.9118800E+02  0.7818608E-02  0.1180000E+00
       11   -1    0    0    0    0  0.00000000000E+00  0.00000000000E+00  0.39999999673E+01  0.40000000000E+01  0.51109989000E-03 0.  1.
     -623   -1    0    0    0    0  0.00000000000E+00  0.00000000000E+00  0.12525980253E-10  0.17130000000E+03  0.17130000000E+03 0. -1.
       11    1    1    2    0    0  0.22409766240E+00  0.28917453337E+00  0.44149700114E+00  0.57337730708E+00  0.51109989000E-03 0.  1.
     -623    1    1    2    0    0  0.34800282808E+00 -0.26891275081E+00  0.53286476649E+00  0.17130139335E+03  0.17130000000E+03 0. -1.
      622    1    1    2    0    0 -0.57210049048E+00 -0.20261782553E-01  0.30256381997E+01  0.34252293393E+01  0.15000000000E+01 0.  1.
</event>
<event>
 5   0  0.6596100E+00  0.9118800E+02  0.7818608E-02  0.1180000E+00
       11   -1    0    0    0    0  0.00000000000E+00  0.00000000000E+00  0.39999999673E+01  0.40000000000E+01  0.51109989000E-03 0. -1.
     -623   -1    0    0    0    0  0.00000000000E+00  0.00000000000E+00  0.12525980253E-10  0.17130000000E+03  0.17130000000E+03 0.  1.
       11    1    1    2    0    0  0.73416112366E-01  0.99009285009E-01 -0.56447311219E-01  0.13557036638E+00  0.51109989000E-03 0. -1.
     -623    1    1    2    0    0 -0.26503706878E-01 -0.35461609057E+00  0.50572064149E+00  0.17130111561E+03  0.17130000000E+03 0.  1.
      622    1    1    2    0    0 -0.46912405488E-01  0.25560680556E+00  0.35507266371E+01  0.38633140261E+01  0.15000000000E+01 0. -1.
</event>
<event>
 5   0  0.6596100E+00  0.9118800E+02  0.7818608E-02  0.1180000E+00
       11   -1    0    0    0    0  0.00000000000E+00  0.00000000000E+00  0.39999999673E+01  0.40000000000E+01  0.51109989000E-03 0. -1.
     -623   -1    0    0    0    0  0.00000000000E+00  0.00000000000E+00  0.12525980253E-10  0.17130000000E+03  0.17130000000E+03 0.  1.
       11    1    1    2    0    0  0.14212261075E+00 -0.68738482114E-01  0.41033767937E+00  0.43966019577E+00  0.51109989000E-03 0. -1.
     -623    1    1    2    0    0  0.35096666221E+00  0.19346024552E-01  0.39990497039E+00  0.17130082742E+03  0.17130000000E+03 0.  1.
      622    1    1    2    0    0 -0.49308927295E+00  0.49392457562E-01  0.31897573176E+01  0.35595123811E+01  0.15000000000E+01 0. -1.
</event>
<event>
 5   0  0.6596100E+00  0.9118800E+02  0.7818608E-02  0.1180000E+00
       11   -1    0    0    0    0  0.00000000000E+00  0.00000000000E+00  0.39999999673E+01  0.40000000000E+01  0.51109989000E-03 0.  1.
     -623   -1    0    0    0    0  0.00000000000E+00  0.00000000000E+00  0.12525980253E-10  0.17130000000E+03  0.17130000000E+03 0. -1.
       11    1    1    2    0    0 -0.18027991025E+00 -0.10876036621E+00  0.30878971421E+00  0.37373923010E+00  0.51109989000E-03 0.  1.
     -623    1    1    2    0    0 -0.47883093669E-01  0.36751299940E+00  0.40878562001E+00  0.17130088869E+03  0.17130000000E+03 0. -1.
      622    1    1    2    0    0  0.22816300392E+00 -0.25875263319E+00  0.32824246331E+01  0.36253720849E+01  0.15000000000E+01 0.  1.
</event>
<event>
 5   0  0.6596100E+00  0.9118800E+02  0.7818608E-02  0.1180000E+00
       11   -1    0    0    0    0  0.00000000000E+00  0.00000000000E+00  0.39999999673E+01  0.40000000000E+01  0.51109989000E-03 0. -1.
     -623   -1    0    0    0    0  0.00000000000E+00  0.00000000000E+00  0.12525980253E-10  0.17130000000E+03  0.17130000000E+03 0.  1.
       11    1    1    2    0    0 -0.27397792858E-01 -0.64496313584E-01 -0.55603133454E-02  0.70296456717E-01  0.51109989000E-03 0. -1.
     -623    1    1    2    0    0  0.89642509650E-01 -0.29559313785E-01  0.37562804163E+00  0.17130043785E+03  0.17130000000E+03 0.  1.
      622    1    1    2    0    0 -0.62244716792E-01  0.94055627368E-01  0.36299322391E+01  0.39292656981E+01  0.15000000000E+01 0. -1.
</event>
<event>
 5   0  0.6596100E+00  0.9118800E+02  0.7818608E-02  0.1180000E+00
       11   -1    0    0    0    0  0.00000000000E+00  0.00000000000E+00  0.39999999673E+01  0.40000000000E+01  0.51109989000E-03 0.  1.
     -623   -1    0    0    0    0  0.00000000000E+00  0.00000000000E+00  0.12525980253E-10  0.17130000000E+03  0.17130000000E+03 0.  1.
       11    1    1    2    0    0 -0.11100261202E+00 -0.20743461967E+00  0.99101598937E-01  0.25528824777E+00  0.51109989000E-03 0.  1.
     -623    1    1    2    0    0  0.76656914862E-01  0.14553183755E+00  0.47126155697E+00  0.17130072721E+03  0.17130000000E+03 0.  1.
      622    1    1    2    0    0  0.34345697158E-01  0.61902782117E-01  0.34296368115E+01  0.37439845405E+01  0.15000000000E+01 0.  1.
</event>
<event>
 5   0  0.6596100E+00  0.9118800E+02  0.7818608E-02  0.1180000E+00
       11   -1    0    0    0    0  0.00000000000E+00  0.00000000000E+00  0.39999999673E+01  0.40000000000E+01  0.51109989000E-03 0.  1.
     -623   -1    0    0    0    0  0.00000000000E+00  0.00000000000E+00  0.12525980253E-10  0.17130000000E+03  0.17130000000E+03 0. -1.
       11    1    1    2    0    0 -0.11047143171E+00 -0.61767167515E-01  0.51964476013E-01  0.13681991155E+00  0.51109989000E-03 0.  1.
     -623    1    1    2    0    0 -0.14347565103E+00  0.22036281567E+00  0.40130066284E+00  0.17130067188E+03  0.17130000000E+03 0. -1.
      622    1    1    2    0    0  0.25394708274E+00 -0.15859564816E+00  0.35467348285E+01  0.38625082064E+01  0.15000000000E+01 0.  1.
</event>
<event>
 5   0  0.6596100E+00  0.9118800E+02  0.7818608E-02  0.1180000E+00
       11   -1    0    0    0    0  0.00000000000E+00  0.00000000000E+00  0.39999999673E+01  0.40000000000E+01  0.51109989000E-03 0. -1.
     -623   -1    0    0    0    0  0.00000000000E+00  0.00000000000E+00  0.12525980253E-10  0.17130000000E+03  0.17130000000E+03 0.  1.
       11    1    1    2    0    0  0.17928822449E+00  0.74801423816E-01  0.43550449884E+00  0.47686890251E+00  0.51109989000E-03 0. -1.
     -623    1    1    2    0    0 -0.69522084067E+00  0.12919122175E-01  0.42204936248E+00  0.17130193118E+03  0.17130000000E+03 0.  1.
      622    1    1    2    0    0  0.51593261618E+00 -0.87720545991E-01  0.31424461060E+01  0.35211999216E+01  0.15000000000E+01 0. -1.
</event>
<event>
 5   0  0.6596100E+00  0.9118800E+02  0.7818608E-02  0.1180000E+00
       11   -1    0    0    0    0  0.00000000000E+00  0.00000000000E+00  0.39999999673E+01  0.40000000000E+01  0.51109989000E-03 0.  1.
     -623   -1    0    0    0    0  0.00000000000E+00  0.00000000000E+00  0.12525980253E-10  0.17130000000E+03  0.17130000000E+03 0. -1.
       11    1    1    2    0    0  0.10207956633E+00  0.17551174708E+00  0.46307143399E+00  0.50562834714E+00  0.51109989000E-03 0.  1.
     -623    1    1    2    0    0 -0.61627821064E-01 -0.31414237341E+00  0.38499820513E+00  0.17130073178E+03  0.17130000000E+03 0. -1.
      622    1    1    2    0    0 -0.40451745269E-01  0.13863062634E+00  0.31519303282E+01  0.34936398767E+01  0.15000000000E+01 0.  1.
</event>
<event>
 5   0  0.6596100E+00  0.9118800E+02  0.7818608E-02  0.1180000E+00
       11   -1    0    0    0    0  0.00000000000E+00  0.00000000000E+00  0.39999999673E+01  0.40000000000E+01  0.51109989000E-03 0. -1.
     -623   -1    0    0    0    0  0.00000000000E+00  0.00000000000E+00  0.12525980253E-10  0.17130000000E+03  0.17130000000E+03 0. -1.
       11    1    1    2    0    0  0.38280940412E+00  0.31761101122E-02  0.24852039284E+00  0.45641622938E+00  0.51109989000E-03 0. -1.
     -623    1    1    2    0    0 -0.11164858036E+00  0.18777407372E+00  0.55937417429E+00  0.17130105261E+03  0.17130000000E+03 0. -1.
      622    1    1    2    0    0 -0.27116082377E+00 -0.19095018384E+00  0.31921054002E+01  0.35425311645E+01  0.15000000000E+01 0. -1.
</event>
<event>
 5   0  0.6596100E+00  0.9118800E+02  0.7818608E-02  0.1180000E+00
       11   -1    0    0    0    0  0.00000000000E+00  0.00000000000E+00  0.39999999673E+01  0.40000000000E+01  0.51109989000E-03 0.  1.
     -623   -1    0    0    0    0  0.00000000000E+00  0.00000000000E+00  0.12525980253E-10  0.17130000000E+03  0.17130000000E+03 0.  1.
       11    1    1    2    0    0  0.37744736073E-01  0.37067084492E-01 -0.16262515870E-01  0.55347669323E-01  0.51109989000E-03 0.  1.
     -623    1    1    2    0    0  0.20884339918E+00  0.68174501266E-01  0.37840706448E+00  0.17130055883E+03  0.17130000000E+03 0.  1.
      622    1    1    2    0    0 -0.24658813525E+00 -0.10524158576E+00  0.36378554187E+01  0.39440935014E+01  0.15000000000E+01 0.  1.
</event>
<event>
 5   0  0.6596100E+00  0.9118800E+02  0.7818608E-02  0.1180000E+00
       11   -1    0    0    0    0  0.00000000000E+00  0.00000000000E+00  0.39999999673E+01  0.40000000000E+01  0.51109989000E-03 0. -1.
     -623   -1    0    0    0    0  0.00000000000E+00  0.00000000000E+00  0.12525980253E-10  0.17130000000E+03  0.17130000000E+03 0. -1.
       11    1    1    2    0    0 -0.31894881050E-01 -0.53822138134E-01  0.41299846208E+00  0.41771054200E+00  0.51109989000E-03 0. -1.
     -623    1    1    2    0    0 -0.44455796883E+00  0.24176988873E+00  0.37574636056E+00  0.17130115957E+03  0.17130000000E+03 0. -1.
      622    1    1    2    0    0  0.47645284988E+00 -0.18794775060E+00  0.32112551447E+01  0.35811298887E+01  0.15000000000E+01 0. -1.
</event>
<event>
 5   0  0.6596100E+00  0.9118800E+02  0.7818608E-02  0.1180000E+00
       11   -1    0    0    0    0  0.00000000000E+00  0.00000000000E+00  0.39999999673E+01  0.40000000000E+01  0.51109989000E-03 0. -1.
     -623   -1    0    0    0    0  0.00000000000E+00  0.00000000000E+00  0.12525980253E-10  0.17130000000E+03  0.17130000000E+03 0. -1.
       11    1    1    2    0    0  0.64832359563E-01 -0.99141016471E-01  0.56250562015E+00  0.57484346558E+00  0.51109989000E-03 0. -1.
     -623    1    1    2    0    0  0.13543719774E+00  0.29963291974E+00  0.37212943248E+00  0.17130071980E+03  0.17130000000E+03 0. -1.
      622    1    1    2    0    0 -0.20026955731E+00 -0.20049190327E+00  0.30653649147E+01  0.34244367361E+01  0.15000000000E+01 0. -1.
</event>
<event>
 5   0  0.6596100E+00  0.9118800E+02  0.7818608E-02  0.1180000E+00
       11   -1    0    0    0    0  0.00000000000E+00  0.00000000000E+00  0.39999999673E+01  0.40000000000E+01  0.51109989000E-03 0. -1.
     -623   -1    0    0    0    0  0.00000000000E+00  0.00000000000E+00  0.12525980253E-10  0.17130000000E+03  0.17130000000E+03 0.  1.
       11    1    1    2    0    0  0.98107629765E-01  0.12795263287E+00  0.69881671623E+00  0.71717644090E+00  0.51109989000E-03 0. -1.
     -623    1    1    2    0    0 -0.50502401903E+00  0.24924785474E+00  0.43598685106E+00  0.17130148061E+03  0.17130000000E+03 0.  1.
      622    1    1    2    0    0  0.40691638926E+00 -0.37720048761E+00  0.28651964001E+01  0.32813429517E+01  0.15000000000E+01 0. -1.
</event>
<event>
 5   0  0.6596100E+00  0.9118800E+02  0.7818608E-02  0.1180000E+00
       11   -1    0    0    0    0  0.00000000000E+00  0.00000000000E+00  0.39999999673E+01  0.40000000000E+01  0.51109989000E-03 0. -1.
     -623   -1    0    0    0    0  0.00000000000E+00  0.00000000000E+00  0.12525980253E-10  0.17130000000E+03  0.17130000000E+03 0. -1.
       11    1    1    2    0    0 -0.11816826041E+00  0.22167267299E-01  0.30845832404E+00  0.33106181356E+00  0.51109989000E-03 0. -1.
     -623    1    1    2    0    0  0.59876873497E-01 -0.26560860335E+00  0.35325080873E+00  0.17130058062E+03  0.17130000000E+03 0. -1.
      622    1    1    2    0    0  0.58291386909E-01  0.24344133606E+00  0.33382908346E+01  0.36683575707E+01  0.15000000000E+01 0. -1.
</event>
<event>
 5   0  0.6596100E+00  0.9118800E+02  0.7818608E-02  0.1180000E+00
       11   -1    0    0    0    0  0.00000000000E+00  0.00000000000E+00  0.39999999673E+01  0.40000000000E+01  0.51109989000E-03 0. -1.
     -623   -1    0    0    0    0  0.00000000000E+00  0.00000000000E+00  0.12525980253E-10  0.17130000000E+03  0.17130000000E+03 0. -1.
       11    1    1    2    0    0  0.21226340155E-01  0.41499275802E-01  0.97105129073E-01  0.10771450562E+00  0.51109989000E-03 0. -1.
     -623    1    1    2    0    0 -0.30250325320E+00  0.24046137895E+00  0.33423444097E+00  0.17130076194E+03  0.17130000000E+03 0. -1.
      622    1    1    2    0    0  0.28127691304E+00 -0.28196065475E+00  0.35686603973E+01  0.38915235505E+01  0.15000000000E+01 0. -1.
</event>
<event>
 5   0  0.6596100E+00  0.9118800E+02  0.7818608E-02  0.1180000E+00
       11   -1    0    0    0    0  0.00000000000E+00  0.00000000000E+00  0.39999999673E+01  0.40000000000E+01  0.51109989000E-03 0. -1.
     -623   -1    0    0    0    0  0.00000000000E+00  0.00000000000E+00  0.12525980253E-10  0.17130000000E+03  0.17130000000E+03 0.  1.
       11    1    1    2    0    0 -0.10509120094E+00 -0.73642256891E-01  0.11729349190E+00  0.17385444193E+00  0.51109989000E-03 0. -1.
     -623    1    1    2    0    0  0.25169084398E+00  0.53432089162E-01  0.36659929207E+00  0.17130058552E+03  0.17130000000E+03 0.  1.
      622    1    1    2    0    0 -0.14659964303E+00  0.20210167729E-01  0.35161071834E+01  0.38255600415E+01  0.15000000000E+01 0. -1.
</event>
<event>
 5   0  0.6596100E+00  0.9118800E+02  0.7818608E-02  0.1180000E+00
       11   -1    0    0    0    0  0.00000000000E+00  0.00000000000E+00  0.39999999673E+01  0.40000000000E+01  0.51109989000E-03 0.  1.
     -623   -1    0    0    0    0  0.00000000000E+00  0.00000000000E+00  0.12525980253E-10  0.17130000000E+03  0.17130000000E+03 0. -1.
       11    1    1    2    0    0  0.16222034562E+00 -0.31421165803E-01  0.39137880634E+00  0.42482980295E+00  0.51109989000E-03 0.  1.
     -623    1    1    2    0    0 -0.11696739849E+00  0.52145260797E-01  0.36420223782E+00  0.17130043504E+03  0.17130000000E+03 0. -1.
      622    1    1    2    0    0 -0.45252947128E-01 -0.20724094994E-01  0.32444189232E+01  0.35747351603E+01  0.15000000000E+01 0.  1.
</event>
<event>
 5   0  0.6596100E+00  0.9118800E+02  0.7818608E-02  0.1180000E+00
       11   -1    0    0    0    0  0.00000000000E+00  0.00000000000E+00  0.39999999673E+01  0.40000000000E+01  0.51109989000E-03 0. -1.
     -623   -1    0    0    0    0  0.00000000000E+00  0.00000000000E+00  0.12525980253E-10  0.17130000000E+03  0.17130000000E+03 0.  1.
       11    1    1    2    0    0 -0.11330893222E+00 -0.17786925876E+00  0.40396712668E-01  0.21472899885E+00  0.51109989000E-03 0. -1.
     -623    1    1    2    0    0  0.36168934767E+00  0.57373809268E+00  0.51812399712E+00  0.17130212622E+03  0.17130000000E+03 0.  1.
      622    1    1    2    0    0 -0.24838041545E+00 -0.39586883393E+00  0.34414792576E+01  0.37831447824E+01  0.15000000000E+01 0. -1.
</event>
<event>
 5   0  0.6596100E+00  0.9118800E+02  0.7818608E-02  0.1180000E+00
       11   -1    0    0    0    0  0.00000000000E+00  0.00000000000E+00  0.39999999673E+01  0.40000000000E+01  0.51109989000E-03 0. -1.
     -623   -1    0    0    0    0  0.00000000000E+00  0.00000000000E+00  0.12525980253E-10  0.17130000000E+03  0.17130000000E+03 0. -1.
       11    1    1    2    0    0  0.52116854763E-01  0.50742692288E-01  0.11652478775E-01  0.73668370796E-01  0.51109989000E-03 0. -1.
     -623    1    1    2    0    0  0.85960072692E-02  0.89844904949E-01  0.36351455743E+00  0.17130040948E+03  0.17130000000E+03 0. -1.
      622    1    1    2    0    0 -0.60712862033E-01 -0.14058759724E+00  0.36248329312E+01  0.39259221468E+01  0.15000000000E+01 0. -1.
</event>
<event>
 5   0  0.6596100E+00  0.9118800E+02  0.7818608E-02  0.1180000E+00
       11   -1    0    0    0    0  0.00000000000E+00  0.00000000000E+00  0.39999999673E+01  0.40000000000E+01  0.51109989000E-03 0. -1.
     -623   -1    0    0    0    0  0.00000000000E+00  0.00000000000E+00  0.12525980253E-10  0.17130000000E+03  0.17130000000E+03 0.  1.
       11    1    1    2    0    0 -0.25712290170E-01  0.52507434683E-01 -0.19233953510E-01  0.61549644625E-01  0.51109989000E-03 0. -1.
     -623    1    1    2    0    0  0.11152735857E+00 -0.79131529203E-01  0.37923642508E+00  0.17130047437E+03  0.17130000000E+03 0.  1.
      622    1    1    2    0    0 -0.85815068396E-01  0.26624094521E-01  0.36399974958E+01  0.39379759824E+01  0.15000000000E+01 0. -1.
</event>
<event>
 5   0  0.6596100E+00  0.9118800E+02  0.7818608E-02  0.1180000E+00
       11   -1    0    0    0    0  0.00000000000E+00  0.00000000000E+00  0.39999999673E+01  0.40000000000E+01  0.51109989000E-03 0.  1.
     -623   -1    0    0    0    0  0.00000000000E+00  0.00000000000E+00  0.12525980253E-10  0.17130000000E+03  0.17130000000E+03 0. -1.
       11    1    1    2    0    0 -0.10985356042E+00 -0.16976447124E+00  0.48227177970E-01  0.20787953808E+00  0.51109989000E-03 0.  1.
     -623    1    1    2    0    0 -0.24729225158E+00  0.13719222010E+00  0.48846337767E+00  0.17130092986E+03  0.17130000000E+03 0. -1.
      622    1    1    2    0    0  0.35714581199E+00  0.32572251143E-01  0.34633094117E+01  0.37911905998E+01  0.15000000000E+01 0.  1.
</event>
<event>
 5   0  0.6596100E+00  0.9118800E+02  0.7818608E-02  0.1180000E+00
       11   -1    0    0    0    0  0.00000000000E+00  0.00000000000E+00  0.39999999673E+01  0.40000000000E+01  0.51109989000E-03 0.  1.
     -623   -1    0    0    0    0  0.00000000000E+00  0.00000000000E+00  0.12525980253E-10  0.17130000000E+03  0.17130000000E+03 0. -1.
       11    1    1    2    0    0  0.55092074255E-01  0.17060544418E-01  0.15541879386E+00  0.16577533450E+00  0.51109989000E-03 0.  1.
     -623    1    1    2    0    0  0.56708792388E-01 -0.15134802134E+00  0.32068278454E+00  0.17130037641E+03  0.17130000000E+03 0. -1.
      622    1    1    2    0    0 -0.11180086664E+00  0.13428747692E+00  0.35238983890E+01  0.38338482516E+01  0.15000000000E+01 0.  1.
</event>
<event>
 5   0  0.6596100E+00  0.9118800E+02  0.7818608E-02  0.1180000E+00
       11   -1    0    0    0    0  0.00000000000E+00  0.00000000000E+00  0.39999999673E+01  0.40000000000E+01  0.51109989000E-03 0. -1.
     -623   -1    0    0    0    0  0.00000000000E+00  0.00000000000E+00  0.12525980253E-10  0.17130000000E+03  0.17130000000E+03 0.  1.
       11    1    1    2    0    0 -0.42853026059E+00  0.21097546220E+00  0.13006939076E+00  0.49504256132E+00  0.51109989000E-03 0. -1.
     -623    1    1    2    0    0  0.26164635975E+00 -0.11548104034E-02  0.71541291946E+00  0.17130169373E+03  0.17130000000E+03 0.  1.
      622    1    1    2    0    0  0.16688390083E+00 -0.20982065180E+00  0.31545176571E+01  0.35032637057E+01  0.15000000000E+01 0.  0.
</event>
<event>
 5   0  0.6596100E+00  0.9118800E+02  0.7818608E-02  0.1180000E+00
       11   -1    0    0    0    0  0.00000000000E+00  0.00000000000E+00  0.39999999673E+01  0.40000000000E+01  0.51109989000E-03 0.  1.
     -623   -1    0    0    0    0  0.00000000000E+00  0.00000000000E+00  0.12525980253E-10  0.17130000000E+03  0.17130000000E+03 0.  1.
       11    1    1    2    0    0  0.43637043661E-01  0.43471913763E-01  0.20346882496E+00  0.21258838825E+00  0.51109989000E-03 0.  1.
     -623    1    1    2    0    0 -0.11966755730E+00 -0.43444434517E+00  0.34272732656E+00  0.17130093556E+03  0.17130000000E+03 0.  1.
      622    1    1    2    0    0  0.76030513643E-01  0.39097243141E+00  0.34538038158E+01  0.37864760503E+01  0.15000000000E+01 0.  1.
</event>
<event>
 5   0  0.6596100E+00  0.9118800E+02  0.7818608E-02  0.1180000E+00
       11   -1    0    0    0    0  0.00000000000E+00  0.00000000000E+00  0.39999999673E+01  0.40000000000E+01  0.51109989000E-03 0. -1.
     -623   -1    0    0    0    0  0.00000000000E+00  0.00000000000E+00  0.12525980253E-10  0.17130000000E+03  0.17130000000E+03 0.  1.
       11    1    1    2    0    0 -0.90939227160E-02  0.17760734505E-01  0.37280417384E-01  0.42287514280E-01  0.51109989000E-03 0. -1.
     -623    1    1    2    0    0  0.91338983287E-01  0.67641603281E-01  0.30252591816E+00  0.17130030485E+03  0.17130000000E+03 0.  1.
      622    1    1    2    0    0 -0.82245060571E-01 -0.85402337787E-01  0.36601936318E+01  0.39574076403E+01  0.15000000000E+01 0. -1.
</event>
<event>
 5   0  0.6596100E+00  0.9118800E+02  0.7818608E-02  0.1180000E+00
       11   -1    0    0    0    0  0.00000000000E+00  0.00000000000E+00  0.39999999673E+01  0.40000000000E+01  0.51109989000E-03 0. -1.
     -623   -1    0    0    0    0  0.00000000000E+00  0.00000000000E+00  0.12525980253E-10  0.17130000000E+03  0.17130000000E+03 0. -1.
       11    1    1    2    0    0 -0.13899903953E-01 -0.19435392250E+00  0.12988438494E+00  0.23417273367E+00  0.51109989000E-03 0. -1.
     -623    1    1    2    0    0  0.17639803918E+00  0.39165270063E+00  0.42656109983E+00  0.17130106965E+03  0.17130000000E+03 0. -1.
      622    1    1    2    0    0 -0.16249813523E+00 -0.19729877813E+00  0.34435544826E+01  0.37647576185E+01  0.15000000000E+01 0. -1.
</event>
<event>
 5   0  0.6596100E+00  0.9118800E+02  0.7818608E-02  0.1180000E+00
       11   -1    0    0    0    0  0.00000000000E+00  0.00000000000E+00  0.39999999673E+01  0.40000000000E+01  0.51109989000E-03 0. -1.
     -623   -1    0    0    0    0  0.00000000000E+00  0.00000000000E+00  0.12525980253E-10  0.17130000000E+03  0.17130000000E+03 0.  1.
       11    1    1    2    0    0 -0.64816688123E-01 -0.48821717947E-01 -0.96675814491E-02  0.81722007787E-01  0.51109989000E-03 0. -1.
     -623    1    1    2    0    0  0.12170734425E+00 -0.10659883237E+00  0.39423440550E+00  0.17130053005E+03  0.17130000000E+03 0.  1.
      622    1    1    2    0    0 -0.56890656131E-01  0.15542055031E+00  0.36154331433E+01  0.39177479383E+01  0.15000000000E+01 0. -1.
</event>
<event>
 5   0  0.6596100E+00  0.9118800E+02  0.7818608E-02  0.1180000E+00
       11   -1    0    0    0    0  0.00000000000E+00  0.00000000000E+00  0.39999999673E+01  0.40000000000E+01  0.51109989000E-03 0.  1.
     -623   -1    0    0    0    0  0.00000000000E+00  0.00000000000E+00  0.12525980253E-10  0.17130000000E+03  0.17130000000E+03 0.  1.
       11    1    1    2    0    0  0.17370795807E-01  0.36553920312E+00  0.49350138285E+00  0.61438142034E+00  0.51109989000E-03 0.  1.
     -623    1    1    2    0    0 -0.77213126087E-01 -0.57508826873E+00  0.48099083362E+00  0.17130165802E+03  0.17130000000E+03 0.  1.
      622    1    1    2    0    0  0.59842330280E-01  0.20954906561E+00  0.30255077509E+01  0.33839605592E+01  0.15000000000E+01 0.  1.
</event>
<event>
 5   0  0.6596100E+00  0.9118800E+02  0.7818608E-02  0.1180000E+00
       11   -1    0    0    0    0  0.00000000000E+00  0.00000000000E+00  0.39999999673E+01  0.40000000000E+01  0.51109989000E-03 0.  1.
     -623   -1    0    0    0    0  0.00000000000E+00  0.00000000000E+00  0.12525980253E-10  0.17130000000E+03  0.17130000000E+03 0.  1.
       11    1    1    2    0    0  0.15405776294E+00 -0.23501943597E-01  0.28263558949E+00  0.32275265040E+00  0.51109989000E-03 0.  1.
     -623    1    1    2    0    0 -0.18560851353E+00  0.88626987882E-01  0.36129505259E+00  0.17130050449E+03  0.17130000000E+03 0.  1.
      622    1    1    2    0    0  0.31550750597E-01 -0.65125044286E-01  0.33560693253E+01  0.36767428571E+01  0.15000000000E+01 0.  1.
</event>
<event>
 5   0  0.6596100E+00  0.9118800E+02  0.7818608E-02  0.1180000E+00
       11   -1    0    0    0    0  0.00000000000E+00  0.00000000000E+00  0.39999999673E+01  0.40000000000E+01  0.51109989000E-03 0.  1.
     -623   -1    0    0    0    0  0.00000000000E+00  0.00000000000E+00  0.12525980253E-10  0.17130000000E+03  0.17130000000E+03 0. -1.
       11    1    1    2    0    0  0.20913292390E-01 -0.38449717060E+00  0.44517969946E+00  0.58860909442E+00  0.51109989000E-03 0.  1.
     -623    1    1    2    0    0  0.24566337934E+00  0.15321457668E+00  0.51243049469E+00  0.17130101112E+03  0.17130000000E+03 0. -1.
      622    1    1    2    0    0 -0.26657667173E+00  0.23128259391E+00  0.30423897732E+01  0.34103797871E+01  0.15000000000E+01 0.  1.
</event>
<event>
 5   0  0.6596100E+00  0.9118800E+02  0.7818608E-02  0.1180000E+00
       11   -1    0    0    0    0  0.00000000000E+00  0.00000000000E+00  0.39999999673E+01  0.40000000000E+01  0.51109989000E-03 0.  1.
     -623   -1    0    0    0    0  0.00000000000E+00  0.00000000000E+00  0.12525980253E-10  0.17130000000E+03  0.17130000000E+03 0.  1.
       11    1    1    2    0    0  0.66249758835E-01  0.23730508175E+00  0.14989712203E+00  0.28839580577E+00  0.51109989000E-03 0.  1.
     -623    1    1    2    0    0 -0.20198469007E+00 -0.33853243319E+00  0.46050494633E+00  0.17130107258E+03  0.17130000000E+03 0.  1.
      622    1    1    2    0    0  0.13573493123E+00  0.10122735144E+00  0.33895978990E+01  0.37105316149E+01  0.15000000000E+01 0.  1.
</event>
<event>
 5   0  0.6596100E+00  0.9118800E+02  0.7818608E-02  0.1180000E+00
       11   -1    0    0    0    0  0.00000000000E+00  0.00000000000E+00  0.39999999673E+01  0.40000000000E+01  0.51109989000E-03 0.  1.
     -623   -1    0    0    0    0  0.00000000000E+00  0.00000000000E+00  0.12525980253E-10  0.17130000000E+03  0.17130000000E+03 0. -1.
       11    1    1    2    0    0 -0.23923705668E+00 -0.28049408046E+00  0.26682037859E+00  0.45508754555E+00  0.51109989000E-03 0.  1.
     -623    1    1    2    0    0  0.42261656468E-01  0.43429054404E+00  0.53253201675E+00  0.17130138349E+03  0.17130000000E+03 0. -1.
      622    1    1    2    0    0  0.19697540021E+00 -0.15379646358E+00  0.32006475720E+01  0.35435289671E+01  0.15000000000E+01 0.  1.
</event>
<event>
 5   0  0.6596100E+00  0.9118800E+02  0.7818608E-02  0.1180000E+00
       11   -1    0    0    0    0  0.00000000000E+00  0.00000000000E+00  0.39999999673E+01  0.40000000000E+01  0.51109989000E-03 0.  1.
     -623   -1    0    0    0    0  0.00000000000E+00  0.00000000000E+00  0.12525980253E-10  0.17130000000E+03  0.17130000000E+03 0.  1.
       11    1    1    2    0    0 -0.10013631460E+00 -0.12036445562E+00  0.11194528921E+00  0.19247569373E+00  0.51109989000E-03 0.  1.
     -623    1    1    2    0    0  0.15737899383E+00  0.91547383745E-01  0.38962310809E+00  0.17130053986E+03  0.17130000000E+03 0.  1.
      622    1    1    2    0    0 -0.57242679229E-01  0.28817071880E-01  0.34984315701E+01  0.38069844495E+01  0.15000000000E+01 0.  1.
</event>
<event>
 5   0  0.6596100E+00  0.9118800E+02  0.7818608E-02  0.1180000E+00
       11   -1    0    0    0    0  0.00000000000E+00  0.00000000000E+00  0.39999999673E+01  0.40000000000E+01  0.51109989000E-03 0.  1.
     -623   -1    0    0    0    0  0.00000000000E+00  0.00000000000E+00  0.12525980253E-10  0.17130000000E+03  0.17130000000E+03 0.  1.
       11    1    1    2    0    0  0.13142902883E+00 -0.13864368352E+00  0.45110246022E+00  0.48988708029E+00  0.51109989000E-03 0.  1.
     -623    1    1    2    0    0 -0.21162200311E+00  0.38734689811E+00  0.38732457933E+00  0.17130100654E+03  0.17130000000E+03 0.  1.
      622    1    1    2    0    0  0.80192974279E-01 -0.24870321459E+00  0.31615729278E+01  0.35091063791E+01  0.15000000000E+01 0.  1.
</event>
<event>
 5   0  0.6596100E+00  0.9118800E+02  0.7818608E-02  0.1180000E+00
       11   -1    0    0    0    0  0.00000000000E+00  0.00000000000E+00  0.39999999673E+01  0.40000000000E+01  0.51109989000E-03 0.  1.
     -623   -1    0    0    0    0  0.00000000000E+00  0.00000000000E+00  0.12525980253E-10  0.17130000000E+03  0.17130000000E+03 0.  1.
       11    1    1    2    0    0  0.27686823679E-01  0.95751345515E-01  0.21035017268E+00  0.23277099635E+00  0.51109989000E-03 0.  1.
     -623    1    1    2    0    0 -0.33703435265E+00  0.95917656849E-01  0.35393639076E+00  0.17130072406E+03  0.17130000000E+03 0.  1.
      622    1    1    2    0    0  0.30934752897E+00 -0.19166900236E+00  0.34357134039E+01  0.37665049441E+01  0.15000000000E+01 0.  0.
</event>
<event>
 5   0  0.6596100E+00  0.9118800E+02  0.7818608E-02  0.1180000E+00
       11   -1    0    0    0    0  0.00000000000E+00  0.00000000000E+00  0.39999999673E+01  0.40000000000E+01  0.51109989000E-03 0. -1.
     -623   -1    0    0    0    0  0.00000000000E+00  0.00000000000E+00  0.12525980253E-10  0.17130000000E+03  0.17130000000E+03 0.  1.
       11    1    1    2    0    0  0.25960491834E-01  0.98414920592E-01  0.16159960519E+00  0.19098203410E+00  0.51109989000E-03 0. -1.
     -623    1    1    2    0    0 -0.11269510509E+00 -0.40782280803E+00  0.35291439802E+00  0.17130088607E+03  0.17130000000E+03 0.  1.
      622    1    1    2    0    0  0.86734613252E-01  0.30940788744E+00  0.34854859641E+01  0.38081318964E+01  0.15000000000E+01 0. -1.
</event>
<event>
 5   0  0.6596100E+00  0.9118800E+02  0.7818608E-02  0.1180000E+00
       11   -1    0    0    0    0  0.00000000000E+00  0.00000000000E+00  0.39999999673E+01  0.40000000000E+01  0.51109989000E-03 0. -1.
     -623   -1    0    0    0    0  0.00000000000E+00  0.00000000000E+00  0.12525980253E-10  0.17130000000E+03  0.17130000000E+03 0. -1.
       11    1    1    2    0    0  0.34012326816E+00 -0.97728657653E-01  0.46068105922E+00  0.58091481959E+00  0.51109989000E-03 0. -1.
     -623    1    1    2    0    0 -0.45293072206E+00  0.21006720021E+00  0.47250160492E+00  0.17130137925E+03  0.17130000000E+03 0. -1.
      622    1    1    2    0    0  0.11280745390E+00 -0.11233854256E+00  0.30668173032E+01  0.34177059325E+01  0.15000000000E+01 0. -1.
</event>
<event>
 5   0  0.6596100E+00  0.9118800E+02  0.7818608E-02  0.1180000E+00
       11   -1    0    0    0    0  0.00000000000E+00  0.00000000000E+00  0.39999999673E+01  0.40000000000E+01  0.51109989000E-03 0.  1.
     -623   -1    0    0    0    0  0.00000000000E+00  0.00000000000E+00  0.12525980253E-10  0.17130000000E+03  0.17130000000E+03 0. -1.
       11    1    1    2    0    0 -0.21847998058E+00  0.50478463908E-01  0.37519146872E+00  0.43709321278E+00  0.51109989000E-03 0.  1.
     -623    1    1    2    0    0  0.17405330511E+00 -0.62774707483E-01  0.39398204092E+00  0.17130055300E+03  0.17130000000E+03 0. -1.
      622    1    1    2    0    0  0.44426675467E-01  0.12296243575E-01  0.32308264577E+01  0.35623537903E+01  0.15000000000E+01 0.  1.
</event>
<event>
 5   0  0.6596100E+00  0.9118800E+02  0.7818608E-02  0.1180000E+00
       11   -1    0    0    0    0  0.00000000000E+00  0.00000000000E+00  0.39999999673E+01  0.40000000000E+01  0.51109989000E-03 0. -1.
     -623   -1    0    0    0    0  0.00000000000E+00  0.00000000000E+00  0.12525980253E-10  0.17130000000E+03  0.17130000000E+03 0.  1.
       11    1    1    2    0    0  0.89113038630E-01  0.36846543332E+00 -0.11404503257E+00  0.39587174676E+00  0.51109989000E-03 0. -1.
     -623    1    1    2    0    0  0.11463670283E-01 -0.87404243014E+00  0.88270352871E+00  0.17130450446E+03  0.17130000000E+03 0.  1.
      622    1    1    2    0    0 -0.10057670891E+00  0.50557699681E+00  0.32313414712E+01  0.35996237967E+01  0.15000000000E+01 0. -1.
</event>
<event>
 5   0  0.6596100E+00  0.9118800E+02  0.7818608E-02  0.1180000E+00
       11   -1    0    0    0    0  0.00000000000E+00  0.00000000000E+00  0.39999999673E+01  0.40000000000E+01  0.51109989000E-03 0.  1.
     -623   -1    0    0    0    0  0.00000000000E+00  0.00000000000E+00  0.12525980253E-10  0.17130000000E+03  0.17130000000E+03 0. -1.
       11    1    1    2    0    0  0.11969683983E+00 -0.12702614093E+00  0.21225406020E+00  0.27479996586E+00  0.51109989000E-03 0.  1.
     -623    1    1    2    0    0 -0.66214320513E-01  0.56160095511E-01  0.37952984360E+00  0.17130044244E+03  0.17130000000E+03 0. -1.
      622    1    1    2    0    0 -0.53482519315E-01  0.70866045416E-01  0.34082160636E+01  0.37247575911E+01  0.15000000000E+01 0.  1.
</event>
<event>
 5   0  0.6596100E+00  0.9118800E+02  0.7818608E-02  0.1180000E+00
       11   -1    0    0    0    0  0.00000000000E+00  0.00000000000E+00  0.39999999673E+01  0.40000000000E+01  0.51109989000E-03 0.  1.
     -623   -1    0    0    0    0  0.00000000000E+00  0.00000000000E+00  0.12525980253E-10  0.17130000000E+03  0.17130000000E+03 0.  1.
       11    1    1    2    0    0  0.44670931275E-01  0.88219571097E-01  0.32798287462E+00  0.34256563180E+00  0.51109989000E-03 0.  1.
     -623    1    1    2    0    0 -0.78258998504E-01 -0.11758393032E+00  0.33705317334E+00  0.17130038983E+03  0.17130000000E+03 0.  1.
      622    1    1    2    0    0  0.33588067229E-01  0.29364359226E-01  0.33349639194E+01  0.36570445400E+01  0.15000000000E+01 0.  1.
</event>
<event>
 5   0  0.6596100E+00  0.9118800E+02  0.7818608E-02  0.1180000E+00
       11   -1    0    0    0    0  0.00000000000E+00  0.00000000000E+00  0.39999999673E+01  0.40000000000E+01  0.51109989000E-03 0. -1.
     -623   -1    0    0    0    0  0.00000000000E+00  0.00000000000E+00  0.12525980253E-10  0.17130000000E+03  0.17130000000E+03 0. -1.
       11    1    1    2    0    0 -0.61942660080E-01  0.39532430122E-01  0.46480461364E-01  0.86950564568E-01  0.51109989000E-03 0. -1.
     -623    1    1    2    0    0  0.62101195629E-01 -0.11562183399E+00  0.34060893493E+00  0.17130038891E+03  0.17130000000E+03 0. -1.
      622    1    1    2    0    0 -0.15853554887E-03  0.76089403872E-01  0.36129105711E+01  0.39126605292E+01  0.15000000000E+01 0. -1.
</event>
<event>
 5   0  0.6596100E+00  0.9118800E+02  0.7818608E-02  0.1180000E+00
       11   -1    0    0    0    0  0.00000000000E+00  0.00000000000E+00  0.39999999673E+01  0.40000000000E+01  0.51109989000E-03 0. -1.
     -623   -1    0    0    0    0  0.00000000000E+00  0.00000000000E+00  0.12525980253E-10  0.17130000000E+03  0.17130000000E+03 0.  1.
       11    1    1    2    0    0  0.46005477610E-01  0.95603023238E-02 -0.33415022716E-01  0.57660457134E-01  0.51109989000E-03 0. -1.
     -623    1    1    2    0    0 -0.53243106892E-01  0.11242780298E+00  0.39016805774E+00  0.17130048951E+03  0.17130000000E+03 0.  1.
      622    1    1    2    0    0  0.72376292819E-02 -0.12198810530E+00  0.36432469323E+01  0.39418500341E+01  0.15000000000E+01 0. -1.
</event>
<event>
 5   0  0.6596100E+00  0.9118800E+02  0.7818608E-02  0.1180000E+00
       11   -1    0    0    0    0  0.00000000000E+00  0.00000000000E+00  0.39999999673E+01  0.40000000000E+01  0.51109989000E-03 0.  1.
     -623   -1    0    0    0    0  0.00000000000E+00  0.00000000000E+00  0.12525980253E-10  0.17130000000E+03  0.17130000000E+03 0.  1.
       11    1    1    2    0    0 -0.20337128859E+00  0.19987649984E+00  0.61322145413E+00  0.67627753862E+00  0.51109989000E-03 0.  1.
     -623    1    1    2    0    0  0.15071877279E+00 -0.51428426317E+00  0.43954468653E+00  0.17130140222E+03  0.17130000000E+03 0.  1.
      622    1    1    2    0    0  0.52652515799E-01  0.31440776333E+00  0.29472338267E+01  0.33223202372E+01  0.15000000000E+01 0.  1.
</event>
<event>
 5   0  0.6596100E+00  0.9118800E+02  0.7818608E-02  0.1180000E+00
       11   -1    0    0    0    0  0.00000000000E+00  0.00000000000E+00  0.39999999673E+01  0.40000000000E+01  0.51109989000E-03 0. -1.
     -623   -1    0    0    0    0  0.00000000000E+00  0.00000000000E+00  0.12525980253E-10  0.17130000000E+03  0.17130000000E+03 0. -1.
       11    1    1    2    0    0 -0.27765479027E-01 -0.24588891847E+00 -0.85142334144E-03  0.24745356775E+00  0.51109989000E-03 0. -1.
     -623    1    1    2    0    0  0.39182303698E+00 -0.28159868846E+00  0.62339473273E+00  0.17130181390E+03  0.17130000000E+03 0. -1.
      622    1    1    2    0    0 -0.36405755795E+00  0.52748760692E+00  0.33774566580E+01  0.37507325361E+01  0.15000000000E+01 0. -1.
</event>
<event>
 5   0  0.6596100E+00  0.9118800E+02  0.7818608E-02  0.1180000E+00
       11   -1    0    0    0    0  0.00000000000E+00  0.00000000000E+00  0.39999999673E+01  0.40000000000E+01  0.51109989000E-03 0.  1.
     -623   -1    0    0    0    0  0.00000000000E+00  0.00000000000E+00  0.12525980253E-10  0.17130000000E+03  0.17130000000E+03 0.  1.
       11    1    1    2    0    0  0.29015423262E-01  0.40204939905E-01  0.11639176907E-01  0.50931951092E-01  0.51109989000E-03 0.  1.
     -623    1    1    2    0    0  0.28445077215E+00 -0.55021859595E+00  0.38635020176E+00  0.17130155551E+03  0.17130000000E+03 0.  1.
      622    1    1    2    0    0 -0.31346619542E+00  0.51001365605E+00  0.36020105887E+01  0.39475125416E+01  0.15000000000E+01 0.  1.
</event>
<event>
 5   0  0.6596100E+00  0.9118800E+02  0.7818608E-02  0.1180000E+00
       11   -1    0    0    0    0  0.00000000000E+00  0.00000000000E+00  0.39999999673E+01  0.40000000000E+01  0.51109989000E-03 0.  1.
     -623   -1    0    0    0    0  0.00000000000E+00  0.00000000000E+00  0.12525980253E-10  0.17130000000E+03  0.17130000000E+03 0.  1.
       11    1    1    2    0    0 -0.89981013954E-01 -0.15714026000E+00  0.12598513878E+00  0.22059501491E+00  0.51109989000E-03 0.  1.
     -623    1    1    2    0    0  0.25276517020E+00  0.28990722301E+00  0.41240236503E+00  0.17130092823E+03  0.17130000000E+03 0.  1.
      622    1    1    2    0    0 -0.16278415624E+00 -0.13276696301E+00  0.34616124636E+01  0.37784767560E+01  0.15000000000E+01 0.  1.
</event>
<event>
 5   0  0.6596100E+00  0.9118800E+02  0.7818608E-02  0.1180000E+00
       11   -1    0    0    0    0  0.00000000000E+00  0.00000000000E+00  0.39999999673E+01  0.40000000000E+01  0.51109989000E-03 0.  1.
     -623   -1    0    0    0    0  0.00000000000E+00  0.00000000000E+00  0.12525980253E-10  0.17130000000E+03  0.17130000000E+03 0. -1.
       11    1    1    2    0    0  0.31331494528E-01  0.27204263059E+00  0.44923002076E+00  0.52611474812E+00  0.51109989000E-03 0.  1.
     -623    1    1    2    0    0  0.86516475552E-01 -0.17321380065E+00  0.42189571672E+00  0.17130062897E+03  0.17130000000E+03 0. -1.
      622    1    1    2    0    0 -0.11784797008E+00 -0.98828829935E-01  0.31288742299E+01  0.34732562860E+01  0.15000000000E+01 0.  1.
</event>
<event>
 5   0  0.6596100E+00  0.9118800E+02  0.7818608E-02  0.1180000E+00
       11   -1    0    0    0    0  0.00000000000E+00  0.00000000000E+00  0.39999999673E+01  0.40000000000E+01  0.51109989000E-03 0. -1.
     -623   -1    0    0    0    0  0.00000000000E+00  0.00000000000E+00  0.12525980253E-10  0.17130000000E+03  0.17130000000E+03 0. -1.
       11    1    1    2    0    0  0.18587928535E-01 -0.17450288704E-01  0.19879932415E+00  0.20042818207E+00  0.51109989000E-03 0. -1.
     -623    1    1    2    0    0 -0.23840296527E+00 -0.23548575225E-01  0.31792175898E+00  0.17130046254E+03  0.17130000000E+03 0. -1.
      622    1    1    2    0    0  0.21981503674E+00  0.40998863929E-01  0.34832788842E+01  0.37991092828E+01  0.15000000000E+01 0. -1.
</event>
<event>
 5   0  0.6596100E+00  0.9118800E+02  0.7818608E-02  0.1180000E+00
       11   -1    0    0    0    0  0.00000000000E+00  0.00000000000E+00  0.39999999673E+01  0.40000000000E+01  0.51109989000E-03 0. -1.
     -623   -1    0    0    0    0  0.00000000000E+00  0.00000000000E+00  0.12525980253E-10  0.17130000000E+03  0.17130000000E+03 0. -1.
       11    1    1    2    0    0  0.84853589635E-01  0.20458788358E+00 -0.11229427340E+00  0.24832760387E+00  0.51109989000E-03 0. -1.
     -623    1    1    2    0    0 -0.71601085857E+00 -0.16391193479E+00  0.73570258998E+00  0.17130315466E+03  0.17130000000E+03 0. -1.
      622    1    1    2    0    0  0.63115726893E+00 -0.40675948784E-01  0.33765916508E+01  0.37485177347E+01  0.15000000000E+01 0. -1.
</event>
<event>
 5   0  0.6596100E+00  0.9118800E+02  0.7818608E-02  0.1180000E+00
       11   -1    0    0    0    0  0.00000000000E+00  0.00000000000E+00  0.39999999673E+01  0.40000000000E+01  0.51109989000E-03 0. -1.
     -623   -1    0    0    0    0  0.00000000000E+00  0.00000000000E+00  0.12525980253E-10  0.17130000000E+03  0.17130000000E+03 0. -1.
       11    1    1    2    0    0 -0.22733677584E+00  0.22346431694E+00  0.53593351010E+00  0.62357301021E+00  0.51109989000E-03 0. -1.
     -623    1    1    2    0    0  0.20032887270E+00 -0.11360957935E+00  0.44205302751E+00  0.17130072519E+03  0.17130000000E+03 0. -1.
      622    1    1    2    0    0  0.27007903137E-01 -0.10985473759E+00  0.30220134297E+01  0.33757018026E+01  0.15000000000E+01 0.  0.
</event>
<event>
 5   0  0.6596100E+00  0.9118800E+02  0.7818608E-02  0.1180000E+00
       11   -1    0    0    0    0  0.00000000000E+00  0.00000000000E+00  0.39999999673E+01  0.40000000000E+01  0.51109989000E-03 0.  1.
     -623   -1    0    0    0    0  0.00000000000E+00  0.00000000000E+00  0.12525980253E-10  0.17130000000E+03  0.17130000000E+03 0. -1.
       11    1    1    2    0    0 -0.10375515471E+00  0.16620543723E+00  0.50750406686E+00  0.54401288459E+00  0.51109989000E-03 0.  1.
     -623    1    1    2    0    0  0.40665995145E+00 -0.48614837651E-01  0.39706311361E+00  0.17130094978E+03  0.17130000000E+03 0. -1.
      622    1    1    2    0    0 -0.30290479674E+00 -0.11759059958E+00  0.30954327869E+01  0.34550373374E+01  0.15000000000E+01 0.  1.
</event>
<event>
 5   0  0.6596100E+00  0.9118800E+02  0.7818608E-02  0.1180000E+00
       11   -1    0    0    0    0  0.00000000000E+00  0.00000000000E+00  0.39999999673E+01  0.40000000000E+01  0.51109989000E-03 0. -1.
     -623   -1    0    0    0    0  0.00000000000E+00  0.00000000000E+00  0.12525980253E-10  0.17130000000E+03  0.17130000000E+03 0.  1.
       11    1    1    2    0    0  0.31497173354E+00  0.15736927090E+00 -0.30369490198E-01  0.35340465123E+00  0.51109989000E-03 0. -1.
     -623    1    1    2    0    0 -0.18216075510E+00 -0.10010259294E+00  0.71147710085E+00  0.17130160362E+03  0.17130000000E+03 0.  1.
      622    1    1    2    0    0 -0.13281097844E+00 -0.57266677962E-01  0.33188923567E+01  0.36449917289E+01  0.15000000000E+01 0. -1.
</event>
<event>
 5   0  0.6596100E+00  0.9118800E+02  0.7818608E-02  0.1180000E+00
       11   -1    0    0    0    0  0.00000000000E+00  0.00000000000E+00  0.39999999673E+01  0.40000000000E+01  0.51109989000E-03 0.  1.
     -623   -1    0    0    0    0  0.00000000000E+00  0.00000000000E+00  0.12525980253E-10  0.17130000000E+03  0.17130000000E+03 0. -1.
       11    1    1    2    0    0  0.53393924662E-01  0.42635769428E-01  0.16424847647E-01  0.70276289521E-01  0.51109989000E-03 0.  1.
     -623    1    1    2    0    0  0.13864246698E+00 -0.18572727095E+00  0.35987919029E+00  0.17130053482E+03  0.17130000000E+03 0. -1.
      622    1    1    2    0    0 -0.19203639164E+00  0.14309150152E+00  0.36236959294E+01  0.39291888912E+01  0.15000000000E+01 0.  1.
</event>
<event>
 5   0  0.6596100E+00  0.9118800E+02  0.7818608E-02  0.1180000E+00
       11   -1    0    0    0    0  0.00000000000E+00  0.00000000000E+00  0.39999999673E+01  0.40000000000E+01  0.51109989000E-03 0. -1.
     -623   -1    0    0    0    0  0.00000000000E+00  0.00000000000E+00  0.12525980253E-10  0.17130000000E+03  0.17130000000E+03 0.  1.
       11    1    1    2    0    0  0.30704218675E-01 -0.14407955404E+00  0.34408590649E+00  0.37429539030E+00  0.51109989000E-03 0. -1.
     -623    1    1    2    0    0 -0.33246417227E-01  0.27263684153E+00  0.35820449591E+00  0.17130059471E+03  0.17130000000E+03 0.  1.
      622    1    1    2    0    0  0.25421985520E-02 -0.12855728749E+00  0.32977095650E+01  0.36251099037E+01  0.15000000000E+01 0. -1.
</event>
<event>
 5   0  0.6596100E+00  0.9118800E+02  0.7818608E-02  0.1180000E+00
       11   -1    0    0    0    0  0.00000000000E+00  0.00000000000E+00  0.39999999673E+01  0.40000000000E+01  0.51109989000E-03 0.  1.
     -623   -1    0    0    0    0  0.00000000000E+00  0.00000000000E+00  0.12525980253E-10  0.17130000000E+03  0.17130000000E+03 0. -1.
       11    1    1    2    0    0 -0.70845180353E-01 -0.26131367777E-01  0.15936743169E-01  0.77175961056E-01  0.51109989000E-03 0.  1.
     -623    1    1    2    0    0  0.12642176575E+00 -0.20177408457E+00  0.36755565438E+00  0.17130055981E+03  0.17130000000E+03 0. -1.
      622    1    1    2    0    0 -0.55576585399E-01  0.22790545235E+00  0.36165075698E+01  0.39222642255E+01  0.15000000000E+01 0.  1.
</event>
<event>
 5   0  0.6596100E+00  0.9118800E+02  0.7818608E-02  0.1180000E+00
       11   -1    0    0    0    0  0.00000000000E+00  0.00000000000E+00  0.39999999673E+01  0.40000000000E+01  0.51109989000E-03 0.  1.
     -623   -1    0    0    0    0  0.00000000000E+00  0.00000000000E+00  0.12525980253E-10  0.17130000000E+03  0.17130000000E+03 0.  1.
       11    1    1    2    0    0 -0.94897955817E-01 -0.15366625761E+00  0.10251692276E+00  0.20767503803E+00  0.51109989000E-03 0.  1.
     -623    1    1    2    0    0  0.49354466124E-01  0.94965530355E-01  0.41579841516E+00  0.17130053807E+03  0.17130000000E+03 0.  1.
      622    1    1    2    0    0  0.45543489693E-01  0.58700727255E-01  0.34816846294E+01  0.37917868932E+01  0.15000000000E+01 0.  1.
</event>
<event>
 5   0  0.6596100E+00  0.9118800E+02  0.7818608E-02  0.1180000E+00
       11   -1    0    0    0    0  0.00000000000E+00  0.00000000000E+00  0.39999999673E+01  0.40000000000E+01  0.51109989000E-03 0. -1.
     -623   -1    0    0    0    0  0.00000000000E+00  0.00000000000E+00  0.12525980253E-10  0.17130000000E+03  0.17130000000E+03 0. -1.
       11    1    1    2    0    0  0.52453834102E-02 -0.24888736231E-01  0.12304566479E+00  0.12564815989E+00  0.51109989000E-03 0. -1.
     -623    1    1    2    0    0 -0.65904944203E-01 -0.26123603324E+00  0.31730029808E+00  0.17130050574E+03  0.17130000000E+03 0. -1.
      622    1    1    2    0    0  0.60659560793E-01  0.28612476947E+00  0.35596540045E+01  0.38738460989E+01  0.15000000000E+01 0. -1.
</event>
<event>
 5   0  0.6596100E+00  0.9118800E+02  0.7818608E-02  0.1180000E+00
       11   -1    0    0    0    0  0.00000000000E+00  0.00000000000E+00  0.39999999673E+01  0.40000000000E+01  0.51109989000E-03 0. -1.
     -623   -1    0    0    0    0  0.00000000000E+00  0.00000000000E+00  0.12525980253E-10  0.17130000000E+03  0.17130000000E+03 0. -1.
       11    1    1    2    0    0 -0.14510171339E+00 -0.18421686023E-01  0.33336152643E+00  0.36403850658E+00  0.51109989000E-03 0. -1.
     -623    1    1    2    0    0  0.28247563897E+00 -0.16169882349E+00  0.36302593900E+00  0.17130069389E+03  0.17130000000E+03 0. -1.
      622    1    1    2    0    0 -0.13737392558E+00  0.18012050952E+00  0.33036125019E+01  0.36352676045E+01  0.15000000000E+01 0. -1.
</event>
<event>
 5   0  0.6596100E+00  0.9118800E+02  0.7818608E-02  0.1180000E+00
       11   -1    0    0    0    0  0.00000000000E+00  0.00000000000E+00  0.39999999673E+01  0.40000000000E+01  0.51109989000E-03 0. -1.
     -623   -1    0    0    0    0  0.00000000000E+00  0.00000000000E+00  0.12525980253E-10  0.17130000000E+03  0.17130000000E+03 0.  1.
       11    1    1    2    0    0  0.85480083237E-03 -0.11094606671E+00 -0.61234952242E-01  0.12672703343E+00  0.51109989000E-03 0. -1.
     -623    1    1    2    0    0 -0.32634877233E+00  0.42562471160E+00  0.52080557547E+00  0.17130163134E+03  0.17130000000E+03 0.  1.
      622    1    1    2    0    0  0.32549397149E+00 -0.31467864489E+00  0.35404293441E+01  0.38716416306E+01  0.15000000000E+01 0. -1.
</event>
<event>
 5   0  0.6596100E+00  0.9118800E+02  0.7818608E-02  0.1180000E+00
       11   -1    0    0    0    0  0.00000000000E+00  0.00000000000E+00  0.39999999673E+01  0.40000000000E+01  0.51109989000E-03 0. -1.
     -623   -1    0    0    0    0  0.00000000000E+00  0.00000000000E+00  0.12525980253E-10  0.17130000000E+03  0.17130000000E+03 0.  1.
       11    1    1    2    0    0  0.13974880883E+00  0.20959890446E-01  0.17092949239E+00  0.22177961847E+00  0.51109989000E-03 0. -1.
     -623    1    1    2    0    0  0.54358124837E-01  0.28421530770E+00  0.38101427788E+00  0.17130066814E+03  0.17130000000E+03 0.  1.
      622    1    1    2    0    0 -0.19410693367E+00 -0.30517519814E+00  0.34480561971E+01  0.37775522421E+01  0.15000000000E+01 0. -1.
</event>
<event>
 5   0  0.6596100E+00  0.9118800E+02  0.7818608E-02  0.1180000E+00
       11   -1    0    0    0    0  0.00000000000E+00  0.00000000000E+00  0.39999999673E+01  0.40000000000E+01  0.51109989000E-03 0. -1.
     -623   -1    0    0    0    0  0.00000000000E+00  0.00000000000E+00  0.12525980253E-10  0.17130000000E+03  0.17130000000E+03 0. -1.
       11    1    1    2    0    0  0.66142693989E-01 -0.66714165463E-02  0.75238784679E-01  0.10040169176E+00  0.51109989000E-03 0. -1.
     -623    1    1    2    0    0 -0.11022513895E+00 -0.25236766310E+00  0.33539696558E+00  0.17130054971E+03  0.17130000000E+03 0. -1.
      622    1    1    2    0    0  0.44082444956E-01  0.25903907964E+00  0.35893642171E+01  0.38990486006E+01  0.15000000000E+01 0. -1.
</event>
<event>
 5   0  0.6596100E+00  0.9118800E+02  0.7818608E-02  0.1180000E+00
       11   -1    0    0    0    0  0.00000000000E+00  0.00000000000E+00  0.39999999673E+01  0.40000000000E+01  0.51109989000E-03 0.  1.
     -623   -1    0    0    0    0  0.00000000000E+00  0.00000000000E+00  0.12525980253E-10  0.17130000000E+03  0.17130000000E+03 0. -1.
       11    1    1    2    0    0  0.62339067798E-02  0.10686873984E+00  0.73770535213E-01  0.13000823912E+00  0.51109989000E-03 0.  1.
     -623    1    1    2    0    0 -0.92702425458E-01 -0.11800705704E+00  0.36030824924E+00  0.17130044466E+03  0.17130000000E+03 0. -1.
      622    1    1    2    0    0  0.86468518678E-01  0.11138317198E-01  0.35659211829E+01  0.38695470988E+01  0.15000000000E+01 0.  1.
</event>
<event>
 5   0  0.6596100E+00  0.9118800E+02  0.7818608E-02  0.1180000E+00
       11   -1    0    0    0    0  0.00000000000E+00  0.00000000000E+00  0.39999999673E+01  0.40000000000E+01  0.51109989000E-03 0. -1.
     -623   -1    0    0    0    0  0.00000000000E+00  0.00000000000E+00  0.12525980253E-10  0.17130000000E+03  0.17130000000E+03 0.  1.
       11    1    1    2    0    0 -0.10855438094E+00 -0.25374492891E-02  0.62905129098E-01  0.12549027357E+00  0.51109989000E-03 0. -1.
     -623    1    1    2    0    0  0.58307109347E-01  0.10081482440E+00  0.36690002164E+00  0.17130043251E+03  0.17130000000E+03 0.  1.
      622    1    1    2    0    0  0.50247271598E-01 -0.98277375109E-01  0.35701948166E+01  0.38740772139E+01  0.15000000000E+01 0. -1.
</event>
<event>
 5   0  0.6596100E+00  0.9118800E+02  0.7818608E-02  0.1180000E+00
       11   -1    0    0    0    0  0.00000000000E+00  0.00000000000E+00  0.39999999673E+01  0.40000000000E+01  0.51109989000E-03 0.  1.
     -623   -1    0    0    0    0  0.00000000000E+00  0.00000000000E+00  0.12525980253E-10  0.17130000000E+03  0.17130000000E+03 0. -1.
       11    1    1    2    0    0  0.67657745739E-01 -0.32343313474E-01 -0.26199537388E-01  0.79437632564E-01  0.51109989000E-03 0.  1.
     -623    1    1    2    0    0 -0.15523334292E+00 -0.10187419998E+00  0.40811649069E+00  0.17130058679E+03  0.17130000000E+03 0. -1.
      622    1    1    2    0    0  0.87575597185E-01  0.13421751345E+00  0.36180830141E+01  0.39199755768E+01  0.15000000000E+01 0.  1.
</event>
<event>
 5   0  0.6596100E+00  0.9118800E+02  0.7818608E-02  0.1180000E+00
       11   -1    0    0    0    0  0.00000000000E+00  0.00000000000E+00  0.39999999673E+01  0.40000000000E+01  0.51109989000E-03 0. -1.
     -623   -1    0    0    0    0  0.00000000000E+00  0.00000000000E+00  0.12525980253E-10  0.17130000000E+03  0.17130000000E+03 0. -1.
       11    1    1    2    0    0  0.27407232697E-01 -0.68297154498E-02  0.57200022073E-01  0.63795808361E-01  0.51109989000E-03 0. -1.
     -623    1    1    2    0    0 -0.24419491878E+00  0.75022957096E-01  0.31122574647E+00  0.17130047321E+03  0.17130000000E+03 0. -1.
      622    1    1    2    0    0  0.21678768609E+00 -0.68193241646E-01  0.36315741988E+01  0.39357309843E+01  0.15000000000E+01 0. -1.
</event>
<event>
 5   0  0.6596100E+00  0.9118800E+02  0.7818608E-02  0.1180000E+00
       11   -1    0    0    0    0  0.00000000000E+00  0.00000000000E+00  0.39999999673E+01  0.40000000000E+01  0.51109989000E-03 0.  1.
     -623   -1    0    0    0    0  0.00000000000E+00  0.00000000000E+00  0.12525980253E-10  0.17130000000E+03  0.17130000000E+03 0. -1.
       11    1    1    2    0    0  0.23034508608E-01  0.37302908473E+00  0.39230669087E+00  0.54183584928E+00  0.51109989000E-03 0.  1.
     -623    1    1    2    0    0  0.29425420336E+00 -0.50217595249E+00  0.51263151603E+00  0.17130175585E+03  0.17130000000E+03 0. -1.
      622    1    1    2    0    0 -0.31728871197E+00  0.12914686776E+00  0.30950617605E+01  0.34564083007E+01  0.15000000000E+01 0.  1.
</event>
<event>
 5   0  0.6596100E+00  0.9118800E+02  0.7818608E-02  0.1180000E+00
       11   -1    0    0    0    0  0.00000000000E+00  0.00000000000E+00  0.39999999673E+01  0.40000000000E+01  0.51109989000E-03 0.  1.
     -623   -1    0    0    0    0  0.00000000000E+00  0.00000000000E+00  0.12525980253E-10  0.17130000000E+03  0.17130000000E+03 0. -1.
       11    1    1    2    0    0 -0.12184043911E+00 -0.67047684658E-01 -0.12542929685E+00  0.18727854749E+00  0.51109989000E-03 0.  1.
     -623    1    1    2    0    0 -0.84151876748E-01  0.30676869071E+00  0.63606097294E+00  0.17130147624E+03  0.17130000000E+03 0. -1.
      622    1    1    2    0    0  0.20599231586E+00 -0.23972100605E+00  0.34893682913E+01  0.38112452121E+01  0.15000000000E+01 0.  1.
</event>
<event>
 5   0  0.6596100E+00  0.9118800E+02  0.7818608E-02  0.1180000E+00
       11   -1    0    0    0    0  0.00000000000E+00  0.00000000000E+00  0.39999999673E+01  0.40000000000E+01  0.51109989000E-03 0. -1.
     -623   -1    0    0    0    0  0.00000000000E+00  0.00000000000E+00  0.12525980253E-10  0.17130000000E+03  0.17130000000E+03 0.  1.
       11    1    1    2    0    0  0.12968318505E+00  0.90216641461E-01  0.48423211223E+00  0.50935034172E+00  0.51109989000E-03 0. -1.
     -623    1    1    2    0    0  0.13465731845E+00 -0.30792074289E+00  0.38334570544E+00  0.17130075861E+03  0.17130000000E+03 0.  1.
      622    1    1    2    0    0 -0.26434050351E+00  0.21770410142E+00  0.31324221497E+01  0.34898910443E+01  0.15000000000E+01 0. -1.
</event>
<event>
 5   0  0.6596100E+00  0.9118800E+02  0.7818608E-02  0.1180000E+00
       11   -1    0    0    0    0  0.00000000000E+00  0.00000000000E+00  0.39999999673E+01  0.40000000000E+01  0.51109989000E-03 0.  1.
     -623   -1    0    0    0    0  0.00000000000E+00  0.00000000000E+00  0.12525980253E-10  0.17130000000E+03  0.17130000000E+03 0.  1.
       11    1    1    2    0    0  0.15039997728E+00  0.53648052349E-02  0.92589637193E-01  0.17669758470E+00  0.51109989000E-03 0.  1.
     -623    1    1    2    0    0 -0.10216829753E+00 -0.75826169841E-01  0.39222105229E+00  0.17130049628E+03  0.17130000000E+03 0.  1.
      622    1    1    2    0    0 -0.48231679755E-01  0.70461364606E-01  0.35151892779E+01  0.38228061366E+01  0.15000000000E+01 0.  1.
</event>
<event>
 5   0  0.6596100E+00  0.9118800E+02  0.7818608E-02  0.1180000E+00
       11   -1    0    0    0    0  0.00000000000E+00  0.00000000000E+00  0.39999999673E+01  0.40000000000E+01  0.51109989000E-03 0.  1.
     -623   -1    0    0    0    0  0.00000000000E+00  0.00000000000E+00  0.12525980253E-10  0.17130000000E+03  0.17130000000E+03 0. -1.
       11    1    1    2    0    0  0.67169647034E-02 -0.45299195150E-01  0.49400177298E+00  0.49612009395E+00  0.51109989000E-03 0.  1.
     -623    1    1    2    0    0  0.11468113539E+00 -0.28983489595E+00  0.36029000697E+00  0.17130066248E+03  0.17130000000E+03 0. -1.
      622    1    1    2    0    0 -0.12139810009E+00  0.33513409110E+00  0.31457081874E+01  0.35032174295E+01  0.15000000000E+01 0.  1.
</event>
<event>
 5   0  0.6596100E+00  0.9118800E+02  0.7818608E-02  0.1180000E+00
       11   -1    0    0    0    0  0.00000000000E+00  0.00000000000E+00  0.39999999673E+01  0.40000000000E+01  0.51109989000E-03 0.  1.
     -623   -1    0    0    0    0  0.00000000000E+00  0.00000000000E+00  0.12525980253E-10  0.17130000000E+03  0.17130000000E+03 0.  1.
       11    1    1    2    0    0  0.94950212000E-01 -0.17068923416E+00  0.10552918424E+01  0.10732154915E+01  0.51109989000E-03 0.  1.
     -623    1    1    2    0    0  0.16606686024E+00  0.23144652979E+00  0.44681915051E+00  0.17130081959E+03  0.17130000000E+03 0.  1.
      622    1    1    2    0    0 -0.26101707224E+00 -0.60757295628E-01  0.24978889744E+01  0.29259649160E+01  0.15000000000E+01 0.  1.
</event>
<event>
 5   0  0.6596100E+00  0.9118800E+02  0.7818608E-02  0.1180000E+00
       11   -1    0    0    0    0  0.00000000000E+00  0.00000000000E+00  0.39999999673E+01  0.40000000000E+01  0.51109989000E-03 0. -1.
     -623   -1    0    0    0    0  0.00000000000E+00  0.00000000000E+00  0.12525980253E-10  0.17130000000E+03  0.17130000000E+03 0. -1.
       11    1    1    2    0    0  0.48566732576E+00 -0.84448630712E-02  0.45314806244E+00  0.66429473484E+00  0.51109989000E-03 0. -1.
     -623    1    1    2    0    0 -0.48586927185E+00 -0.41498438286E+00  0.60021369554E+00  0.17130224324E+03  0.17130000000E+03 0. -1.
      622    1    1    2    0    0  0.20194608454E-03  0.42342924593E+00  0.29466382094E+01  0.33334620298E+01  0.15000000000E+01 0. -1.
</event>
<event>
 5   0  0.6596100E+00  0.9118800E+02  0.7818608E-02  0.1180000E+00
       11   -1    0    0    0    0  0.00000000000E+00  0.00000000000E+00  0.39999999673E+01  0.40000000000E+01  0.51109989000E-03 0. -1.
     -623   -1    0    0    0    0  0.00000000000E+00  0.00000000000E+00  0.12525980253E-10  0.17130000000E+03  0.17130000000E+03 0. -1.
       11    1    1    2    0    0 -0.16366296997E+00  0.96246024250E-01  0.24443132814E+00  0.30950896647E+00  0.51109989000E-03 0. -1.
     -623    1    1    2    0    0  0.16157190520E+00 -0.46055559418E-01  0.38460349844E+00  0.17130051415E+03  0.17130000000E+03 0. -1.
      622    1    1    2    0    0  0.20910647780E-02 -0.50190464832E-01  0.33709651408E+01  0.36899768882E+01  0.15000000000E+01 0. -1.
</event>
<event>
 5   0  0.6596100E+00  0.9118800E+02  0.7818608E-02  0.1180000E+00
       11   -1    0    0    0    0  0.00000000000E+00  0.00000000000E+00  0.39999999673E+01  0.40000000000E+01  0.51109989000E-03 0.  1.
     -623   -1    0    0    0    0  0.00000000000E+00  0.00000000000E+00  0.12525980253E-10  0.17130000000E+03  0.17130000000E+03 0.  1.
       11    1    1    2    0    0 -0.32240258193E+00  0.69011012686E-02  0.53529289228E+00  0.62492382879E+00  0.51109989000E-03 0.  1.
     -623    1    1    2    0    0  0.14361740214E+00 -0.11433472817E+00  0.44924805690E+00  0.17130068745E+03  0.17130000000E+03 0.  1.
      622    1    1    2    0    0  0.17878517979E+00  0.10743362690E+00  0.30154590182E+01  0.33743887172E+01  0.15000000000E+01 0.  1.
</event>
<event>
 5   0  0.6596100E+00  0.9118800E+02  0.7818608E-02  0.1180000E+00
       11   -1    0    0    0    0  0.00000000000E+00  0.00000000000E+00  0.39999999673E+01  0.40000000000E+01  0.51109989000E-03 0.  1.
     -623   -1    0    0    0    0  0.00000000000E+00  0.00000000000E+00  0.12525980253E-10  0.17130000000E+03  0.17130000000E+03 0.  1.
       11    1    1    2    0    0  0.35290577494E+00 -0.41248369916E+00  0.86255640424E+00  0.10191609783E+01  0.51109989000E-03 0.  1.
     -623    1    1    2    0    0 -0.11148377570E+00 -0.94901526745E-03  0.60771066220E+00  0.17130111425E+03  0.17130000000E+03 0.  1.
      622    1    1    2    0    0 -0.24142199924E+00  0.41343271443E+00  0.25297329009E+01  0.29797247761E+01  0.15000000000E+01 0.  1.
</event>
<event>
 5   0  0.6596100E+00  0.9118800E+02  0.7818608E-02  0.1180000E+00
       11   -1    0    0    0    0  0.00000000000E+00  0.00000000000E+00  0.39999999673E+01  0.40000000000E+01  0.51109989000E-03 0.  1.
     -623   -1    0    0    0    0  0.00000000000E+00  0.00000000000E+00  0.12525980253E-10  0.17130000000E+03  0.17130000000E+03 0.  1.
       11    1    1    2    0    0 -0.33056193407E+00 -0.95177674764E-01  0.24159680515E+00  0.42035611035E+00  0.51109989000E-03 0.  1.
     -623    1    1    2    0    0  0.72404366108E-01  0.10260124295E+00  0.51939347425E+00  0.17130083345E+03  0.17130000000E+03 0.  1.
      622    1    1    2    0    0  0.25815756796E+00 -0.74235681818E-02  0.32390096880E+01  0.35788104445E+01  0.15000000000E+01 0.  1.
</event>
<event>
 5   0  0.6596100E+00  0.9118800E+02  0.7818608E-02  0.1180000E+00
       11   -1    0    0    0    0  0.00000000000E+00  0.00000000000E+00  0.39999999673E+01  0.40000000000E+01  0.51109989000E-03 0. -1.
     -623   -1    0    0    0    0  0.00000000000E+00  0.00000000000E+00  0.12525980253E-10  0.17130000000E+03  0.17130000000E+03 0. -1.
       11    1    1    2    0    0  0.12115741778E-01 -0.13533328264E+00  0.68134336168E+00  0.69475961765E+00  0.51109989000E-03 0. -1.
     -623    1    1    2    0    0 -0.35111141753E+00 -0.12442550790E+00  0.40551882911E+00  0.17130088501E+03  0.17130000000E+03 0. -1.
      622    1    1    2    0    0  0.33899567575E+00  0.25975879054E+00  0.29131377766E+01  0.33043553687E+01  0.15000000000E+01 0. -1.
</event>
<event>
 5   0  0.6596100E+00  0.9118800E+02  0.7818608E-02  0.1180000E+00
       11   -1    0    0    0    0  0.00000000000E+00  0.00000000000E+00  0.39999999673E+01  0.40000000000E+01  0.51109989000E-03 0. -1.
     -623   -1    0    0    0    0  0.00000000000E+00  0.00000000000E+00  0.12525980253E-10  0.17130000000E+03  0.17130000000E+03 0. -1.
       11    1    1    2    0    0 -0.80948382625E-01 -0.21732534549E-01  0.87492744569E-02  0.84271909520E-01  0.51109989000E-03 0. -1.
     -623    1    1    2    0    0  0.27161117096E+00 -0.17896870652E+00  0.38563343476E+00  0.17130074289E+03  0.17130000000E+03 0. -1.
      622    1    1    2    0    0 -0.19066278834E+00  0.20070124107E+00  0.36056172581E+01  0.39149851978E+01  0.15000000000E+01 0. -1.
</event>
<event>
 5   0  0.6596100E+00  0.9118800E+02  0.7818608E-02  0.1180000E+00
       11   -1    0    0    0    0  0.00000000000E+00  0.00000000000E+00  0.39999999673E+01  0.40000000000E+01  0.51109989000E-03 0.  1.
     -623   -1    0    0    0    0  0.00000000000E+00  0.00000000000E+00  0.12525980253E-10  0.17130000000E+03  0.17130000000E+03 0.  1.
       11    1    1    2    0    0  0.77505808474E-01  0.21449829416E-01  0.15250827698E-02  0.80435269812E-01  0.51109989000E-03 0.  1.
     -623    1    1    2    0    0 -0.54204456832E-01 -0.12356773504E+00  0.37931640503E+00  0.17130047311E+03  0.17130000000E+03 0.  1.
      622    1    1    2    0    0 -0.23301351643E-01  0.10211790562E+00  0.36191584796E+01  0.39190916192E+01  0.15000000000E+01 0.  1.
</event>
<event>
 5   0  0.6596100E+00  0.9118800E+02  0.7818608E-02  0.1180000E+00
       11   -1    0    0    0    0  0.00000000000E+00  0.00000000000E+00  0.39999999673E+01  0.40000000000E+01  0.51109989000E-03 0. -1.
     -623   -1    0    0    0    0  0.00000000000E+00  0.00000000000E+00  0.12525980253E-10  0.17130000000E+03  0.17130000000E+03 0.  1.
       11    1    1    2    0    0  0.11066286759E+00  0.22997234335E+00  0.54040381744E+00  0.59763709397E+00  0.51109989000E-03 0. -1.
     -623    1    1    2    0    0 -0.21660432867E+00 -0.30159423111E+00  0.40940710546E+00  0.17130089168E+03  0.17130000000E+03 0.  1.
      622    1    1    2    0    0  0.10594146108E+00  0.71621887763E-01  0.30501890445E+01  0.34014712251E+01  0.15000000000E+01 0. -1.
</event>
<event>
 5   0  0.6596100E+00  0.9118800E+02  0.7818608E-02  0.1180000E+00
       11   -1    0    0    0    0  0.00000000000E+00  0.00000000000E+00  0.39999999673E+01  0.40000000000E+01  0.51109989000E-03 0.  1.
     -623   -1    0    0    0    0  0.00000000000E+00  0.00000000000E+00  0.12525980253E-10  0.17130000000E+03  0.17130000000E+03 0. -1.
       11    1    1    2    0    0 -0.15061003328E+00 -0.22177914422E+00  0.16330262328E+00  0.31390664047E+00  0.51109989000E-03 0.  1.
     -623    1    1    2    0    0  0.19343802501E-01  0.33107279439E+00  0.47501812065E+00  0.17130097964E+03  0.17130000000E+03 0. -1.
      622    1    1    2    0    0  0.13126623078E+00 -0.10929365017E+00  0.33616792234E+01  0.36851137196E+01  0.15000000000E+01 0.  1.
</event>
<event>
 5   0  0.6596100E+00  0.9118800E+02  0.7818608E-02  0.1180000E+00
       11   -1    0    0    0    0  0.00000000000E+00  0.00000000000E+00  0.39999999673E+01  0.40000000000E+01  0.51109989000E-03 0. -1.
     -623   -1    0    0    0    0  0.00000000000E+00  0.00000000000E+00  0.12525980253E-10  0.17130000000E+03  0.17130000000E+03 0. -1.
       11    1    1    2    0    0 -0.10791132538E+00 -0.11688809049E+00  0.32131531091E+00  0.35854075095E+00  0.51109989000E-03 0. -1.
     -623    1    1    2    0    0  0.15954334733E+00 -0.30526083918E+00  0.38875824827E+00  0.17130078742E+03  0.17130000000E+03 0. -1.
      622    1    1    2    0    0 -0.51632021953E-01  0.42214892967E+00  0.32899264082E+01  0.36406718275E+01  0.15000000000E+01 0. -1.
</event>
<event>
 5   0  0.6596100E+00  0.9118800E+02  0.7818608E-02  0.1180000E+00
       11   -1    0    0    0    0  0.00000000000E+00  0.00000000000E+00  0.39999999673E+01  0.40000000000E+01  0.51109989000E-03 0.  1.
     -623   -1    0    0    0    0  0.00000000000E+00  0.00000000000E+00  0.12525980253E-10  0.17130000000E+03  0.17130000000E+03 0.  1.
       11    1    1    2    0    0  0.13193594604E+00 -0.52997456096E-01  0.16014841899E+00  0.21415788927E+00  0.51109989000E-03 0.  1.
     -623    1    1    2    0    0  0.76710924981E-01  0.23264943224E+00  0.37541053876E+00  0.17130058652E+03  0.17130000000E+03 0.  1.
      622    1    1    2    0    0 -0.20864687102E+00 -0.17965197615E+00  0.34644410096E+01  0.37852555869E+01  0.15000000000E+01 0.  1.
</event>
<event>
 5   0  0.6596100E+00  0.9118800E+02  0.7818608E-02  0.1180000E+00
       11   -1    0    0    0    0  0.00000000000E+00  0.00000000000E+00  0.39999999673E+01  0.40000000000E+01  0.51109989000E-03 0.  1.
     -623   -1    0    0    0    0  0.00000000000E+00  0.00000000000E+00  0.12525980253E-10  0.17130000000E+03  0.17130000000E+03 0.  1.
       11    1    1    2    0    0 -0.50020331620E-01 -0.42661032994E-01  0.10724763010E+00  0.12579472443E+00  0.51109989000E-03 0.  1.
     -623    1    1    2    0    0  0.27165956624E+00  0.29034163619E+00  0.33707346079E+00  0.17130079310E+03  0.17130000000E+03 0.  1.
      622    1    1    2    0    0 -0.22163923462E+00 -0.24768060319E+00  0.35556788765E+01  0.38734121784E+01  0.15000000000E+01 0.  1.
</event>
<event>
 5   0  0.6596100E+00  0.9118800E+02  0.7818608E-02  0.1180000E+00
       11   -1    0    0    0    0  0.00000000000E+00  0.00000000000E+00  0.39999999673E+01  0.40000000000E+01  0.51109989000E-03 0. -1.
     -623   -1    0    0    0    0  0.00000000000E+00  0.00000000000E+00  0.12525980253E-10  0.17130000000E+03  0.17130000000E+03 0. -1.
       11    1    1    2    0    0  0.73069469922E-01 -0.11323937467E+00  0.11782635080E-01  0.13528264901E+00  0.51109989000E-03 0. -1.
     -623    1    1    2    0    0  0.39493419662E-01 -0.58985124822E+00  0.50030900369E+00  0.17130175070E+03  0.17130000000E+03 0. -1.
      622    1    1    2    0    0 -0.11256288958E+00  0.70309062289E+00  0.34879083286E+01  0.38629666497E+01  0.15000000000E+01 0. -1.
</event>
<event>
 5   0  0.6596100E+00  0.9118800E+02  0.7818608E-02  0.1180000E+00
       11   -1    0    0    0    0  0.00000000000E+00  0.00000000000E+00  0.39999999673E+01  0.40000000000E+01  0.51109989000E-03 0. -1.
     -623   -1    0    0    0    0  0.00000000000E+00  0.00000000000E+00  0.12525980253E-10  0.17130000000E+03  0.17130000000E+03 0. -1.
       11    1    1    2    0    0  0.15919917892E-02  0.45512705050E-01  0.20647585823E-01  0.50005247547E-01  0.51109989000E-03 0. -1.
     -623    1    1    2    0    0  0.89483961712E-01 -0.23976733530E+00  0.33211020066E+00  0.17130051311E+03  0.17130000000E+03 0. -1.
      622    1    1    2    0    0 -0.91075953501E-01  0.19425463025E+00  0.36472421809E+01  0.39494816390E+01  0.15000000000E+01 0. -1.
</event>
<event>
 5   0  0.6596100E+00  0.9118800E+02  0.7818608E-02  0.1180000E+00
       11   -1    0    0    0    0  0.00000000000E+00  0.00000000000E+00  0.39999999673E+01  0.40000000000E+01  0.51109989000E-03 0. -1.
     -623   -1    0    0    0    0  0.00000000000E+00  0.00000000000E+00  0.12525980253E-10  0.17130000000E+03  0.17130000000E+03 0. -1.
       11    1    1    2    0    0 -0.61997127904E-01  0.49316927823E-01  0.78721050886E-01  0.11168289177E+00  0.51109989000E-03 0. -1.
     -623    1    1    2    0    0  0.29818164949E+00  0.13761979111E+00  0.34733215798E+00  0.17130066693E+03  0.17130000000E+03 0. -1.
      622    1    1    2    0    0 -0.23618452158E+00 -0.18693671893E+00  0.35739467585E+01  0.38876501769E+01  0.15000000000E+01 0. -1.
</event>
<event>
 5   0  0.6596100E+00  0.9118800E+02  0.7818608E-02  0.1180000E+00
       11   -1    0    0    0    0  0.00000000000E+00  0.00000000000E+00  0.39999999673E+01  0.40000000000E+01  0.51109989000E-03 0. -1.
     -623   -1    0    0    0    0  0.00000000000E+00  0.00000000000E+00  0.12525980253E-10  0.17130000000E+03  0.17130000000E+03 0.  1.
       11    1    1    2    0    0 -0.23473341073E+00  0.94797333232E-02  0.50817491611E+00  0.55984966378E+00  0.51109989000E-03 0. -1.
     -623    1    1    2    0    0  0.38858626716E+00  0.15831423952E+00  0.40540749277E+00  0.17130099363E+03  0.17130000000E+03 0.  1.
      622    1    1    2    0    0 -0.15385285642E+00 -0.16779397284E+00  0.30864175585E+01  0.34391567083E+01  0.15000000000E+01 0. -1.
</event>
<event>
 5   0  0.6596100E+00  0.9118800E+02  0.7818608E-02  0.1180000E+00
       11   -1    0    0    0    0  0.00000000000E+00  0.00000000000E+00  0.39999999673E+01  0.40000000000E+01  0.51109989000E-03 0. -1.
     -623   -1    0    0    0    0  0.00000000000E+00  0.00000000000E+00  0.12525980253E-10  0.17130000000E+03  0.17130000000E+03 0.  1.
       11    1    1    2    0    0  0.12740917055E+00 -0.51341421613E-01  0.11292685226E+00  0.17782512055E+00  0.51109989000E-03 0. -1.
     -623    1    1    2    0    0 -0.60629520599E-01  0.63178288542E-01  0.37265257816E+00  0.17130042772E+03  0.17130000000E+03 0.  1.
      622    1    1    2    0    0 -0.66779649954E-01 -0.11836866928E-01  0.35144205369E+01  0.38217471585E+01  0.15000000000E+01 0. -1.
</event>
<event>
 5   0  0.6596100E+00  0.9118800E+02  0.7818608E-02  0.1180000E+00
       11   -1    0    0    0    0  0.00000000000E+00  0.00000000000E+00  0.39999999673E+01  0.40000000000E+01  0.51109989000E-03 0. -1.
     -623   -1    0    0    0    0  0.00000000000E+00  0.00000000000E+00  0.12525980253E-10  0.17130000000E+03  0.17130000000E+03 0.  1.
       11    1    1    2    0    0 -0.13897547400E+00  0.82954880639E-01  0.75229411196E-01  0.17848086768E+00  0.51109989000E-03 0. -1.
     -623    1    1    2    0    0  0.23974631630E+00  0.13871856717E+00  0.41919165588E+00  0.17130073684E+03  0.17130000000E+03 0.  1.
      622    1    1    2    0    0 -0.10077084230E+00 -0.22167344781E+00  0.35055789003E+01  0.38207822898E+01  0.15000000000E+01 0. -1.
</event>
<event>
 5   0  0.6596100E+00  0.9118800E+02  0.7818608E-02  0.1180000E+00
       11   -1    0    0    0    0  0.00000000000E+00  0.00000000000E+00  0.39999999673E+01  0.40000000000E+01  0.51109989000E-03 0.  1.
     -623   -1    0    0    0    0  0.00000000000E+00  0.00000000000E+00  0.12525980253E-10  0.17130000000E+03  0.17130000000E+03 0. -1.
       11    1    1    2    0    0  0.27068474329E+00 -0.40461033245E-01  0.53508105001E+00  0.60101523838E+00  0.51109989000E-03 0.  1.
     -623    1    1    2    0    0  0.16220352854E-01 -0.35819259010E-01  0.42991208442E+00  0.17130054399E+03  0.17130000000E+03 0. -1.
      622    1    1    2    0    0 -0.28690509614E+00  0.76280292255E-01  0.30350068329E+01  0.33984407738E+01  0.15000000000E+01 0.  1.
</event>
<event>
 5   0  0.6596100E+00  0.9118800E+02  0.7818608E-02  0.1180000E+00
       11   -1    0    0    0    0  0.00000000000E+00  0.00000000000E+00  0.39999999673E+01  0.40000000000E+01  0.51109989000E-03 0.  1.
     -623   -1    0    0    0    0  0.00000000000E+00  0.00000000000E+00  0.12525980253E-10  0.17130000000E+03  0.17130000000E+03 0. -1.
       11    1    1    2    0    0  0.54200857798E-01 -0.53032760761E-01 -0.81029127097E-01  0.11097831933E+00  0.51109989000E-03 0.  1.
     -623    1    1    2    0    0  0.26140420926E+00  0.27881201371E+00  0.51528034624E+00  0.17130120134E+03  0.17130000000E+03 0. -1.
      622    1    1    2    0    0 -0.31560506706E+00 -0.22577925295E+00  0.35657487482E+01  0.38878203360E+01  0.15000000000E+01 0.  1.
</event>
<event>
 5   0  0.6596100E+00  0.9118800E+02  0.7818608E-02  0.1180000E+00
       11   -1    0    0    0    0  0.00000000000E+00  0.00000000000E+00  0.39999999673E+01  0.40000000000E+01  0.51109989000E-03 0. -1.
     -623   -1    0    0    0    0  0.00000000000E+00  0.00000000000E+00  0.12525980253E-10  0.17130000000E+03  0.17130000000E+03 0. -1.
       11    1    1    2    0    0 -0.98305486937E-01  0.53673395907E-02  0.10133243685E+00  0.14128446863E+00  0.51109989000E-03 0. -1.
     -623    1    1    2    0    0 -0.10655222304E+00 -0.36079985638E+00  0.36806595447E+00  0.17130080853E+03  0.17130000000E+03 0. -1.
      622    1    1    2    0    0  0.20485770997E+00  0.35543251679E+00  0.35306015760E+01  0.38579070030E+01  0.15000000000E+01 0. -1.
</event>
<event>
 5   0  0.6596100E+00  0.9118800E+02  0.7818608E-02  0.1180000E+00
       11   -1    0    0    0    0  0.00000000000E+00  0.00000000000E+00  0.39999999673E+01  0.40000000000E+01  0.51109989000E-03 0. -1.
     -623   -1    0    0    0    0  0.00000000000E+00  0.00000000000E+00  0.12525980253E-10  0.17130000000E+03  0.17130000000E+03 0.  1.
       11    1    1    2    0    0 -0.92554475757E-01 -0.18187171954E+00  0.55177948846E+00  0.58830648344E+00  0.51109989000E-03 0. -1.
     -623    1    1    2    0    0  0.82689451149E-01  0.99390819184E-01  0.38563043961E+00  0.17130048286E+03  0.17130000000E+03 0.  1.
      622    1    1    2    0    0  0.98650246079E-02  0.82480900361E-01  0.30625900393E+01  0.34112106599E+01  0.15000000000E+01 0. -1.
</event>
<event>
 5   0  0.6596100E+00  0.9118800E+02  0.7818608E-02  0.1180000E+00
       11   -1    0    0    0    0  0.00000000000E+00  0.00000000000E+00  0.39999999673E+01  0.40000000000E+01  0.51109989000E-03 0.  1.
     -623   -1    0    0    0    0  0.00000000000E+00  0.00000000000E+00  0.12525980253E-10  0.17130000000E+03  0.17130000000E+03 0.  1.
       11    1    1    2    0    0 -0.77339322392E-01 -0.25350011402E+00  0.37344639950E+00  0.45793684403E+00  0.51109989000E-03 0.  1.
     -623    1    1    2    0    0  0.20382440640E+00  0.17441239707E+00  0.42205872521E+00  0.17130073000E+03  0.17130000000E+03 0.  1.
      622    1    1    2    0    0 -0.12648508401E+00  0.79087716954E-01  0.32044948427E+01  0.35413331586E+01  0.15000000000E+01 0.  1.
</event>
<event>
 5   0  0.6596100E+00  0.9118800E+02  0.7818608E-02  0.1180000E+00
       11   -1    0    0    0    0  0.00000000000E+00  0.00000000000E+00  0.39999999673E+01  0.40000000000E+01  0.51109989000E-03 0. -1.
     -623   -1    0    0    0    0  0.00000000000E+00  0.00000000000E+00  0.12525980253E-10  0.17130000000E+03  0.17130000000E+03 0. -1.
       11    1    1    2    0    0 -0.18515151625E+00 -0.39895085718E-01  0.35833025817E+00  0.40530671963E+00  0.51109989000E-03 0. -1.
     -623    1    1    2    0    0  0.42036291313E-01 -0.43230230629E+00  0.41354006315E+00  0.17130104981E+03  0.17130000000E+03 0. -1.
      622    1    1    2    0    0  0.14311522494E+00  0.47219739201E+00  0.32281296460E+01  0.35936434654E+01  0.15000000000E+01 0. -1.
</event>
<event>
 5   0  0.6596100E+00  0.9118800E+02  0.7818608E-02  0.1180000E+00
       11   -1    0    0    0    0  0.00000000000E+00  0.00000000000E+00  0.39999999673E+01  0.40000000000E+01  0.51109989000E-03 0. -1.
     -623   -1    0    0    0    0  0.00000000000E+00  0.00000000000E+00  0.12525980253E-10  0.17130000000E+03  0.17130000000E+03 0. -1.
       11    1    1    2    0    0  0.38203995897E-01  0.14360446267E+00  0.11884810439E+00  0.19028116076E+00  0.51109989000E-03 0. -1.
     -623    1    1    2    0    0 -0.39516000350E-01  0.46752104096E-01  0.38481896679E+00  0.17130044318E+03  0.17130000000E+03 0. -1.
      622    1    1    2    0    0  0.13120044527E-02 -0.19035656677E+00  0.34963328962E+01  0.38092756614E+01  0.15000000000E+01 0. -1.
</event>
<event>
 5   0  0.6596100E+00  0.9118800E+02  0.7818608E-02  0.1180000E+00
       11   -1    0    0    0    0  0.00000000000E+00  0.00000000000E+00  0.39999999673E+01  0.40000000000E+01  0.51109989000E-03 0.  1.
     -623   -1    0    0    0    0  0.00000000000E+00  0.00000000000E+00  0.12525980253E-10  0.17130000000E+03  0.17130000000E+03 0. -1.
       11    1    1    2    0    0 -0.33098097638E+00 -0.19377077100E+00  0.92999473412E+00  0.10059751414E+01  0.51109989000E-03 0.  1.
     -623    1    1    2    0    0 -0.39159668815E+00  0.44520285945E+00  0.59685304678E+00  0.17130206592E+03  0.17130000000E+03 0. -1.
      622    1    1    2    0    0  0.72257766453E+00 -0.25143208845E+00  0.24731521865E+01  0.29919589425E+01  0.15000000000E+01 0.  1.
</event>
<event>
 5   0  0.6596100E+00  0.9118800E+02  0.7818608E-02  0.1180000E+00
       11   -1    0    0    0    0  0.00000000000E+00  0.00000000000E+00  0.39999999673E+01  0.40000000000E+01  0.51109989000E-03 0.  1.
     -623   -1    0    0    0    0  0.00000000000E+00  0.00000000000E+00  0.12525980253E-10  0.17130000000E+03  0.17130000000E+03 0. -1.
       11    1    1    2    0    0 -0.14515690369E+00  0.25663903361E+00  0.26286592625E+00  0.39500997034E+00  0.51109989000E-03 0.  1.
     -623    1    1    2    0    0 -0.62703466055E+00 -0.38775025799E+00  0.55679968008E+00  0.17130249137E+03  0.17130000000E+03 0. -1.
      622    1    1    2    0    0  0.77219156424E+00  0.13111122438E+00  0.31803343610E+01  0.36024986625E+01  0.15000000000E+01 0.  1.
</event>
<event>
 5   0  0.6596100E+00  0.9118800E+02  0.7818608E-02  0.1180000E+00
       11   -1    0    0    0    0  0.00000000000E+00  0.00000000000E+00  0.39999999673E+01  0.40000000000E+01  0.51109989000E-03 0. -1.
     -623   -1    0    0    0    0  0.00000000000E+00  0.00000000000E+00  0.12525980253E-10  0.17130000000E+03  0.17130000000E+03 0.  1.
       11    1    1    2    0    0 -0.16220409289E+00  0.35994054484E+00  0.24727630578E+00  0.46584675184E+00  0.51109989000E-03 0. -1.
     -623    1    1    2    0    0  0.19713575164E+00 -0.21827396822E+00  0.55729591068E+00  0.17130115903E+03  0.17130000000E+03 0.  1.
      622    1    1    2    0    0 -0.34931658749E-01 -0.14166657662E+00  0.31954277509E+01  0.35329942189E+01  0.15000000000E+01 0. -1.
</event>
<event>
 5   0  0.6596100E+00  0.9118800E+02  0.7818608E-02  0.1180000E+00
       11   -1    0    0    0    0  0.00000000000E+00  0.00000000000E+00  0.39999999673E+01  0.40000000000E+01  0.51109989000E-03 0.  1.
     -623   -1    0    0    0    0  0.00000000000E+00  0.00000000000E+00  0.12525980253E-10  0.17130000000E+03  0.17130000000E+03 0.  1.
       11    1    1    2    0    0  0.10963369174E+00 -0.17525641381E+00  0.16358405478E+00  0.26361783162E+00  0.51109989000E-03 0.  1.
     -623    1    1    2    0    0 -0.18524906849E+00  0.10680901033E+00  0.41656693102E+00  0.17130063997E+03  0.17130000000E+03 0.  1.
      622    1    1    2    0    0  0.75615376750E-01  0.68447403485E-01  0.34198489816E+01  0.37357422005E+01  0.15000000000E+01 0.  1.
</event>
<event>
 5   0  0.6596100E+00  0.9118800E+02  0.7818608E-02  0.1180000E+00
       11   -1    0    0    0    0  0.00000000000E+00  0.00000000000E+00  0.39999999673E+01  0.40000000000E+01  0.51109989000E-03 0. -1.
     -623   -1    0    0    0    0  0.00000000000E+00  0.00000000000E+00  0.12525980253E-10  0.17130000000E+03  0.17130000000E+03 0. -1.
       11    1    1    2    0    0  0.18306583108E+00 -0.32345665263E-01 -0.79791253400E-02  0.18607328726E+00  0.51109989000E-03 0. -1.
     -623    1    1    2    0    0 -0.32571265553E+00  0.22856777448E+00  0.51114552433E+00  0.17130122475E+03  0.17130000000E+03 0. -1.
      622    1    1    2    0    0  0.14264682444E+00 -0.19622210921E+00  0.34968335684E+01  0.38127019602E+01  0.15000000000E+01 0. -1.
</event>
<event>
 5   0  0.6596100E+00  0.9118800E+02  0.7818608E-02  0.1180000E+00
       11   -1    0    0    0    0  0.00000000000E+00  0.00000000000E+00  0.39999999673E+01  0.40000000000E+01  0.51109989000E-03 0.  1.
     -623   -1    0    0    0    0  0.00000000000E+00  0.00000000000E+00  0.12525980253E-10  0.17130000000E+03  0.17130000000E+03 0.  1.
       11    1    1    2    0    0 -0.13187497142E+00  0.12304408878E+00  0.23975351662E+00  0.30002144227E+00  0.51109989000E-03 0.  1.
     -623    1    1    2    0    0  0.97097384472E-01 -0.18120526295E+00  0.37923622659E+00  0.17130054315E+03  0.17130000000E+03 0.  1.
      622    1    1    2    0    0  0.34777586946E-01  0.58161174175E-01  0.33810102242E+01  0.36994354081E+01  0.15000000000E+01 0.  1.
</event>
<event>
 5   0  0.6596100E+00  0.9118800E+02  0.7818608E-02  0.1180000E+00
       11   -1    0    0    0    0  0.00000000000E+00  0.00000000000E+00  0.39999999673E+01  0.40000000000E+01  0.51109989000E-03 0.  1.
     -623   -1    0    0    0    0  0.00000000000E+00  0.00000000000E+00  0.12525980253E-10  0.17130000000E+03  0.17130000000E+03 0. -1.
       11    1    1    2    0    0 -0.10253952881E+00  0.16877870843E-01  0.89262262481E-01  0.13699354079E+00  0.51109989000E-03 0.  1.
     -623    1    1    2    0    0  0.21052764204E+00  0.20376900933E+00  0.36001748923E+00  0.17130062888E+03  0.17130000000E+03 0. -1.
      622    1    1    2    0    0 -0.10798811323E+00 -0.22064688017E+00  0.35507202157E+01  0.38623775745E+01  0.15000000000E+01 0.  1.
</event>
<event>
 5   0  0.6596100E+00  0.9118800E+02  0.7818608E-02  0.1180000E+00
       11   -1    0    0    0    0  0.00000000000E+00  0.00000000000E+00  0.39999999673E+01  0.40000000000E+01  0.51109989000E-03 0.  1.
     -623   -1    0    0    0    0  0.00000000000E+00  0.00000000000E+00  0.12525980253E-10  0.17130000000E+03  0.17130000000E+03 0.  1.
       11    1    1    2    0    0  0.26549800490E+00  0.21612521417E+00  0.34730007985E+00  0.48766474703E+00  0.51109989000E-03 0.  1.
     -623    1    1    2    0    0 -0.21403084634E+00  0.48885474706E-01  0.48920105353E+00  0.17130083922E+03  0.17130000000E+03 0.  1.
      622    1    1    2    0    0 -0.51467158568E-01 -0.26501068888E+00  0.31634988340E+01  0.35114960353E+01  0.15000000000E+01 0.  1.
</event>
<event>
 5   0  0.6596100E+00  0.9118800E+02  0.7818608E-02  0.1180000E+00
       11   -1    0    0    0    0  0.00000000000E+00  0.00000000000E+00  0.39999999673E+01  0.40000000000E+01  0.51109989000E-03 0. -1.
     -623   -1    0    0    0    0  0.00000000000E+00  0.00000000000E+00  0.12525980253E-10  0.17130000000E+03  0.17130000000E+03 0. -1.
       11    1    1    2    0    0  0.39305689234E-01  0.50249494468E-02  0.84216402879E-01  0.93074438266E-01  0.51109989000E-03 0. -1.
     -623    1    1    2    0    0  0.62650075745E-01 -0.19319007666E+00  0.31508065546E+00  0.17130041017E+03  0.17130000000E+03 0. -1.
      622    1    1    2    0    0 -0.10195576498E+00  0.18816512722E+00  0.36007029090E+01  0.39065153951E+01  0.15000000000E+01 0. -1.
</event>
<event>
 5   0  0.6596100E+00  0.9118800E+02  0.7818608E-02  0.1180000E+00
       11   -1    0    0    0    0  0.00000000000E+00  0.00000000000E+00  0.39999999673E+01  0.40000000000E+01  0.51109989000E-03 0.  1.
     -623   -1    0    0    0    0  0.00000000000E+00  0.00000000000E+00  0.12525980253E-10  0.17130000000E+03  0.17130000000E+03 0. -1.
       11    1    1    2    0    0 -0.16803643066E+00 -0.28153343430E-01  0.40520073807E-01  0.17513135179E+00  0.51109989000E-03 0.  1.
     -623    1    1    2    0    0  0.16836776884E+00 -0.18544473720E-01  0.44203247313E+00  0.17130065407E+03  0.17130000000E+03 0. -1.
      622    1    1    2    0    0 -0.33133818401E-03  0.46697817151E-01  0.35174474204E+01  0.38242145797E+01  0.15000000000E+01 0.  1.
</event>
<event>
 5   0  0.6596100E+00  0.9118800E+02  0.7818608E-02  0.1180000E+00
       11   -1    0    0    0    0  0.00000000000E+00  0.00000000000E+00  0.39999999673E+01  0.40000000000E+01  0.51109989000E-03 0. -1.
     -623   -1    0    0    0    0  0.00000000000E+00  0.00000000000E+00  0.12525980253E-10  0.17130000000E+03  0.17130000000E+03 0.  1.
       11    1    1    2    0    0  0.45168833374E-01  0.11767991757E+00  0.88533270351E+00  0.89426117194E+00  0.51109989000E-03 0. -1.
     -623    1    1    2    0    0  0.18071327056E+00 -0.17564350164E+00  0.40596051873E+00  0.17130066641E+03  0.17130000000E+03 0.  1.
      622    1    1    2    0    0 -0.22588210394E+00  0.57963584061E-01  0.27087067451E+01  0.31050724199E+01  0.15000000000E+01 0. -1.
</event>
<event>
 5   0  0.6596100E+00  0.9118800E+02  0.7818608E-02  0.1180000E+00
       11   -1    0    0    0    0  0.00000000000E+00  0.00000000000E+00  0.39999999673E+01  0.40000000000E+01  0.51109989000E-03 0. -1.
     -623   -1    0    0    0    0  0.00000000000E+00  0.00000000000E+00  0.12525980253E-10  0.17130000000E+03  0.17130000000E+03 0.  1.
       11    1    1    2    0    0  0.54520305158E-01  0.21929689625E+00  0.17066131083E+00  0.28317686455E+00  0.51109989000E-03 0. -1.
     -623    1    1    2    0    0 -0.14687902472E+00 -0.13250855491E-01  0.43682080010E+00  0.17130062044E+03  0.17130000000E+03 0.  1.
      622    1    1    2    0    0  0.92358719564E-01 -0.20604604076E+00  0.33925178564E+01  0.37162027004E+01  0.15000000000E+01 0. -1.
</event>
<event>
 5   0  0.6596100E+00  0.9118800E+02  0.7818608E-02  0.1180000E+00
       11   -1    0    0    0    0  0.00000000000E+00  0.00000000000E+00  0.39999999673E+01  0.40000000000E+01  0.51109989000E-03 0.  1.
     -623   -1    0    0    0    0  0.00000000000E+00  0.00000000000E+00  0.12525980253E-10  0.17130000000E+03  0.17130000000E+03 0. -1.
       11    1    1    2    0    0 -0.33916592643E+00  0.11545735684E+00  0.18796374460E-01  0.35877220045E+00  0.51109989000E-03 0.  1.
     -623    1    1    2    0    0  0.15618942993E+00 -0.13573328480E+00  0.66998042759E+00  0.17130143517E+03  0.17130000000E+03 0. -1.
      622    1    1    2    0    0  0.18297649651E+00  0.20275927967E-01  0.33112231653E+01  0.36397926262E+01  0.15000000000E+01 0.  1.
</event>
<event>
 5   0  0.6596100E+00  0.9118800E+02  0.7818608E-02  0.1180000E+00
       11   -1    0    0    0    0  0.00000000000E+00  0.00000000000E+00  0.39999999673E+01  0.40000000000E+01  0.51109989000E-03 0.  1.
     -623   -1    0    0    0    0  0.00000000000E+00  0.00000000000E+00  0.12525980253E-10  0.17130000000E+03  0.17130000000E+03 0.  1.
       11    1    1    2    0    0  0.17444632237E+00  0.25585203729E+00  0.65924981611E+00  0.72835593334E+00  0.51109989000E-03 0.  1.
     -623    1    1    2    0    0 -0.28470065233E+00 -0.15971928468E-01  0.44616862361E+00  0.17130081838E+03  0.17130000000E+03 0.  1.
      622    1    1    2    0    0  0.11025432996E+00 -0.23988010882E+00  0.28945815276E+01  0.32708256915E+01  0.15000000000E+01 0.  1.
</event>
<event>
 5   0  0.6596100E+00  0.9118800E+02  0.7818608E-02  0.1180000E+00
       11   -1    0    0    0    0  0.00000000000E+00  0.00000000000E+00  0.39999999673E+01  0.40000000000E+01  0.51109989000E-03 0. -1.
     -623   -1    0    0    0    0  0.00000000000E+00  0.00000000000E+00  0.12525980253E-10  0.17130000000E+03  0.17130000000E+03 0.  1.
       11    1    1    2    0    0  0.84691436232E-02  0.75157331526E-02 -0.12296997654E-01  0.16723935330E-01  0.51109989000E-03 0. -1.
     -623    1    1    2    0    0  0.67999272553E-01  0.19326138951E+00  0.32897823233E+00  0.17130043841E+03  0.17130000000E+03 0.  1.
      622    1    1    2    0    0 -0.76468416176E-01 -0.20077712266E+00  0.36833187327E+01  0.39828376515E+01  0.15000000000E+01 0. -1.
</event>
<event>
 5   0  0.6596100E+00  0.9118800E+02  0.7818608E-02  0.1180000E+00
       11   -1    0    0    0    0  0.00000000000E+00  0.00000000000E+00  0.39999999673E+01  0.40000000000E+01  0.51109989000E-03 0. -1.
     -623   -1    0    0    0    0  0.00000000000E+00  0.00000000000E+00  0.12525980253E-10  0.17130000000E+03  0.17130000000E+03 0.  1.
       11    1    1    2    0    0 -0.21678455881E-01 -0.30450917831E-01  0.95856459538E-02  0.38592223019E-01  0.51109989000E-03 0. -1.
     -623    1    1    2    0    0  0.23341224348E+00  0.18555171292E-01  0.33063520847E+00  0.17130047912E+03  0.17130000000E+03 0.  1.
      622    1    1    2    0    0 -0.21173378760E+00  0.11895746539E-01  0.36597791129E+01  0.39609286614E+01  0.15000000000E+01 0. -1.
</event>
<event>
 5   0  0.6596100E+00  0.9118800E+02  0.7818608E-02  0.1180000E+00
       11   -1    0    0    0    0  0.00000000000E+00  0.00000000000E+00  0.39999999673E+01  0.40000000000E+01  0.51109989000E-03 0. -1.
     -623   -1    0    0    0    0  0.00000000000E+00  0.00000000000E+00  0.12525980253E-10  0.17130000000E+03  0.17130000000E+03 0. -1.
       11    1    1    2    0    0  0.55610805019E-01 -0.57547058405E-01  0.25176588945E+00  0.26417901105E+00  0.51109989000E-03 0. -1.
     -623    1    1    2    0    0 -0.26592268304E+00  0.12318513098E+00  0.33451090622E+00  0.17130057731E+03  0.17130000000E+03 0. -1.
      622    1    1    2    0    0  0.21031187802E+00 -0.65638072579E-01  0.34137231717E+01  0.37352436782E+01  0.15000000000E+01 0. -1.
</event>
<event>
 5   0  0.6596100E+00  0.9118800E+02  0.7818608E-02  0.1180000E+00
       11   -1    0    0    0    0  0.00000000000E+00  0.00000000000E+00  0.39999999673E+01  0.40000000000E+01  0.51109989000E-03 0. -1.
     -623   -1    0    0    0    0  0.00000000000E+00  0.00000000000E+00  0.12525980253E-10  0.17130000000E+03  0.17130000000E+03 0. -1.
       11    1    1    2    0    0 -0.17994322572E+00 -0.17109565499E-01  0.83848765274E+00  0.85774944287E+00  0.51109989000E-03 0. -1.
     -623    1    1    2    0    0  0.30032817021E+00 -0.59068343935E+00  0.47307830295E+00  0.17130193492E+03  0.17130000000E+03 0. -1.
      622    1    1    2    0    0 -0.12038494449E+00  0.60779300485E+00  0.26884340117E+01  0.31403156381E+01  0.15000000000E+01 0. -1.
</event>
<event>
 5   0  0.6596100E+00  0.9118800E+02  0.7818608E-02  0.1180000E+00
       11   -1    0    0    0    0  0.00000000000E+00  0.00000000000E+00  0.39999999673E+01  0.40000000000E+01  0.51109989000E-03 0. -1.
     -623   -1    0    0    0    0  0.00000000000E+00  0.00000000000E+00  0.12525980253E-10  0.17130000000E+03  0.17130000000E+03 0. -1.
       11    1    1    2    0    0  0.11131664053E-01 -0.23193439082E+00  0.14861004599E+00  0.27568584037E+00  0.51109989000E-03 0. -1.
     -623    1    1    2    0    0  0.48726603207E-01  0.29536327086E+00  0.44453422130E+00  0.17130083836E+03  0.17130000000E+03 0. -1.
      622    1    1    2    0    0 -0.59858267261E-01 -0.63428880044E-01  0.34068557001E+01  0.37234757950E+01  0.15000000000E+01 0. -1.
</event>
<event>
 5   0  0.6596100E+00  0.9118800E+02  0.7818608E-02  0.1180000E+00
       11   -1    0    0    0    0  0.00000000000E+00  0.00000000000E+00  0.39999999673E+01  0.40000000000E+01  0.51109989000E-03 0.  1.
     -623   -1    0    0    0    0  0.00000000000E+00  0.00000000000E+00  0.12525980253E-10  0.17130000000E+03  0.17130000000E+03 0. -1.
       11    1    1    2    0    0  0.54675031778E-01 -0.15057081746E-01 -0.52432159595E-01  0.77236438250E-01  0.51109989000E-03 0.  1.
     -623    1    1    2    0    0 -0.69752141859E-01  0.16185752861E+00  0.43147617432E+00  0.17130063408E+03  0.17130000000E+03 0. -1.
      622    1    1    2    0    0  0.15077110081E-01 -0.14680044686E+00  0.36209559526E+01  0.39221294855E+01  0.15000000000E+01 0.  1.
</event>
<event>
 5   0  0.6596100E+00  0.9118800E+02  0.7818608E-02  0.1180000E+00
       11   -1    0    0    0    0  0.00000000000E+00  0.00000000000E+00  0.39999999673E+01  0.40000000000E+01  0.51109989000E-03 0.  1.
     -623   -1    0    0    0    0  0.00000000000E+00  0.00000000000E+00  0.12525980253E-10  0.17130000000E+03  0.17130000000E+03 0.  1.
       11    1    1    2    0    0 -0.23599430952E+00 -0.16665478019E+00  0.18196824314E+00  0.34143788984E+00  0.51109989000E-03 0.  1.
     -623    1    1    2    0    0  0.82109785113E-01 -0.33764391246E+00  0.52430579723E+00  0.17130115482E+03  0.17130000000E+03 0.  1.
      622    1    1    2    0    0  0.15388452441E+00  0.50429869265E+00  0.32937259270E+01  0.36574072921E+01  0.15000000000E+01 0.  1.
</event>
<event>
 5   0  0.6596100E+00  0.9118800E+02  0.7818608E-02  0.1180000E+00
       11   -1    0    0    0    0  0.00000000000E+00  0.00000000000E+00  0.39999999673E+01  0.40000000000E+01  0.51109989000E-03 0. -1.
     -623   -1    0    0    0    0  0.00000000000E+00  0.00000000000E+00  0.12525980253E-10  0.17130000000E+03  0.17130000000E+03 0.  1.
       11    1    1    2    0    0  0.36905020429E-01  0.59957998829E-01 -0.87079694337E-02  0.70943865906E-01  0.51109989000E-03 0. -1.
     -623    1    1    2    0    0  0.13535273914E+00 -0.30083663164E+00  0.39017236972E+00  0.17130076199E+03  0.17130000000E+03 0.  1.
      622    1    1    2    0    0 -0.17225775957E+00  0.24087863281E+00  0.36185355671E+01  0.39282941465E+01  0.15000000000E+01 0. -1.
</event>
<event>
 5   0  0.6596100E+00  0.9118800E+02  0.7818608E-02  0.1180000E+00
       11   -1    0    0    0    0  0.00000000000E+00  0.00000000000E+00  0.39999999673E+01  0.40000000000E+01  0.51109989000E-03 0.  1.
     -623   -1    0    0    0    0  0.00000000000E+00  0.00000000000E+00  0.12525980253E-10  0.17130000000E+03  0.17130000000E+03 0. -1.
       11    1    1    2    0    0 -0.10133400524E+00  0.68593684322E-01  0.53524713371E-01  0.13356208410E+00  0.51109989000E-03 0.  1.
     -623    1    1    2    0    0  0.29238192688E+00  0.14151653347E+00  0.39502576914E+00  0.17130076345E+03  0.17130000000E+03 0. -1.
      622    1    1    2    0    0 -0.19104792164E+00 -0.21011021779E+00  0.35514494848E+01  0.38656744632E+01  0.15000000000E+01 0.  1.
</event>
<event>
 5   0  0.6596100E+00  0.9118800E+02  0.7818608E-02  0.1180000E+00
       11   -1    0    0    0    0  0.00000000000E+00  0.00000000000E+00  0.39999999673E+01  0.40000000000E+01  0.51109989000E-03 0.  1.
     -623   -1    0    0    0    0  0.00000000000E+00  0.00000000000E+00  0.12525980253E-10  0.17130000000E+03  0.17130000000E+03 0.  1.
       11    1    1    2    0    0 -0.14380336288E+00  0.22193515335E+00  0.42140249387E+00  0.49750873614E+00  0.51109989000E-03 0.  1.
     -623    1    1    2    0    0  0.18157802697E+00  0.12025397698E+00  0.43310545666E+00  0.17130068596E+03  0.17130000000E+03 0.  1.
      622    1    1    2    0    0 -0.37774664093E-01 -0.34218913032E+00  0.31454920168E+01  0.35018052993E+01  0.15000000000E+01 0.  0.
</event>
<event>
 5   0  0.6596100E+00  0.9118800E+02  0.7818608E-02  0.1180000E+00
       11   -1    0    0    0    0  0.00000000000E+00  0.00000000000E+00  0.39999999673E+01  0.40000000000E+01  0.51109989000E-03 0. -1.
     -623   -1    0    0    0    0  0.00000000000E+00  0.00000000000E+00  0.12525980253E-10  0.17130000000E+03  0.17130000000E+03 0. -1.
       11    1    1    2    0    0  0.55018717355E-01  0.17924476648E+00  0.24909360489E+00  0.31177496819E+00  0.51109989000E-03 0. -1.
     -623    1    1    2    0    0  0.85498539327E-01 -0.85899791416E-01  0.38623437622E+00  0.17130047830E+03  0.17130000000E+03 0. -1.
      622    1    1    2    0    0 -0.14051725668E+00 -0.93344975063E-01  0.33646719863E+01  0.36877467319E+01  0.15000000000E+01 0. -1.
</event>
<event>
 5   0  0.6596100E+00  0.9118800E+02  0.7818608E-02  0.1180000E+00
       11   -1    0    0    0    0  0.00000000000E+00  0.00000000000E+00  0.39999999673E+01  0.40000000000E+01  0.51109989000E-03 0. -1.
     -623   -1    0    0    0    0  0.00000000000E+00  0.00000000000E+00  0.12525980253E-10  0.17130000000E+03  0.17130000000E+03 0. -1.
       11    1    1    2    0    0 -0.71736894270E-01  0.96833102512E-01  0.70650189711E+00  0.71670637194E+00  0.51109989000E-03 0. -1.
     -623    1    1    2    0    0  0.52576459198E+00 -0.10077945671E+00  0.40989809625E+00  0.17130132691E+03  0.17130000000E+03 0. -1.
      622    1    1    2    0    0 -0.45402769771E+00  0.39463541971E-02  0.28835999740E+01  0.32819667174E+01  0.15000000000E+01 0. -1.
</event>
<event>
 5   0  0.6596100E+00  0.9118800E+02  0.7818608E-02  0.1180000E+00
       11   -1    0    0    0    0  0.00000000000E+00  0.00000000000E+00  0.39999999673E+01  0.40000000000E+01  0.51109989000E-03 0.  1.
     -623   -1    0    0    0    0  0.00000000000E+00  0.00000000000E+00  0.12525980253E-10  0.17130000000E+03  0.17130000000E+03 0.  1.
       11    1    1    2    0    0 -0.26606374035E-01  0.44141588704E-01  0.10063399435E+00  0.11306564922E+00  0.51109989000E-03 0.  1.
     -623    1    1    2    0    0  0.22851775686E+00 -0.45456555460E-01  0.31970987355E+00  0.17130045680E+03  0.17130000000E+03 0.  1.
      622    1    1    2    0    0 -0.20191138283E+00  0.13149667558E-02  0.35796560995E+01  0.38864775473E+01  0.15000000000E+01 0.  1.
</event>
<event>
 5   0  0.6596100E+00  0.9118800E+02  0.7818608E-02  0.1180000E+00
       11   -1    0    0    0    0  0.00000000000E+00  0.00000000000E+00  0.39999999673E+01  0.40000000000E+01  0.51109989000E-03 0.  1.
     -623   -1    0    0    0    0  0.00000000000E+00  0.00000000000E+00  0.12525980253E-10  0.17130000000E+03  0.17130000000E+03 0.  1.
       11    1    1    2    0    0  0.57242532691E-01  0.14021257658E+00  0.74415841697E-01  0.16874315660E+00  0.51109989000E-03 0.  1.
     -623    1    1    2    0    0  0.23677777554E+00 -0.71260359346E-01  0.41387106483E+00  0.17130067843E+03  0.17130000000E+03 0.  1.
      622    1    1    2    0    0 -0.29402030823E+00 -0.68952217235E-01  0.35117130608E+01  0.38305784121E+01  0.15000000000E+01 0.  1.
</event>
<event>
 5   0  0.6596100E+00  0.9118800E+02  0.7818608E-02  0.1180000E+00
       11   -1    0    0    0    0  0.00000000000E+00  0.00000000000E+00  0.39999999673E+01  0.40000000000E+01  0.51109989000E-03 0. -1.
     -623   -1    0    0    0    0  0.00000000000E+00  0.00000000000E+00  0.12525980253E-10  0.17130000000E+03  0.17130000000E+03 0.  1.
       11    1    1    2    0    0 -0.24875655321E+00 -0.70582762131E-01  0.38583370041E+00  0.46446706522E+00  0.51109989000E-03 0. -1.
     -623    1    1    2    0    0  0.24693053416E+00  0.90056566479E-01  0.41343865109E+00  0.17130070057E+03  0.17130000000E+03 0.  1.
      622    1    1    2    0    0  0.18260190551E-02 -0.19473804348E-01  0.32007276159E+01  0.35348323630E+01  0.15000000000E+01 0. -1.
</event>
<event>
 5   0  0.6596100E+00  0.9118800E+02  0.7818608E-02  0.1180000E+00
       11   -1    0    0    0    0  0.00000000000E+00  0.00000000000E+00  0.39999999673E+01  0.40000000000E+01  0.51109989000E-03 0. -1.
     -623   -1    0    0    0    0  0.00000000000E+00  0.00000000000E+00  0.12525980253E-10  0.17130000000E+03  0.17130000000E+03 0. -1.
       11    1    1    2    0    0  0.42377162126E+00  0.14548006153E+00  0.95658984717E+00  0.10563196638E+01  0.51109989000E-03 0. -1.
     -623    1    1    2    0    0 -0.95717362925E-01 -0.16478995956E+00  0.53308048283E+00  0.17130093547E+03  0.17130000000E+03 0. -1.
      622    1    1    2    0    0 -0.32805425833E+00  0.19309898036E-01  0.25103296374E+01  0.29427448678E+01  0.15000000000E+01 0.  0.
</event>
<event>
 5   0  0.6596100E+00  0.9118800E+02  0.7818608E-02  0.1180000E+00
       11   -1    0    0    0    0  0.00000000000E+00  0.00000000000E+00  0.39999999673E+01  0.40000000000E+01  0.51109989000E-03 0. -1.
     -623   -1    0    0    0    0  0.00000000000E+00  0.00000000000E+00  0.12525980253E-10  0.17130000000E+03  0.17130000000E+03 0.  1.
       11    1    1    2    0    0 -0.92710092287E-01  0.14741167588E+00  0.80612601193E+00  0.82472102661E+00  0.51109989000E-03 0. -1.
     -623    1    1    2    0    0 -0.49140847130E-01 -0.45970547268E-01  0.40121985310E+00  0.17130048309E+03  0.17130000000E+03 0.  1.
      622    1    1    2    0    0  0.14185093942E+00 -0.10144112861E+00  0.27926541023E+01  0.31747958874E+01  0.15000000000E+01 0. -1.
</event>
<event>
 5   0  0.6596100E+00  0.9118800E+02  0.7818608E-02  0.1180000E+00
       11   -1    0    0    0    0  0.00000000000E+00  0.00000000000E+00  0.39999999673E+01  0.40000000000E+01  0.51109989000E-03 0. -1.
     -623   -1    0    0    0    0  0.00000000000E+00  0.00000000000E+00  0.12525980253E-10  0.17130000000E+03  0.17130000000E+03 0. -1.
       11    1    1    2    0    0 -0.27586258194E-01  0.49242391935E-01  0.20488680158E+00  0.21251982845E+00  0.51109989000E-03 0. -1.
     -623    1    1    2    0    0  0.11021891836E+00 -0.19130145327E+00  0.32169533488E+00  0.17130044434E+03  0.17130000000E+03 0. -1.
      622    1    1    2    0    0 -0.82632660168E-01  0.14205906134E+00  0.34734178309E+01  0.37870358279E+01  0.15000000000E+01 0. -1.
</event>
<event>
 5   0  0.6596100E+00  0.9118800E+02  0.7818608E-02  0.1180000E+00
       11   -1    0    0    0    0  0.00000000000E+00  0.00000000000E+00  0.39999999673E+01  0.40000000000E+01  0.51109989000E-03 0. -1.
     -623   -1    0    0    0    0  0.00000000000E+00  0.00000000000E+00  0.12525980253E-10  0.17130000000E+03  0.17130000000E+03 0. -1.
       11    1    1    2    0    0  0.28091133888E-02  0.75525543034E-01  0.47495412476E+00  0.48093001634E+00  0.51109989000E-03 0. -1.
     -623    1    1    2    0    0  0.21022310456E+00 -0.47137291764E-01  0.34948250259E+00  0.17130049198E+03  0.17130000000E+03 0. -1.
      622    1    1    2    0    0 -0.21303221795E+00 -0.28388251271E-01  0.31755633400E+01  0.35185780004E+01  0.15000000000E+01 0.  0.
</event>
<event>
 5   0  0.6596100E+00  0.9118800E+02  0.7818608E-02  0.1180000E+00
       11   -1    0    0    0    0  0.00000000000E+00  0.00000000000E+00  0.39999999673E+01  0.40000000000E+01  0.51109989000E-03 0. -1.
     -623   -1    0    0    0    0  0.00000000000E+00  0.00000000000E+00  0.12525980253E-10  0.17130000000E+03  0.17130000000E+03 0.  1.
       11    1    1    2    0    0  0.24541313451E+00  0.48973907648E-01  0.91822112699E+00  0.95171232497E+00  0.51109989000E-03 0. -1.
     -623    1    1    2    0    0  0.17038282225E+00  0.23349446475E+00  0.47719731495E+00  0.17130090854E+03  0.17130000000E+03 0.  1.
      622    1    1    2    0    0 -0.41579595676E+00 -0.28246837240E+00  0.26045815254E+01  0.30473791332E+01  0.15000000000E+01 0.  1.
</event>
<event>
 5   0  0.6596100E+00  0.9118800E+02  0.7818608E-02  0.1180000E+00
       11   -1    0    0    0    0  0.00000000000E+00  0.00000000000E+00  0.39999999673E+01  0.40000000000E+01  0.51109989000E-03 0.  1.
     -623   -1    0    0    0    0  0.00000000000E+00  0.00000000000E+00  0.12525980253E-10  0.17130000000E+03  0.17130000000E+03 0.  1.
       11    1    1    2    0    0 -0.19958886760E-01 -0.24665427694E-01  0.14095235744E+00  0.14448034044E+00  0.51109989000E-03 0.  1.
     -623    1    1    2    0    0 -0.11512204336E+00  0.21813244730E+00  0.31563906442E+00  0.17130046837E+03  0.17130000000E+03 0.  1.
      622    1    1    2    0    0  0.13508093012E+00 -0.19346701960E+00  0.35434085455E+01  0.38550512922E+01  0.15000000000E+01 0.  1.
</event>
<event>
 5   0  0.6596100E+00  0.9118800E+02  0.7818608E-02  0.1180000E+00
       11   -1    0    0    0    0  0.00000000000E+00  0.00000000000E+00  0.39999999673E+01  0.40000000000E+01  0.51109989000E-03 0. -1.
     -623   -1    0    0    0    0  0.00000000000E+00  0.00000000000E+00  0.12525980253E-10  0.17130000000E+03  0.17130000000E+03 0.  1.
       11    1    1    2    0    0  0.74356884421E-01  0.14275148557E+00 -0.89341950068E-01  0.18409013595E+00  0.51109989000E-03 0. -1.
     -623    1    1    2    0    0 -0.40129663731E+00 -0.16805796706E+00  0.59771396636E+00  0.17130159528E+03  0.17130000000E+03 0.  1.
      622    1    1    2    0    0  0.32693975289E+00  0.25306481491E-01  0.34916279511E+01  0.38143145870E+01  0.15000000000E+01 0. -1.
</event>
<event>
 5   0  0.6596100E+00  0.9118800E+02  0.7818608E-02  0.1180000E+00
       11   -1    0    0    0    0  0.00000000000E+00  0.00000000000E+00  0.39999999673E+01  0.40000000000E+01  0.51109989000E-03 0.  1.
     -623   -1    0    0    0    0  0.00000000000E+00  0.00000000000E+00  0.12525980253E-10  0.17130000000E+03  0.17130000000E+03 0.  1.
       11    1    1    2    0    0  0.60582303294E-01 -0.31225834236E+00  0.19804540588E+00  0.37469685328E+00  0.51109989000E-03 0.  1.
     -623    1    1    2    0    0  0.15607828311E+00 -0.25867486446E+00  0.55983284356E+00  0.17130118122E+03  0.17130000000E+03 0.  1.
      622    1    1    2    0    0 -0.21666058640E+00  0.57093320682E+00  0.32421217179E+01  0.36241219309E+01  0.15000000000E+01 0.  1.
</event>
<event>
 5   0  0.6596100E+00  0.9118800E+02  0.7818608E-02  0.1180000E+00
       11   -1    0    0    0    0  0.00000000000E+00  0.00000000000E+00  0.39999999673E+01  0.40000000000E+01  0.51109989000E-03 0. -1.
     -623   -1    0    0    0    0  0.00000000000E+00  0.00000000000E+00  0.12525980253E-10  0.17130000000E+03  0.17130000000E+03 0. -1.
       11    1    1    2    0    0 -0.29977896756E+00 -0.17297532759E+00  0.71142394761E+00  0.79114612292E+00  0.51109989000E-03 0. -1.
     -623    1    1    2    0    0  0.17003870938E+00  0.15912101028E+00  0.45576605783E+00  0.17130076461E+03  0.17130000000E+03 0. -1.
      622    1    1    2    0    0  0.12974025817E+00  0.13854317318E-01  0.28328099619E+01  0.32080892689E+01  0.15000000000E+01 0. -1.
</event>
<event>
 5   0  0.6596100E+00  0.9118800E+02  0.7818608E-02  0.1180000E+00
       11   -1    0    0    0    0  0.00000000000E+00  0.00000000000E+00  0.39999999673E+01  0.40000000000E+01  0.51109989000E-03 0. -1.
     -623   -1    0    0    0    0  0.00000000000E+00  0.00000000000E+00  0.12525980253E-10  0.17130000000E+03  0.17130000000E+03 0.  1.
       11    1    1    2    0    0 -0.10257743185E+00 -0.27628292370E-02  0.55620394417E+00  0.56559071021E+00  0.51109989000E-03 0. -1.
     -623    1    1    2    0    0  0.26751236232E+00 -0.22832977700E-02  0.35933255057E+00  0.17130058578E+03  0.17130000000E+03 0.  1.
      622    1    1    2    0    0 -0.16493493048E+00  0.50461270070E-02  0.30844634726E+01  0.34338235116E+01  0.15000000000E+01 0. -1.
</event>
<event>
 5   0  0.6596100E+00  0.9118800E+02  0.7818608E-02  0.1180000E+00
       11   -1    0    0    0    0  0.00000000000E+00  0.00000000000E+00  0.39999999673E+01  0.40000000000E+01  0.51109989000E-03 0. -1.
     -623   -1    0    0    0    0  0.00000000000E+00  0.00000000000E+00  0.12525980253E-10  0.17130000000E+03  0.17130000000E+03 0.  1.
       11    1    1    2    0    0  0.12174450476E+00 -0.16717788722E+00  0.35794651458E+00  0.41339586227E+00  0.51109989000E-03 0. -1.
     -623    1    1    2    0    0 -0.66818255097E-01  0.54078021179E+00  0.40763854257E+00  0.17130135165E+03  0.17130000000E+03 0.  1.
      622    1    1    2    0    0 -0.54926249667E-01 -0.37360232457E+00  0.32344149102E+01  0.35852524878E+01  0.15000000000E+01 0. -1.
</event>
<event>
 5   0  0.6596100E+00  0.9118800E+02  0.7818608E-02  0.1180000E+00
       11   -1    0    0    0    0  0.00000000000E+00  0.00000000000E+00  0.39999999673E+01  0.40000000000E+01  0.51109989000E-03 0.  1.
     -623   -1    0    0    0    0  0.00000000000E+00  0.00000000000E+00  0.12525980253E-10  0.17130000000E+03  0.17130000000E+03 0.  1.
       11    1    1    2    0    0 -0.70434686671E-02  0.56173226396E-01  0.31771799637E-01  0.64921108200E-01  0.51109989000E-03 0.  1.
     -623    1    1    2    0    0 -0.18634747866E+00  0.42444477922E-01  0.33721325634E+00  0.17130043853E+03  0.17130000000E+03 0.  1.
      622    1    1    2    0    0  0.19339094733E+00 -0.98617704318E-01  0.36310149114E+01  0.39346403644E+01  0.15000000000E+01 0.  1.
</event>
<event>
 5   0  0.6596100E+00  0.9118800E+02  0.7818608E-02  0.1180000E+00
       11   -1    0    0    0    0  0.00000000000E+00  0.00000000000E+00  0.39999999673E+01  0.40000000000E+01  0.51109989000E-03 0.  1.
     -623   -1    0    0    0    0  0.00000000000E+00  0.00000000000E+00  0.12525980253E-10  0.17130000000E+03  0.17130000000E+03 0. -1.
       11    1    1    2    0    0 -0.36959518321E-01  0.28855415101E-01  0.53956640034E-01  0.71485811189E-01  0.51109989000E-03 0.  1.
     -623    1    1    2    0    0  0.31468302431E+00 -0.83701414007E-02  0.32651898722E+00  0.17130060044E+03  0.17130000000E+03 0. -1.
      622    1    1    2    0    0 -0.27772350599E+00 -0.20485273700E-01  0.36195243401E+01  0.39279137517E+01  0.15000000000E+01 0.  1.
</event>
<event>
 5   0  0.6596100E+00  0.9118800E+02  0.7818608E-02  0.1180000E+00
       11   -1    0    0    0    0  0.00000000000E+00  0.00000000000E+00  0.39999999673E+01  0.40000000000E+01  0.51109989000E-03 0.  1.
     -623   -1    0    0    0    0  0.00000000000E+00  0.00000000000E+00  0.12525980253E-10  0.17130000000E+03  0.17130000000E+03 0. -1.
       11    1    1    2    0    0  0.93168692882E-01  0.18671301880E+00  0.27343816706E+00  0.34396344159E+00  0.51109989000E-03 0.  1.
     -623    1    1    2    0    0 -0.27601755356E+00  0.81712286935E-01  0.40906604733E+00  0.17130073029E+03  0.17130000000E+03 0. -1.
      622    1    1    2    0    0  0.18284886068E+00 -0.26842530574E+00  0.33174957530E+01  0.36553062692E+01  0.15000000000E+01 0.  1.
</event>
<event>
 5   0  0.6596100E+00  0.9118800E+02  0.7818608E-02  0.1180000E+00
       11   -1    0    0    0    0  0.00000000000E+00  0.00000000000E+00  0.39999999673E+01  0.40000000000E+01  0.51109989000E-03 0. -1.
     -623   -1    0    0    0    0  0.00000000000E+00  0.00000000000E+00  0.12525980253E-10  0.17130000000E+03  0.17130000000E+03 0. -1.
       11    1    1    2    0    0 -0.15251484738E-01  0.21655290372E-01 -0.42587224625E-01  0.50154683851E-01  0.51109989000E-03 0. -1.
     -623    1    1    2    0    0 -0.59522870279E-01 -0.62500221747E-01  0.39014455247E+00  0.17130046603E+03  0.17130000000E+03 0. -1.
      622    1    1    2    0    0  0.74774355018E-01  0.40844931375E-01  0.36524426395E+01  0.39493792864E+01  0.15000000000E+01 0. -1.
</event>
<event>
 5   0  0.6596100E+00  0.9118800E+02  0.7818608E-02  0.1180000E+00
       11   -1    0    0    0    0  0.00000000000E+00  0.00000000000E+00  0.39999999673E+01  0.40000000000E+01  0.51109989000E-03 0.  1.
     -623   -1    0    0    0    0  0.00000000000E+00  0.00000000000E+00  0.12525980253E-10  0.17130000000E+03  0.17130000000E+03 0. -1.
       11    1    1    2    0    0 -0.15000994011E-01 -0.12999739101E-01 -0.59112475656E-02  0.20717796912E-01  0.51109989000E-03 0.  1.
     -623    1    1    2    0    0 -0.44189685330E-01 -0.19246437615E+00  0.32683787316E+00  0.17130042562E+03  0.17130000000E+03 0. -1.
      622    1    1    2    0    0  0.59190679341E-01  0.20546411525E+00  0.36790733418E+01  0.39788565811E+01  0.15000000000E+01 0.  1.
</event>
<event>
 5   0  0.6596100E+00  0.9118800E+02  0.7818608E-02  0.1180000E+00
       11   -1    0    0    0    0  0.00000000000E+00  0.00000000000E+00  0.39999999673E+01  0.40000000000E+01  0.51109989000E-03 0. -1.
     -623   -1    0    0    0    0  0.00000000000E+00  0.00000000000E+00  0.12525980253E-10  0.17130000000E+03  0.17130000000E+03 0.  1.
       11    1    1    2    0    0 -0.13221795202E+00 -0.13112708122E+00 -0.41785847924E-01  0.19084605465E+00  0.51109989000E-03 0. -1.
     -623    1    1    2    0    0  0.11353511107E+00  0.51557280591E-01  0.54234474551E+00  0.17130090393E+03  0.17130000000E+03 0.  1.
      622    1    1    2    0    0  0.18682840947E-01  0.79569800626E-01  0.34994410698E+01  0.38082500184E+01  0.15000000000E+01 0. -1.
</event>
<event>
 5   0  0.6596100E+00  0.9118800E+02  0.7818608E-02  0.1180000E+00
       11   -1    0    0    0    0  0.00000000000E+00  0.00000000000E+00  0.39999999673E+01  0.40000000000E+01  0.51109989000E-03 0. -1.
     -623   -1    0    0    0    0  0.00000000000E+00  0.00000000000E+00  0.12525980253E-10  0.17130000000E+03  0.17130000000E+03 0.  1.
       11    1    1    2    0    0  0.98336589478E-01 -0.37217660181E-01  0.24051988348E+00  0.26249821834E+00  0.51109989000E-03 0. -1.
     -623    1    1    2    0    0 -0.83169179722E-01 -0.30115514049E-02  0.33684300943E+00  0.17130035140E+03  0.17130000000E+03 0.  1.
      622    1    1    2    0    0 -0.15167409756E-01  0.40229211585E-01  0.34226370745E+01  0.37371503827E+01  0.15000000000E+01 0. -1.
</event>
<event>
 5   0  0.6596100E+00  0.9118800E+02  0.7818608E-02  0.1180000E+00
       11   -1    0    0    0    0  0.00000000000E+00  0.00000000000E+00  0.39999999673E+01  0.40000000000E+01  0.51109989000E-03 0.  1.
     -623   -1    0    0    0    0  0.00000000000E+00  0.00000000000E+00  0.12525980253E-10  0.17130000000E+03  0.17130000000E+03 0.  1.
       11    1    1    2    0    0  0.18099019784E-01  0.90888734810E-01  0.26428314623E+00  0.28006102770E+00  0.51109989000E-03 0.  1.
     -623    1    1    2    0    0  0.23746137877E+00  0.10260798614E+00  0.34733650773E+00  0.17130054746E+03  0.17130000000E+03 0.  1.
      622    1    1    2    0    0 -0.25556039856E+00 -0.19349672095E+00  0.33883803134E+01  0.37193915156E+01  0.15000000000E+01 0.  1.
</event>
<event>
 5   0  0.6596100E+00  0.9118800E+02  0.7818608E-02  0.1180000E+00
       11   -1    0    0    0    0  0.00000000000E+00  0.00000000000E+00  0.39999999673E+01  0.40000000000E+01  0.51109989000E-03 0.  1.
     -623   -1    0    0    0    0  0.00000000000E+00  0.00000000000E+00  0.12525980253E-10  0.17130000000E+03  0.17130000000E+03 0. -1.
       11    1    1    2    0    0  0.56508944979E-02  0.50118421707E-01  0.34134394704E+00  0.34505034445E+00  0.51109989000E-03 0.  1.
     -623    1    1    2    0    0  0.16543260509E+00 -0.26748291097E+00  0.33787384789E+00  0.17130062193E+03  0.17130000000E+03 0. -1.
      622    1    1    2    0    0 -0.17108349959E+00  0.21736448926E+00  0.33207821724E+01  0.36543277250E+01  0.15000000000E+01 0.  1.
</event>
<event>
 5   0  0.6596100E+00  0.9118800E+02  0.7818608E-02  0.1180000E+00
       11   -1    0    0    0    0  0.00000000000E+00  0.00000000000E+00  0.39999999673E+01  0.40000000000E+01  0.51109989000E-03 0. -1.
     -623   -1    0    0    0    0  0.00000000000E+00  0.00000000000E+00  0.12525980253E-10  0.17130000000E+03  0.17130000000E+03 0. -1.
       11    1    1    2    0    0  0.25786796159E-01 -0.95615639568E-01  0.56080746176E-03  0.99034767200E-01  0.51109989000E-03 0. -1.
     -623    1    1    2    0    0 -0.31865305087E+00 -0.93657829845E-01  0.41621739849E+00  0.17130082764E+03  0.17130000000E+03 0. -1.
      622    1    1    2    0    0  0.29286625471E+00  0.18927346941E+00  0.35832217614E+01  0.39001375977E+01  0.15000000000E+01 0. -1.
</event>
<event>
 5   0  0.6596100E+00  0.9118800E+02  0.7818608E-02  0.1180000E+00
       11   -1    0    0    0    0  0.00000000000E+00  0.00000000000E+00  0.39999999673E+01  0.40000000000E+01  0.51109989000E-03 0. -1.
     -623   -1    0    0    0    0  0.00000000000E+00  0.00000000000E+00  0.12525980253E-10  0.17130000000E+03  0.17130000000E+03 0. -1.
       11    1    1    2    0    0  0.67459111836E-01 -0.56905221296E-01  0.56216536459E-01  0.10463984029E+00  0.51109989000E-03 0. -1.
     -623    1    1    2    0    0 -0.21251487915E+00 -0.46418456137E-01  0.35377060516E+00  0.17130050342E+03  0.17130000000E+03 0. -1.
      622    1    1    2    0    0  0.14505576732E+00  0.10332367743E+00  0.35900128257E+01  0.38948567428E+01  0.15000000000E+01 0. -1.
</event>
<event>
 5   0  0.6596100E+00  0.9118800E+02  0.7818608E-02  0.1180000E+00
       11   -1    0    0    0    0  0.00000000000E+00  0.00000000000E+00  0.39999999673E+01  0.40000000000E+01  0.51109989000E-03 0.  1.
     -623   -1    0    0    0    0  0.00000000000E+00  0.00000000000E+00  0.12525980253E-10  0.17130000000E+03  0.17130000000E+03 0. -1.
       11    1    1    2    0    0 -0.53113047601E-01  0.19467864010E-01  0.23278880566E+00  0.23956394306E+00  0.51109989000E-03 0.  1.
     -623    1    1    2    0    0  0.10408022426E+00  0.26459585670E+00  0.33160332597E+00  0.17130055693E+03  0.17130000000E+03 0. -1.
      622    1    1    2    0    0 -0.50967176663E-01 -0.28406372071E+00  0.34356078357E+01  0.37598791272E+01  0.15000000000E+01 0.  1.
</event>
<event>
 5   0  0.6596100E+00  0.9118800E+02  0.7818608E-02  0.1180000E+00
       11   -1    0    0    0    0  0.00000000000E+00  0.00000000000E+00  0.39999999673E+01  0.40000000000E+01  0.51109989000E-03 0. -1.
     -623   -1    0    0    0    0  0.00000000000E+00  0.00000000000E+00  0.12525980253E-10  0.17130000000E+03  0.17130000000E+03 0. -1.
       11    1    1    2    0    0 -0.32643577978E+00  0.15650986756E+00  0.51566155973E-01  0.36567059853E+00  0.51109989000E-03 0. -1.
     -623    1    1    2    0    0  0.56742595008E+00  0.45939087842E+00  0.70821783118E+00  0.17130301978E+03  0.17130000000E+03 0. -1.
      622    1    1    2    0    0 -0.24099017029E+00 -0.61590074598E+00  0.32402159802E+01  0.36313096246E+01  0.15000000000E+01 0. -1.
</event>
<event>
 5   0  0.6596100E+00  0.9118800E+02  0.7818608E-02  0.1180000E+00
       11   -1    0    0    0    0  0.00000000000E+00  0.00000000000E+00  0.39999999673E+01  0.40000000000E+01  0.51109989000E-03 0.  1.
     -623   -1    0    0    0    0  0.00000000000E+00  0.00000000000E+00  0.12525980253E-10  0.17130000000E+03  0.17130000000E+03 0. -1.
       11    1    1    2    0    0 -0.25439683764E-02 -0.16009502677E+00  0.11528384140E+00  0.19730056939E+00  0.51109989000E-03 0.  1.
     -623    1    1    2    0    0  0.39170584715E+00  0.30102085118E+00  0.41629390625E+00  0.17130121817E+03  0.17130000000E+03 0. -1.
      622    1    1    2    0    0 -0.38916187877E+00 -0.14092582441E+00  0.34684222197E+01  0.38014812574E+01  0.15000000000E+01 0.  1.
</event>
<event>
 5   0  0.6596100E+00  0.9118800E+02  0.7818608E-02  0.1180000E+00
       11   -1    0    0    0    0  0.00000000000E+00  0.00000000000E+00  0.39999999673E+01  0.40000000000E+01  0.51109989000E-03 0.  1.
     -623   -1    0    0    0    0  0.00000000000E+00  0.00000000000E+00  0.12525980253E-10  0.17130000000E+03  0.17130000000E+03 0. -1.
       11    1    1    2    0    0 -0.48351478468E-01 -0.22588319552E+00  0.31641520686E+00  0.39176514372E+00  0.51109989000E-03 0.  1.
     -623    1    1    2    0    0  0.20310826171E+00 -0.12673897736E+00  0.42535688690E+00  0.17130069540E+03  0.17130000000E+03 0. -1.
      622    1    1    2    0    0 -0.15475678324E+00  0.35262217287E+00  0.32582278736E+01  0.36075394572E+01  0.15000000000E+01 0.  1.
</event>
<event>
 5   0  0.6596100E+00  0.9118800E+02  0.7818608E-02  0.1180000E+00
       11   -1    0    0    0    0  0.00000000000E+00  0.00000000000E+00  0.39999999673E+01  0.40000000000E+01  0.51109989000E-03 0.  1.
     -623   -1    0    0    0    0  0.00000000000E+00  0.00000000000E+00  0.12525980253E-10  0.17130000000E+03  0.17130000000E+03 0.  1.
       11    1    1    2    0    0 -0.52966071038E-01  0.14028388297E+00  0.27312900348E+00  0.31158415599E+00  0.51109989000E-03 0.  1.
     -623    1    1    2    0    0  0.86430861556E-01 -0.18446872977E+00  0.35823880150E+00  0.17130049572E+03  0.17130000000E+03 0.  1.
      622    1    1    2    0    0 -0.33464790517E-01  0.44184846803E-01  0.33686321624E+01  0.36879201236E+01  0.15000000000E+01 0.  1.
</event>
<event>
 5   0  0.6596100E+00  0.9118800E+02  0.7818608E-02  0.1180000E+00
       11   -1    0    0    0    0  0.00000000000E+00  0.00000000000E+00  0.39999999673E+01  0.40000000000E+01  0.51109989000E-03 0.  1.
     -623   -1    0    0    0    0  0.00000000000E+00  0.00000000000E+00  0.12525980253E-10  0.17130000000E+03  0.17130000000E+03 0.  1.
       11    1    1    2    0    0  0.19189769189E-01  0.48200490393E-01  0.17639517800E-01  0.54799163561E-01  0.51109989000E-03 0.  1.
     -623    1    1    2    0    0  0.31289831707E+00 -0.38793050863E-01  0.34929843986E+00  0.17130064629E+03  0.17130000000E+03 0.  1.
      622    1    1    2    0    0 -0.33208808626E+00 -0.94074395299E-02  0.36330620097E+01  0.39445545456E+01  0.15000000000E+01 0.  1.
</event>
<event>
 5   0  0.6596100E+00  0.9118800E+02  0.7818608E-02  0.1180000E+00
       11   -1    0    0    0    0  0.00000000000E+00  0.00000000000E+00  0.39999999673E+01  0.40000000000E+01  0.51109989000E-03 0. -1.
     -623   -1    0    0    0    0  0.00000000000E+00  0.00000000000E+00  0.12525980253E-10  0.17130000000E+03  0.17130000000E+03 0.  1.
       11    1    1    2    0    0 -0.47370924590E-01  0.78784470864E-01  0.12479990112E+00  0.15500410926E+00  0.51109989000E-03 0. -1.
     -623    1    1    2    0    0  0.12111906259E+00  0.13187871115E-01  0.33723314068E+00  0.17130037528E+03  0.17130000000E+03 0.  1.
      622    1    1    2    0    0 -0.73748137997E-01 -0.91972341979E-01  0.35379669256E+01  0.38446206140E+01  0.15000000000E+01 0. -1.
</event>
<event>
 5   0  0.6596100E+00  0.9118800E+02  0.7818608E-02  0.1180000E+00
       11   -1    0    0    0    0  0.00000000000E+00  0.00000000000E+00  0.39999999673E+01  0.40000000000E+01  0.51109989000E-03 0. -1.
     -623   -1    0    0    0    0  0.00000000000E+00  0.00000000000E+00  0.12525980253E-10  0.17130000000E+03  0.17130000000E+03 0. -1.
       11    1    1    2    0    0 -0.86860953281E-01  0.62600964884E-01  0.20604654312E-01  0.10903448541E+00  0.51109989000E-03 0. -1.
     -623    1    1    2    0    0  0.25483521526E+00 -0.47433166780E+00  0.41831166713E+00  0.17130135702E+03  0.17130000000E+03 0. -1.
      622    1    1    2    0    0 -0.16797426198E+00  0.41173070292E+00  0.35610836459E+01  0.38896084967E+01  0.15000000000E+01 0. -1.
</event>
<event>
 5   0  0.6596100E+00  0.9118800E+02  0.7818608E-02  0.1180000E+00
       11   -1    0    0    0    0  0.00000000000E+00  0.00000000000E+00  0.39999999673E+01  0.40000000000E+01  0.51109989000E-03 0. -1.
     -623   -1    0    0    0    0  0.00000000000E+00  0.00000000000E+00  0.12525980253E-10  0.17130000000E+03  0.17130000000E+03 0. -1.
       11    1    1    2    0    0  0.41029352723E-01  0.10214645755E+00  0.24645055874E-01  0.11280490493E+00  0.51109989000E-03 0. -1.
     -623    1    1    2    0    0 -0.20148360685E+00  0.12036822175E+00  0.40042283916E+00  0.17130062879E+03  0.17130000000E+03 0. -1.
      622    1    1    2    0    0  0.16045425413E+00 -0.22251467930E+00  0.35749320723E+01  0.38865663087E+01  0.15000000000E+01 0. -1.
</event>
<event>
 5   0  0.6596100E+00  0.9118800E+02  0.7818608E-02  0.1180000E+00
       11   -1    0    0    0    0  0.00000000000E+00  0.00000000000E+00  0.39999999673E+01  0.40000000000E+01  0.51109989000E-03 0. -1.
     -623   -1    0    0    0    0  0.00000000000E+00  0.00000000000E+00  0.12525980253E-10  0.17130000000E+03  0.17130000000E+03 0. -1.
       11    1    1    2    0    0 -0.99170434568E-01 -0.14044489689E+00  0.37784780677E+00  0.41512500582E+00  0.51109989000E-03 0. -1.
     -623    1    1    2    0    0  0.92808675307E-01 -0.10298365957E-01  0.37015044970E+00  0.17130042537E+03  0.17130000000E+03 0. -1.
      622    1    1    2    0    0  0.63617592613E-02  0.15074326285E+00  0.32520017109E+01  0.35844496273E+01  0.15000000000E+01 0. -1.
</event>
<event>
 5   0  0.6596100E+00  0.9118800E+02  0.7818608E-02  0.1180000E+00
       11   -1    0    0    0    0  0.00000000000E+00  0.00000000000E+00  0.39999999673E+01  0.40000000000E+01  0.51109989000E-03 0.  1.
     -623   -1    0    0    0    0  0.00000000000E+00  0.00000000000E+00  0.12525980253E-10  0.17130000000E+03  0.17130000000E+03 0. -1.
       11    1    1    2    0    0  0.60297571220E-02 -0.36670745984E-01  0.59556231003E-01  0.70201904934E-01  0.51109989000E-03 0.  1.
     -623    1    1    2    0    0  0.67792793244E-01  0.18212228385E+00  0.31227562615E+00  0.17130039486E+03  0.17130000000E+03 0. -1.
      622    1    1    2    0    0 -0.73822550366E-01 -0.14545153787E+00  0.36281681102E+01  0.39294032314E+01  0.15000000000E+01 0.  1.
</event>
<event>
 5   0  0.6596100E+00  0.9118800E+02  0.7818608E-02  0.1180000E+00
       11   -1    0    0    0    0  0.00000000000E+00  0.00000000000E+00  0.39999999673E+01  0.40000000000E+01  0.51109989000E-03 0. -1.
     -623   -1    0    0    0    0  0.00000000000E+00  0.00000000000E+00  0.12525980253E-10  0.17130000000E+03  0.17130000000E+03 0. -1.
       11    1    1    2    0    0 -0.40037835694E-01  0.57800534928E-01  0.28115276497E-03  0.70315506077E-01  0.51109989000E-03 0. -1.
     -623    1    1    2    0    0 -0.67180793951E-01 -0.18386932418E-01  0.36982594336E+00  0.17130041338E+03  0.17130000000E+03 0. -1.
      622    1    1    2    0    0  0.10721862964E+00 -0.39413602510E-01  0.36298928712E+01  0.39292711186E+01  0.15000000000E+01 0. -1.
</event>
<event>
 5   0  0.6596100E+00  0.9118800E+02  0.7818608E-02  0.1180000E+00
       11   -1    0    0    0    0  0.00000000000E+00  0.00000000000E+00  0.39999999673E+01  0.40000000000E+01  0.51109989000E-03 0.  1.
     -623   -1    0    0    0    0  0.00000000000E+00  0.00000000000E+00  0.12525980253E-10  0.17130000000E+03  0.17130000000E+03 0. -1.
       11    1    1    2    0    0  0.87715843379E-01  0.12899747434E-02  0.60408147487E+00  0.61041823590E+00  0.51109989000E-03 0.  1.
     -623    1    1    2    0    0  0.22962765891E+00  0.49881263203E-01  0.37398545153E+00  0.17130056942E+03  0.17130000000E+03 0. -1.
      622    1    1    2    0    0 -0.31734350229E+00 -0.51171237947E-01  0.30219330410E+01  0.33890123485E+01  0.15000000000E+01 0.  1.
</event>
<event>
 5   0  0.6596100E+00  0.9118800E+02  0.7818608E-02  0.1180000E+00
       11   -1    0    0    0    0  0.00000000000E+00  0.00000000000E+00  0.39999999673E+01  0.40000000000E+01  0.51109989000E-03 0. -1.
     -623   -1    0    0    0    0  0.00000000000E+00  0.00000000000E+00  0.12525980253E-10  0.17130000000E+03  0.17130000000E+03 0. -1.
       11    1    1    2    0    0 -0.10437939976E-01  0.10433597767E-01 -0.15839277259E-01  0.21655356816E-01  0.51109989000E-03 0. -1.
     -623    1    1    2    0    0 -0.11376145365E+00 -0.61609445714E-02  0.33359856196E+00  0.17130036272E+03  0.17130000000E+03 0. -1.
      622    1    1    2    0    0  0.12419939363E+00 -0.42726531955E-02  0.36822406827E+01  0.39779819243E+01  0.15000000000E+01 0. -1.
</event>
<event>
 5   0  0.6596100E+00  0.9118800E+02  0.7818608E-02  0.1180000E+00
       11   -1    0    0    0    0  0.00000000000E+00  0.00000000000E+00  0.39999999673E+01  0.40000000000E+01  0.51109989000E-03 0.  1.
     -623   -1    0    0    0    0  0.00000000000E+00  0.00000000000E+00  0.12525980253E-10  0.17130000000E+03  0.17130000000E+03 0.  1.
       11    1    1    2    0    0 -0.49380962753E-02  0.41616645551E-02 -0.74277982905E-02  0.98558436702E-02  0.51109989000E-03 0.  1.
     -623    1    1    2    0    0 -0.14360607159E+00 -0.15218003207E+00  0.31636768029E+00  0.17130041994E+03  0.17130000000E+03 0.  1.
      622    1    1    2    0    0  0.14854416787E+00  0.14801836751E+00  0.36910600854E+01  0.39897242211E+01  0.15000000000E+01 0.  1.
</event>
<event>
 5   0  0.6596100E+00  0.9118800E+02  0.7818608E-02  0.1180000E+00
       11   -1    0    0    0    0  0.00000000000E+00  0.00000000000E+00  0.39999999673E+01  0.40000000000E+01  0.51109989000E-03 0.  1.
     -623   -1    0    0    0    0  0.00000000000E+00  0.00000000000E+00  0.12525980253E-10  0.17130000000E+03  0.17130000000E+03 0. -1.
       11    1    1    2    0    0  0.45876234971E-01  0.20988855802E+00  0.36126786303E+00  0.42032435786E+00  0.51109989000E-03 0.  1.
     -623    1    1    2    0    0 -0.33020778008E+00  0.65048595743E-01  0.41356507067E+00  0.17130082984E+03  0.17130000000E+03 0. -1.
      622    1    1    2    0    0  0.28433154511E+00 -0.27493715377E+00  0.32251670337E+01  0.35788458001E+01  0.15000000000E+01 0.  0.
</event>
<event>
 5   0  0.6596100E+00  0.9118800E+02  0.7818608E-02  0.1180000E+00
       11   -1    0    0    0    0  0.00000000000E+00  0.00000000000E+00  0.39999999673E+01  0.40000000000E+01  0.51109989000E-03 0. -1.
     -623   -1    0    0    0    0  0.00000000000E+00  0.00000000000E+00  0.12525980253E-10  0.17130000000E+03  0.17130000000E+03 0. -1.
       11    1    1    2    0    0 -0.39588581333E-01  0.14637089934E+00  0.22660645229E+00  0.27265810347E+00  0.51109989000E-03 0. -1.
     -623    1    1    2    0    0 -0.89933277973E-01 -0.17040219627E+00  0.36428378581E+00  0.17130049570E+03  0.17130000000E+03 0. -1.
      622    1    1    2    0    0  0.12952185931E+00  0.24031296934E-01  0.34091097293E+01  0.37268461950E+01  0.15000000000E+01 0. -1.
</event>
<event>
 5   0  0.6596100E+00  0.9118800E+02  0.7818608E-02  0.1180000E+00
       11   -1    0    0    0    0  0.00000000000E+00  0.00000000000E+00  0.39999999673E+01  0.40000000000E+01  0.51109989000E-03 0.  1.
     -623   -1    0    0    0    0  0.00000000000E+00  0.00000000000E+00  0.12525980253E-10  0.17130000000E+03  0.17130000000E+03 0.  1.
       11    1    1    2    0    0 -0.28937225591E+00  0.16538515832E+00  0.53544567581E+00  0.63070665610E+00  0.51109989000E-03 0.  1.
     -623    1    1    2    0    0  0.72826072914E+00  0.22128021989E+00  0.50760522911E+00  0.17130244304E+03  0.17130000000E+03 0.  1.
      622    1    1    2    0    0 -0.43888847323E+00 -0.38666537821E+00  0.29569490624E+01  0.33668503033E+01  0.15000000000E+01 0. -1.
</event>
<event>
 5   0  0.6596100E+00  0.9118800E+02  0.7818608E-02  0.1180000E+00
       11   -1    0    0    0    0  0.00000000000E+00  0.00000000000E+00  0.39999999673E+01  0.40000000000E+01  0.51109989000E-03 0.  1.
     -623   -1    0    0    0    0  0.00000000000E+00  0.00000000000E+00  0.12525980253E-10  0.17130000000E+03  0.17130000000E+03 0. -1.
       11    1    1    2    0    0 -0.24435362046E+00 -0.32405254925E+00 -0.39698787024E-01  0.40779284130E+00  0.51109989000E-03 0.  1.
     -623    1    1    2    0    0 -0.20031520395E+00  0.63645504584E-01  0.81891858830E+00  0.17130208640E+03  0.17130000000E+03 0. -1.
      622    1    1    2    0    0  0.44466882441E+00  0.26040704467E+00  0.32207801661E+01  0.35901207599E+01  0.15000000000E+01 0.  1.
</event>
<event>
 5   0  0.6596100E+00  0.9118800E+02  0.7818608E-02  0.1180000E+00
       11   -1    0    0    0    0  0.00000000000E+00  0.00000000000E+00  0.39999999673E+01  0.40000000000E+01  0.51109989000E-03 0. -1.
     -623   -1    0    0    0    0  0.00000000000E+00  0.00000000000E+00  0.12525980253E-10  0.17130000000E+03  0.17130000000E+03 0.  1.
       11    1    1    2    0    0  0.43510752179E+00  0.18305757796E-01  0.52988631019E+00  0.68588149066E+00  0.51109989000E-03 0. -1.
     -623    1    1    2    0    0 -0.19814167716E+00  0.30770772883E-01  0.52584916084E+00  0.17130092447E+03  0.17130000000E+03 0.  1.
      622    1    1    2    0    0 -0.23696584463E+00 -0.49076530679E-01  0.29442644963E+01  0.33131940393E+01  0.15000000000E+01 0.  0.
</event>
<event>
 5   0  0.6596100E+00  0.9118800E+02  0.7818608E-02  0.1180000E+00
       11   -1    0    0    0    0  0.00000000000E+00  0.00000000000E+00  0.39999999673E+01  0.40000000000E+01  0.51109989000E-03 0. -1.
     -623   -1    0    0    0    0  0.00000000000E+00  0.00000000000E+00  0.12525980253E-10  0.17130000000E+03  0.17130000000E+03 0. -1.
       11    1    1    2    0    0 -0.23723080628E+00  0.29147473384E+00  0.51371376951E+00  0.63650457510E+00  0.51109989000E-03 0. -1.
     -623    1    1    2    0    0  0.44620903872E+00 -0.39756170287E+00  0.48686774644E+00  0.17130173437E+03  0.17130000000E+03 0. -1.
      622    1    1    2    0    0 -0.20897823244E+00  0.10608696903E+00  0.29994184514E+01  0.33617610553E+01  0.15000000000E+01 0. -1.
</event>
<event>
 5   0  0.6596100E+00  0.9118800E+02  0.7818608E-02  0.1180000E+00
       11   -1    0    0    0    0  0.00000000000E+00  0.00000000000E+00  0.39999999673E+01  0.40000000000E+01  0.51109989000E-03 0.  1.
     -623   -1    0    0    0    0  0.00000000000E+00  0.00000000000E+00  0.12525980253E-10  0.17130000000E+03  0.17130000000E+03 0.  1.
       11    1    1    2    0    0 -0.97349024068E-01  0.52390429414E-01 -0.21856506100E-01  0.11269231413E+00  0.51109989000E-03 0.  1.
     -623    1    1    2    0    0  0.41916446216E+00  0.60953414463E+00  0.51457399516E+00  0.17130237014E+03  0.17130000000E+03 0.  1.
      622    1    1    2    0    0 -0.32181543809E+00 -0.66192457405E+00  0.35072824783E+01  0.38849375414E+01  0.15000000000E+01 0.  1.
</event>
<event>
 5   0  0.6596100E+00  0.9118800E+02  0.7818608E-02  0.1180000E+00
       11   -1    0    0    0    0  0.00000000000E+00  0.00000000000E+00  0.39999999673E+01  0.40000000000E+01  0.51109989000E-03 0. -1.
     -623   -1    0    0    0    0  0.00000000000E+00  0.00000000000E+00  0.12525980253E-10  0.17130000000E+03  0.17130000000E+03 0.  1.
       11    1    1    2    0    0 -0.23262426736E-01  0.20417279570E+00  0.50843479758E-01  0.21169079257E+00  0.51109989000E-03 0. -1.
     -623    1    1    2    0    0 -0.17543320380E+00  0.28219651699E-01  0.48477984353E+00  0.17130077812E+03  0.17130000000E+03 0.  1.
      622    1    1    2    0    0  0.19869563053E+00 -0.23239244740E+00  0.34643766441E+01  0.37875310870E+01  0.15000000000E+01 0. -1.
</event>
<event>
 5   0  0.6596100E+00  0.9118800E+02  0.7818608E-02  0.1180000E+00
       11   -1    0    0    0    0  0.00000000000E+00  0.00000000000E+00  0.39999999673E+01  0.40000000000E+01  0.51109989000E-03 0.  1.
     -623   -1    0    0    0    0  0.00000000000E+00  0.00000000000E+00  0.12525980253E-10  0.17130000000E+03  0.17130000000E+03 0. -1.
       11    1    1    2    0    0 -0.20075406677E-01 -0.89099709074E-01  0.52977618672E-01  0.10558725971E+00  0.51109989000E-03 0.  1.
     -623    1    1    2    0    0  0.19737600542E+00  0.14008589617E+00  0.35840651138E+00  0.17130054593E+03  0.17130000000E+03 0. -1.
      622    1    1    2    0    0 -0.17730059875E+00 -0.50986187095E-01  0.35886158373E+01  0.38938668084E+01  0.15000000000E+01 0.  1.
</event>
<event>
 5   0  0.6596100E+00  0.9118800E+02  0.7818608E-02  0.1180000E+00
       11   -1    0    0    0    0  0.00000000000E+00  0.00000000000E+00  0.39999999673E+01  0.40000000000E+01  0.51109989000E-03 0.  1.
     -623   -1    0    0    0    0  0.00000000000E+00  0.00000000000E+00  0.12525980253E-10  0.17130000000E+03  0.17130000000E+03 0. -1.
       11    1    1    2    0    0 -0.41790309116E-01  0.60928699936E-01 -0.81666132334E-01  0.11012881006E+00  0.51109989000E-03 0.  1.
     -623    1    1    2    0    0  0.11385577402E+00  0.31881560969E-01  0.49538653307E+00  0.17130075711E+03  0.17130000000E+03 0. -1.
      622    1    1    2    0    0 -0.72065464904E-01 -0.92810260905E-01  0.35862795666E+01  0.38891140772E+01  0.15000000000E+01 0.  1.
</event>
<event>
 5   0  0.6596100E+00  0.9118800E+02  0.7818608E-02  0.1180000E+00
       11   -1    0    0    0    0  0.00000000000E+00  0.00000000000E+00  0.39999999673E+01  0.40000000000E+01  0.51109989000E-03 0. -1.
     -623   -1    0    0    0    0  0.00000000000E+00  0.00000000000E+00  0.12525980253E-10  0.17130000000E+03  0.17130000000E+03 0. -1.
       11    1    1    2    0    0  0.16532235357E+00  0.21197808250E-01  0.85419346363E+00  0.87030314385E+00  0.51109989000E-03 0. -1.
     -623    1    1    2    0    0 -0.13904892360E+00  0.19709931846E+00  0.40855490995E+00  0.17130065703E+03  0.17130000000E+03 0. -1.
      622    1    1    2    0    0 -0.26273429974E-01 -0.21829712671E+00  0.27372515938E+01  0.31290398234E+01  0.15000000000E+01 0. -1.
</event>
<event>
 5   0  0.6596100E+00  0.9118800E+02  0.7818608E-02  0.1180000E+00
       11   -1    0    0    0    0  0.00000000000E+00  0.00000000000E+00  0.39999999673E+01  0.40000000000E+01  0.51109989000E-03 0. -1.
     -623   -1    0    0    0    0  0.00000000000E+00  0.00000000000E+00  0.12525980253E-10  0.17130000000E+03  0.17130000000E+03 0. -1.
       11    1    1    2    0    0 -0.19559561130E-01  0.40628399977E-01 -0.62593917856E-01  0.77145985576E-01  0.51109989000E-03 0. -1.
     -623    1    1    2    0    0 -0.67972860638E-01  0.10691185412E+00  0.44257997433E+00  0.17130061858E+03  0.17130000000E+03 0. -1.
      622    1    1    2    0    0  0.87532421768E-01 -0.14754025410E+00  0.36200139109E+01  0.39222354298E+01  0.15000000000E+01 0. -1.
</event>
<event>
 5   0  0.6596100E+00  0.9118800E+02  0.7818608E-02  0.1180000E+00
       11   -1    0    0    0    0  0.00000000000E+00  0.00000000000E+00  0.39999999673E+01  0.40000000000E+01  0.51109989000E-03 0.  1.
     -623   -1    0    0    0    0  0.00000000000E+00  0.00000000000E+00  0.12525980253E-10  0.17130000000E+03  0.17130000000E+03 0.  1.
       11    1    1    2    0    0  0.27582630520E+00 -0.15286561187E+00  0.30268435589E+00  0.43711111454E+00  0.51109989000E-03 0.  1.
     -623    1    1    2    0    0 -0.10345789955E+00  0.52555148912E-02  0.47430836016E+00  0.17130068797E+03  0.17130000000E+03 0.  1.
      622    1    1    2    0    0 -0.17236840564E+00  0.14761009698E+00  0.32230072513E+01  0.35622009138E+01  0.15000000000E+01 0.  1.
</event>
<event>
 5   0  0.6596100E+00  0.9118800E+02  0.7818608E-02  0.1180000E+00
       11   -1    0    0    0    0  0.00000000000E+00  0.00000000000E+00  0.39999999673E+01  0.40000000000E+01  0.51109989000E-03 0.  1.
     -623   -1    0    0    0    0  0.00000000000E+00  0.00000000000E+00  0.12525980253E-10  0.17130000000E+03  0.17130000000E+03 0.  1.
       11    1    1    2    0    0  0.26106251211E+00 -0.73880336464E-01  0.36551245475E+00  0.45520495949E+00  0.51109989000E-03 0.  1.
     -623    1    1    2    0    0  0.73281234415E-01  0.26894380996E+00  0.44701293841E+00  0.17130081004E+03  0.17130000000E+03 0.  1.
      622    1    1    2    0    0 -0.33434374653E+00 -0.19506347350E+00  0.31874745742E+01  0.35439849972E+01  0.15000000000E+01 0.  1.
</event>
<event>
 5   0  0.6596100E+00  0.9118800E+02  0.7818608E-02  0.1180000E+00
       11   -1    0    0    0    0  0.00000000000E+00  0.00000000000E+00  0.39999999673E+01  0.40000000000E+01  0.51109989000E-03 0. -1.
     -623   -1    0    0    0    0  0.00000000000E+00  0.00000000000E+00  0.12525980253E-10  0.17130000000E+03  0.17130000000E+03 0.  1.
       11    1    1    2    0    0  0.24484065683E+00 -0.41437226199E+00  0.52677903032E+00  0.71354588273E+00  0.51109989000E-03 0. -1.
     -623    1    1    2    0    0 -0.16825208482E+00  0.37535294154E-02  0.58024574612E+00  0.17130106540E+03  0.17130000000E+03 0.  1.
      622    1    1    2    0    0 -0.76588572015E-01  0.41061873258E+00  0.28929751909E+01  0.32853887149E+01  0.15000000000E+01 0. -1.
</event>
<event>
 5   0  0.6596100E+00  0.9118800E+02  0.7818608E-02  0.1180000E+00
       11   -1    0    0    0    0  0.00000000000E+00  0.00000000000E+00  0.39999999673E+01  0.40000000000E+01  0.51109989000E-03 0. -1.
     -623   -1    0    0    0    0  0.00000000000E+00  0.00000000000E+00  0.12525980253E-10  0.17130000000E+03  0.17130000000E+03 0. -1.
       11    1    1    2    0    0  0.96802469667E-01  0.27417886106E+00  0.22701238675E+00  0.36888975446E+00  0.51109989000E-03 0. -1.
     -623    1    1    2    0    0 -0.12809863807E+00 -0.13630827363E+00  0.47002682970E+00  0.17130074698E+03  0.17130000000E+03 0. -1.
      622    1    1    2    0    0  0.31296168401E-01 -0.13787058743E+00  0.33029607509E+01  0.36303632699E+01  0.15000000000E+01 0. -1.
</event>
<event>
 5   0  0.6596100E+00  0.9118800E+02  0.7818608E-02  0.1180000E+00
       11   -1    0    0    0    0  0.00000000000E+00  0.00000000000E+00  0.39999999673E+01  0.40000000000E+01  0.51109989000E-03 0.  1.
     -623   -1    0    0    0    0  0.00000000000E+00  0.00000000000E+00  0.12525980253E-10  0.17130000000E+03  0.17130000000E+03 0.  1.
       11    1    1    2    0    0 -0.24932808766E+00  0.18258056836E-01  0.69816370392E+00  0.74157310539E+00  0.51109989000E-03 0.  1.
     -623    1    1    2    0    0  0.53872321608E+00  0.11564882676E+00  0.42844094182E+00  0.17130142194E+03  0.17130000000E+03 0.  1.
      622    1    1    2    0    0 -0.28939512842E+00 -0.13390688360E+00  0.28733953216E+01  0.32570049536E+01  0.15000000000E+01 0.  1.
</event>
<event>
 5   0  0.6596100E+00  0.9118800E+02  0.7818608E-02  0.1180000E+00
       11   -1    0    0    0    0  0.00000000000E+00  0.00000000000E+00  0.39999999673E+01  0.40000000000E+01  0.51109989000E-03 0.  1.
     -623   -1    0    0    0    0  0.00000000000E+00  0.00000000000E+00  0.12525980253E-10  0.17130000000E+03  0.17130000000E+03 0. -1.
       11    1    1    2    0    0 -0.26048841159E-01  0.56488280700E-01 -0.93432302320E-02  0.62904889766E-01  0.51109989000E-03 0.  1.
     -623    1    1    2    0    0  0.14350953674E-01 -0.24507977419E+00  0.37473152704E+00  0.17130058580E+03  0.17130000000E+03 0. -1.
      622    1    1    2    0    0  0.11697887485E-01  0.18859149349E+00  0.36346116706E+01  0.39365093151E+01  0.15000000000E+01 0.  1.
</event>
<event>
 5   0  0.6596100E+00  0.9118800E+02  0.7818608E-02  0.1180000E+00
       11   -1    0    0    0    0  0.00000000000E+00  0.00000000000E+00  0.39999999673E+01  0.40000000000E+01  0.51109989000E-03 0. -1.
     -623   -1    0    0    0    0  0.00000000000E+00  0.00000000000E+00  0.12525980253E-10  0.17130000000E+03  0.17130000000E+03 0. -1.
       11    1    1    2    0    0  0.75843016800E-01 -0.18525483886E-01  0.24710234513E-01  0.81891474901E-01  0.51109989000E-03 0. -1.
     -623    1    1    2    0    0 -0.29797516817E-01  0.90528389661E-01  0.35712098048E+00  0.17130039877E+03  0.17130000000E+03 0. -1.
      622    1    1    2    0    0 -0.46045499984E-01 -0.72002905775E-01  0.36181687524E+01  0.39177097553E+01  0.15000000000E+01 0. -1.
</event>
<event>
 5   0  0.6596100E+00  0.9118800E+02  0.7818608E-02  0.1180000E+00
       11   -1    0    0    0    0  0.00000000000E+00  0.00000000000E+00  0.39999999673E+01  0.40000000000E+01  0.51109989000E-03 0.  1.
     -623   -1    0    0    0    0  0.00000000000E+00  0.00000000000E+00  0.12525980253E-10  0.17130000000E+03  0.17130000000E+03 0.  1.
       11    1    1    2    0    0  0.29576951238E+00  0.55630455967E-01  0.69233605631E+00  0.75491974949E+00  0.51109989000E-03 0.  1.
     -623    1    1    2    0    0 -0.47235077170E+00 -0.62915534639E-01  0.43688074688E+00  0.17130121990E+03  0.17130000000E+03 0.  1.
      622    1    1    2    0    0  0.17658125932E+00  0.72850786722E-02  0.28707831642E+01  0.32438603529E+01  0.15000000000E+01 0.  1.
</event>
<event>
 5   0  0.6596100E+00  0.9118800E+02  0.7818608E-02  0.1180000E+00
       11   -1    0    0    0    0  0.00000000000E+00  0.00000000000E+00  0.39999999673E+01  0.40000000000E+01  0.51109989000E-03 0.  1.
     -623   -1    0    0    0    0  0.00000000000E+00  0.00000000000E+00  0.12525980253E-10  0.17130000000E+03  0.17130000000E+03 0.  1.
       11    1    1    2    0    0  0.11207676605E-01 -0.33215139567E-01  0.30216354385E-01  0.46283331845E-01  0.51109989000E-03 0.  1.
     -623    1    1    2    0    0 -0.11889851660E+00  0.25611508264E+00  0.32062190599E+00  0.17130053278E+03  0.17130000000E+03 0.  1.
      622    1    1    2    0    0  0.10769083999E+00 -0.22289994307E+00  0.36491617070E+01  0.39531838897E+01  0.15000000000E+01 0.  1.
</event>
<event>
 5   0  0.6596100E+00  0.9118800E+02  0.7818608E-02  0.1180000E+00
       11   -1    0    0    0    0  0.00000000000E+00  0.00000000000E+00  0.39999999673E+01  0.40000000000E+01  0.51109989000E-03 0.  1.
     -623   -1    0    0    0    0  0.00000000000E+00  0.00000000000E+00  0.12525980253E-10  0.17130000000E+03  0.17130000000E+03 0.  1.
       11    1    1    2    0    0 -0.43874735480E-01  0.54373673052E-01  0.12215820382E+00  0.14072802392E+00  0.51109989000E-03 0.  1.
     -623    1    1    2    0    0 -0.11409255959E+00  0.48947824596E-01  0.32740671414E+00  0.17130035788E+03  0.17130000000E+03 0.  1.
      622    1    1    2    0    0  0.15796729507E+00 -0.10332149765E+00  0.35504350494E+01  0.38589141009E+01  0.15000000000E+01 0.  1.
</event>
<event>
 5   0  0.6596100E+00  0.9118800E+02  0.7818608E-02  0.1180000E+00
       11   -1    0    0    0    0  0.00000000000E+00  0.00000000000E+00  0.39999999673E+01  0.40000000000E+01  0.51109989000E-03 0. -1.
     -623   -1    0    0    0    0  0.00000000000E+00  0.00000000000E+00  0.12525980253E-10  0.17130000000E+03  0.17130000000E+03 0. -1.
       11    1    1    2    0    0  0.13864881872E-01 -0.25153242468E-01  0.23579968751E+00  0.23754299486E+00  0.51109989000E-03 0. -1.
     -623    1    1    2    0    0 -0.19753651419E+00  0.90943973211E-01  0.31967768516E+00  0.17130043633E+03  0.17130000000E+03 0. -1.
      622    1    1    2    0    0  0.18367163231E+00 -0.65790730743E-01  0.34445225947E+01  0.37620206797E+01  0.15000000000E+01 0. -1.
</event>
<event>
 5   0  0.6596100E+00  0.9118800E+02  0.7818608E-02  0.1180000E+00
       11   -1    0    0    0    0  0.00000000000E+00  0.00000000000E+00  0.39999999673E+01  0.40000000000E+01  0.51109989000E-03 0.  1.
     -623   -1    0    0    0    0  0.00000000000E+00  0.00000000000E+00  0.12525980253E-10  0.17130000000E+03  0.17130000000E+03 0. -1.
       11    1    1    2    0    0  0.42544773678E-01 -0.37475753459E-01 -0.21453251045E-01  0.60621721075E-01  0.51109989000E-03 0.  1.
     -623    1    1    2    0    0  0.95432447354E-03  0.40623352993E-02  0.37969857496E+00  0.17130042086E+03  0.17130000000E+03 0. -1.
      622    1    1    2    0    0 -0.43499098152E-01  0.33413418160E-01  0.36417546434E+01  0.39389574142E+01  0.15000000000E+01 0.  1.
</event>
<event>
 5   0  0.6596100E+00  0.9118800E+02  0.7818608E-02  0.1180000E+00
       11   -1    0    0    0    0  0.00000000000E+00  0.00000000000E+00  0.39999999673E+01  0.40000000000E+01  0.51109989000E-03 0. -1.
     -623   -1    0    0    0    0  0.00000000000E+00  0.00000000000E+00  0.12525980253E-10  0.17130000000E+03  0.17130000000E+03 0. -1.
       11    1    1    2    0    0  0.69378227154E-01 -0.50988036888E-01 -0.79994867947E-01  0.11752684132E+00  0.51109989000E-03 0. -1.
     -623    1    1    2    0    0 -0.55659744864E-01  0.54091839902E+00  0.53454665107E+00  0.17130169710E+03  0.17130000000E+03 0. -1.
      622    1    1    2    0    0 -0.13718482290E-01 -0.48993036214E+00  0.35454481842E+01  0.38807760543E+01  0.15000000000E+01 0. -1.
</event>
<event>
 5   0  0.6596100E+00  0.9118800E+02  0.7818608E-02  0.1180000E+00
       11   -1    0    0    0    0  0.00000000000E+00  0.00000000000E+00  0.39999999673E+01  0.40000000000E+01  0.51109989000E-03 0. -1.
     -623   -1    0    0    0    0  0.00000000000E+00  0.00000000000E+00  0.12525980253E-10  0.17130000000E+03  0.17130000000E+03 0. -1.
       11    1    1    2    0    0 -0.33144437118E+00 -0.64053364766E-01  0.47690476893E+00  0.58429155785E+00  0.51109989000E-03 0. -1.
     -623    1    1    2    0    0  0.28401372942E+00 -0.41484063153E-01  0.45750214773E+00  0.17130085141E+03  0.17130000000E+03 0. -1.
      622    1    1    2    0    0  0.47430641769E-01  0.10553742792E+00  0.30655930507E+01  0.34148570346E+01  0.15000000000E+01 0. -1.
</event>
<event>
 5   0  0.6596100E+00  0.9118800E+02  0.7818608E-02  0.1180000E+00
       11   -1    0    0    0    0  0.00000000000E+00  0.00000000000E+00  0.39999999673E+01  0.40000000000E+01  0.51109989000E-03 0. -1.
     -623   -1    0    0    0    0  0.00000000000E+00  0.00000000000E+00  0.12525980253E-10  0.17130000000E+03  0.17130000000E+03 0.  1.
       11    1    1    2    0    0 -0.13765008210E+00  0.53518546320E-01  0.63461168380E-01  0.16074626284E+00  0.51109989000E-03 0. -1.
     -623    1    1    2    0    0  0.20026602726E+00  0.12971764116E+00  0.40845742402E+00  0.17130065315E+03  0.17130000000E+03 0.  1.
      622    1    1    2    0    0 -0.62615945162E-01 -0.18323618748E+00  0.35280813750E+01  0.38386005842E+01  0.15000000000E+01 0. -1.
</event>
<event>
 5   0  0.6596100E+00  0.9118800E+02  0.7818608E-02  0.1180000E+00
       11   -1    0    0    0    0  0.00000000000E+00  0.00000000000E+00  0.39999999673E+01  0.40000000000E+01  0.51109989000E-03 0.  1.
     -623   -1    0    0    0    0  0.00000000000E+00  0.00000000000E+00  0.12525980253E-10  0.17130000000E+03  0.17130000000E+03 0.  1.
       11    1    1    2    0    0 -0.69242742850E-01 -0.21817451303E-01  0.92674015686E-01  0.11772549861E+00  0.51109989000E-03 0.  1.
     -623    1    1    2    0    0 -0.14014883289E+00  0.24304056505E+00  0.34013303406E+00  0.17130056743E+03  0.17130000000E+03 0.  1.
      622    1    1    2    0    0  0.20939157574E+00 -0.22122311375E+00  0.35671929176E+01  0.38817070742E+01  0.15000000000E+01 0.  1.
</event>
<event>
 5   0  0.6596100E+00  0.9118800E+02  0.7818608E-02  0.1180000E+00
       11   -1    0    0    0    0  0.00000000000E+00  0.00000000000E+00  0.39999999673E+01  0.40000000000E+01  0.51109989000E-03 0.  1.
     -623   -1    0    0    0    0  0.00000000000E+00  0.00000000000E+00  0.12525980253E-10  0.17130000000E+03  0.17130000000E+03 0.  1.
       11    1    1    2    0    0 -0.10461380472E+00 -0.78995440149E-01 -0.98994797583E-01  0.16426977468E+00  0.51109989000E-03 0.  1.
     -623    1    1    2    0    0  0.24829939707E+00 -0.13413536775E+00  0.57941285989E+00  0.17130121238E+03  0.17130000000E+03 0.  1.
      622    1    1    2    0    0 -0.14368559235E+00  0.21313080790E+00  0.35195819051E+01  0.38345178415E+01  0.15000000000E+01 0.  1.
</event>
<event>
 5   0  0.6596100E+00  0.9118800E+02  0.7818608E-02  0.1180000E+00
       11   -1    0    0    0    0  0.00000000000E+00  0.00000000000E+00  0.39999999673E+01  0.40000000000E+01  0.51109989000E-03 0.  1.
     -623   -1    0    0    0    0  0.00000000000E+00  0.00000000000E+00  0.12525980253E-10  0.17130000000E+03  0.17130000000E+03 0.  1.
       11    1    1    2    0    0 -0.19696066755E-01 -0.37429467905E-03 -0.10370671811E-01  0.22268524851E-01  0.51109989000E-03 0.  1.
     -623    1    1    2    0    0  0.20453914547E+00  0.26350997753E+00  0.34108522866E+00  0.17130066437E+03  0.17130000000E+03 0.  1.
      622    1    1    2    0    0 -0.18484307871E+00 -0.26313568286E+00  0.36692854105E+01  0.39770671072E+01  0.15000000000E+01 0.  1.
</event>
<event>
 5   0  0.6596100E+00  0.9118800E+02  0.7818608E-02  0.1180000E+00
       11   -1    0    0    0    0  0.00000000000E+00  0.00000000000E+00  0.39999999673E+01  0.40000000000E+01  0.51109989000E-03 0. -1.
     -623   -1    0    0    0    0  0.00000000000E+00  0.00000000000E+00  0.12525980253E-10  0.17130000000E+03  0.17130000000E+03 0. -1.
       11    1    1    2    0    0 -0.33104389268E-03  0.87090485986E-01  0.25355434694E+00  0.26809500260E+00  0.51109989000E-03 0. -1.
     -623    1    1    2    0    0  0.10254489804E+00  0.11334540199E+00  0.33711900877E+00  0.17130039992E+03  0.17130000000E+03 0. -1.
      622    1    1    2    0    0 -0.10221385414E+00 -0.20043588797E+00  0.34093266117E+01  0.37315050800E+01  0.15000000000E+01 0. -1.
</event>
<event>
 5   0  0.6596100E+00  0.9118800E+02  0.7818608E-02  0.1180000E+00
       11   -1    0    0    0    0  0.00000000000E+00  0.00000000000E+00  0.39999999673E+01  0.40000000000E+01  0.51109989000E-03 0. -1.
     -623   -1    0    0    0    0  0.00000000000E+00  0.00000000000E+00  0.12525980253E-10  0.17130000000E+03  0.17130000000E+03 0.  1.
       11    1    1    2    0    0 -0.80049224222E-01 -0.12100247721E+00  0.71063703891E-01  0.16155429125E+00  0.51109989000E-03 0. -1.
     -623    1    1    2    0    0 -0.28432210592E+00 -0.15036430516E+00  0.42595523151E+00  0.17130083154E+03  0.17130000000E+03 0.  1.
      622    1    1    2    0    0  0.36437133014E+00  0.27136678237E+00  0.35029810320E+01  0.38376141686E+01  0.15000000000E+01 0. -1.
</event>
<event>
 5   0  0.6596100E+00  0.9118800E+02  0.7818608E-02  0.1180000E+00
       11   -1    0    0    0    0  0.00000000000E+00  0.00000000000E+00  0.39999999673E+01  0.40000000000E+01  0.51109989000E-03 0. -1.
     -623   -1    0    0    0    0  0.00000000000E+00  0.00000000000E+00  0.12525980253E-10  0.17130000000E+03  0.17130000000E+03 0.  1.
       11    1    1    2    0    0  0.94734094331E-01 -0.30478052461E-01 -0.10288848696E-01  0.10004789823E+00  0.51109989000E-03 0. -1.
     -623    1    1    2    0    0 -0.61145059784E-01  0.16954082820E+00  0.41382921939E+00  0.17130059468E+03  0.17130000000E+03 0.  1.
      622    1    1    2    0    0 -0.33589034547E-01 -0.13906277574E+00  0.35964595967E+01  0.38993574226E+01  0.15000000000E+01 0. -1.
</event>
<event>
 5   0  0.6596100E+00  0.9118800E+02  0.7818608E-02  0.1180000E+00
       11   -1    0    0    0    0  0.00000000000E+00  0.00000000000E+00  0.39999999673E+01  0.40000000000E+01  0.51109989000E-03 0. -1.
     -623   -1    0    0    0    0  0.00000000000E+00  0.00000000000E+00  0.12525980253E-10  0.17130000000E+03  0.17130000000E+03 0.  1.
       11    1    1    2    0    0  0.79216441932E-01 -0.29509775536E-01 -0.55895411876E-01  0.10134411585E+00  0.51109989000E-03 0. -1.
     -623    1    1    2    0    0  0.19762415482E-01  0.34725995300E-01  0.45938948296E+00  0.17130062065E+03  0.17130000000E+03 0.  1.
      622    1    1    2    0    0 -0.98978857415E-01 -0.52162197634E-02  0.35965058963E+01  0.38980352340E+01  0.15000000000E+01 0. -1.
</event>
<event>
 5   0  0.6596100E+00  0.9118800E+02  0.7818608E-02  0.1180000E+00
       11   -1    0    0    0    0  0.00000000000E+00  0.00000000000E+00  0.39999999673E+01  0.40000000000E+01  0.51109989000E-03 0. -1.
     -623   -1    0    0    0    0  0.00000000000E+00  0.00000000000E+00  0.12525980253E-10  0.17130000000E+03  0.17130000000E+03 0.  1.
       11    1    1    2    0    0  0.28300616569E+00  0.12020575127E-01  0.28182480959E+00  0.39957786296E+00  0.51109989000E-03 0. -1.
     -623    1    1    2    0    0  0.81433599172E+00 -0.18522217232E+00  0.64318939407E+00  0.17130324324E+03  0.17130000000E+03 0.  1.
      622    1    1    2    0    0 -0.10973421574E+01  0.17320159719E+00  0.30749857637E+01  0.35971789017E+01  0.15000000000E+01 0.  0.
</event>
<event>
 5   0  0.6596100E+00  0.9118800E+02  0.7818608E-02  0.1180000E+00
       11   -1    0    0    0    0  0.00000000000E+00  0.00000000000E+00  0.39999999673E+01  0.40000000000E+01  0.51109989000E-03 0. -1.
     -623   -1    0    0    0    0  0.00000000000E+00  0.00000000000E+00  0.12525980253E-10  0.17130000000E+03  0.17130000000E+03 0. -1.
       11    1    1    2    0    0  0.26940978080E+00  0.11281234499E-01  0.25681248060E+00  0.37237321018E+00  0.51109989000E-03 0. -1.
     -623    1    1    2    0    0 -0.40747014305E+00 -0.17165188908E+00  0.44826674854E+00  0.17130115715E+03  0.17130000000E+03 0. -1.
      622    1    1    2    0    0  0.13806036225E+00  0.16037065458E+00  0.32949207382E+01  0.36264696444E+01  0.15000000000E+01 0. -1.
</event>
<event>
 5   0  0.6596100E+00  0.9118800E+02  0.7818608E-02  0.1180000E+00
       11   -1    0    0    0    0  0.00000000000E+00  0.00000000000E+00  0.39999999673E+01  0.40000000000E+01  0.51109989000E-03 0.  1.
     -623   -1    0    0    0    0  0.00000000000E+00  0.00000000000E+00  0.12525980253E-10  0.17130000000E+03  0.17130000000E+03 0. -1.
       11    1    1    2    0    0  0.21797196838E+00  0.16184553060E+00  0.84880813355E-01  0.28444818240E+00  0.51109989000E-03 0.  1.
     -623    1    1    2    0    0 -0.14657233367E-01 -0.23957112247E+00  0.52384410463E+00  0.17130096912E+03  0.17130000000E+03 0. -1.
      622    1    1    2    0    0 -0.20331473501E+00  0.77725591874E-01  0.33912750494E+01  0.37145826966E+01  0.15000000000E+01 0.  1.
</event>
<event>
 5   0  0.6596100E+00  0.9118800E+02  0.7818608E-02  0.1180000E+00
       11   -1    0    0    0    0  0.00000000000E+00  0.00000000000E+00  0.39999999673E+01  0.40000000000E+01  0.51109989000E-03 0.  1.
     -623   -1    0    0    0    0  0.00000000000E+00  0.00000000000E+00  0.12525980253E-10  0.17130000000E+03  0.17130000000E+03 0. -1.
       11    1    1    2    0    0  0.96790213267E-01  0.13601649239E+00  0.17135602777E+00  0.23923206528E+00  0.51109989000E-03 0.  1.
     -623    1    1    2    0    0 -0.22793091192E+00  0.11613424204E+00  0.39239876903E+00  0.17130064044E+03  0.17130000000E+03 0. -1.
      622    1    1    2    0    0  0.13114069865E+00 -0.25215073442E+00  0.34362451706E+01  0.37601274909E+01  0.15000000000E+01 0.  1.
</event>
<event>
 5   0  0.6596100E+00  0.9118800E+02  0.7818608E-02  0.1180000E+00
       11   -1    0    0    0    0  0.00000000000E+00  0.00000000000E+00  0.39999999673E+01  0.40000000000E+01  0.51109989000E-03 0. -1.
     -623   -1    0    0    0    0  0.00000000000E+00  0.00000000000E+00  0.12525980253E-10  0.17130000000E+03  0.17130000000E+03 0.  1.
       11    1    1    2    0    0  0.95879319386E-01  0.22355918129E+00  0.49857049908E+00  0.55474710923E+00  0.51109989000E-03 0. -1.
     -623    1    1    2    0    0  0.39326101298E-02 -0.16513538605E+00  0.40262600754E+00  0.17130055281E+03  0.17130000000E+03 0.  1.
      622    1    1    2    0    0 -0.99811929516E-01 -0.58423795232E-01  0.30988034607E+01  0.34447000812E+01  0.15000000000E+01 0. -1.
</event>
<event>
 5   0  0.6596100E+00  0.9118800E+02  0.7818608E-02  0.1180000E+00
       11   -1    0    0    0    0  0.00000000000E+00  0.00000000000E+00  0.39999999673E+01  0.40000000000E+01  0.51109989000E-03 0.  1.
     -623   -1    0    0    0    0  0.00000000000E+00  0.00000000000E+00  0.12525980253E-10  0.17130000000E+03  0.17130000000E+03 0. -1.
       11    1    1    2    0    0 -0.10589016628E+00  0.16486896651E+00  0.28413767380E+00  0.34515066613E+00  0.51109989000E-03 0.  1.
     -623    1    1    2    0    0  0.22370499338E+00 -0.16057688456E+00  0.38581250846E+00  0.17130065581E+03  0.17130000000E+03 0. -1.
      622    1    1    2    0    0 -0.11781482710E+00 -0.42920819457E-02  0.33300497851E+01  0.36541935262E+01  0.15000000000E+01 0.  1.
</event>
<event>
 5   0  0.6596100E+00  0.9118800E+02  0.7818608E-02  0.1180000E+00
       11   -1    0    0    0    0  0.00000000000E+00  0.00000000000E+00  0.39999999673E+01  0.40000000000E+01  0.51109989000E-03 0.  1.
     -623   -1    0    0    0    0  0.00000000000E+00  0.00000000000E+00  0.12525980253E-10  0.17130000000E+03  0.17130000000E+03 0.  1.
       11    1    1    2    0    0  0.13527162693E-01  0.39753328137E-01  0.17928319394E+00  0.18413591740E+00  0.51109989000E-03 0.  1.
     -623    1    1    2    0    0 -0.12151358928E+00 -0.17690617841E+00  0.31684969686E+00  0.17130042748E+03  0.17130000000E+03 0.  1.
      622    1    1    2    0    0  0.10798642659E+00  0.13715285027E+00  0.35038670766E+01  0.38154366019E+01  0.15000000000E+01 0.  1.
</event>
<event>
 5   0  0.6596100E+00  0.9118800E+02  0.7818608E-02  0.1180000E+00
       11   -1    0    0    0    0  0.00000000000E+00  0.00000000000E+00  0.39999999673E+01  0.40000000000E+01  0.51109989000E-03 0.  1.
     -623   -1    0    0    0    0  0.00000000000E+00  0.00000000000E+00  0.12525980253E-10  0.17130000000E+03  0.17130000000E+03 0.  1.
       11    1    1    2    0    0 -0.32541807000E-01 -0.29660061736E+00  0.25489991302E-02  0.29839177944E+00  0.51109989000E-03 0.  1.
     -623    1    1    2    0    0 -0.67585250455E-01  0.40320820484E+00  0.61830276615E+00  0.17130160374E+03  0.17130000000E+03 0.  1.
      622    1    1    2    0    0  0.10012705746E+00 -0.10660758749E+00  0.33791482021E+01  0.37000044834E+01  0.15000000000E+01 0.  1.
</event>
<event>
 5   0  0.6596100E+00  0.9118800E+02  0.7818608E-02  0.1180000E+00
       11   -1    0    0    0    0  0.00000000000E+00  0.00000000000E+00  0.39999999673E+01  0.40000000000E+01  0.51109989000E-03 0. -1.
     -623   -1    0    0    0    0  0.00000000000E+00  0.00000000000E+00  0.12525980253E-10  0.17130000000E+03  0.17130000000E+03 0.  1.
       11    1    1    2    0    0  0.11848244460E+00  0.39862743874E-03  0.68602647996E-01  0.13691177129E+00  0.51109989000E-03 0. -1.
     -623    1    1    2    0    0  0.36128453000E+00  0.13211872401E+00  0.40738904730E+00  0.17130091637E+03  0.17130000000E+03 0.  1.
      622    1    1    2    0    0 -0.47976697461E+00 -0.13251735145E+00  0.35240082721E+01  0.38621718631E+01  0.15000000000E+01 0.  0.
</event>
<event>
 5   0  0.6596100E+00  0.9118800E+02  0.7818608E-02  0.1180000E+00
       11   -1    0    0    0    0  0.00000000000E+00  0.00000000000E+00  0.39999999673E+01  0.40000000000E+01  0.51109989000E-03 0. -1.
     -623   -1    0    0    0    0  0.00000000000E+00  0.00000000000E+00  0.12525980253E-10  0.17130000000E+03  0.17130000000E+03 0.  1.
       11    1    1    2    0    0  0.18146620771E+00  0.11015768663E+00  0.27895340342E+00  0.35054238398E+00  0.51109989000E-03 0. -1.
     -623    1    1    2    0    0 -0.20597070218E+00  0.23563517116E+00  0.41307946357E+00  0.17130078395E+03  0.17130000000E+03 0.  1.
      622    1    1    2    0    0  0.24504494473E-01 -0.34579285779E+00  0.33079671004E+01  0.36486736642E+01  0.15000000000E+01 0. -1.
</event>
<event>
 5   0  0.6596100E+00  0.9118800E+02  0.7818608E-02  0.1180000E+00
       11   -1    0    0    0    0  0.00000000000E+00  0.00000000000E+00  0.39999999673E+01  0.40000000000E+01  0.51109989000E-03 0.  1.
     -623   -1    0    0    0    0  0.00000000000E+00  0.00000000000E+00  0.12525980253E-10  0.17130000000E+03  0.17130000000E+03 0. -1.
       11    1    1    2    0    0 -0.15895888615E+00 -0.10909020478E+00  0.13525561708E+00  0.23550571849E+00  0.51109989000E-03 0.  1.
     -623    1    1    2    0    0 -0.13296564275E+00 -0.25571957859E+00  0.44466527032E+00  0.17130081961E+03  0.17130000000E+03 0. -1.
      622    1    1    2    0    0  0.29192452890E+00  0.36480978337E+00  0.34200790800E+01  0.37636746700E+01  0.15000000000E+01 0.  1.
</event>
<event>
 5   0  0.6596100E+00  0.9118800E+02  0.7818608E-02  0.1180000E+00
       11   -1    0    0    0    0  0.00000000000E+00  0.00000000000E+00  0.39999999673E+01  0.40000000000E+01  0.51109989000E-03 0. -1.
     -623   -1    0    0    0    0  0.00000000000E+00  0.00000000000E+00  0.12525980253E-10  0.17130000000E+03  0.17130000000E+03 0. -1.
       11    1    1    2    0    0 -0.83188436171E-01  0.34613606485E-01  0.12476960780E+00  0.15390300166E+00  0.51109989000E-03 0. -1.
     -623    1    1    2    0    0 -0.12724752813E+00 -0.32149760406E+00  0.35238994866E+00  0.17130071142E+03  0.17130000000E+03 0. -1.
      622    1    1    2    0    0  0.21043596430E+00  0.28688399757E+00  0.35228404109E+01  0.38453855832E+01  0.15000000000E+01 0. -1.
</event>
<event>
 5   0  0.6596100E+00  0.9118800E+02  0.7818608E-02  0.1180000E+00
       11   -1    0    0    0    0  0.00000000000E+00  0.00000000000E+00  0.39999999673E+01  0.40000000000E+01  0.51109989000E-03 0. -1.
     -623   -1    0    0    0    0  0.00000000000E+00  0.00000000000E+00  0.12525980253E-10  0.17130000000E+03  0.17130000000E+03 0. -1.
       11    1    1    2    0    0 -0.35531401945E-01 -0.15514055840E+00  0.19998680493E+00  0.25558962568E+00  0.51109989000E-03 0. -1.
     -623    1    1    2    0    0  0.30905507075E+00  0.30109503233E+00  0.38428562823E+00  0.17130097445E+03  0.17130000000E+03 0. -1.
      622    1    1    2    0    0 -0.27352366880E+00 -0.14595447392E+00  0.34157275342E+01  0.37434359209E+01  0.15000000000E+01 0. -1.
</event>
<event>
 5   0  0.6596100E+00  0.9118800E+02  0.7818608E-02  0.1180000E+00
       11   -1    0    0    0    0  0.00000000000E+00  0.00000000000E+00  0.39999999673E+01  0.40000000000E+01  0.51109989000E-03 0.  1.
     -623   -1    0    0    0    0  0.00000000000E+00  0.00000000000E+00  0.12525980253E-10  0.17130000000E+03  0.17130000000E+03 0.  1.
       11    1    1    2    0    0 -0.61580051716E-01 -0.75902091000E-01  0.84242122680E-01  0.12903575723E+00  0.51109989000E-03 0.  1.
     -623    1    1    2    0    0 -0.69470400847E-01 -0.95326033574E-01  0.35419615557E+00  0.17130040679E+03  0.17130000000E+03 0.  1.
      622    1    1    2    0    0  0.13105045256E+00  0.17122812457E+00  0.35615616891E+01  0.38705574478E+01  0.15000000000E+01 0.  1.
</event>
<event>
 5   0  0.6596100E+00  0.9118800E+02  0.7818608E-02  0.1180000E+00
       11   -1    0    0    0    0  0.00000000000E+00  0.00000000000E+00  0.39999999673E+01  0.40000000000E+01  0.51109989000E-03 0. -1.
     -623   -1    0    0    0    0  0.00000000000E+00  0.00000000000E+00  0.12525980253E-10  0.17130000000E+03  0.17130000000E+03 0.  1.
       11    1    1    2    0    0 -0.22316730448E+00 -0.22144891618E+00  0.70193987083E+00  0.76913140084E+00  0.51109989000E-03 0. -1.
     -623    1    1    2    0    0 -0.20220792706E+00 -0.81885663482E-01  0.48555011875E+00  0.17130082706E+03  0.17130000000E+03 0.  1.
      622    1    1    2    0    0  0.42537523154E+00  0.30333457967E+00  0.28125099778E+01  0.32300415369E+01  0.15000000000E+01 0.  0.
</event>
<event>
 5   0  0.6596100E+00  0.9118800E+02  0.7818608E-02  0.1180000E+00
       11   -1    0    0    0    0  0.00000000000E+00  0.00000000000E+00  0.39999999673E+01  0.40000000000E+01  0.51109989000E-03 0.  1.
     -623   -1    0    0    0    0  0.00000000000E+00  0.00000000000E+00  0.12525980253E-10  0.17130000000E+03  0.17130000000E+03 0. -1.
       11    1    1    2    0    0 -0.48145326553E-01 -0.40889260187E-01  0.44767658190E+00  0.45211114482E+00  0.51109989000E-03 0.  1.
     -623    1    1    2    0    0  0.25910665331E+00  0.31010226484E-01  0.34466965275E+00  0.17130054552E+03  0.17130000000E+03 0. -1.
      622    1    1    2    0    0 -0.21096132676E+00  0.98790337028E-02  0.32076537327E+01  0.35473433363E+01  0.15000000000E+01 0.  1.
</event>
<event>
 5   0  0.6596100E+00  0.9118800E+02  0.7818608E-02  0.1180000E+00
       11   -1    0    0    0    0  0.00000000000E+00  0.00000000000E+00  0.39999999673E+01  0.40000000000E+01  0.51109989000E-03 0.  1.
     -623   -1    0    0    0    0  0.00000000000E+00  0.00000000000E+00  0.12525980253E-10  0.17130000000E+03  0.17130000000E+03 0. -1.
       11    1    1    2    0    0  0.10165329058E+00 -0.45957323396E-01  0.11786057550E-01  0.11218127934E+00  0.51109989000E-03 0.  1.
     -623    1    1    2    0    0 -0.30107350349E+00  0.47689046432E+00  0.43460178044E+00  0.17130147970E+03  0.17130000000E+03 0. -1.
      622    1    1    2    0    0  0.19942021291E+00 -0.43093314092E+00  0.35536121294E+01  0.38863390175E+01  0.15000000000E+01 0.  1.
</event>
<event>
 5   0  0.6596100E+00  0.9118800E+02  0.7818608E-02  0.1180000E+00
       11   -1    0    0    0    0  0.00000000000E+00  0.00000000000E+00  0.39999999673E+01  0.40000000000E+01  0.51109989000E-03 0.  1.
     -623   -1    0    0    0    0  0.00000000000E+00  0.00000000000E+00  0.12525980253E-10  0.17130000000E+03  0.17130000000E+03 0.  1.
       11    1    1    2    0    0 -0.43779573029E-01  0.56552314701E-01  0.74096289477E-03  0.71523601431E-01  0.51109989000E-03 0.  1.
     -623    1    1    2    0    0  0.15239882440E+00  0.14902821708E+00  0.37647371450E+00  0.17130054631E+03  0.17130000000E+03 0.  1.
      622    1    1    2    0    0 -0.10861925137E+00 -0.20558053178E+00  0.36227852900E+01  0.39279300852E+01  0.15000000000E+01 0.  1.
</event>
<event>
 5   0  0.6596100E+00  0.9118800E+02  0.7818608E-02  0.1180000E+00
       11   -1    0    0    0    0  0.00000000000E+00  0.00000000000E+00  0.39999999673E+01  0.40000000000E+01  0.51109989000E-03 0. -1.
     -623   -1    0    0    0    0  0.00000000000E+00  0.00000000000E+00  0.12525980253E-10  0.17130000000E+03  0.17130000000E+03 0. -1.
       11    1    1    2    0    0 -0.14458448048E-01  0.33131978243E-01 -0.61722530768E-01  0.71531159153E-01  0.51109989000E-03 0. -1.
     -623    1    1    2    0    0 -0.25964374479E+00 -0.51286966044E-01  0.44214839024E+00  0.17130077507E+03  0.17130000000E+03 0. -1.
      622    1    1    2    0    0  0.27410219284E+00  0.18154987801E-01  0.36195741079E+01  0.39276937684E+01  0.15000000000E+01 0. -1.
</event>
<event>
 5   0  0.6596100E+00  0.9118800E+02  0.7818608E-02  0.1180000E+00
       11   -1    0    0    0    0  0.00000000000E+00  0.00000000000E+00  0.39999999673E+01  0.40000000000E+01  0.51109989000E-03 0.  1.
     -623   -1    0    0    0    0  0.00000000000E+00  0.00000000000E+00  0.12525980253E-10  0.17130000000E+03  0.17130000000E+03 0.  1.
       11    1    1    2    0    0 -0.19700264706E+00  0.34974630113E-01  0.42448653927E+00  0.46927854303E+00  0.51109989000E-03 0.  1.
     -623    1    1    2    0    0  0.47835494951E-01 -0.95627158097E-01  0.38383795709E+00  0.17130046341E+03  0.17130000000E+03 0.  1.
      622    1    1    2    0    0  0.14916715211E+00  0.60652527984E-01  0.31916754710E+01  0.35302580473E+01  0.15000000000E+01 0.  1.
</event>
<event>
 5   0  0.6596100E+00  0.9118800E+02  0.7818608E-02  0.1180000E+00
       11   -1    0    0    0    0  0.00000000000E+00  0.00000000000E+00  0.39999999673E+01  0.40000000000E+01  0.51109989000E-03 0.  1.
     -623   -1    0    0    0    0  0.00000000000E+00  0.00000000000E+00  0.12525980253E-10  0.17130000000E+03  0.17130000000E+03 0.  1.
       11    1    1    2    0    0 -0.21365766345E+00  0.14910543670E+00  0.54718069592E+00  0.60604373077E+00  0.51109989000E-03 0.  1.
     -623    1    1    2    0    0 -0.11985929715E+00 -0.34932520096E+00  0.43434642248E+00  0.17130094877E+03  0.17130000000E+03 0.  1.
      622    1    1    2    0    0  0.33351696060E+00  0.20021976426E+00  0.30184728490E+01  0.33930074944E+01  0.15000000000E+01 0.  1.
</event>
<event>
 5   0  0.6596100E+00  0.9118800E+02  0.7818608E-02  0.1180000E+00
       11   -1    0    0    0    0  0.00000000000E+00  0.00000000000E+00  0.39999999673E+01  0.40000000000E+01  0.51109989000E-03 0. -1.
     -623   -1    0    0    0    0  0.00000000000E+00  0.00000000000E+00  0.12525980253E-10  0.17130000000E+03  0.17130000000E+03 0.  1.
       11    1    1    2    0    0  0.19708147373E+00 -0.84199490404E-01 -0.37527166069E-01  0.21757575896E+00  0.51109989000E-03 0. -1.
     -623    1    1    2    0    0  0.16319013352E+00  0.10740881573E+00  0.58528243439E+00  0.17130111127E+03  0.17130000000E+03 0.  1.
      622    1    1    2    0    0 -0.36027160725E+00 -0.23209325322E-01  0.34522446990E+01  0.37813129685E+01  0.15000000000E+01 0. -1.
</event>
<event>
 5   0  0.6596100E+00  0.9118800E+02  0.7818608E-02  0.1180000E+00
       11   -1    0    0    0    0  0.00000000000E+00  0.00000000000E+00  0.39999999673E+01  0.40000000000E+01  0.51109989000E-03 0. -1.
     -623   -1    0    0    0    0  0.00000000000E+00  0.00000000000E+00  0.12525980253E-10  0.17130000000E+03  0.17130000000E+03 0. -1.
       11    1    1    2    0    0  0.15088880399E+00 -0.23510498376E+00  0.11009680212E+00  0.30027212927E+00  0.51109989000E-03 0. -1.
     -623    1    1    2    0    0  0.73239042754E-01  0.15909040673E+00  0.51713915138E+00  0.17130087013E+03  0.17130000000E+03 0. -1.
      622    1    1    2    0    0 -0.22412784674E+00  0.76014577027E-01  0.33727640139E+01  0.36988577427E+01  0.15000000000E+01 0. -1.
</event>
<event>
 5   0  0.6596100E+00  0.9118800E+02  0.7818608E-02  0.1180000E+00
       11   -1    0    0    0    0  0.00000000000E+00  0.00000000000E+00  0.39999999673E+01  0.40000000000E+01  0.51109989000E-03 0.  1.
     -623   -1    0    0    0    0  0.00000000000E+00  0.00000000000E+00  0.12525980253E-10  0.17130000000E+03  0.17130000000E+03 0.  1.
       11    1    1    2    0    0  0.51784806479E-01  0.47397943159E-01  0.19003977369E+00  0.20259222099E+00  0.51109989000E-03 0.  1.
     -623    1    1    2    0    0 -0.14185574668E+00 -0.19263900020E+00  0.32607262482E+00  0.17130047740E+03  0.17130000000E+03 0.  1.
      622    1    1    2    0    0  0.90070940204E-01  0.14524105704E+00  0.34838875688E+01  0.37969303827E+01  0.15000000000E+01 0.  1.
</event>
<event>
 5   0  0.6596100E+00  0.9118800E+02  0.7818608E-02  0.1180000E+00
       11   -1    0    0    0    0  0.00000000000E+00  0.00000000000E+00  0.39999999673E+01  0.40000000000E+01  0.51109989000E-03 0. -1.
     -623   -1    0    0    0    0  0.00000000000E+00  0.00000000000E+00  0.12525980253E-10  0.17130000000E+03  0.17130000000E+03 0. -1.
       11    1    1    2    0    0  0.19703986643E+00 -0.16027617080E+00  0.51601993219E-01  0.25918369319E+00  0.51109989000E-03 0. -1.
     -623    1    1    2    0    0 -0.40112568855E+00  0.22246720103E+00  0.52970406134E+00  0.17130143309E+03  0.17130000000E+03 0. -1.
      622    1    1    2    0    0  0.20408582212E+00 -0.62191030233E-01  0.34186939128E+01  0.37393832134E+01  0.15000000000E+01 0. -1.
</event>
<event>
 5   0  0.6596100E+00  0.9118800E+02  0.7818608E-02  0.1180000E+00
       11   -1    0    0    0    0  0.00000000000E+00  0.00000000000E+00  0.39999999673E+01  0.40000000000E+01  0.51109989000E-03 0. -1.
     -623   -1    0    0    0    0  0.00000000000E+00  0.00000000000E+00  0.12525980253E-10  0.17130000000E+03  0.17130000000E+03 0.  1.
       11    1    1    2    0    0 -0.52780464163E-03 -0.28927274086E+00  0.16915600039E+00  0.33510149339E+00  0.51109989000E-03 0. -1.
     -623    1    1    2    0    0  0.15908555553E+00  0.32939058238E+00  0.49217852556E+00  0.17130109762E+03  0.17130000000E+03 0.  1.
      622    1    1    2    0    0 -0.15855775088E+00 -0.40117841517E-01  0.33386654414E+01  0.36638008859E+01  0.15000000000E+01 0. -1.
</event>
<event>
 5   0  0.6596100E+00  0.9118800E+02  0.7818608E-02  0.1180000E+00
       11   -1    0    0    0    0  0.00000000000E+00  0.00000000000E+00  0.39999999673E+01  0.40000000000E+01  0.51109989000E-03 0. -1.
     -623   -1    0    0    0    0  0.00000000000E+00  0.00000000000E+00  0.12525980253E-10  0.17130000000E+03  0.17130000000E+03 0.  1.
       11    1    1    2    0    0  0.31864328181E+00 -0.36351129272E+00  0.70646134909E+00  0.85601512835E+00  0.51109989000E-03 0. -1.
     -623    1    1    2    0    0 -0.28634368615E+00  0.18795687287E+00  0.53757736922E+00  0.17130118596E+03  0.17130000000E+03 0.  1.
      622    1    1    2    0    0 -0.32299595655E-01  0.17555441985E+00  0.27559612490E+01  0.31427989157E+01  0.15000000000E+01 0. -1.
</event>
<event>
 5   0  0.6596100E+00  0.9118800E+02  0.7818608E-02  0.1180000E+00
       11   -1    0    0    0    0  0.00000000000E+00  0.00000000000E+00  0.39999999673E+01  0.40000000000E+01  0.51109989000E-03 0. -1.
     -623   -1    0    0    0    0  0.00000000000E+00  0.00000000000E+00  0.12525980253E-10  0.17130000000E+03  0.17130000000E+03 0.  1.
       11    1    1    2    0    0 -0.78587386131E-01  0.75280155914E-01 -0.12416765184E-01  0.10953317495E+00  0.51109989000E-03 0. -1.
     -623    1    1    2    0    0  0.20663472736E+00 -0.56744755945E+00  0.46079667811E+00  0.17130168425E+03  0.17130000000E+03 0.  1.
      622    1    1    2    0    0 -0.12804734123E+00  0.49216740353E+00  0.35516200544E+01  0.38887825712E+01  0.15000000000E+01 0.  0.
</event>
<event>
 5   0  0.6596100E+00  0.9118800E+02  0.7818608E-02  0.1180000E+00
       11   -1    0    0    0    0  0.00000000000E+00  0.00000000000E+00  0.39999999673E+01  0.40000000000E+01  0.51109989000E-03 0.  1.
     -623   -1    0    0    0    0  0.00000000000E+00  0.00000000000E+00  0.12525980253E-10  0.17130000000E+03  0.17130000000E+03 0. -1.
       11    1    1    2    0    0 -0.19439348274E-01  0.77133889874E-01  0.71359999727E-01  0.10686456855E+00  0.51109989000E-03 0.  1.
     -623    1    1    2    0    0 -0.16852732665E-02 -0.11698232123E+00  0.33676288890E+00  0.17130037098E+03  0.17130000000E+03 0. -1.
      622    1    1    2    0    0  0.21124621541E-01  0.39848431357E-01  0.35918770787E+01  0.38927644542E+01  0.15000000000E+01 0.  1.
</event>
<event>
 5   0  0.6596100E+00  0.9118800E+02  0.7818608E-02  0.1180000E+00
       11   -1    0    0    0    0  0.00000000000E+00  0.00000000000E+00  0.39999999673E+01  0.40000000000E+01  0.51109989000E-03 0. -1.
     -623   -1    0    0    0    0  0.00000000000E+00  0.00000000000E+00  0.12525980253E-10  0.17130000000E+03  0.17130000000E+03 0.  1.
       11    1    1    2    0    0 -0.49967033148E+00 -0.73599903364E-01  0.61784099604E+00  0.79800698214E+00  0.51109989000E-03 0. -1.
     -623    1    1    2    0    0  0.30228483322E+00 -0.26523980319E+00  0.58222529929E+00  0.17130146151E+03  0.17130000000E+03 0.  1.
      622    1    1    2    0    0  0.19738549826E+00  0.33883970656E+00  0.27999336720E+01  0.32005315105E+01  0.15000000000E+01 0. -1.
</event>
<event>
 5   0  0.6596100E+00  0.9118800E+02  0.7818608E-02  0.1180000E+00
       11   -1    0    0    0    0  0.00000000000E+00  0.00000000000E+00  0.39999999673E+01  0.40000000000E+01  0.51109989000E-03 0. -1.
     -623   -1    0    0    0    0  0.00000000000E+00  0.00000000000E+00  0.12525980253E-10  0.17130000000E+03  0.17130000000E+03 0.  1.
       11    1    1    2    0    0  0.15623760984E+00  0.27000152123E+00 -0.28708699059E-02  0.31196075925E+00  0.51109989000E-03 0. -1.
     -623    1    1    2    0    0 -0.27455070281E-01 -0.52334718755E+00  0.64788672882E+00  0.17130202685E+03  0.17130000000E+03 0.  1.
      622    1    1    2    0    0 -0.12878253956E+00  0.25334566632E+00  0.33549841085E+01  0.36860123897E+01  0.15000000000E+01 0. -1.
</event>
<event>
 5   0  0.6596100E+00  0.9118800E+02  0.7818608E-02  0.1180000E+00
       11   -1    0    0    0    0  0.00000000000E+00  0.00000000000E+00  0.39999999673E+01  0.40000000000E+01  0.51109989000E-03 0. -1.
     -623   -1    0    0    0    0  0.00000000000E+00  0.00000000000E+00  0.12525980253E-10  0.17130000000E+03  0.17130000000E+03 0.  1.
       11    1    1    2    0    0 -0.65777594415E-01 -0.57886319124E-01  0.14748066291E+00  0.17154685956E+00  0.51109989000E-03 0. -1.
     -623    1    1    2    0    0  0.26145613989E-02  0.17261928029E+00  0.33303703598E+00  0.17130041073E+03  0.17130000000E+03 0.  1.
      622    1    1    2    0    0  0.63163033016E-01 -0.11473296116E+00  0.35194822685E+01  0.38280424056E+01  0.15000000000E+01 0. -1.
</event>
<event>
 5   0  0.6596100E+00  0.9118800E+02  0.7818608E-02  0.1180000E+00
       11   -1    0    0    0    0  0.00000000000E+00  0.00000000000E+00  0.39999999673E+01  0.40000000000E+01  0.51109989000E-03 0.  1.
     -623   -1    0    0    0    0  0.00000000000E+00  0.00000000000E+00  0.12525980253E-10  0.17130000000E+03  0.17130000000E+03 0. -1.
       11    1    1    2    0    0  0.33325112903E-01  0.27734039639E+00  0.44456317040E+00  0.52503802940E+00  0.51109989000E-03 0.  1.
     -623    1    1    2    0    0 -0.43629429275E-01 -0.62580286185E+00  0.44225826762E+00  0.17130171956E+03  0.17130000000E+03 0. -1.
      622    1    1    2    0    0  0.10304316372E-01  0.34846246546E+00  0.31131785293E+01  0.34732424079E+01  0.15000000000E+01 0.  1.
</event>
<event>
 5   0  0.6596100E+00  0.9118800E+02  0.7818608E-02  0.1180000E+00
       11   -1    0    0    0    0  0.00000000000E+00  0.00000000000E+00  0.39999999673E+01  0.40000000000E+01  0.51109989000E-03 0. -1.
     -623   -1    0    0    0    0  0.00000000000E+00  0.00000000000E+00  0.12525980253E-10  0.17130000000E+03  0.17130000000E+03 0. -1.
       11    1    1    2    0    0 -0.79494552518E-01 -0.41760088096E-01  0.98357613867E-01  0.13318322066E+00  0.51109989000E-03 0. -1.
     -623    1    1    2    0    0 -0.24233444807E-02  0.21004775237E+00  0.34304875569E+00  0.17130047229E+03  0.17130000000E+03 0. -1.
      622    1    1    2    0    0  0.81917896999E-01 -0.16828766427E+00  0.35585935978E+01  0.38663444847E+01  0.15000000000E+01 0. -1.
</event>
<event>
 5   0  0.6596100E+00  0.9118800E+02  0.7818608E-02  0.1180000E+00
       11   -1    0    0    0    0  0.00000000000E+00  0.00000000000E+00  0.39999999673E+01  0.40000000000E+01  0.51109989000E-03 0.  1.
     -623   -1    0    0    0    0  0.00000000000E+00  0.00000000000E+00  0.12525980253E-10  0.17130000000E+03  0.17130000000E+03 0. -1.
       11    1    1    2    0    0  0.10062978503E+00  0.16287782150E+00  0.19485992937E+00  0.27317794872E+00  0.51109989000E-03 0.  1.
     -623    1    1    2    0    0  0.13703103873E+00 -0.17405870722E+00  0.40249354753E+00  0.17130061610E+03  0.17130000000E+03 0. -1.
      622    1    1    2    0    0 -0.23766082376E+00  0.11180885717E-01  0.34026464905E+01  0.37262059549E+01  0.15000000000E+01 0.  1.
</event>
<event>
 5   0  0.6596100E+00  0.9118800E+02  0.7818608E-02  0.1180000E+00
       11   -1    0    0    0    0  0.00000000000E+00  0.00000000000E+00  0.39999999673E+01  0.40000000000E+01  0.51109989000E-03 0. -1.
     -623   -1    0    0    0    0  0.00000000000E+00  0.00000000000E+00  0.12525980253E-10  0.17130000000E+03  0.17130000000E+03 0. -1.
       11    1    1    2    0    0 -0.38225230295E-01  0.12595965336E+00  0.55826296070E-01  0.14298195361E+00  0.51109989000E-03 0. -1.
     -623    1    1    2    0    0 -0.42647751456E-01 -0.13599790290E+00  0.39226922543E+00  0.17130050843E+03  0.17130000000E+03 0. -1.
      622    1    1    2    0    0  0.80872981751E-01  0.10038249540E-01  0.35519044459E+01  0.38565096134E+01  0.15000000000E+01 0. -1.
</event>
<event>
 5   0  0.6596100E+00  0.9118800E+02  0.7818608E-02  0.1180000E+00
       11   -1    0    0    0    0  0.00000000000E+00  0.00000000000E+00  0.39999999673E+01  0.40000000000E+01  0.51109989000E-03 0.  1.
     -623   -1    0    0    0    0  0.00000000000E+00  0.00000000000E+00  0.12525980253E-10  0.17130000000E+03  0.17130000000E+03 0. -1.
       11    1    1    2    0    0 -0.26507816035E+00 -0.21612293180E+00  0.53606552530E-01  0.34619283129E+00  0.51109989000E-03 0.  1.
     -623    1    1    2    0    0 -0.96796527745E-01  0.69765357964E-01  0.63898933646E+00  0.17130123334E+03  0.17130000000E+03 0. -1.
      622    1    1    2    0    0  0.36187468809E+00  0.14635757383E+00  0.33074040784E+01  0.36525738277E+01  0.15000000000E+01 0.  1.
</event>
<event>
 5   0  0.6596100E+00  0.9118800E+02  0.7818608E-02  0.1180000E+00
       11   -1    0    0    0    0  0.00000000000E+00  0.00000000000E+00  0.39999999673E+01  0.40000000000E+01  0.51109989000E-03 0.  1.
     -623   -1    0    0    0    0  0.00000000000E+00  0.00000000000E+00  0.12525980253E-10  0.17130000000E+03  0.17130000000E+03 0.  1.
       11    1    1    2    0    0 -0.37255324373E+00  0.65258535096E-01 -0.31435184339E-01  0.37953000916E+00  0.51109989000E-03 0.  1.
     -623    1    1    2    0    0 -0.43988540436E+00  0.25001995610E-01  0.84231169269E+00  0.17130263750E+03  0.17130000000E+03 0.  1.
      622    1    1    2    0    0  0.81243864809E+00 -0.90260530706E-01  0.31891234590E+01  0.36178324943E+01  0.15000000000E+01 0.  1.
</event>
<event>
 5   0  0.6596100E+00  0.9118800E+02  0.7818608E-02  0.1180000E+00
       11   -1    0    0    0    0  0.00000000000E+00  0.00000000000E+00  0.39999999673E+01  0.40000000000E+01  0.51109989000E-03 0.  1.
     -623   -1    0    0    0    0  0.00000000000E+00  0.00000000000E+00  0.12525980253E-10  0.17130000000E+03  0.17130000000E+03 0. -1.
       11    1    1    2    0    0 -0.15060626486E+00  0.18076163237E+00  0.51074345231E+00  0.56233099688E+00  0.51109989000E-03 0.  1.
     -623    1    1    2    0    0  0.84994523041E+00 -0.10008635052E+00  0.48049245217E+00  0.17130281170E+03  0.17130000000E+03 0. -1.
      622    1    1    2    0    0 -0.69933896555E+00 -0.80675281848E-01  0.30087640629E+01  0.34348573007E+01  0.15000000000E+01 0.  0.
</event>
<event>
 5   0  0.6596100E+00  0.9118800E+02  0.7818608E-02  0.1180000E+00
       11   -1    0    0    0    0  0.00000000000E+00  0.00000000000E+00  0.39999999673E+01  0.40000000000E+01  0.51109989000E-03 0. -1.
     -623   -1    0    0    0    0  0.00000000000E+00  0.00000000000E+00  0.12525980253E-10  0.17130000000E+03  0.17130000000E+03 0.  1.
       11    1    1    2    0    0  0.27400987379E+00 -0.29343161600E+00  0.34550270944E+00  0.52967528511E+00  0.51109989000E-03 0. -1.
     -623    1    1    2    0    0 -0.13120199113E+00  0.59980331654E+00  0.54560161485E+00  0.17130196922E+03  0.17130000000E+03 0.  1.
      622    1    1    2    0    0 -0.14280788266E+00 -0.30637170054E+00  0.31088956431E+01  0.34683554936E+01  0.15000000000E+01 0. -1.
</event>
<event>
 5   0  0.6596100E+00  0.9118800E+02  0.7818608E-02  0.1180000E+00
       11   -1    0    0    0    0  0.00000000000E+00  0.00000000000E+00  0.39999999673E+01  0.40000000000E+01  0.51109989000E-03 0. -1.
     -623   -1    0    0    0    0  0.00000000000E+00  0.00000000000E+00  0.12525980253E-10  0.17130000000E+03  0.17130000000E+03 0. -1.
       11    1    1    2    0    0 -0.25605463786E-01 -0.21625513160E-01  0.83826657205E-01  0.90279966077E-01  0.51109989000E-03 0. -1.
     -623    1    1    2    0    0  0.23995184131E+00  0.16556957649E+00  0.31547400822E+00  0.17130053857E+03  0.17130000000E+03 0. -1.
      622    1    1    2    0    0 -0.21434637752E+00 -0.14394406333E+00  0.36006993019E+01  0.39091814649E+01  0.15000000000E+01 0. -1.
</event>
<event>
 5   0  0.6596100E+00  0.9118800E+02  0.7818608E-02  0.1180000E+00
       11   -1    0    0    0    0  0.00000000000E+00  0.00000000000E+00  0.39999999673E+01  0.40000000000E+01  0.51109989000E-03 0.  1.
     -623   -1    0    0    0    0  0.00000000000E+00  0.00000000000E+00  0.12525980253E-10  0.17130000000E+03  0.17130000000E+03 0. -1.
       11    1    1    2    0    0 -0.11604373379E+00  0.20334272632E-01  0.24403718335E+00  0.27098715629E+00  0.51109989000E-03 0.  1.
     -623    1    1    2    0    0  0.20518289673E+00  0.85376812347E-01  0.34528162217E+00  0.17130049214E+03  0.17130000000E+03 0. -1.
      622    1    1    2    0    0 -0.89139162943E-01 -0.10571108498E+00  0.34106811618E+01  0.37285207002E+01  0.15000000000E+01 0.  1.
</event>
<event>
 5   0  0.6596100E+00  0.9118800E+02  0.7818608E-02  0.1180000E+00
       11   -1    0    0    0    0  0.00000000000E+00  0.00000000000E+00  0.39999999673E+01  0.40000000000E+01  0.51109989000E-03 0.  1.
     -623   -1    0    0    0    0  0.00000000000E+00  0.00000000000E+00  0.12525980253E-10  0.17130000000E+03  0.17130000000E+03 0.  1.
       11    1    1    2    0    0 -0.42957626061E-01 -0.24167997846E+00  0.14408747553E+00  0.28463315241E+00  0.51109989000E-03 0.  1.
     -623    1    1    2    0    0 -0.58072200926E-01  0.10227771677E+00  0.46189069353E+00  0.17130066309E+03  0.17130000000E+03 0.  1.
      622    1    1    2    0    0  0.10102982699E+00  0.13940226169E+00  0.33940217983E+01  0.37147037545E+01  0.15000000000E+01 0.  1.
</event>
<event>
 5   0  0.6596100E+00  0.9118800E+02  0.7818608E-02  0.1180000E+00
       11   -1    0    0    0    0  0.00000000000E+00  0.00000000000E+00  0.39999999673E+01  0.40000000000E+01  0.51109989000E-03 0.  1.
     -623   -1    0    0    0    0  0.00000000000E+00  0.00000000000E+00  0.12525980253E-10  0.17130000000E+03  0.17130000000E+03 0. -1.
       11    1    1    2    0    0  0.27368470387E-01  0.78234276244E-01  0.30212627656E+00  0.31328929660E+00  0.51109989000E-03 0.  1.
     -623    1    1    2    0    0  0.15596929902E+00 -0.17704386217E+00  0.33709756045E+00  0.17130049418E+03  0.17130000000E+03 0. -1.
      622    1    1    2    0    0 -0.18333776941E+00  0.98809585927E-01  0.33607761303E+01  0.36862165251E+01  0.15000000000E+01 0.  1.
</event>
<event>
 5   0  0.6596100E+00  0.9118800E+02  0.7818608E-02  0.1180000E+00
       11   -1    0    0    0    0  0.00000000000E+00  0.00000000000E+00  0.39999999673E+01  0.40000000000E+01  0.51109989000E-03 0. -1.
     -623   -1    0    0    0    0  0.00000000000E+00  0.00000000000E+00  0.12525980253E-10  0.17130000000E+03  0.17130000000E+03 0. -1.
       11    1    1    2    0    0  0.99904300478E-02 -0.10048570441E+00  0.24181320422E+00  0.26205165987E+00  0.51109989000E-03 0. -1.
     -623    1    1    2    0    0  0.12502983900E+00  0.10405412977E+00  0.33752140270E+00  0.17130040975E+03  0.17130000000E+03 0. -1.
      622    1    1    2    0    0 -0.13502026905E+00 -0.35684253599E-02  0.34206653604E+01  0.37375385904E+01  0.15000000000E+01 0. -1.
</event>
<event>
 5   0  0.6596100E+00  0.9118800E+02  0.7818608E-02  0.1180000E+00
       11   -1    0    0    0    0  0.00000000000E+00  0.00000000000E+00  0.39999999673E+01  0.40000000000E+01  0.51109989000E-03 0.  1.
     -623   -1    0    0    0    0  0.00000000000E+00  0.00000000000E+00  0.12525980253E-10  0.17130000000E+03  0.17130000000E+03 0. -1.
       11    1    1    2    0    0 -0.16962355953E+00 -0.56344123096E-01 -0.17580208833E-01  0.17959993630E+00  0.51109989000E-03 0.  1.
     -623    1    1    2    0    0  0.18976794652E+00  0.11949395231E+00  0.50556626229E+00  0.17130089284E+03  0.17130000000E+03 0. -1.
      622    1    1    2    0    0 -0.20144386991E-01 -0.63149829212E-01  0.35120139139E+01  0.38195072233E+01  0.15000000000E+01 0.  1.
</event>
<event>
 5   0  0.6596100E+00  0.9118800E+02  0.7818608E-02  0.1180000E+00
       11   -1    0    0    0    0  0.00000000000E+00  0.00000000000E+00  0.39999999673E+01  0.40000000000E+01  0.51109989000E-03 0. -1.
     -623   -1    0    0    0    0  0.00000000000E+00  0.00000000000E+00  0.12525980253E-10  0.17130000000E+03  0.17130000000E+03 0. -1.
       11    1    1    2    0    0  0.20555675301E+00  0.23284635913E+00  0.12445501348E+00  0.33460471794E+00  0.51109989000E-03 0. -1.
     -623    1    1    2    0    0 -0.34038628734E-01 -0.10657816350E+00  0.53888801051E+00  0.17130088417E+03  0.17130000000E+03 0. -1.
      622    1    1    2    0    0 -0.17151812427E+00 -0.12626819563E+00  0.33366569434E+01  0.36645111109E+01  0.15000000000E+01 0. -1.
</event>
<event>
 5   0  0.6596100E+00  0.9118800E+02  0.7818608E-02  0.1180000E+00
       11   -1    0    0    0    0  0.00000000000E+00  0.00000000000E+00  0.39999999673E+01  0.40000000000E+01  0.51109989000E-03 0.  1.
     -623   -1    0    0    0    0  0.00000000000E+00  0.00000000000E+00  0.12525980253E-10  0.17130000000E+03  0.17130000000E+03 0. -1.
       11    1    1    2    0    0  0.19025766435E+00  0.18735556327E-01  0.36003679611E-01  0.19453926617E+00  0.51109989000E-03 0.  1.
     -623    1    1    2    0    0 -0.19057185009E+00 -0.94390668203E-02  0.46745767515E+00  0.17130074408E+03  0.17130000000E+03 0. -1.
      622    1    1    2    0    0  0.31418573825E-03 -0.92964895066E-02  0.34965386126E+01  0.38047166508E+01  0.15000000000E+01 0.  1.
</event>
<event>
 5   0  0.6596100E+00  0.9118800E+02  0.7818608E-02  0.1180000E+00
       11   -1    0    0    0    0  0.00000000000E+00  0.00000000000E+00  0.39999999673E+01  0.40000000000E+01  0.51109989000E-03 0. -1.
     -623   -1    0    0    0    0  0.00000000000E+00  0.00000000000E+00  0.12525980253E-10  0.17130000000E+03  0.17130000000E+03 0.  1.
       11    1    1    2    0    0 -0.68414232414E-02 -0.12894616954E+00 -0.16513971386E+00  0.20963135746E+00  0.51109989000E-03 0. -1.
     -623    1    1    2    0    0 -0.11952079755E+00 -0.81591743956E-01  0.69448158232E+00  0.17130146890E+03  0.17130000000E+03 0.  1.
      622    1    1    2    0    0  0.12636222079E+00  0.21053791350E+00  0.34706580989E+01  0.37888997431E+01  0.15000000000E+01 0. -1.
</event>
<event>
 5   0  0.6596100E+00  0.9118800E+02  0.7818608E-02  0.1180000E+00
       11   -1    0    0    0    0  0.00000000000E+00  0.00000000000E+00  0.39999999673E+01  0.40000000000E+01  0.51109989000E-03 0.  1.
     -623   -1    0    0    0    0  0.00000000000E+00  0.00000000000E+00  0.12525980253E-10  0.17130000000E+03  0.17130000000E+03 0.  1.
       11    1    1    2    0    0  0.17156934060E+00  0.22619914232E+00  0.48681980498E+00  0.56355645180E+00  0.51109989000E-03 0.  1.
     -623    1    1    2    0    0 -0.29255311143E+00 -0.39863490029E+00  0.42997387207E+00  0.17130125328E+03  0.17130000000E+03 0.  1.
      622    1    1    2    0    0  0.12098377083E+00  0.17243575797E+00  0.30832062903E+01  0.34351902701E+01  0.15000000000E+01 0.  1.
</event>
<event>
 5   0  0.6596100E+00  0.9118800E+02  0.7818608E-02  0.1180000E+00
       11   -1    0    0    0    0  0.00000000000E+00  0.00000000000E+00  0.39999999673E+01  0.40000000000E+01  0.51109989000E-03 0. -1.
     -623   -1    0    0    0    0  0.00000000000E+00  0.00000000000E+00  0.12525980253E-10  0.17130000000E+03  0.17130000000E+03 0. -1.
       11    1    1    2    0    0 -0.12494662815E+00 -0.64080271706E-01  0.17910082727E+00  0.22758582701E+00  0.51109989000E-03 0. -1.
     -623    1    1    2    0    0  0.19466896554E+00  0.85468195459E-01  0.36085184564E+00  0.17130051201E+03  0.17130000000E+03 0. -1.
      622    1    1    2    0    0 -0.69722337396E-01 -0.21387923753E-01  0.34600472945E+01  0.37719021630E+01  0.15000000000E+01 0. -1.
</event>
<event>
 5   0  0.6596100E+00  0.9118800E+02  0.7818608E-02  0.1180000E+00
       11   -1    0    0    0    0  0.00000000000E+00  0.00000000000E+00  0.39999999673E+01  0.40000000000E+01  0.51109989000E-03 0. -1.
     -623   -1    0    0    0    0  0.00000000000E+00  0.00000000000E+00  0.12525980253E-10  0.17130000000E+03  0.17130000000E+03 0. -1.
       11    1    1    2    0    0 -0.44889516906E-01 -0.23051751445E+00  0.45109083824E+00  0.50856326919E+00  0.51109989000E-03 0. -1.
     -623    1    1    2    0    0  0.16177277282E+00  0.34732192952E+00  0.40144197437E+00  0.17130089888E+03  0.17130000000E+03 0. -1.
      622    1    1    2    0    0 -0.11688325591E+00 -0.11680441507E+00  0.31474671547E+01  0.34905378464E+01  0.15000000000E+01 0. -1.
</event>
<event>
 5   0  0.6596100E+00  0.9118800E+02  0.7818608E-02  0.1180000E+00
       11   -1    0    0    0    0  0.00000000000E+00  0.00000000000E+00  0.39999999673E+01  0.40000000000E+01  0.51109989000E-03 0.  1.
     -623   -1    0    0    0    0  0.00000000000E+00  0.00000000000E+00  0.12525980253E-10  0.17130000000E+03  0.17130000000E+03 0. -1.
       11    1    1    2    0    0  0.63559244826E-01  0.23921011255E-01  0.37478619872E+00  0.38088968004E+00  0.51109989000E-03 0.  1.
     -623    1    1    2    0    0  0.30747641594E-02 -0.24091350393E+00  0.33997930195E+00  0.17130050681E+03  0.17130000000E+03 0. -1.
      622    1    1    2    0    0 -0.66634008985E-01  0.21699249267E+00  0.32852344667E+01  0.36186035061E+01  0.15000000000E+01 0.  1.
</event>
<event>
 5   0  0.6596100E+00  0.9118800E+02  0.7818608E-02  0.1180000E+00
       11   -1    0    0    0    0  0.00000000000E+00  0.00000000000E+00  0.39999999673E+01  0.40000000000E+01  0.51109989000E-03 0.  1.
     -623   -1    0    0    0    0  0.00000000000E+00  0.00000000000E+00  0.12525980253E-10  0.17130000000E+03  0.17130000000E+03 0. -1.
       11    1    1    2    0    0  0.81900691506E-01  0.52354351084E-01  0.19867395488E-01  0.99215301104E-01  0.51109989000E-03 0.  1.
     -623    1    1    2    0    0 -0.67779679806E-01 -0.12296649823E-01  0.38000464736E+00  0.17130043534E+03  0.17130000000E+03 0. -1.
      622    1    1    2    0    0 -0.14121011700E-01 -0.40057701261E-01  0.36001279245E+01  0.39003493555E+01  0.15000000000E+01 0.  1.
</event>
<event>
 5   0  0.6596100E+00  0.9118800E+02  0.7818608E-02  0.1180000E+00
       11   -1    0    0    0    0  0.00000000000E+00  0.00000000000E+00  0.39999999673E+01  0.40000000000E+01  0.51109989000E-03 0.  1.
     -623   -1    0    0    0    0  0.00000000000E+00  0.00000000000E+00  0.12525980253E-10  0.17130000000E+03  0.17130000000E+03 0.  1.
       11    1    1    2    0    0 -0.20170623936E+00 -0.39092302476E-02 -0.77181829409E-01  0.21600459507E+00  0.51109989000E-03 0.  1.
     -623    1    1    2    0    0  0.15872890542E+00  0.35341318032E+00  0.62280199502E+00  0.17130157027E+03  0.17130000000E+03 0.  1.
      622    1    1    2    0    0  0.42977333940E-01 -0.34950395007E+00  0.34543798018E+01  0.37824251317E+01  0.15000000000E+01 0.  1.
</event>
<event>
 5   0  0.6596100E+00  0.9118800E+02  0.7818608E-02  0.1180000E+00
       11   -1    0    0    0    0  0.00000000000E+00  0.00000000000E+00  0.39999999673E+01  0.40000000000E+01  0.51109989000E-03 0. -1.
     -623   -1    0    0    0    0  0.00000000000E+00  0.00000000000E+00  0.12525980253E-10  0.17130000000E+03  0.17130000000E+03 0. -1.
       11    1    1    2    0    0 -0.28215455613E-01 -0.66800766416E-03 -0.39614353280E-01  0.48642742271E-01  0.51109989000E-03 0. -1.
     -623    1    1    2    0    0  0.18715991031E+00  0.12344364061E+00  0.39020125302E+00  0.17130059114E+03  0.17130000000E+03 0. -1.
      622    1    1    2    0    0 -0.15894445469E+00 -0.12277563295E+00  0.36494130676E+01  0.39507661199E+01  0.15000000000E+01 0. -1.
</event>
<event>
 5   0  0.6596100E+00  0.9118800E+02  0.7818608E-02  0.1180000E+00
       11   -1    0    0    0    0  0.00000000000E+00  0.00000000000E+00  0.39999999673E+01  0.40000000000E+01  0.51109989000E-03 0. -1.
     -623   -1    0    0    0    0  0.00000000000E+00  0.00000000000E+00  0.12525980253E-10  0.17130000000E+03  0.17130000000E+03 0. -1.
       11    1    1    2    0    0  0.15081479637E+00 -0.24658974874E-01  0.93417087429E-01  0.17910941151E+00  0.51109989000E-03 0. -1.
     -623    1    1    2    0    0 -0.17917709758E+00 -0.10814922697E+00  0.39570075747E+00  0.17130058488E+03  0.17130000000E+03 0. -1.
      622    1    1    2    0    0  0.28362301210E-01  0.13280820184E+00  0.35108821225E+01  0.38203057098E+01  0.15000000000E+01 0. -1.
</event>
<event>
 5   0  0.6596100E+00  0.9118800E+02  0.7818608E-02  0.1180000E+00
       11   -1    0    0    0    0  0.00000000000E+00  0.00000000000E+00  0.39999999673E+01  0.40000000000E+01  0.51109989000E-03 0.  1.
     -623   -1    0    0    0    0  0.00000000000E+00  0.00000000000E+00  0.12525980253E-10  0.17130000000E+03  0.17130000000E+03 0. -1.
       11    1    1    2    0    0 -0.24095101164E+00  0.27567066311E+00  0.39159007572E+00  0.53609211255E+00  0.51109989000E-03 0.  1.
     -623    1    1    2    0    0  0.48593750519E+00 -0.20380157690E+00  0.49829075631E+00  0.17130153521E+03  0.17130000000E+03 0. -1.
      622    1    1    2    0    0 -0.24498649355E+00 -0.71869086211E-01  0.31101191353E+01  0.34623726812E+01  0.15000000000E+01 0.  1.
</event>
<event>
 5   0  0.6596100E+00  0.9118800E+02  0.7818608E-02  0.1180000E+00
       11   -1    0    0    0    0  0.00000000000E+00  0.00000000000E+00  0.39999999673E+01  0.40000000000E+01  0.51109989000E-03 0.  1.
     -623   -1    0    0    0    0  0.00000000000E+00  0.00000000000E+00  0.12525980253E-10  0.17130000000E+03  0.17130000000E+03 0. -1.
       11    1    1    2    0    0 -0.24613238473E-01 -0.74040307352E-02  0.27306775823E-01  0.37504031883E-01  0.51109989000E-03 0.  1.
     -623    1    1    2    0    0  0.45284611869E+00  0.20248493041E+00  0.33653814387E+00  0.17130104882E+03  0.17130000000E+03 0. -1.
      622    1    1    2    0    0 -0.42823288021E+00 -0.19508089968E+00  0.36361550477E+01  0.39614471457E+01  0.15000000000E+01 0.  1.
</event>
<event>
 5   0  0.6596100E+00  0.9118800E+02  0.7818608E-02  0.1180000E+00
       11   -1    0    0    0    0  0.00000000000E+00  0.00000000000E+00  0.39999999673E+01  0.40000000000E+01  0.51109989000E-03 0.  1.
     -623   -1    0    0    0    0  0.00000000000E+00  0.00000000000E+00  0.12525980253E-10  0.17130000000E+03  0.17130000000E+03 0.  1.
       11    1    1    2    0    0 -0.42263955791E-01  0.12449894033E+00  0.33060026589E+00  0.35578508278E+00  0.51109989000E-03 0.  1.
     -623    1    1    2    0    0  0.94868212332E-01 -0.29664996195E+00  0.35380427841E+00  0.17130064851E+03  0.17130000000E+03 0.  1.
      622    1    1    2    0    0 -0.52604256541E-01  0.17215102162E+00  0.33155954231E+01  0.36435664110E+01  0.15000000000E+01 0.  1.
</event>
<event>
 5   0  0.6596100E+00  0.9118800E+02  0.7818608E-02  0.1180000E+00
       11   -1    0    0    0    0  0.00000000000E+00  0.00000000000E+00  0.39999999673E+01  0.40000000000E+01  0.51109989000E-03 0.  1.
     -623   -1    0    0    0    0  0.00000000000E+00  0.00000000000E+00  0.12525980253E-10  0.17130000000E+03  0.17130000000E+03 0.  1.
       11    1    1    2    0    0  0.18864460295E+00 -0.33360001850E+00  0.20287978022E+00  0.43363143914E+00  0.51109989000E-03 0.  1.
     -623    1    1    2    0    0 -0.44874743628E+00  0.33330645483E+00  0.57408313458E+00  0.17130187401E+03  0.17130000000E+03 0.  1.
      622    1    1    2    0    0  0.26010283333E+00  0.29356366214E-03  0.32230370526E+01  0.35644945521E+01  0.15000000000E+01 0.  1.
</event>
<event>
 5   0  0.6596100E+00  0.9118800E+02  0.7818608E-02  0.1180000E+00
       11   -1    0    0    0    0  0.00000000000E+00  0.00000000000E+00  0.39999999673E+01  0.40000000000E+01  0.51109989000E-03 0.  1.
     -623   -1    0    0    0    0  0.00000000000E+00  0.00000000000E+00  0.12525980253E-10  0.17130000000E+03  0.17130000000E+03 0.  1.
       11    1    1    2    0    0  0.16245162297E+00  0.14583522212E-01 -0.44721929225E-01  0.16912575529E+00  0.51109989000E-03 0.  1.
     -623    1    1    2    0    0 -0.35885558851E+00 -0.15796214604E+00  0.52950368407E+00  0.17130126708E+03  0.17130000000E+03 0.  1.
      622    1    1    2    0    0  0.19640396554E+00  0.14337862383E+00  0.35152182125E+01  0.38296071638E+01  0.15000000000E+01 0.  1.
</event>
<event>
 5   0  0.6596100E+00  0.9118800E+02  0.7818608E-02  0.1180000E+00
       11   -1    0    0    0    0  0.00000000000E+00  0.00000000000E+00  0.39999999673E+01  0.40000000000E+01  0.51109989000E-03 0. -1.
     -623   -1    0    0    0    0  0.00000000000E+00  0.00000000000E+00  0.12525980253E-10  0.17130000000E+03  0.17130000000E+03 0. -1.
       11    1    1    2    0    0 -0.30172034219E-01  0.10347405063E-03  0.66570186536E-01  0.73090446106E-01  0.51109989000E-03 0. -1.
     -623    1    1    2    0    0  0.89924563919E-01  0.48299490839E-01  0.30543749436E+00  0.17130030272E+03  0.17130000000E+03 0. -1.
      622    1    1    2    0    0 -0.59752529700E-01 -0.48402964889E-01  0.36279922865E+01  0.39266068357E+01  0.15000000000E+01 0. -1.
</event>
<event>
 5   0  0.6596100E+00  0.9118800E+02  0.7818608E-02  0.1180000E+00
       11   -1    0    0    0    0  0.00000000000E+00  0.00000000000E+00  0.39999999673E+01  0.40000000000E+01  0.51109989000E-03 0. -1.
     -623   -1    0    0    0    0  0.00000000000E+00  0.00000000000E+00  0.12525980253E-10  0.17130000000E+03  0.17130000000E+03 0. -1.
       11    1    1    2    0    0  0.29478616628E+00  0.24517148809E+00  0.74490372307E+00  0.83778861312E+00  0.51109989000E-03 0. -1.
     -623    1    1    2    0    0 -0.35621925543E-01 -0.13959046164E+00  0.48624807307E+00  0.17130075070E+03  0.17130000000E+03 0. -1.
      622    1    1    2    0    0 -0.25916424074E+00 -0.10558102645E+00  0.27688481712E+01  0.31614606833E+01  0.15000000000E+01 0. -1.
</event>
<event>
 5   0  0.6596100E+00  0.9118800E+02  0.7818608E-02  0.1180000E+00
       11   -1    0    0    0    0  0.00000000000E+00  0.00000000000E+00  0.39999999673E+01  0.40000000000E+01  0.51109989000E-03 0.  1.
     -623   -1    0    0    0    0  0.00000000000E+00  0.00000000000E+00  0.12525980253E-10  0.17130000000E+03  0.17130000000E+03 0.  1.
       11    1    1    2    0    0 -0.13531335301E+00 -0.64613123836E-01  0.89951068258E-01  0.17485998736E+00  0.51109989000E-03 0.  1.
     -623    1    1    2    0    0  0.12139537822E+00  0.12321881807E+00  0.39238463139E+00  0.17130053673E+03  0.17130000000E+03 0.  1.
      622    1    1    2    0    0  0.13917974790E-01 -0.58605694231E-01  0.35176642677E+01  0.38246032785E+01  0.15000000000E+01 0.  1.
</event>
<event>
 5   0  0.6596100E+00  0.9118800E+02  0.7818608E-02  0.1180000E+00
       11   -1    0    0    0    0  0.00000000000E+00  0.00000000000E+00  0.39999999673E+01  0.40000000000E+01  0.51109989000E-03 0. -1.
     -623   -1    0    0    0    0  0.00000000000E+00  0.00000000000E+00  0.12525980253E-10  0.17130000000E+03  0.17130000000E+03 0.  1.
       11    1    1    2    0    0 -0.12191833590E-01  0.18617152281E-01 -0.36017142654E-01  0.42340700908E-01  0.51109989000E-03 0. -1.
     -623    1    1    2    0    0 -0.52985056131E+00  0.69181965559E-01  0.41649423461E+00  0.17130133974E+03  0.17130000000E+03 0.  1.
      622    1    1    2    0    0  0.54204239490E+00 -0.87799117840E-01  0.36195228754E+01  0.39563195635E+01  0.15000000000E+01 0. -1.
</event>
<event>
 5   0  0.6596100E+00  0.9118800E+02  0.7818608E-02  0.1180000E+00
       11   -1    0    0    0    0  0.00000000000E+00  0.00000000000E+00  0.39999999673E+01  0.40000000000E+01  0.51109989000E-03 0.  1.
     -623   -1    0    0    0    0  0.00000000000E+00  0.00000000000E+00  0.12525980253E-10  0.17130000000E+03  0.17130000000E+03 0. -1.
       11    1    1    2    0    0 -0.39797379238E-01  0.67098189228E-01 -0.88410811072E-01  0.11790984323E+00  0.51109989000E-03 0.  1.
     -623    1    1    2    0    0  0.58575043068E-02  0.26042087600E+00  0.52408165474E+00  0.17130099975E+03  0.17130000000E+03 0. -1.
      622    1    1    2    0    0  0.33939874931E-01 -0.32751906523E+00  0.35643291237E+01  0.38810904080E+01  0.15000000000E+01 0.  1.
</event>
<event>
 5   0  0.6596100E+00  0.9118800E+02  0.7818608E-02  0.1180000E+00
       11   -1    0    0    0    0  0.00000000000E+00  0.00000000000E+00  0.39999999673E+01  0.40000000000E+01  0.51109989000E-03 0. -1.
     -623   -1    0    0    0    0  0.00000000000E+00  0.00000000000E+00  0.12525980253E-10  0.17130000000E+03  0.17130000000E+03 0. -1.
       11    1    1    2    0    0  0.27902310819E-01  0.16261273396E+00  0.38980836750E+00  0.42328744937E+00  0.51109989000E-03 0. -1.
     -623    1    1    2    0    0 -0.22638409356E-01 -0.63094506703E-01  0.36518576296E+00  0.17130040238E+03  0.17130000000E+03 0. -1.
      622    1    1    2    0    0 -0.52639014628E-02 -0.99518227261E-01  0.32450058369E+01  0.35763101750E+01  0.15000000000E+01 0. -1.
</event>
<event>
 5   0  0.6596100E+00  0.9118800E+02  0.7818608E-02  0.1180000E+00
       11   -1    0    0    0    0  0.00000000000E+00  0.00000000000E+00  0.39999999673E+01  0.40000000000E+01  0.51109989000E-03 0.  1.
     -623   -1    0    0    0    0  0.00000000000E+00  0.00000000000E+00  0.12525980253E-10  0.17130000000E+03  0.17130000000E+03 0.  1.
       11    1    1    2    0    0  0.27215531011E+00 -0.11137493873E+00  0.33440229693E+00  0.44530668894E+00  0.51109989000E-03 0.  1.
     -623    1    1    2    0    0 -0.26700295824E+00  0.14505007886E+00  0.44400212274E+00  0.17130084491E+03  0.17130000000E+03 0.  1.
      622    1    1    2    0    0 -0.51523518675E-02 -0.33675140131E-01  0.32215955477E+01  0.35538483978E+01  0.15000000000E+01 0.  1.
</event>
<event>
 5   0  0.6596100E+00  0.9118800E+02  0.7818608E-02  0.1180000E+00
       11   -1    0    0    0    0  0.00000000000E+00  0.00000000000E+00  0.39999999673E+01  0.40000000000E+01  0.51109989000E-03 0. -1.
     -623   -1    0    0    0    0  0.00000000000E+00  0.00000000000E+00  0.12525980253E-10  0.17130000000E+03  0.17130000000E+03 0.  1.
       11    1    1    2    0    0  0.26097196008E+00 -0.14722106689E-01  0.10612252535E+00  0.28210876623E+00  0.51109989000E-03 0. -1.
     -623    1    1    2    0    0  0.94945983676E-01 -0.17039894575E+00  0.51672661613E+00  0.17130089041E+03  0.17130000000E+03 0.  1.
      622    1    1    2    0    0 -0.35591794376E+00  0.18512105244E+00  0.33771508259E+01  0.37170008189E+01  0.15000000000E+01 0. -1.
</event>
<event>
 5   0  0.6596100E+00  0.9118800E+02  0.7818608E-02  0.1180000E+00
       11   -1    0    0    0    0  0.00000000000E+00  0.00000000000E+00  0.39999999673E+01  0.40000000000E+01  0.51109989000E-03 0. -1.
     -623   -1    0    0    0    0  0.00000000000E+00  0.00000000000E+00  0.12525980253E-10  0.17130000000E+03  0.17130000000E+03 0. -1.
       11    1    1    2    0    0  0.15102981298E-01  0.58167093348E-01 -0.93251945454E-01  0.11094006196E+00  0.51109989000E-03 0. -1.
     -623    1    1    2    0    0  0.34891666062E+00 -0.37454922592E+00  0.53943331545E+00  0.17130161417E+03  0.17130000000E+03 0. -1.
      622    1    1    2    0    0 -0.36401964192E+00  0.31638213257E+00  0.35538185974E+01  0.38874457651E+01  0.15000000000E+01 0. -1.
</event>
<event>
 5   0  0.6596100E+00  0.9118800E+02  0.7818608E-02  0.1180000E+00
       11   -1    0    0    0    0  0.00000000000E+00  0.00000000000E+00  0.39999999673E+01  0.40000000000E+01  0.51109989000E-03 0. -1.
     -623   -1    0    0    0    0  0.00000000000E+00  0.00000000000E+00  0.12525980253E-10  0.17130000000E+03  0.17130000000E+03 0. -1.
       11    1    1    2    0    0  0.64929868812E-01 -0.26140500824E-01  0.10507793109E+00  0.12625706504E+00  0.51109989000E-03 0. -1.
     -623    1    1    2    0    0 -0.12763143932E+00  0.14947057852E+00  0.32652490774E+00  0.17130042396E+03  0.17130000000E+03 0. -1.
      622    1    1    2    0    0  0.62701570511E-01 -0.12333007770E+00  0.35683971285E+01  0.38733189724E+01  0.15000000000E+01 0. -1.
</event>
<event>
 5   0  0.6596100E+00  0.9118800E+02  0.7818608E-02  0.1180000E+00
       11   -1    0    0    0    0  0.00000000000E+00  0.00000000000E+00  0.39999999673E+01  0.40000000000E+01  0.51109989000E-03 0.  1.
     -623   -1    0    0    0    0  0.00000000000E+00  0.00000000000E+00  0.12525980253E-10  0.17130000000E+03  0.17130000000E+03 0.  1.
       11    1    1    2    0    0 -0.22843574657E-01 -0.17461600204E-01  0.78580079150E-01  0.83676917051E-01  0.51109989000E-03 0.  1.
     -623    1    1    2    0    0  0.52754652811E-01  0.51642619467E-01  0.30433799671E+00  0.17130028626E+03  0.17130000000E+03 0.  1.
      622    1    1    2    0    0 -0.29911078155E-01 -0.34181019263E-01  0.36170818915E+01  0.39160368262E+01  0.15000000000E+01 0.  1.
</event>
<event>
 5   0  0.6596100E+00  0.9118800E+02  0.7818608E-02  0.1180000E+00
       11   -1    0    0    0    0  0.00000000000E+00  0.00000000000E+00  0.39999999673E+01  0.40000000000E+01  0.51109989000E-03 0. -1.
     -623   -1    0    0    0    0  0.00000000000E+00  0.00000000000E+00  0.12525980253E-10  0.17130000000E+03  0.17130000000E+03 0. -1.
       11    1    1    2    0    0 -0.63832587252E-01  0.36261856206E+00  0.63702979661E+00  0.73578124721E+00  0.51109989000E-03 0. -1.
     -623    1    1    2    0    0  0.54587537518E+00 -0.30830344735E+00  0.50684909042E+00  0.17130189703E+03  0.17130000000E+03 0. -1.
      622    1    1    2    0    0 -0.48204278793E+00 -0.54315114706E-01  0.28561210803E+01  0.32623217203E+01  0.15000000000E+01 0. -1.
</event>
<event>
 5   0  0.6596100E+00  0.9118800E+02  0.7818608E-02  0.1180000E+00
       11   -1    0    0    0    0  0.00000000000E+00  0.00000000000E+00  0.39999999673E+01  0.40000000000E+01  0.51109989000E-03 0.  1.
     -623   -1    0    0    0    0  0.00000000000E+00  0.00000000000E+00  0.12525980253E-10  0.17130000000E+03  0.17130000000E+03 0.  1.
       11    1    1    2    0    0  0.66916204285E-01  0.14322466771E+00 -0.80815963089E-01  0.17754595165E+00  0.51109989000E-03 0.  1.
     -623    1    1    2    0    0  0.57100800746E-01 -0.24320655533E+00  0.56981296322E+00  0.17130112988E+03  0.17130000000E+03 0.  1.
      622    1    1    2    0    0 -0.12401700503E+00  0.99981887619E-01  0.35110029672E+01  0.38213241725E+01  0.15000000000E+01 0.  1.
</event>
<event>
 5   0  0.6596100E+00  0.9118800E+02  0.7818608E-02  0.1180000E+00
       11   -1    0    0    0    0  0.00000000000E+00  0.00000000000E+00  0.39999999673E+01  0.40000000000E+01  0.51109989000E-03 0. -1.
     -623   -1    0    0    0    0  0.00000000000E+00  0.00000000000E+00  0.12525980253E-10  0.17130000000E+03  0.17130000000E+03 0.  1.
       11    1    1    2    0    0  0.97103735282E-01 -0.33830182487E-01 -0.13033520363E+00  0.16601549078E+00  0.51109989000E-03 0. -1.
     -623    1    1    2    0    0  0.33156446424E+00  0.37774333501E+00  0.64717856608E+00  0.17130195990E+03  0.17130000000E+03 0.  1.
      622    1    1    2    0    0 -0.42866819952E+00 -0.34391315252E+00  0.34831566049E+01  0.38320246106E+01  0.15000000000E+01 0. -1.
</event>
<event>
 5   0  0.6596100E+00  0.9118800E+02  0.7818608E-02  0.1180000E+00
       11   -1    0    0    0    0  0.00000000000E+00  0.00000000000E+00  0.39999999673E+01  0.40000000000E+01  0.51109989000E-03 0.  1.
     -623   -1    0    0    0    0  0.00000000000E+00  0.00000000000E+00  0.12525980253E-10  0.17130000000E+03  0.17130000000E+03 0. -1.
       11    1    1    2    0    0  0.22070195783E+00 -0.52728779471E-01  0.72540946266E-01  0.23822705237E+00  0.51109989000E-03 0.  1.
     -623    1    1    2    0    0  0.39085931762E-01 -0.47859792906E-01  0.48973044882E+00  0.17130071119E+03  0.17130000000E+03 0. -1.
      622    1    1    2    0    0 -0.25978788959E+00  0.10058857238E+00  0.34377285723E+01  0.37610617577E+01  0.15000000000E+01 0.  1.
</event>
<event>
 5   0  0.6596100E+00  0.9118800E+02  0.7818608E-02  0.1180000E+00
       11   -1    0    0    0    0  0.00000000000E+00  0.00000000000E+00  0.39999999673E+01  0.40000000000E+01  0.51109989000E-03 0. -1.
     -623   -1    0    0    0    0  0.00000000000E+00  0.00000000000E+00  0.12525980253E-10  0.17130000000E+03  0.17130000000E+03 0. -1.
       11    1    1    2    0    0 -0.23610476771E+00 -0.17775078177E+00  0.62198445649E+00  0.68862597039E+00  0.51109989000E-03 0. -1.
     -623    1    1    2    0    0  0.94731049684E-01  0.58118444186E-01  0.43233257503E+00  0.17130058162E+03  0.17130000000E+03 0. -1.
      622    1    1    2    0    0  0.14137371803E+00  0.11963233758E+00  0.29456829358E+01  0.33107924101E+01  0.15000000000E+01 0. -1.
</event>
<event>
 5   0  0.6596100E+00  0.9118800E+02  0.7818608E-02  0.1180000E+00
       11   -1    0    0    0    0  0.00000000000E+00  0.00000000000E+00  0.39999999673E+01  0.40000000000E+01  0.51109989000E-03 0.  1.
     -623   -1    0    0    0    0  0.00000000000E+00  0.00000000000E+00  0.12525980253E-10  0.17130000000E+03  0.17130000000E+03 0.  1.
       11    1    1    2    0    0  0.32274953486E-01  0.25601195578E+00  0.30881208119E+00  0.40242882207E+00  0.51109989000E-03 0.  1.
     -623    1    1    2    0    0  0.41025093943E+00 -0.44008762419E-01  0.45951103522E+00  0.17130111323E+03  0.17130000000E+03 0.  1.
      622    1    1    2    0    0 -0.44252589291E+00 -0.21200319336E+00  0.32316768510E+01  0.35964579504E+01  0.15000000000E+01 0.  1.
</event>
<event>
 5   0  0.6596100E+00  0.9118800E+02  0.7818608E-02  0.1180000E+00
       11   -1    0    0    0    0  0.00000000000E+00  0.00000000000E+00  0.39999999673E+01  0.40000000000E+01  0.51109989000E-03 0.  1.
     -623   -1    0    0    0    0  0.00000000000E+00  0.00000000000E+00  0.12525980253E-10  0.17130000000E+03  0.17130000000E+03 0. -1.
       11    1    1    2    0    0  0.12331350804E-01 -0.20924701494E+00  0.43283899913E+00  0.48092227632E+00  0.51109989000E-03 0.  1.
     -623    1    1    2    0    0 -0.37569171521E+00  0.34606818212E+00  0.40893940839E+00  0.17130124967E+03  0.17130000000E+03 0. -1.
      622    1    1    2    0    0  0.36336036441E+00 -0.13682116718E+00  0.31582215598E+01  0.35178280525E+01  0.15000000000E+01 0.  1.
</event>
<event>
 5   0  0.6596100E+00  0.9118800E+02  0.7818608E-02  0.1180000E+00
       11   -1    0    0    0    0  0.00000000000E+00  0.00000000000E+00  0.39999999673E+01  0.40000000000E+01  0.51109989000E-03 0. -1.
     -623   -1    0    0    0    0  0.00000000000E+00  0.00000000000E+00  0.12525980253E-10  0.17130000000E+03  0.17130000000E+03 0. -1.
       11    1    1    2    0    0 -0.18781163954E-01 -0.32134968922E-01 -0.35766546037E-01  0.51622624746E-01  0.51109989000E-03 0. -1.
     -623    1    1    2    0    0 -0.62049392107E-01 -0.27035008436E-01  0.38527030921E+00  0.17130044663E+03  0.17130000000E+03 0. -1.
      622    1    1    2    0    0  0.80830556061E-01  0.59169977358E-01  0.36504962042E+01  0.39479307494E+01  0.15000000000E+01 0. -1.
</event>
<event>
 5   0  0.6596100E+00  0.9118800E+02  0.7818608E-02  0.1180000E+00
       11   -1    0    0    0    0  0.00000000000E+00  0.00000000000E+00  0.39999999673E+01  0.40000000000E+01  0.51109989000E-03 0.  1.
     -623   -1    0    0    0    0  0.00000000000E+00  0.00000000000E+00  0.12525980253E-10  0.17130000000E+03  0.17130000000E+03 0.  1.
       11    1    1    2    0    0 -0.33204201876E+00 -0.54747828411E+00  0.65386738859E+00  0.91516512000E+00  0.51109989000E-03 0.  1.
     -623    1    1    2    0    0  0.32357029495E+00  0.17643050337E+00  0.67822488941E+00  0.17130173909E+03  0.17130000000E+03 0.  1.
      622    1    1    2    0    0  0.84717238065E-02  0.37104778074E+00  0.26679076894E+01  0.30830957923E+01  0.15000000000E+01 0.  1.
</event>
<event>
 5   0  0.6596100E+00  0.9118800E+02  0.7818608E-02  0.1180000E+00
       11   -1    0    0    0    0  0.00000000000E+00  0.00000000000E+00  0.39999999673E+01  0.40000000000E+01  0.51109989000E-03 0. -1.
     -623   -1    0    0    0    0  0.00000000000E+00  0.00000000000E+00  0.12525980253E-10  0.17130000000E+03  0.17130000000E+03 0.  1.
       11    1    1    2    0    0 -0.50288113126E-01 -0.77138616549E-01  0.21354667918E-01  0.94528004037E-01  0.51109989000E-03 0. -1.
     -623    1    1    2    0    0  0.54020355588E-02  0.25970998711E-01  0.37380451903E+00  0.17130040990E+03  0.17130000000E+03 0.  1.
      622    1    1    2    0    0  0.44886077567E-01  0.51167617838E-01  0.36048407804E+01  0.39050620913E+01  0.15000000000E+01 0. -1.
</event>
<event>
 5   0  0.6596100E+00  0.9118800E+02  0.7818608E-02  0.1180000E+00
       11   -1    0    0    0    0  0.00000000000E+00  0.00000000000E+00  0.39999999673E+01  0.40000000000E+01  0.51109989000E-03 0. -1.
     -623   -1    0    0    0    0  0.00000000000E+00  0.00000000000E+00  0.12525980253E-10  0.17130000000E+03  0.17130000000E+03 0.  1.
       11    1    1    2    0    0 -0.91756919198E-01  0.34579884998E-01  0.98247193430E-02  0.98548906642E-01  0.51109989000E-03 0. -1.
     -623    1    1    2    0    0 -0.12761969037E+00  0.21349244164E+00  0.40457653615E+00  0.17130065834E+03  0.17130000000E+03 0.  1.
      622    1    1    2    0    0  0.21937660956E+00 -0.24807232664E+00  0.35855987119E+01  0.39007927526E+01  0.15000000000E+01 0. -1.
</event>
<event>
 5   0  0.6596100E+00  0.9118800E+02  0.7818608E-02  0.1180000E+00
       11   -1    0    0    0    0  0.00000000000E+00  0.00000000000E+00  0.39999999673E+01  0.40000000000E+01  0.51109989000E-03 0.  1.
     -623   -1    0    0    0    0  0.00000000000E+00  0.00000000000E+00  0.12525980253E-10  0.17130000000E+03  0.17130000000E+03 0.  1.
       11    1    1    2    0    0 -0.57170129175E-01 -0.18645291087E-01  0.20338789903E-01  0.63482266401E-01  0.51109989000E-03 0.  1.
     -623    1    1    2    0    0 -0.99874873684E-01  0.77516430923E-02  0.34394376616E+00  0.17130037458E+03  0.17130000000E+03 0.  1.
      622    1    1    2    0    0  0.15704500286E+00  0.10893647995E-01  0.36357174113E+01  0.39361431503E+01  0.15000000000E+01 0.  1.
</event>
<event>
 5   0  0.6596100E+00  0.9118800E+02  0.7818608E-02  0.1180000E+00
       11   -1    0    0    0    0  0.00000000000E+00  0.00000000000E+00  0.39999999673E+01  0.40000000000E+01  0.51109989000E-03 0. -1.
     -623   -1    0    0    0    0  0.00000000000E+00  0.00000000000E+00  0.12525980253E-10  0.17130000000E+03  0.17130000000E+03 0. -1.
       11    1    1    2    0    0 -0.89415151113E-01 -0.16475680588E+00  0.15972281657E+00  0.24627528030E+00  0.51109989000E-03 0. -1.
     -623    1    1    2    0    0  0.16094324744E+00 -0.15446421558E+00  0.41557914999E+00  0.17130064935E+03  0.17130000000E+03 0. -1.
      622    1    1    2    0    0 -0.71528096328E-01  0.31922102146E+00  0.34246980008E+01  0.37530753691E+01  0.15000000000E+01 0. -1.
</event>
<event>
 5   0  0.6596100E+00  0.9118800E+02  0.7818608E-02  0.1180000E+00
       11   -1    0    0    0    0  0.00000000000E+00  0.00000000000E+00  0.39999999673E+01  0.40000000000E+01  0.51109989000E-03 0. -1.
     -623   -1    0    0    0    0  0.00000000000E+00  0.00000000000E+00  0.12525980253E-10  0.17130000000E+03  0.17130000000E+03 0. -1.
       11    1    1    2    0    0  0.14654739984E+00  0.26121511903E-01  0.13720997687E+00  0.20244829651E+00  0.51109989000E-03 0. -1.
     -623    1    1    2    0    0 -0.13579371644E-01 -0.44113893445E+00  0.40250528798E+00  0.17130104144E+03  0.17130000000E+03 0. -1.
      622    1    1    2    0    0 -0.13296802820E+00  0.41501742255E+00  0.34602847025E+01  0.37965102634E+01  0.15000000000E+01 0. -1.
</event>
<event>
 5   0  0.6596100E+00  0.9118800E+02  0.7818608E-02  0.1180000E+00
       11   -1    0    0    0    0  0.00000000000E+00  0.00000000000E+00  0.39999999673E+01  0.40000000000E+01  0.51109989000E-03 0. -1.
     -623   -1    0    0    0    0  0.00000000000E+00  0.00000000000E+00  0.12525980253E-10  0.17130000000E+03  0.17130000000E+03 0. -1.
       11    1    1    2    0    0 -0.21025128201E-01 -0.30007305834E-01  0.17642627370E+00  0.18019152503E+00  0.51109989000E-03 0. -1.
     -623    1    1    2    0    0  0.13566012833E+00  0.56357240189E-01  0.31295605438E+00  0.17130034887E+03  0.17130000000E+03 0. -1.
      622    1    1    2    0    0 -0.11463500013E+00 -0.26349934354E-01  0.35106176393E+01  0.38194596099E+01  0.15000000000E+01 0. -1.
</event>
<event>
 5   0  0.6596100E+00  0.9118800E+02  0.7818608E-02  0.1180000E+00
       11   -1    0    0    0    0  0.00000000000E+00  0.00000000000E+00  0.39999999673E+01  0.40000000000E+01  0.51109989000E-03 0. -1.
     -623   -1    0    0    0    0  0.00000000000E+00  0.00000000000E+00  0.12525980253E-10  0.17130000000E+03  0.17130000000E+03 0. -1.
       11    1    1    2    0    0  0.81757342394E-01 -0.95929276125E-01  0.70845754021E-01  0.14458931889E+00  0.51109989000E-03 0. -1.
     -623    1    1    2    0    0 -0.17675944812E+00 -0.92704261194E-01  0.38438881811E+00  0.17130054756E+03  0.17130000000E+03 0. -1.
      622    1    1    2    0    0  0.95002105724E-01  0.18863353732E+00  0.35447653952E+01  0.38548631258E+01  0.15000000000E+01 0. -1.
</event>
<event>
 5   0  0.6596100E+00  0.9118800E+02  0.7818608E-02  0.1180000E+00
       11   -1    0    0    0    0  0.00000000000E+00  0.00000000000E+00  0.39999999673E+01  0.40000000000E+01  0.51109989000E-03 0.  1.
     -623   -1    0    0    0    0  0.00000000000E+00  0.00000000000E+00  0.12525980253E-10  0.17130000000E+03  0.17130000000E+03 0. -1.
       11    1    1    2    0    0  0.14914408634E+00  0.94593522819E-01  0.32965843637E+00  0.37398775239E+00  0.51109989000E-03 0.  1.
     -623    1    1    2    0    0 -0.30107423758E+00 -0.33662796624E-01  0.37393934961E+00  0.17130067603E+03  0.17130000000E+03 0. -1.
      622    1    1    2    0    0  0.15193015124E+00 -0.60930726195E-01  0.32964021814E+01  0.36253362142E+01  0.15000000000E+01 0.  1.
</event>
<event>
 5   0  0.6596100E+00  0.9118800E+02  0.7818608E-02  0.1180000E+00
       11   -1    0    0    0    0  0.00000000000E+00  0.00000000000E+00  0.39999999673E+01  0.40000000000E+01  0.51109989000E-03 0.  1.
     -623   -1    0    0    0    0  0.00000000000E+00  0.00000000000E+00  0.12525980253E-10  0.17130000000E+03  0.17130000000E+03 0.  1.
       11    1    1    2    0    0 -0.11850871222E+00 -0.13301814115E+00  0.18161518012E+00  0.25440612340E+00  0.51109989000E-03 0.  1.
     -623    1    1    2    0    0  0.10152691404E+00  0.47121872414E-01  0.38789747175E+00  0.17130047575E+03  0.17130000000E+03 0.  1.
      622    1    1    2    0    0  0.16981798188E-01  0.85896268741E-01  0.34304873155E+01  0.37451181253E+01  0.15000000000E+01 0.  1.
</event>
<event>
 5   0  0.6596100E+00  0.9118800E+02  0.7818608E-02  0.1180000E+00
       11   -1    0    0    0    0  0.00000000000E+00  0.00000000000E+00  0.39999999673E+01  0.40000000000E+01  0.51109989000E-03 0. -1.
     -623   -1    0    0    0    0  0.00000000000E+00  0.00000000000E+00  0.12525980253E-10  0.17130000000E+03  0.17130000000E+03 0.  1.
       11    1    1    2    0    0 -0.13551717289E+00  0.40889729681E+00  0.25760453859E+00  0.50191858205E+00  0.51109989000E-03 0. -1.
     -623    1    1    2    0    0  0.13705846881E+00 -0.55935586658E+00  0.58801691215E+00  0.17130197730E+03  0.17130000000E+03 0.  1.
      622    1    1    2    0    0 -0.15412959214E-02  0.15045856977E+00  0.31543785166E+01  0.34961041150E+01  0.15000000000E+01 0. -1.
</event>
<event>
 5   0  0.6596100E+00  0.9118800E+02  0.7818608E-02  0.1180000E+00
       11   -1    0    0    0    0  0.00000000000E+00  0.00000000000E+00  0.39999999673E+01  0.40000000000E+01  0.51109989000E-03 0.  1.
     -623   -1    0    0    0    0  0.00000000000E+00  0.00000000000E+00  0.12525980253E-10  0.17130000000E+03  0.17130000000E+03 0. -1.
       11    1    1    2    0    0 -0.67772090189E-01 -0.24088542010E-01 -0.81950413570E-01  0.10903873427E+00  0.51109989000E-03 0.  1.
     -623    1    1    2    0    0  0.31193349314E-02  0.45006538416E-01  0.49316340303E+00  0.17130071583E+03  0.17130000000E+03 0. -1.
      622    1    1    2    0    0  0.64652755258E-01 -0.20917996407E-01  0.35887869779E+01  0.38902454311E+01  0.15000000000E+01 0.  1.
</event>
<event>
 5   0  0.6596100E+00  0.9118800E+02  0.7818608E-02  0.1180000E+00
       11   -1    0    0    0    0  0.00000000000E+00  0.00000000000E+00  0.39999999673E+01  0.40000000000E+01  0.51109989000E-03 0. -1.
     -623   -1    0    0    0    0  0.00000000000E+00  0.00000000000E+00  0.12525980253E-10  0.17130000000E+03  0.17130000000E+03 0.  1.
       11    1    1    2    0    0 -0.18406224604E+00  0.10674010727E+00  0.10691835629E+00  0.23812634683E+00  0.51109989000E-03 0. -1.
     -623    1    1    2    0    0  0.22123267503E+00 -0.89868488543E-02  0.44557236672E+00  0.17130072259E+03  0.17130000000E+03 0.  1.
      622    1    1    2    0    0 -0.37170428992E-01 -0.97753258416E-01  0.34475092443E+01  0.37611510645E+01  0.15000000000E+01 0. -1.
</event>
<event>
 5   0  0.6596100E+00  0.9118800E+02  0.7818608E-02  0.1180000E+00
       11   -1    0    0    0    0  0.00000000000E+00  0.00000000000E+00  0.39999999673E+01  0.40000000000E+01  0.51109989000E-03 0. -1.
     -623   -1    0    0    0    0  0.00000000000E+00  0.00000000000E+00  0.12525980253E-10  0.17130000000E+03  0.17130000000E+03 0. -1.
       11    1    1    2    0    0  0.94160497004E-01  0.28714246510E+00  0.22117204288E+00  0.37447874204E+00  0.51109989000E-03 0. -1.
     -623    1    1    2    0    0 -0.40650072865E+00 -0.13999236923E+00  0.49766311628E+00  0.17130126243E+03  0.17130000000E+03 0. -1.
      622    1    1    2    0    0  0.31234023165E+00 -0.14715009587E+00  0.32811648082E+01  0.36242588304E+01  0.15000000000E+01 0. -1.
</event>
<event>
 5   0  0.6596100E+00  0.9118800E+02  0.7818608E-02  0.1180000E+00
       11   -1    0    0    0    0  0.00000000000E+00  0.00000000000E+00  0.39999999673E+01  0.40000000000E+01  0.51109989000E-03 0.  1.
     -623   -1    0    0    0    0  0.00000000000E+00  0.00000000000E+00  0.12525980253E-10  0.17130000000E+03  0.17130000000E+03 0. -1.
       11    1    1    2    0    0 -0.46754241297E-01 -0.17490713081E+00  0.54982180989E+00  0.57886332354E+00  0.51109989000E-03 0.  1.
     -623    1    1    2    0    0  0.27542006130E+00  0.42597734898E+00  0.39557684074E+00  0.17130120780E+03  0.17130000000E+03 0. -1.
      622    1    1    2    0    0 -0.22866582000E+00 -0.25107021817E+00  0.30546013167E+01  0.34199288758E+01  0.15000000000E+01 0.  1.
</event>
<event>
 5   0  0.6596100E+00  0.9118800E+02  0.7818608E-02  0.1180000E+00
       11   -1    0    0    0    0  0.00000000000E+00  0.00000000000E+00  0.39999999673E+01  0.40000000000E+01  0.51109989000E-03 0.  1.
     -623   -1    0    0    0    0  0.00000000000E+00  0.00000000000E+00  0.12525980253E-10  0.17130000000E+03  0.17130000000E+03 0.  1.
       11    1    1    2    0    0 -0.10646370075E+00 -0.10216640906E+00  0.36705086656E-01  0.15205268601E+00  0.51109989000E-03 0.  1.
     -623    1    1    2    0    0  0.58805638550E+00  0.10096714401E-01  0.45560908315E+00  0.17130161556E+03  0.17130000000E+03 0.  1.
      622    1    1    2    0    0 -0.48159268475E+00  0.92069694659E-01  0.35076857976E+01  0.38463317586E+01  0.15000000000E+01 0.  1.
</event>
<event>
 5   0  0.6596100E+00  0.9118800E+02  0.7818608E-02  0.1180000E+00
       11   -1    0    0    0    0  0.00000000000E+00  0.00000000000E+00  0.39999999673E+01  0.40000000000E+01  0.51109989000E-03 0.  1.
     -623   -1    0    0    0    0  0.00000000000E+00  0.00000000000E+00  0.12525980253E-10  0.17130000000E+03  0.17130000000E+03 0.  1.
       11    1    1    2    0    0 -0.20848863528E+00  0.18910527592E-01  0.95667825423E-01  0.23016887961E+00  0.51109989000E-03 0.  1.
     -623    1    1    2    0    0  0.14774624555E-01 -0.43796785583E-01  0.45195029477E+00  0.17130060244E+03  0.17130000000E+03 0.  1.
      622    1    1    2    0    0  0.19371401073E+00  0.24886257991E-01  0.34523818472E+01  0.37692286827E+01  0.15000000000E+01 0.  1.
</event>
<event>
 5   0  0.6596100E+00  0.9118800E+02  0.7818608E-02  0.1180000E+00
       11   -1    0    0    0    0  0.00000000000E+00  0.00000000000E+00  0.39999999673E+01  0.40000000000E+01  0.51109989000E-03 0. -1.
     -623   -1    0    0    0    0  0.00000000000E+00  0.00000000000E+00  0.12525980253E-10  0.17130000000E+03  0.17130000000E+03 0.  1.
       11    1    1    2    0    0 -0.90155855503E-01 -0.10696342587E+00  0.57343746130E-01  0.15118802597E+00  0.51109989000E-03 0. -1.
     -623    1    1    2    0    0  0.21546184930E+00  0.14817808182E+00  0.40135729576E+00  0.17130066978E+03  0.17130000000E+03 0.  1.
      622    1    1    2    0    0 -0.12530599379E+00 -0.41214655944E-01  0.35412989255E+01  0.38481421907E+01  0.15000000000E+01 0. -1.
</event>
<event>
 5   0  0.6596100E+00  0.9118800E+02  0.7818608E-02  0.1180000E+00
       11   -1    0    0    0    0  0.00000000000E+00  0.00000000000E+00  0.39999999673E+01  0.40000000000E+01  0.51109989000E-03 0.  1.
     -623   -1    0    0    0    0  0.00000000000E+00  0.00000000000E+00  0.12525980253E-10  0.17130000000E+03  0.17130000000E+03 0. -1.
       11    1    1    2    0    0 -0.75542948172E-01 -0.20185210224E+00  0.22378943444E+00  0.31069757062E+00  0.51109989000E-03 0.  1.
     -623    1    1    2    0    0 -0.17284021251E+00  0.88030100808E-01  0.41738023382E+00  0.17130061830E+03  0.17130000000E+03 0. -1.
      622    1    1    2    0    0  0.24838316069E+00  0.11382200143E+00  0.33588302991E+01  0.36886841313E+01  0.15000000000E+01 0.  1.
</event>
<event>
 5   0  0.6596100E+00  0.9118800E+02  0.7818608E-02  0.1180000E+00
       11   -1    0    0    0    0  0.00000000000E+00  0.00000000000E+00  0.39999999673E+01  0.40000000000E+01  0.51109989000E-03 0. -1.
     -623   -1    0    0    0    0  0.00000000000E+00  0.00000000000E+00  0.12525980253E-10  0.17130000000E+03  0.17130000000E+03 0.  1.
       11    1    1    2    0    0 -0.10738247908E+00  0.34095651822E+00  0.48499883325E-01  0.36074207411E+00  0.51109989000E-03 0. -1.
     -623    1    1    2    0    0  0.19367382930E+00 -0.12651832121E+00  0.64532617526E+00  0.17130137175E+03  0.17130000000E+03 0.  1.
      622    1    1    2    0    0 -0.86291350220E-01 -0.21443819701E+00  0.33061739088E+01  0.36378861792E+01  0.15000000000E+01 0. -1.
</event>
<event>
 5   0  0.6596100E+00  0.9118800E+02  0.7818608E-02  0.1180000E+00
       11   -1    0    0    0    0  0.00000000000E+00  0.00000000000E+00  0.39999999673E+01  0.40000000000E+01  0.51109989000E-03 0.  1.
     -623   -1    0    0    0    0  0.00000000000E+00  0.00000000000E+00  0.12525980253E-10  0.17130000000E+03  0.17130000000E+03 0.  1.
       11    1    1    2    0    0 -0.13176715437E+00 -0.20136381056E-01  0.17355281981E+00  0.21883532462E+00  0.51109989000E-03 0.  1.
     -623    1    1    2    0    0  0.18247908667E+00  0.18690870519E+00  0.36054952229E+00  0.17130057860E+03  0.17130000000E+03 0.  1.
      622    1    1    2    0    0 -0.50711932294E-01 -0.16677232414E+00  0.34658976253E+01  0.37805860732E+01  0.15000000000E+01 0.  1.
</event>
<event>
 5   0  0.6596100E+00  0.9118800E+02  0.7818608E-02  0.1180000E+00
       11   -1    0    0    0    0  0.00000000000E+00  0.00000000000E+00  0.39999999673E+01  0.40000000000E+01  0.51109989000E-03 0. -1.
     -623   -1    0    0    0    0  0.00000000000E+00  0.00000000000E+00  0.12525980253E-10  0.17130000000E+03  0.17130000000E+03 0. -1.
       11    1    1    2    0    0  0.15855744098E+00 -0.75556794494E-01  0.26803814647E+00  0.32045904648E+00  0.51109989000E-03 0. -1.
     -623    1    1    2    0    0 -0.25778989712E+00 -0.11661638024E+00  0.37973458032E+00  0.17130065456E+03  0.17130000000E+03 0. -1.
      622    1    1    2    0    0  0.99232456137E-01  0.19217317473E+00  0.33522272406E+01  0.36788863915E+01  0.15000000000E+01 0. -1.
</event>
<event>
 5   0  0.6596100E+00  0.9118800E+02  0.7818608E-02  0.1180000E+00
       11   -1    0    0    0    0  0.00000000000E+00  0.00000000000E+00  0.39999999673E+01  0.40000000000E+01  0.51109989000E-03 0. -1.
     -623   -1    0    0    0    0  0.00000000000E+00  0.00000000000E+00  0.12525980253E-10  0.17130000000E+03  0.17130000000E+03 0. -1.
       11    1    1    2    0    0 -0.62218397472E+00 -0.10681066333E+00  0.21630841870E+00  0.66731627391E+00  0.51109989000E-03 0. -1.
     -623    1    1    2    0    0  0.21136999195E-01 -0.31465379992E+00  0.90270040632E+00  0.17130266875E+03  0.17130000000E+03 0. -1.
      622    1    1    2    0    0  0.60104697552E+00  0.42146446325E+00  0.28809911423E+01  0.33300149734E+01  0.15000000000E+01 0. -1.
</event>
<event>
 5   0  0.6596100E+00  0.9118800E+02  0.7818608E-02  0.1180000E+00
       11   -1    0    0    0    0  0.00000000000E+00  0.00000000000E+00  0.39999999673E+01  0.40000000000E+01  0.51109989000E-03 0. -1.
     -623   -1    0    0    0    0  0.00000000000E+00  0.00000000000E+00  0.12525980253E-10  0.17130000000E+03  0.17130000000E+03 0. -1.
       11    1    1    2    0    0 -0.62448586430E-01 -0.14753142112E+00  0.72565592519E-01  0.17587317193E+00  0.51109989000E-03 0. -1.
     -623    1    1    2    0    0  0.29833013156E+00 -0.13191915707E+00  0.42976150848E+00  0.17130084967E+03  0.17130000000E+03 0. -1.
      622    1    1    2    0    0 -0.23588154513E+00  0.27945057819E+00  0.34976728664E+01  0.38232771557E+01  0.15000000000E+01 0. -1.
</event>
<event>
 5   0  0.6596100E+00  0.9118800E+02  0.7818608E-02  0.1180000E+00
       11   -1    0    0    0    0  0.00000000000E+00  0.00000000000E+00  0.39999999673E+01  0.40000000000E+01  0.51109989000E-03 0.  1.
     -623   -1    0    0    0    0  0.00000000000E+00  0.00000000000E+00  0.12525980253E-10  0.17130000000E+03  0.17130000000E+03 0. -1.
       11    1    1    2    0    0  0.14930089738E+00 -0.11839965231E+00  0.74079556577E-01  0.20444382493E+00  0.51109989000E-03 0.  1.
     -623    1    1    2    0    0 -0.71171945520E-01  0.65413967189E-01  0.44126634127E+00  0.17130059562E+03  0.17130000000E+03 0. -1.
      622    1    1    2    0    0 -0.78128951861E-01  0.52985685120E-01  0.34846540695E+01  0.37949605532E+01  0.15000000000E+01 0.  1.
</event>
<event>
 5   0  0.6596100E+00  0.9118800E+02  0.7818608E-02  0.1180000E+00
       11   -1    0    0    0    0  0.00000000000E+00  0.00000000000E+00  0.39999999673E+01  0.40000000000E+01  0.51109989000E-03 0. -1.
     -623   -1    0    0    0    0  0.00000000000E+00  0.00000000000E+00  0.12525980253E-10  0.17130000000E+03  0.17130000000E+03 0. -1.
       11    1    1    2    0    0 -0.11396267713E+00  0.41535188828E+00  0.49082703096E+00  0.65300545052E+00  0.51109989000E-03 0. -1.
     -623    1    1    2    0    0  0.66989501120E-01 -0.33715216605E+00  0.51978092073E+00  0.17130113348E+03  0.17130000000E+03 0. -1.
      622    1    1    2    0    0  0.46973176011E-01 -0.78199722226E-01  0.29893920157E+01  0.33458610699E+01  0.15000000000E+01 0. -1.
</event>
<event>
 5   0  0.6596100E+00  0.9118800E+02  0.7818608E-02  0.1180000E+00
       11   -1    0    0    0    0  0.00000000000E+00  0.00000000000E+00  0.39999999673E+01  0.40000000000E+01  0.51109989000E-03 0.  1.
     -623   -1    0    0    0    0  0.00000000000E+00  0.00000000000E+00  0.12525980253E-10  0.17130000000E+03  0.17130000000E+03 0.  1.
       11    1    1    2    0    0  0.51706369175E-01  0.20819431893E+00  0.25666119977E+00  0.33450509075E+00  0.51109989000E-03 0.  1.
     -623    1    1    2    0    0 -0.15031648425E+00 -0.22052011459E+00  0.40103236863E+00  0.17130067732E+03  0.17130000000E+03 0.  1.
      622    1    1    2    0    0  0.98610115073E-01  0.12325795657E-01  0.33423063990E+01  0.36648175868E+01  0.15000000000E+01 0.  1.
</event>
<event>
 5   0  0.6596100E+00  0.9118800E+02  0.7818608E-02  0.1180000E+00
       11   -1    0    0    0    0  0.00000000000E+00  0.00000000000E+00  0.39999999673E+01  0.40000000000E+01  0.51109989000E-03 0.  1.
     -623   -1    0    0    0    0  0.00000000000E+00  0.00000000000E+00  0.12525980253E-10  0.17130000000E+03  0.17130000000E+03 0. -1.
       11    1    1    2    0    0 -0.79418188698E-01 -0.27711573399E+00  0.68210998536E+00  0.74052324209E+00  0.51109989000E-03 0.  1.
     -623    1    1    2    0    0  0.52925291900E-01  0.69625662090E-01  0.43228193119E+00  0.17130056776E+03  0.17130000000E+03 0. -1.
      622    1    1    2    0    0  0.26492896799E-01  0.20749007191E+00  0.28856080508E+01  0.32589089933E+01  0.15000000000E+01 0.  1.
</event>
<event>
 5   0  0.6596100E+00  0.9118800E+02  0.7818608E-02  0.1180000E+00
       11   -1    0    0    0    0  0.00000000000E+00  0.00000000000E+00  0.39999999673E+01  0.40000000000E+01  0.51109989000E-03 0.  1.
     -623   -1    0    0    0    0  0.00000000000E+00  0.00000000000E+00  0.12525980253E-10  0.17130000000E+03  0.17130000000E+03 0. -1.
       11    1    1    2    0    0 -0.10133266815E+00 -0.13363532236E-01  0.20973889233E+00  0.23331857578E+00  0.51109989000E-03 0.  1.
     -623    1    1    2    0    0  0.20803400506E+00  0.18812283592E+00  0.34183185252E+00  0.17130057069E+03  0.17130000000E+03 0. -1.
      622    1    1    2    0    0 -0.10670133692E+00 -0.17475930369E+00  0.34484292225E+01  0.37661107382E+01  0.15000000000E+01 0.  1.
</event>
<event>
 5   0  0.6596100E+00  0.9118800E+02  0.7818608E-02  0.1180000E+00
       11   -1    0    0    0    0  0.00000000000E+00  0.00000000000E+00  0.39999999673E+01  0.40000000000E+01  0.51109989000E-03 0. -1.
     -623   -1    0    0    0    0  0.00000000000E+00  0.00000000000E+00  0.12525980253E-10  0.17130000000E+03  0.17130000000E+03 0.  1.
       11    1    1    2    0    0  0.13187249517E+00  0.55427783133E-01 -0.60884817048E-02  0.14317794857E+00  0.51109989000E-03 0. -1.
     -623    1    1    2    0    0 -0.36133076210E+00 -0.98408627008E-01  0.46170955832E+00  0.17130103158E+03  0.17130000000E+03 0.  1.
      622    1    1    2    0    0  0.22945826692E+00  0.42980843875E-01  0.35443788907E+01  0.38557904728E+01  0.15000000000E+01 0. -1.
</event>
<event>
 5   0  0.6596100E+00  0.9118800E+02  0.7818608E-02  0.1180000E+00
       11   -1    0    0    0    0  0.00000000000E+00  0.00000000000E+00  0.39999999673E+01  0.40000000000E+01  0.51109989000E-03 0.  1.
     -623   -1    0    0    0    0  0.00000000000E+00  0.00000000000E+00  0.12525980253E-10  0.17130000000E+03  0.17130000000E+03 0.  1.
       11    1    1    2    0    0 -0.98301723935E-02 -0.17480951278E+00  0.27938107950E-01  0.17730143019E+00  0.51109989000E-03 0.  1.
     -623    1    1    2    0    0 -0.16365888336E+00  0.42212282236E+00  0.47031181242E+00  0.17130124391E+03  0.17130000000E+03 0.  1.
      622    1    1    2    0    0  0.17348905575E+00 -0.24731330958E+00  0.35017500470E+01  0.38214546598E+01  0.15000000000E+01 0.  1.
</event>
<event>
 5   0  0.6596100E+00  0.9118800E+02  0.7818608E-02  0.1180000E+00
       11   -1    0    0    0    0  0.00000000000E+00  0.00000000000E+00  0.39999999673E+01  0.40000000000E+01  0.51109989000E-03 0. -1.
     -623   -1    0    0    0    0  0.00000000000E+00  0.00000000000E+00  0.12525980253E-10  0.17130000000E+03  0.17130000000E+03 0. -1.
       11    1    1    2    0    0 -0.61490697761E-01 -0.36682468201E-01  0.37000042744E+00  0.37686507787E+00  0.51109989000E-03 0. -1.
     -623    1    1    2    0    0  0.19903061849E+00 -0.32537960872E+00  0.35565248090E+00  0.17130079385E+03  0.17130000000E+03 0. -1.
      622    1    1    2    0    0 -0.13753992073E+00  0.36206207692E+00  0.32743470590E+01  0.36223410718E+01  0.15000000000E+01 0. -1.
</event>
<event>
 5   0  0.6596100E+00  0.9118800E+02  0.7818608E-02  0.1180000E+00
       11   -1    0    0    0    0  0.00000000000E+00  0.00000000000E+00  0.39999999673E+01  0.40000000000E+01  0.51109989000E-03 0. -1.
     -623   -1    0    0    0    0  0.00000000000E+00  0.00000000000E+00  0.12525980253E-10  0.17130000000E+03  0.17130000000E+03 0.  1.
       11    1    1    2    0    0 -0.13667603860E-01  0.72035198332E-01  0.68613666239E-01  0.10041897037E+00  0.51109989000E-03 0. -1.
     -623    1    1    2    0    0  0.27290139100E+00 -0.10582043697E+00  0.34198855434E+00  0.17130059144E+03  0.17130000000E+03 0.  1.
      622    1    1    2    0    0 -0.25923378714E+00  0.33785238641E-01  0.35893977468E+01  0.38989895849E+01  0.15000000000E+01 0. -1.
</event>
<event>
 5   0  0.6596100E+00  0.9118800E+02  0.7818608E-02  0.1180000E+00
       11   -1    0    0    0    0  0.00000000000E+00  0.00000000000E+00  0.39999999673E+01  0.40000000000E+01  0.51109989000E-03 0. -1.
     -623   -1    0    0    0    0  0.00000000000E+00  0.00000000000E+00  0.12525980253E-10  0.17130000000E+03  0.17130000000E+03 0. -1.
       11    1    1    2    0    0  0.73963744569E-01  0.19260522831E+00  0.54970788018E-01  0.21351688046E+00  0.51109989000E-03 0. -1.
     -623    1    1    2    0    0  0.85551882718E-01 -0.10117915771E+00  0.47396344534E+00  0.17130070694E+03  0.17130000000E+03 0. -1.
      622    1    1    2    0    0 -0.15951562729E+00 -0.91426070601E-01  0.34710657340E+01  0.37857761809E+01  0.15000000000E+01 0. -1.
</event>
<event>
 5   0  0.6596100E+00  0.9118800E+02  0.7818608E-02  0.1180000E+00
       11   -1    0    0    0    0  0.00000000000E+00  0.00000000000E+00  0.39999999673E+01  0.40000000000E+01  0.51109989000E-03 0.  1.
     -623   -1    0    0    0    0  0.00000000000E+00  0.00000000000E+00  0.12525980253E-10  0.17130000000E+03  0.17130000000E+03 0. -1.
       11    1    1    2    0    0 -0.21993696787E-01  0.13352805561E-01  0.23364786059E+00  0.23506085190E+00  0.51109989000E-03 0.  1.
     -623    1    1    2    0    0 -0.22819421725E+00  0.30888298959E+00  0.33814806937E+00  0.17130076423E+03  0.17130000000E+03 0. -1.
      622    1    1    2    0    0  0.25018791403E+00 -0.32223579515E+00  0.34282040374E+01  0.37641749192E+01  0.15000000000E+01 0.  0.
</event>
<event>
 5   0  0.6596100E+00  0.9118800E+02  0.7818608E-02  0.1180000E+00
       11   -1    0    0    0    0  0.00000000000E+00  0.00000000000E+00  0.39999999673E+01  0.40000000000E+01  0.51109989000E-03 0.  1.
     -623   -1    0    0    0    0  0.00000000000E+00  0.00000000000E+00  0.12525980253E-10  0.17130000000E+03  0.17130000000E+03 0. -1.
       11    1    1    2    0    0 -0.15056132944E-01 -0.44198878324E-02  0.53336765902E-02  0.16581069831E-01  0.51109989000E-03 0.  1.
     -623    1    1    2    0    0 -0.10610483527E-01  0.13713354917E+00  0.30729337667E+00  0.17130033084E+03  0.17130000000E+03 0. -1.
      622    1    1    2    0    0  0.25666616471E-01 -0.13271366134E+00  0.36873729141E+01  0.39830880857E+01  0.15000000000E+01 0.  1.
</event>
<event>
 5   0  0.6596100E+00  0.9118800E+02  0.7818608E-02  0.1180000E+00
       11   -1    0    0    0    0  0.00000000000E+00  0.00000000000E+00  0.39999999673E+01  0.40000000000E+01  0.51109989000E-03 0. -1.
     -623   -1    0    0    0    0  0.00000000000E+00  0.00000000000E+00  0.12525980253E-10  0.17130000000E+03  0.17130000000E+03 0.  1.
       11    1    1    2    0    0  0.90130011178E-01  0.98593345730E-02  0.20566120221E+00  0.22476079887E+00  0.51109989000E-03 0. -1.
     -623    1    1    2    0    0  0.10635091362E+00 -0.12461924058E+00  0.33781594246E+00  0.17130041144E+03  0.17130000000E+03 0.  1.
      622    1    1    2    0    0 -0.19648092480E+00  0.11475990601E+00  0.34565228227E+01  0.37748277595E+01  0.15000000000E+01 0. -1.
</event>
<event>
 5   0  0.6596100E+00  0.9118800E+02  0.7818608E-02  0.1180000E+00
       11   -1    0    0    0    0  0.00000000000E+00  0.00000000000E+00  0.39999999673E+01  0.40000000000E+01  0.51109989000E-03 0.  1.
     -623   -1    0    0    0    0  0.00000000000E+00  0.00000000000E+00  0.12525980253E-10  0.17130000000E+03  0.17130000000E+03 0. -1.
       11    1    1    2    0    0 -0.58159444604E-01  0.26156008719E+00  0.22757925350E+00  0.35155195641E+00  0.51109989000E-03 0.  1.
     -623    1    1    2    0    0  0.15759236210E+00  0.77403290304E-01  0.46619855488E+00  0.17130072436E+03  0.17130000000E+03 0. -1.
      622    1    1    2    0    0 -0.99432917499E-01 -0.33896337749E+00  0.33062221590E+01  0.36477236793E+01  0.15000000000E+01 0.  1.
</event>
<event>
 5   0  0.6596100E+00  0.9118800E+02  0.7818608E-02  0.1180000E+00
       11   -1    0    0    0    0  0.00000000000E+00  0.00000000000E+00  0.39999999673E+01  0.40000000000E+01  0.51109989000E-03 0. -1.
     -623   -1    0    0    0    0  0.00000000000E+00  0.00000000000E+00  0.12525980253E-10  0.17130000000E+03  0.17130000000E+03 0. -1.
       11    1    1    2    0    0  0.38153363413E+00 -0.18685216488E+00  0.14676105061E+00  0.44946714306E+00  0.51109989000E-03 0. -1.
     -623    1    1    2    0    0 -0.35015588769E+00 -0.15669852876E+00  0.65553385439E+00  0.17130168385E+03  0.17130000000E+03 0. -1.
      622    1    1    2    0    0 -0.31377746444E-01  0.34355069365E+00  0.31977050624E+01  0.35488490117E+01  0.15000000000E+01 0. -1.
</event>
<event>
 5   0  0.6596100E+00  0.9118800E+02  0.7818608E-02  0.1180000E+00
       11   -1    0    0    0    0  0.00000000000E+00  0.00000000000E+00  0.39999999673E+01  0.40000000000E+01  0.51109989000E-03 0.  1.
     -623   -1    0    0    0    0  0.00000000000E+00  0.00000000000E+00  0.12525980253E-10  0.17130000000E+03  0.17130000000E+03 0. -1.
       11    1    1    2    0    0 -0.20884341802E+00  0.14222939084E-01 -0.73299701330E-01  0.22179038005E+00  0.51109989000E-03 0.  1.
     -623    1    1    2    0    0  0.14497506326E-02 -0.10090223739E+00  0.61413786209E+00  0.17130113061E+03  0.17130000000E+03 0. -1.
      622    1    1    2    0    0  0.20739366739E+00  0.86679298304E-01  0.34591618066E+01  0.37770790087E+01  0.15000000000E+01 0.  1.
</event>
<event>
 5   0  0.6596100E+00  0.9118800E+02  0.7818608E-02  0.1180000E+00
       11   -1    0    0    0    0  0.00000000000E+00  0.00000000000E+00  0.39999999673E+01  0.40000000000E+01  0.51109989000E-03 0. -1.
     -623   -1    0    0    0    0  0.00000000000E+00  0.00000000000E+00  0.12525980253E-10  0.17130000000E+03  0.17130000000E+03 0. -1.
       11    1    1    2    0    0 -0.38273472038E-01  0.10271638561E+00  0.23212498186E+00  0.25670563484E+00  0.51109989000E-03 0. -1.
     -623    1    1    2    0    0 -0.11465073736E+00 -0.29121885246E+00  0.34756010010E+00  0.17130063850E+03  0.17130000000E+03 0. -1.
      622    1    1    2    0    0  0.15292420940E+00  0.18850246686E+00  0.34203148854E+01  0.37426558630E+01  0.15000000000E+01 0. -1.
</event>
<event>
 5   0  0.6596100E+00  0.9118800E+02  0.7818608E-02  0.1180000E+00
       11   -1    0    0    0    0  0.00000000000E+00  0.00000000000E+00  0.39999999673E+01  0.40000000000E+01  0.51109989000E-03 0.  1.
     -623   -1    0    0    0    0  0.00000000000E+00  0.00000000000E+00  0.12525980253E-10  0.17130000000E+03  0.17130000000E+03 0.  1.
       11    1    1    2    0    0  0.46264309999E-01  0.94777704372E-03 -0.44790808963E-01  0.64403124549E-01  0.51109989000E-03 0.  1.
     -623    1    1    2    0    0  0.19837811703E+00 -0.76151607846E-01  0.41596106585E+00  0.17130063682E+03  0.17130000000E+03 0.  1.
      622    1    1    2    0    0 -0.24464242703E+00  0.75203830803E-01  0.36288297105E+01  0.39349600507E+01  0.15000000000E+01 0.  1.
</event>
<event>
 5   0  0.6596100E+00  0.9118800E+02  0.7818608E-02  0.1180000E+00
       11   -1    0    0    0    0  0.00000000000E+00  0.00000000000E+00  0.39999999673E+01  0.40000000000E+01  0.51109989000E-03 0.  1.
     -623   -1    0    0    0    0  0.00000000000E+00  0.00000000000E+00  0.12525980253E-10  0.17130000000E+03  0.17130000000E+03 0. -1.
       11    1    1    2    0    0  0.24507488849E-01  0.13559375389E-01  0.34922762539E-01  0.44769791542E-01  0.51109989000E-03 0.  1.
     -623    1    1    2    0    0  0.44512109352E-01  0.15232027251E+00  0.31011285566E+00  0.17130035421E+03  0.17130000000E+03 0. -1.
      622    1    1    2    0    0 -0.69019598201E-01 -0.16587964789E+00  0.36549643492E+01  0.39548759976E+01  0.15000000000E+01 0.  1.
</event>
<event>
 5   0  0.6596100E+00  0.9118800E+02  0.7818608E-02  0.1180000E+00
       11   -1    0    0    0    0  0.00000000000E+00  0.00000000000E+00  0.39999999673E+01  0.40000000000E+01  0.51109989000E-03 0. -1.
     -623   -1    0    0    0    0  0.00000000000E+00  0.00000000000E+00  0.12525980253E-10  0.17130000000E+03  0.17130000000E+03 0. -1.
       11    1    1    2    0    0  0.33593790584E-01  0.19554211140E+00  0.60132118374E+00  0.63320824958E+00  0.51109989000E-03 0. -1.
     -623    1    1    2    0    0 -0.43393802568E+00 -0.40477435687E+00  0.42028280479E+00  0.17130154343E+03  0.17130000000E+03 0. -1.
      622    1    1    2    0    0  0.40034423509E+00  0.20923224546E+00  0.29783959788E+01  0.33652483186E+01  0.15000000000E+01 0. -1.
</event>
<event>
 5   0  0.6596100E+00  0.9118800E+02  0.7818608E-02  0.1180000E+00
       11   -1    0    0    0    0  0.00000000000E+00  0.00000000000E+00  0.39999999673E+01  0.40000000000E+01  0.51109989000E-03 0.  1.
     -623   -1    0    0    0    0  0.00000000000E+00  0.00000000000E+00  0.12525980253E-10  0.17130000000E+03  0.17130000000E+03 0.  1.
       11    1    1    2    0    0 -0.45772800314E-02 -0.30033547065E-02  0.23635871852E+00  0.23642266532E+00  0.51109989000E-03 0.  1.
     -623    1    1    2    0    0 -0.15444336178E+00  0.76133271159E-01  0.31675524271E+00  0.17130037940E+03  0.17130000000E+03 0.  1.
      622    1    1    2    0    0  0.15902064181E+00 -0.73129916452E-01  0.34468860061E+01  0.37631979337E+01  0.15000000000E+01 0.  1.
</event>
<event>
 5   0  0.6596100E+00  0.9118800E+02  0.7818608E-02  0.1180000E+00
       11   -1    0    0    0    0  0.00000000000E+00  0.00000000000E+00  0.39999999673E+01  0.40000000000E+01  0.51109989000E-03 0. -1.
     -623   -1    0    0    0    0  0.00000000000E+00  0.00000000000E+00  0.12525980253E-10  0.17130000000E+03  0.17130000000E+03 0. -1.
       11    1    1    2    0    0 -0.12109989949E+00  0.25854950236E+00  0.93973903587E+00  0.98215210002E+00  0.51109989000E-03 0. -1.
     -623    1    1    2    0    0 -0.50574455030E+00 -0.48543348241E+00  0.53056053833E+00  0.17130225602E+03  0.17130000000E+03 0. -1.
      622    1    1    2    0    0  0.62684444979E+00  0.22688398005E+00  0.25297003932E+01  0.30155918795E+01  0.15000000000E+01 0. -1.
</event>
<event>
 5   0  0.6596100E+00  0.9118800E+02  0.7818608E-02  0.1180000E+00
       11   -1    0    0    0    0  0.00000000000E+00  0.00000000000E+00  0.39999999673E+01  0.40000000000E+01  0.51109989000E-03 0. -1.
     -623   -1    0    0    0    0  0.00000000000E+00  0.00000000000E+00  0.12525980253E-10  0.17130000000E+03  0.17130000000E+03 0.  1.
       11    1    1    2    0    0 -0.22002623274E+00 -0.89693533261E-02  0.52223689442E+00  0.56676593714E+00  0.51109989000E-03 0. -1.
     -623    1    1    2    0    0  0.72094699336E-01 -0.35179563593E-01  0.39393033759E+00  0.17130047173E+03  0.17130000000E+03 0.  1.
      622    1    1    2    0    0  0.14793153340E+00  0.44148916919E-01  0.30838327354E+01  0.34327623287E+01  0.15000000000E+01 0. -1.
</event>
<event>
 5   0  0.6596100E+00  0.9118800E+02  0.7818608E-02  0.1180000E+00
       11   -1    0    0    0    0  0.00000000000E+00  0.00000000000E+00  0.39999999673E+01  0.40000000000E+01  0.51109989000E-03 0.  1.
     -623   -1    0    0    0    0  0.00000000000E+00  0.00000000000E+00  0.12525980253E-10  0.17130000000E+03  0.17130000000E+03 0.  1.
       11    1    1    2    0    0  0.10071863291E+00  0.14455460196E+00  0.11928450408E+00  0.21276590446E+00  0.51109989000E-03 0.  1.
     -623    1    1    2    0    0 -0.19672543323E+00  0.22745062827E+00  0.42535178837E+00  0.17130079206E+03  0.17130000000E+03 0.  1.
      622    1    1    2    0    0  0.96006800325E-01 -0.37200523023E+00  0.34553636749E+01  0.37864420401E+01  0.15000000000E+01 0.  1.
</event>
<event>
 5   0  0.6596100E+00  0.9118800E+02  0.7818608E-02  0.1180000E+00
       11   -1    0    0    0    0  0.00000000000E+00  0.00000000000E+00  0.39999999673E+01  0.40000000000E+01  0.51109989000E-03 0.  1.
     -623   -1    0    0    0    0  0.00000000000E+00  0.00000000000E+00  0.12525980253E-10  0.17130000000E+03  0.17130000000E+03 0.  1.
       11    1    1    2    0    0 -0.63465435719E-01 -0.11828050835E+00  0.14186215151E+00  0.19530302466E+00  0.51109989000E-03 0.  1.
     -623    1    1    2    0    0 -0.58911807786E-01  0.47136827313E+00  0.38282401650E+00  0.17130108643E+03  0.17130000000E+03 0.  1.
      622    1    1    2    0    0  0.12237724351E+00 -0.35308776477E+00  0.34753137994E+01  0.38036105431E+01  0.15000000000E+01 0.  1.
</event>
<event>
 5   0  0.6596100E+00  0.9118800E+02  0.7818608E-02  0.1180000E+00
       11   -1    0    0    0    0  0.00000000000E+00  0.00000000000E+00  0.39999999673E+01  0.40000000000E+01  0.51109989000E-03 0. -1.
     -623   -1    0    0    0    0  0.00000000000E+00  0.00000000000E+00  0.12525980253E-10  0.17130000000E+03  0.17130000000E+03 0.  1.
       11    1    1    2    0    0 -0.90843549821E-01  0.19602374210E+00  0.35374516708E+00  0.41450423697E+00  0.51109989000E-03 0. -1.
     -623    1    1    2    0    0 -0.93979621610E-01 -0.97019994868E-01  0.39692576099E+00  0.17130051312E+03  0.17130000000E+03 0.  1.
      622    1    1    2    0    0  0.18482317143E+00 -0.99003747228E-01  0.32493290393E+01  0.35849826432E+01  0.15000000000E+01 0. -1.
</event>
<event>
 5   0  0.6596100E+00  0.9118800E+02  0.7818608E-02  0.1180000E+00
       11   -1    0    0    0    0  0.00000000000E+00  0.00000000000E+00  0.39999999673E+01  0.40000000000E+01  0.51109989000E-03 0.  1.
     -623   -1    0    0    0    0  0.00000000000E+00  0.00000000000E+00  0.12525980253E-10  0.17130000000E+03  0.17130000000E+03 0.  1.
       11    1    1    2    0    0  0.39148027389E-01  0.12876589132E+00  0.68906740329E+00  0.70208786510E+00  0.51109989000E-03 0.  1.
     -623    1    1    2    0    0 -0.43602250482E+00 -0.31004748133E+00  0.40797915103E+00  0.17130132134E+03  0.17130000000E+03 0.  1.
      622    1    1    2    0    0  0.39687447743E+00  0.18128159001E+00  0.29029534130E+01  0.32965907972E+01  0.15000000000E+01 0.  1.
</event>
<event>
 5   0  0.6596100E+00  0.9118800E+02  0.7818608E-02  0.1180000E+00
       11   -1    0    0    0    0  0.00000000000E+00  0.00000000000E+00  0.39999999673E+01  0.40000000000E+01  0.51109989000E-03 0.  1.
     -623   -1    0    0    0    0  0.00000000000E+00  0.00000000000E+00  0.12525980253E-10  0.17130000000E+03  0.17130000000E+03 0. -1.
       11    1    1    2    0    0  0.12186925742E+00  0.87612863660E-01  0.73370260152E+00  0.74889778908E+00  0.51109989000E-03 0.  1.
     -623    1    1    2    0    0 -0.53724677177E+00  0.28055081062E+00  0.43769743827E+00  0.17130163140E+03  0.17130000000E+03 0. -1.
      622    1    1    2    0    0  0.41537751435E+00 -0.36816367428E+00  0.28285999276E+01  0.32494708063E+01  0.15000000000E+01 0.  1.
</event>
<event>
 5   0  0.6596100E+00  0.9118800E+02  0.7818608E-02  0.1180000E+00
       11   -1    0    0    0    0  0.00000000000E+00  0.00000000000E+00  0.39999999673E+01  0.40000000000E+01  0.51109989000E-03 0. -1.
     -623   -1    0    0    0    0  0.00000000000E+00  0.00000000000E+00  0.12525980253E-10  0.17130000000E+03  0.17130000000E+03 0. -1.
       11    1    1    2    0    0 -0.63063872532E-01  0.15219174938E+00  0.10216765381E+00  0.19385012588E+00  0.51109989000E-03 0. -1.
     -623    1    1    2    0    0  0.92707308925E-01  0.21930357624E+00  0.42037580550E+00  0.17130068127E+03  0.17130000000E+03 0. -1.
      622    1    1    2    0    0 -0.29643436393E-01 -0.37149532562E+00  0.34774565081E+01  0.38054686013E+01  0.15000000000E+01 0. -1.
</event>
<event>
 5   0  0.6596100E+00  0.9118800E+02  0.7818608E-02  0.1180000E+00
       11   -1    0    0    0    0  0.00000000000E+00  0.00000000000E+00  0.39999999673E+01  0.40000000000E+01  0.51109989000E-03 0. -1.
     -623   -1    0    0    0    0  0.00000000000E+00  0.00000000000E+00  0.12525980253E-10  0.17130000000E+03  0.17130000000E+03 0. -1.
       11    1    1    2    0    0  0.11798719209E+00  0.20173587177E+00  0.28660651416E+00  0.36981332404E+00  0.51109989000E-03 0. -1.
     -623    1    1    2    0    0 -0.17529456207E+00 -0.31185856530E+00  0.41088608667E+00  0.17130086635E+03  0.17130000000E+03 0.  1.
      622    1    1    2    0    0  0.57307369986E-01  0.11012269354E+00  0.33025073665E+01  0.36293203287E+01  0.15000000000E+01 0. -1.
</event>
<event>
 5   0  0.6596100E+00  0.9118800E+02  0.7818608E-02  0.1180000E+00
       11   -1    0    0    0    0  0.00000000000E+00  0.00000000000E+00  0.39999999673E+01  0.40000000000E+01  0.51109989000E-03 0. -1.
     -623   -1    0    0    0    0  0.00000000000E+00  0.00000000000E+00  0.12525980253E-10  0.17130000000E+03  0.17130000000E+03 0. -1.
       11    1    1    2    0    0 -0.39735553896E-01 -0.10968119568E+00  0.32662299437E+00  0.34683096835E+00  0.51109989000E-03 0. -1.
     -623    1    1    2    0    0  0.13880112423E+00  0.13315872254E+00  0.34441914883E+00  0.17130045424E+03  0.17130000000E+03 0. -1.
      622    1    1    2    0    0 -0.99065570332E-01 -0.23477526862E-01  0.33289578242E+01  0.36527147954E+01  0.15000000000E+01 0. -1.
</event>
<event>
 5   0  0.6596100E+00  0.9118800E+02  0.7818608E-02  0.1180000E+00
       11   -1    0    0    0    0  0.00000000000E+00  0.00000000000E+00  0.39999999673E+01  0.40000000000E+01  0.51109989000E-03 0.  1.
     -623   -1    0    0    0    0  0.00000000000E+00  0.00000000000E+00  0.12525980253E-10  0.17130000000E+03  0.17130000000E+03 0. -1.
       11    1    1    2    0    0  0.18300209662E+00 -0.27301945357E-01  0.93286581317E+00  0.95103840626E+00  0.51109989000E-03 0.  1.
     -623    1    1    2    0    0 -0.33510049946E+00  0.20094305629E+00  0.42384686212E+00  0.17130096998E+03  0.17130000000E+03 0. -1.
      622    1    1    2    0    0  0.15209840284E+00 -0.17364111093E+00  0.26432872921E+01  0.30479916122E+01  0.15000000000E+01 0.  1.
</event>
<event>
 5   0  0.6596100E+00  0.9118800E+02  0.7818608E-02  0.1180000E+00
       11   -1    0    0    0    0  0.00000000000E+00  0.00000000000E+00  0.39999999673E+01  0.40000000000E+01  0.51109989000E-03 0.  1.
     -623   -1    0    0    0    0  0.00000000000E+00  0.00000000000E+00  0.12525980253E-10  0.17130000000E+03  0.17130000000E+03 0. -1.
       11    1    1    2    0    0 -0.39056072252E-01  0.11136391498E+00  0.84113036616E-01  0.14492260863E+00  0.51109989000E-03 0.  1.
     -623    1    1    2    0    0  0.13623581897E+00 -0.22726185520E+00  0.36847799063E+00  0.17130060124E+03  0.17130000000E+03 0. -1.
      622    1    1    2    0    0 -0.97179746714E-01  0.11589794022E+00  0.35474089401E+01  0.38544761543E+01  0.15000000000E+01 0.  1.
</event>
<event>
 5   0  0.6596100E+00  0.9118800E+02  0.7818608E-02  0.1180000E+00
       11   -1    0    0    0    0  0.00000000000E+00  0.00000000000E+00  0.39999999673E+01  0.40000000000E+01  0.51109989000E-03 0.  1.
     -623   -1    0    0    0    0  0.00000000000E+00  0.00000000000E+00  0.12525980253E-10  0.17130000000E+03  0.17130000000E+03 0.  1.
       11    1    1    2    0    0  0.28885662624E+00 -0.13712377292E+00  0.55277815854E+00  0.63859614265E+00  0.51109989000E-03 0.  1.
     -623    1    1    2    0    0 -0.21578935808E+00  0.10465281319E+00  0.44094516394E+00  0.17130073540E+03  0.17130000000E+03 0.  1.
      622    1    1    2    0    0 -0.73067268159E-01  0.32470959731E-01  0.30062766449E+01  0.33606684535E+01  0.15000000000E+01 0. -1.
</event>
<event>
 5   0  0.6596100E+00  0.9118800E+02  0.7818608E-02  0.1180000E+00
       11   -1    0    0    0    0  0.00000000000E+00  0.00000000000E+00  0.39999999673E+01  0.40000000000E+01  0.51109989000E-03 0.  1.
     -623   -1    0    0    0    0  0.00000000000E+00  0.00000000000E+00  0.12525980253E-10  0.17130000000E+03  0.17130000000E+03 0. -1.
       11    1    1    2    0    0 -0.67391036157E-01  0.41656238665E+00  0.46250142402E+00  0.62607795215E+00  0.51109989000E-03 0.  1.
     -623    1    1    2    0    0 -0.98729738458E-01 -0.52971776539E+00  0.52389140191E+00  0.17130164859E+03  0.17130000000E+03 0. -1.
      622    1    1    2    0    0  0.16612077462E+00  0.11315537874E+00  0.30136071414E+01  0.33722734549E+01  0.15000000000E+01 0.  1.
</event>
<event>
 5   0  0.6596100E+00  0.9118800E+02  0.7818608E-02  0.1180000E+00
       11   -1    0    0    0    0  0.00000000000E+00  0.00000000000E+00  0.39999999673E+01  0.40000000000E+01  0.51109989000E-03 0.  1.
     -623   -1    0    0    0    0  0.00000000000E+00  0.00000000000E+00  0.12525980253E-10  0.17130000000E+03  0.17130000000E+03 0.  1.
       11    1    1    2    0    0 -0.15223357437E-01 -0.97252095898E-01  0.11422795840E+00  0.15079127452E+00  0.51109989000E-03 0.  1.
     -623    1    1    2    0    0 -0.57494102362E-01  0.25832060517E+00  0.34586869704E+00  0.17130055359E+03  0.17130000000E+03 0.  1.
      622    1    1    2    0    0  0.72717459799E-01 -0.16106850927E+00  0.35399033119E+01  0.38486551354E+01  0.15000000000E+01 0.  1.
</event>
<event>
 5   0  0.6596100E+00  0.9118800E+02  0.7818608E-02  0.1180000E+00
       11   -1    0    0    0    0  0.00000000000E+00  0.00000000000E+00  0.39999999673E+01  0.40000000000E+01  0.51109989000E-03 0.  1.
     -623   -1    0    0    0    0  0.00000000000E+00  0.00000000000E+00  0.12525980253E-10  0.17130000000E+03  0.17130000000E+03 0.  1.
       11    1    1    2    0    0 -0.43242375414E-01 -0.46266653206E-01  0.15797492243E+00  0.17019648518E+00  0.51109989000E-03 0.  1.
     -623    1    1    2    0    0  0.16540456241E+00 -0.24906476503E+00  0.33335463521E+00  0.17130058528E+03  0.17130000000E+03 0.  1.
      622    1    1    2    0    0 -0.12216218700E+00  0.29533141823E+00  0.35086704097E+01  0.38292182349E+01  0.15000000000E+01 0.  1.
</event>
<event>
 5   0  0.6596100E+00  0.9118800E+02  0.7818608E-02  0.1180000E+00
       11   -1    0    0    0    0  0.00000000000E+00  0.00000000000E+00  0.39999999673E+01  0.40000000000E+01  0.51109989000E-03 0. -1.
     -623   -1    0    0    0    0  0.00000000000E+00  0.00000000000E+00  0.12525980253E-10  0.17130000000E+03  0.17130000000E+03 0. -1.
       11    1    1    2    0    0  0.10318698472E+00 -0.44672861173E-01  0.68268849209E+00  0.69188659244E+00  0.51109989000E-03 0. -1.
     -623    1    1    2    0    0 -0.28082830590E+00 -0.12130204993E+00  0.37963889398E+00  0.17130069382E+03  0.17130000000E+03 0. -1.
      622    1    1    2    0    0  0.17764132118E+00  0.16597491110E+00  0.29376725813E+01  0.33074195841E+01  0.15000000000E+01 0. -1.
</event>
<event>
 5   0  0.6596100E+00  0.9118800E+02  0.7818608E-02  0.1180000E+00
       11   -1    0    0    0    0  0.00000000000E+00  0.00000000000E+00  0.39999999673E+01  0.40000000000E+01  0.51109989000E-03 0. -1.
     -623   -1    0    0    0    0  0.00000000000E+00  0.00000000000E+00  0.12525980253E-10  0.17130000000E+03  0.17130000000E+03 0.  1.
       11    1    1    2    0    0 -0.16401356863E+00  0.93444644627E-01  0.49583592474E+00  0.53055242699E+00  0.51109989000E-03 0. -1.
     -623    1    1    2    0    0  0.70902317160E-01 -0.57216293464E+00  0.41563743454E+00  0.17130147446E+03  0.17130000000E+03 0.  1.
      622    1    1    2    0    0  0.93111251472E-01  0.47871829001E+00  0.30885266081E+01  0.34679731134E+01  0.15000000000E+01 0. -1.
</event>
<event>
 5   0  0.6596100E+00  0.9118800E+02  0.7818608E-02  0.1180000E+00
       11   -1    0    0    0    0  0.00000000000E+00  0.00000000000E+00  0.39999999673E+01  0.40000000000E+01  0.51109989000E-03 0.  1.
     -623   -1    0    0    0    0  0.00000000000E+00  0.00000000000E+00  0.12525980253E-10  0.17130000000E+03  0.17130000000E+03 0. -1.
       11    1    1    2    0    0 -0.15119262112E+00  0.16493977973E+00  0.36011747287E+00  0.42396838928E+00  0.51109989000E-03 0.  1.
     -623    1    1    2    0    0  0.15083148850E-01 -0.54990500394E-01  0.39889528529E+00  0.17130047393E+03  0.17130000000E+03 0. -1.
      622    1    1    2    0    0  0.13610947227E+00 -0.10994927934E+00  0.32409872092E+01  0.35755576800E+01  0.15000000000E+01 0.  1.
</event>
<event>
 5   0  0.6596100E+00  0.9118800E+02  0.7818608E-02  0.1180000E+00
       11   -1    0    0    0    0  0.00000000000E+00  0.00000000000E+00  0.39999999673E+01  0.40000000000E+01  0.51109989000E-03 0.  1.
     -623   -1    0    0    0    0  0.00000000000E+00  0.00000000000E+00  0.12525980253E-10  0.17130000000E+03  0.17130000000E+03 0.  1.
       11    1    1    2    0    0 -0.61383600353E-01 -0.82710710666E-01  0.57202212687E-01  0.11781919373E+00  0.51109989000E-03 0.  1.
     -623    1    1    2    0    0  0.53248995181E-01  0.20442761318E+00  0.36475074759E+00  0.17130051859E+03  0.17130000000E+03 0.  1.
      622    1    1    2    0    0  0.81346051726E-02 -0.12171690251E+00  0.35780470071E+01  0.38816622162E+01  0.15000000000E+01 0.  1.
</event>
<event>
 5   0  0.6596100E+00  0.9118800E+02  0.7818608E-02  0.1180000E+00
       11   -1    0    0    0    0  0.00000000000E+00  0.00000000000E+00  0.39999999673E+01  0.40000000000E+01  0.51109989000E-03 0. -1.
     -623   -1    0    0    0    0  0.00000000000E+00  0.00000000000E+00  0.12525980253E-10  0.17130000000E+03  0.17130000000E+03 0.  1.
       11    1    1    2    0    0 -0.23199463048E+00  0.26434076071E-01  0.16392550636E+00  0.28529301044E+00  0.51109989000E-03 0. -1.
     -623    1    1    2    0    0  0.41194280254E+00 -0.22382451147E-01  0.44362802615E+00  0.17130107123E+03  0.17130000000E+03 0.  1.
      622    1    1    2    0    0 -0.17994817206E+00 -0.40516249247E-02  0.33924464348E+01  0.37136357621E+01  0.15000000000E+01 0. -1.
</event>
<event>
 5   0  0.6596100E+00  0.9118800E+02  0.7818608E-02  0.1180000E+00
       11   -1    0    0    0    0  0.00000000000E+00  0.00000000000E+00  0.39999999673E+01  0.40000000000E+01  0.51109989000E-03 0.  1.
     -623   -1    0    0    0    0  0.00000000000E+00  0.00000000000E+00  0.12525980253E-10  0.17130000000E+03  0.17130000000E+03 0.  1.
       11    1    1    2    0    0  0.41428330791E-01 -0.26290658675E+00  0.40224674635E+00  0.48232653474E+00  0.51109989000E-03 0.  1.
     -623    1    1    2    0    0 -0.47790551906E+00 -0.79755632910E-01  0.46616970064E+00  0.17130131952E+03  0.17130000000E+03 0.  1.
      622    1    1    2    0    0  0.43647718827E+00  0.34266221966E+00  0.31315835204E+01  0.35163539466E+01  0.15000000000E+01 0.  1.
</event>
<event>
 5   0  0.6596100E+00  0.9118800E+02  0.7818608E-02  0.1180000E+00
       11   -1    0    0    0    0  0.00000000000E+00  0.00000000000E+00  0.39999999673E+01  0.40000000000E+01  0.51109989000E-03 0. -1.
     -623   -1    0    0    0    0  0.00000000000E+00  0.00000000000E+00  0.12525980253E-10  0.17130000000E+03  0.17130000000E+03 0.  1.
       11    1    1    2    0    0  0.12205499167E+00  0.27153420706E+00  0.63270110496E+00  0.69924187234E+00  0.51109989000E-03 0. -1.
     -623    1    1    2    0    0  0.80871250890E-02 -0.18471407867E+00  0.43194947237E+00  0.17130064438E+03  0.17130000000E+03 0.  1.
      622    1    1    2    0    0 -0.13014211676E+00 -0.86820128394E-01  0.29353493900E+01  0.33001137476E+01  0.15000000000E+01 0. -1.
</event>
<event>
 5   0  0.6596100E+00  0.9118800E+02  0.7818608E-02  0.1180000E+00
       11   -1    0    0    0    0  0.00000000000E+00  0.00000000000E+00  0.39999999673E+01  0.40000000000E+01  0.51109989000E-03 0.  1.
     -623   -1    0    0    0    0  0.00000000000E+00  0.00000000000E+00  0.12525980253E-10  0.17130000000E+03  0.17130000000E+03 0.  1.
       11    1    1    2    0    0  0.33598745961E-01 -0.64758765039E-01  0.82122863897E-01  0.10984989475E+00  0.51109989000E-03 0.  1.
     -623    1    1    2    0    0 -0.39505946352E+00  0.13987243639E+00  0.34853186405E+00  0.17130086722E+03  0.17130000000E+03 0.  1.
      622    1    1    2    0    0  0.36146071756E+00 -0.75113671347E-01  0.35693452394E+01  0.38892828840E+01  0.15000000000E+01 0.  1.
</event>
<event>
 5   0  0.6596100E+00  0.9118800E+02  0.7818608E-02  0.1180000E+00
       11   -1    0    0    0    0  0.00000000000E+00  0.00000000000E+00  0.39999999673E+01  0.40000000000E+01  0.51109989000E-03 0. -1.
     -623   -1    0    0    0    0  0.00000000000E+00  0.00000000000E+00  0.12525980253E-10  0.17130000000E+03  0.17130000000E+03 0. -1.
       11    1    1    2    0    0  0.73592668113E-01  0.13429054052E+00  0.29436207510E+00  0.33181187826E+00  0.51109989000E-03 0. -1.
     -623    1    1    2    0    0 -0.30135463466E+00  0.58810081919E-01  0.37225296224E+00  0.17130067964E+03  0.17130000000E+03 0. -1.
      622    1    1    2    0    0  0.22776196655E+00 -0.19310062244E+00  0.33333849300E+01  0.36675084806E+01  0.15000000000E+01 0. -1.
</event>
<event>
 5   0  0.6596100E+00  0.9118800E+02  0.7818608E-02  0.1180000E+00
       11   -1    0    0    0    0  0.00000000000E+00  0.00000000000E+00  0.39999999673E+01  0.40000000000E+01  0.51109989000E-03 0.  1.
     -623   -1    0    0    0    0  0.00000000000E+00  0.00000000000E+00  0.12525980253E-10  0.17130000000E+03  0.17130000000E+03 0. -1.
       11    1    1    2    0    0 -0.59173233546E-01  0.24441660339E+00  0.84771319412E+00  0.88422783732E+00  0.51109989000E-03 0.  1.
     -623    1    1    2    0    0  0.25062264466E+00 -0.25756648311E+00  0.42914294136E+00  0.17130091452E+03  0.17130000000E+03 0. -1.
      622    1    1    2    0    0 -0.19144941111E+00  0.13149879715E-01  0.27231438319E+01  0.31148576413E+01  0.15000000000E+01 0.  1.
</event>
<event>
 5   0  0.6596100E+00  0.9118800E+02  0.7818608E-02  0.1180000E+00
       11   -1    0    0    0    0  0.00000000000E+00  0.00000000000E+00  0.39999999673E+01  0.40000000000E+01  0.51109989000E-03 0. -1.
     -623   -1    0    0    0    0  0.00000000000E+00  0.00000000000E+00  0.12525980253E-10  0.17130000000E+03  0.17130000000E+03 0. -1.
       11    1    1    2    0    0  0.16041325850E+00 -0.17488313563E+00  0.21201393161E+00  0.31822428105E+00  0.51109989000E-03 0. -1.
     -623    1    1    2    0    0 -0.16161474988E+00 -0.23799292180E-01  0.43218380984E+00  0.17130062308E+03  0.17130000000E+03 0. -1.
      622    1    1    2    0    0  0.12014913853E-02  0.19868242781E+00  0.33558022259E+01  0.36811526361E+01  0.15000000000E+01 0. -1.
</event>
<event>
 5   0  0.6596100E+00  0.9118800E+02  0.7818608E-02  0.1180000E+00
       11   -1    0    0    0    0  0.00000000000E+00  0.00000000000E+00  0.39999999673E+01  0.40000000000E+01  0.51109989000E-03 0.  1.
     -623   -1    0    0    0    0  0.00000000000E+00  0.00000000000E+00  0.12525980253E-10  0.17130000000E+03  0.17130000000E+03 0.  1.
       11    1    1    2    0    0  0.56998396942E-01  0.19609429087E+00  0.12343967218E+00  0.23861978555E+00  0.51109989000E-03 0.  1.
     -623    1    1    2    0    0  0.38943920574E+00 -0.47096130538E+00  0.46920190444E+00  0.17130173268E+03  0.17130000000E+03 0.  1.
      622    1    1    2    0    0 -0.44643760268E+00  0.27486701451E+00  0.34073583907E+01  0.37596475382E+01  0.15000000000E+01 0.  1.
</event>
<event>
 5   0  0.6596100E+00  0.9118800E+02  0.7818608E-02  0.1180000E+00
       11   -1    0    0    0    0  0.00000000000E+00  0.00000000000E+00  0.39999999673E+01  0.40000000000E+01  0.51109989000E-03 0. -1.
     -623   -1    0    0    0    0  0.00000000000E+00  0.00000000000E+00  0.12525980253E-10  0.17130000000E+03  0.17130000000E+03 0.  1.
       11    1    1    2    0    0 -0.52161591141E-01 -0.17211035860E+00  0.11529813089E+00  0.21362754349E+00  0.51109989000E-03 0. -1.
     -623    1    1    2    0    0  0.27563618019E+00 -0.19775172145E+00  0.43605983856E+00  0.17130089092E+03  0.17130000000E+03 0.  1.
      622    1    1    2    0    0 -0.22347458905E+00  0.36986208005E+00  0.34486419979E+01  0.37854815387E+01  0.15000000000E+01 0. -1.
</event>
<event>
 5   0  0.6596100E+00  0.9118800E+02  0.7818608E-02  0.1180000E+00
       11   -1    0    0    0    0  0.00000000000E+00  0.00000000000E+00  0.39999999673E+01  0.40000000000E+01  0.51109989000E-03 0. -1.
     -623   -1    0    0    0    0  0.00000000000E+00  0.00000000000E+00  0.12525980253E-10  0.17130000000E+03  0.17130000000E+03 0.  1.
       11    1    1    2    0    0 -0.10024697218E+00  0.73965761776E-02  0.24509794678E-01  0.10346572393E+00  0.51109989000E-03 0. -1.
     -623    1    1    2    0    0  0.17783902110E+00 -0.11501775752E+00  0.38229771700E+00  0.17130055752E+03  0.17130000000E+03 0.  1.
      622    1    1    2    0    0 -0.77592048922E-01  0.10762118134E+00  0.35931924557E+01  0.38959767541E+01  0.15000000000E+01 0. -1.
</event>
<event>
 5   0  0.6596100E+00  0.9118800E+02  0.7818608E-02  0.1180000E+00
       11   -1    0    0    0    0  0.00000000000E+00  0.00000000000E+00  0.39999999673E+01  0.40000000000E+01  0.51109989000E-03 0. -1.
     -623   -1    0    0    0    0  0.00000000000E+00  0.00000000000E+00  0.12525980253E-10  0.17130000000E+03  0.17130000000E+03 0. -1.
       11    1    1    2    0    0  0.15671674092E+00 -0.81100525123E-01  0.26706168745E+00  0.32009317110E+00  0.51109989000E-03 0. -1.
     -623    1    1    2    0    0 -0.10231841768E+00  0.95689007332E-01  0.37360465695E+00  0.17130046470E+03  0.17130000000E+03 0. -1.
      622    1    1    2    0    0 -0.54398323244E-01 -0.14588482210E-01  0.33593336230E+01  0.36794421305E+01  0.15000000000E+01 0. -1.
</event>
<event>
 5   0  0.6596100E+00  0.9118800E+02  0.7818608E-02  0.1180000E+00
       11   -1    0    0    0    0  0.00000000000E+00  0.00000000000E+00  0.39999999673E+01  0.40000000000E+01  0.51109989000E-03 0.  1.
     -623   -1    0    0    0    0  0.00000000000E+00  0.00000000000E+00  0.12525980253E-10  0.17130000000E+03  0.17130000000E+03 0.  1.
       11    1    1    2    0    0 -0.62570845991E-01 -0.34641067073E-01  0.53954335865E-01  0.89590434075E-01  0.51109989000E-03 0.  1.
     -623    1    1    2    0    0  0.97456352322E-01  0.78736802261E-01  0.33561462027E+00  0.17130037459E+03  0.17130000000E+03 0.  1.
      622    1    1    2    0    0 -0.34885506330E-01 -0.44095735188E-01  0.36104310112E+01  0.39100349767E+01  0.15000000000E+01 0.  1.
</event>
<event>
 5   0  0.6596100E+00  0.9118800E+02  0.7818608E-02  0.1180000E+00
       11   -1    0    0    0    0  0.00000000000E+00  0.00000000000E+00  0.39999999673E+01  0.40000000000E+01  0.51109989000E-03 0.  1.
     -623   -1    0    0    0    0  0.00000000000E+00  0.00000000000E+00  0.12525980253E-10  0.17130000000E+03  0.17130000000E+03 0.  1.
       11    1    1    2    0    0  0.15810440257E+00 -0.27472205343E+00  0.14193518769E+00  0.34729680027E+00  0.51109989000E-03 0.  1.
     -623    1    1    2    0    0  0.19264707518E+00  0.12099813684E+00  0.55079831254E+00  0.17130103658E+03  0.17130000000E+03 0.  1.
      622    1    1    2    0    0 -0.35075147775E+00  0.15372391659E+00  0.33072664671E+01  0.36516666231E+01  0.15000000000E+01 0.  1.
</event>
<event>
 5   0  0.6596100E+00  0.9118800E+02  0.7818608E-02  0.1180000E+00
       11   -1    0    0    0    0  0.00000000000E+00  0.00000000000E+00  0.39999999673E+01  0.40000000000E+01  0.51109989000E-03 0. -1.
     -623   -1    0    0    0    0  0.00000000000E+00  0.00000000000E+00  0.12525980253E-10  0.17130000000E+03  0.17130000000E+03 0.  1.
       11    1    1    2    0    0 -0.16406622730E+00 -0.21172720037E+00  0.31425609907E+00  0.41292044190E+00  0.51109989000E-03 0. -1.
     -623    1    1    2    0    0  0.72773632619E-01  0.49060178712E+00  0.44201240156E+00  0.17130128826E+03  0.17130000000E+03 0.  1.
      622    1    1    2    0    0  0.91292594679E-01 -0.27887458674E+00  0.32437314667E+01  0.35857912936E+01  0.15000000000E+01 0. -1.
</event>
<event>
 5   0  0.6596100E+00  0.9118800E+02  0.7818608E-02  0.1180000E+00
       11   -1    0    0    0    0  0.00000000000E+00  0.00000000000E+00  0.39999999673E+01  0.40000000000E+01  0.51109989000E-03 0. -1.
     -623   -1    0    0    0    0  0.00000000000E+00  0.00000000000E+00  0.12525980253E-10  0.17130000000E+03  0.17130000000E+03 0. -1.
       11    1    1    2    0    0 -0.14910432490E+00  0.10168399391E+00  0.42964428525E+00  0.46601095201E+00  0.51109989000E-03 0. -1.
     -623    1    1    2    0    0  0.13695738672E+00  0.38359285363E-01  0.37410561531E+00  0.17130046755E+03  0.17130000000E+03 0. -1.
      622    1    1    2    0    0  0.12146938177E-01 -0.14004327927E+00  0.31962500668E+01  0.35335214953E+01  0.15000000000E+01 0. -1.
</event>
<event>
 5   0  0.6596100E+00  0.9118800E+02  0.7818608E-02  0.1180000E+00
       11   -1    0    0    0    0  0.00000000000E+00  0.00000000000E+00  0.39999999673E+01  0.40000000000E+01  0.51109989000E-03 0.  1.
     -623   -1    0    0    0    0  0.00000000000E+00  0.00000000000E+00  0.12525980253E-10  0.17130000000E+03  0.17130000000E+03 0. -1.
       11    1    1    2    0    0  0.20009263149E+00 -0.26370834869E-01  0.40877024390E+00  0.45587921166E+00  0.51109989000E-03 0.  1.
     -623    1    1    2    0    0 -0.18490567267E+00 -0.25796458300E+00  0.39366424554E+00  0.17130074637E+03  0.17130000000E+03 0. -1.
      622    1    1    2    0    0 -0.15186958820E-01  0.28433541787E+00  0.31975654779E+01  0.35433744170E+01  0.15000000000E+01 0.  1.
</event>
<event>
 5   0  0.6596100E+00  0.9118800E+02  0.7818608E-02  0.1180000E+00
       11   -1    0    0    0    0  0.00000000000E+00  0.00000000000E+00  0.39999999673E+01  0.40000000000E+01  0.51109989000E-03 0.  1.
     -623   -1    0    0    0    0  0.00000000000E+00  0.00000000000E+00  0.12525980253E-10  0.17130000000E+03  0.17130000000E+03 0.  1.
       11    1    1    2    0    0 -0.67624383988E+00 -0.16566241174E-01  0.60599215965E+00  0.90818881853E+00  0.51109989000E-03 0.  1.
     -623    1    1    2    0    0  0.19160683160E+01  0.28111897385E+00  0.10242572853E+01  0.17131400833E+03  0.17130000000E+03 0.  1.
      622    1    1    2    0    0 -0.12398244761E+01 -0.26455273267E+00  0.23697505224E+01  0.30778028557E+01  0.15000000000E+01 0.  0.
</event>
<event>
 5   0  0.6596100E+00  0.9118800E+02  0.7818608E-02  0.1180000E+00
       11   -1    0    0    0    0  0.00000000000E+00  0.00000000000E+00  0.39999999673E+01  0.40000000000E+01  0.51109989000E-03 0.  1.
     -623   -1    0    0    0    0  0.00000000000E+00  0.00000000000E+00  0.12525980253E-10  0.17130000000E+03  0.17130000000E+03 0. -1.
       11    1    1    2    0    0 -0.22976134834E+00  0.66251424892E-01  0.27121330294E+00  0.36157495130E+00  0.51109989000E-03 0.  1.
     -623    1    1    2    0    0  0.38274994089E+00 -0.74346474392E-01  0.41854242608E+00  0.17130095505E+03  0.17130000000E+03 0. -1.
      622    1    1    2    0    0 -0.15298859255E+00  0.80950494999E-02  0.33102442383E+01  0.36374699939E+01  0.15000000000E+01 0.  1.
</event>
<event>
 5   0  0.6596100E+00  0.9118800E+02  0.7818608E-02  0.1180000E+00
       11   -1    0    0    0    0  0.00000000000E+00  0.00000000000E+00  0.39999999673E+01  0.40000000000E+01  0.51109989000E-03 0. -1.
     -623   -1    0    0    0    0  0.00000000000E+00  0.00000000000E+00  0.12525980253E-10  0.17130000000E+03  0.17130000000E+03 0. -1.
       11    1    1    2    0    0  0.12767791798E+00  0.66948409463E-01  0.26668891433E+00  0.30316163761E+00  0.51109989000E-03 0. -1.
     -623    1    1    2    0    0 -0.29999278074E+00  0.46519815958E-01  0.36148098823E+00  0.17130065040E+03  0.17130000000E+03 0. -1.
      622    1    1    2    0    0  0.17231486276E+00 -0.11346822542E+00  0.33718300648E+01  0.36961879600E+01  0.15000000000E+01 0. -1.
</event>
<event>
 5   0  0.6596100E+00  0.9118800E+02  0.7818608E-02  0.1180000E+00
       11   -1    0    0    0    0  0.00000000000E+00  0.00000000000E+00  0.39999999673E+01  0.40000000000E+01  0.51109989000E-03 0.  1.
     -623   -1    0    0    0    0  0.00000000000E+00  0.00000000000E+00  0.12525980253E-10  0.17130000000E+03  0.17130000000E+03 0. -1.
       11    1    1    2    0    0  0.25445630565E-01  0.32392097709E-02 -0.60352560725E-01  0.65579458696E-01  0.51109989000E-03 0.  1.
     -623    1    1    2    0    0  0.17588619454E+00  0.11807233064E+00  0.43142586383E+00  0.17130067427E+03  0.17130000000E+03 0. -1.
      622    1    1    2    0    0 -0.20133182511E+00 -0.12131154041E+00  0.36289266643E+01  0.39337462715E+01  0.15000000000E+01 0.  1.
</event>
<event>
 5   0  0.6596100E+00  0.9118800E+02  0.7818608E-02  0.1180000E+00
       11   -1    0    0    0    0  0.00000000000E+00  0.00000000000E+00  0.39999999673E+01  0.40000000000E+01  0.51109989000E-03 0.  1.
     -623   -1    0    0    0    0  0.00000000000E+00  0.00000000000E+00  0.12525980253E-10  0.17130000000E+03  0.17130000000E+03 0. -1.
       11    1    1    2    0    0  0.10497172179E+00  0.68935146943E-01  0.18002983642E+00  0.21950425983E+00  0.51109989000E-03 0.  1.
     -623    1    1    2    0    0  0.70106211194E-03 -0.49209569057E-01  0.35185729901E+00  0.17130036843E+03  0.17130000000E+03 0. -1.
      622    1    1    2    0    0 -0.10567278390E+00 -0.19725577886E-01  0.34681128319E+01  0.37801273061E+01  0.15000000000E+01 0.  1.
</event>
<event>
 5   0  0.6596100E+00  0.9118800E+02  0.7818608E-02  0.1180000E+00
       11   -1    0    0    0    0  0.00000000000E+00  0.00000000000E+00  0.39999999673E+01  0.40000000000E+01  0.51109989000E-03 0.  1.
     -623   -1    0    0    0    0  0.00000000000E+00  0.00000000000E+00  0.12525980253E-10  0.17130000000E+03  0.17130000000E+03 0. -1.
       11    1    1    2    0    0 -0.68317797654E-01  0.24689137208E+00  0.72186847001E+00  0.76597455591E+00  0.51109989000E-03 0.  1.
     -623    1    1    2    0    0 -0.10257596562E+00 -0.47509599429E+00  0.42862072536E+00  0.17130122578E+03  0.17130000000E+03 0. -1.
      622    1    1    2    0    0  0.17089376328E+00  0.22820462221E+00  0.28495107720E+01  0.32327996640E+01  0.15000000000E+01 0.  1.
</event>
<event>
 5   0  0.6596100E+00  0.9118800E+02  0.7818608E-02  0.1180000E+00
       11   -1    0    0    0    0  0.00000000000E+00  0.00000000000E+00  0.39999999673E+01  0.40000000000E+01  0.51109989000E-03 0.  1.
     -623   -1    0    0    0    0  0.00000000000E+00  0.00000000000E+00  0.12525980253E-10  0.17130000000E+03  0.17130000000E+03 0.  1.
       11    1    1    2    0    0 -0.97655001022E-01  0.94707757816E-01 -0.20767991601E-01  0.13761405928E+00  0.51109989000E-03 0.  1.
     -623    1    1    2    0    0  0.72682667083E-01 -0.19435422653E+00  0.46385207629E+00  0.17130075369E+03  0.17130000000E+03 0.  1.
      622    1    1    2    0    0  0.24972333939E-01  0.99646468710E-01  0.35569158827E+01  0.38616322498E+01  0.15000000000E+01 0.  1.
</event>
<event>
 5   0  0.6596100E+00  0.9118800E+02  0.7818608E-02  0.1180000E+00
       11   -1    0    0    0    0  0.00000000000E+00  0.00000000000E+00  0.39999999673E+01  0.40000000000E+01  0.51109989000E-03 0.  1.
     -623   -1    0    0    0    0  0.00000000000E+00  0.00000000000E+00  0.12525980253E-10  0.17130000000E+03  0.17130000000E+03 0. -1.
       11    1    1    2    0    0 -0.19930897597E+00  0.13183462862E+00  0.42370868512E-01  0.24269319918E+00  0.51109989000E-03 0.  1.
     -623    1    1    2    0    0  0.32920743273E+00 -0.19575370701E+00  0.51708928581E+00  0.17130120863E+03  0.17130000000E+03 0. -1.
      622    1    1    2    0    0 -0.12989845676E+00  0.63919078388E-01  0.34405398130E+01  0.37560981700E+01  0.15000000000E+01 0.  1.
</event>
<event>
 5   0  0.6596100E+00  0.9118800E+02  0.7818608E-02  0.1180000E+00
       11   -1    0    0    0    0  0.00000000000E+00  0.00000000000E+00  0.39999999673E+01  0.40000000000E+01  0.51109989000E-03 0. -1.
     -623   -1    0    0    0    0  0.00000000000E+00  0.00000000000E+00  0.12525980253E-10  0.17130000000E+03  0.17130000000E+03 0.  1.
       11    1    1    2    0    0  0.56438507070E-01 -0.67401736980E-01 -0.59533371518E-02  0.88113578265E-01  0.51109989000E-03 0. -1.
     -623    1    1    2    0    0  0.24585469684E-01 -0.16689817601E+00  0.40219827130E+00  0.17130055523E+03  0.17130000000E+03 0.  1.
      622    1    1    2    0    0 -0.81023976754E-01  0.23429991299E+00  0.36037550332E+01  0.39113311894E+01  0.15000000000E+01 0. -1.
</event>
<event>
 5   0  0.6596100E+00  0.9118800E+02  0.7818608E-02  0.1180000E+00
       11   -1    0    0    0    0  0.00000000000E+00  0.00000000000E+00  0.39999999673E+01  0.40000000000E+01  0.51109989000E-03 0. -1.
     -623   -1    0    0    0    0  0.00000000000E+00  0.00000000000E+00  0.12525980253E-10  0.17130000000E+03  0.17130000000E+03 0.  1.
       11    1    1    2    0    0 -0.10605026768E+00 -0.74432601305E-01  0.15708049060E+00  0.20362075818E+00  0.51109989000E-03 0. -1.
     -623    1    1    2    0    0 -0.24430855852E+00  0.17727355525E+00  0.37535165585E+00  0.17130067718E+03  0.17130000000E+03 0.  1.
      622    1    1    2    0    0  0.35035882619E+00 -0.10284095394E+00  0.34675678209E+01  0.37957020644E+01  0.15000000000E+01 0. -1.
</event>
<event>
 5   0  0.6596100E+00  0.9118800E+02  0.7818608E-02  0.1180000E+00
       11   -1    0    0    0    0  0.00000000000E+00  0.00000000000E+00  0.39999999673E+01  0.40000000000E+01  0.51109989000E-03 0.  1.
     -623   -1    0    0    0    0  0.00000000000E+00  0.00000000000E+00  0.12525980253E-10  0.17130000000E+03  0.17130000000E+03 0.  1.
       11    1    1    2    0    0 -0.34624654197E+00 -0.10922878297E+00  0.45619558536E+00  0.58303710704E+00  0.51109989000E-03 0.  1.
     -623    1    1    2    0    0  0.28594496272E+00  0.22616467100E+00  0.47767922737E+00  0.17130105397E+03  0.17130000000E+03 0.  1.
      622    1    1    2    0    0  0.60301579249E-01 -0.11693588803E+00  0.30661251546E+01  0.34159089195E+01  0.15000000000E+01 0.  1.
</event>
<event>
 5   0  0.6596100E+00  0.9118800E+02  0.7818608E-02  0.1180000E+00
       11   -1    0    0    0    0  0.00000000000E+00  0.00000000000E+00  0.39999999673E+01  0.40000000000E+01  0.51109989000E-03 0.  1.
     -623   -1    0    0    0    0  0.00000000000E+00  0.00000000000E+00  0.12525980253E-10  0.17130000000E+03  0.17130000000E+03 0. -1.
       11    1    1    2    0    0  0.14791926571E+00  0.23816428754E-01  0.40041821644E+00  0.42753051438E+00  0.51109989000E-03 0.  1.
     -623    1    1    2    0    0 -0.21042295085E+00 -0.59156304570E-01  0.35863990458E+00  0.17130051489E+03  0.17130000000E+03 0. -1.
      622    1    1    2    0    0  0.62503685148E-01  0.35339875816E-01  0.32409418463E+01  0.35719546006E+01  0.15000000000E+01 0.  1.
</event>
<event>
 5   0  0.6596100E+00  0.9118800E+02  0.7818608E-02  0.1180000E+00
       11   -1    0    0    0    0  0.00000000000E+00  0.00000000000E+00  0.39999999673E+01  0.40000000000E+01  0.51109989000E-03 0.  1.
     -623   -1    0    0    0    0  0.00000000000E+00  0.00000000000E+00  0.12525980253E-10  0.17130000000E+03  0.17130000000E+03 0. -1.
       11    1    1    2    0    0 -0.72690398586E-01 -0.16153753220E+00  0.60301655751E+00  0.62849621973E+00  0.51109989000E-03 0.  1.
     -623    1    1    2    0    0  0.15593756015E+00  0.98339624998E-01  0.37993120828E+00  0.17130052053E+03  0.17130000000E+03 0. -1.
      622    1    1    2    0    0 -0.83247161569E-01  0.63197907197E-01  0.30170522016E+01  0.33709832471E+01  0.15000000000E+01 0.  1.
</event>
<event>
 5   0  0.6596100E+00  0.9118800E+02  0.7818608E-02  0.1180000E+00
       11   -1    0    0    0    0  0.00000000000E+00  0.00000000000E+00  0.39999999673E+01  0.40000000000E+01  0.51109989000E-03 0.  1.
     -623   -1    0    0    0    0  0.00000000000E+00  0.00000000000E+00  0.12525980253E-10  0.17130000000E+03  0.17130000000E+03 0.  1.
       11    1    1    2    0    0  0.10241026588E+00  0.93466437524E-01 -0.19082718918E-01  0.13995802544E+00  0.51109989000E-03 0.  1.
     -623    1    1    2    0    0 -0.21336820108E+00  0.16406011907E+00  0.47442629665E+00  0.17130086842E+03  0.17130000000E+03 0.  1.
      622    1    1    2    0    0  0.11095793520E+00 -0.25752655659E+00  0.35446563896E+01  0.38591735529E+01  0.15000000000E+01 0.  1.
</event>
<event>
 5   0  0.6596100E+00  0.9118800E+02  0.7818608E-02  0.1180000E+00
       11   -1    0    0    0    0  0.00000000000E+00  0.00000000000E+00  0.39999999673E+01  0.40000000000E+01  0.51109989000E-03 0. -1.
     -623   -1    0    0    0    0  0.00000000000E+00  0.00000000000E+00  0.12525980253E-10  0.17130000000E+03  0.17130000000E+03 0.  1.
       11    1    1    2    0    0 -0.12755709425E+00 -0.14921949549E+00  0.44380427844E+00  0.48528318425E+00  0.51109989000E-03 0. -1.
     -623    1    1    2    0    0  0.16124788581E+00  0.20851790799E+00  0.37905709855E+00  0.17130062220E+03  0.17130000000E+03 0.  1.
      622    1    1    2    0    0 -0.33690791565E-01 -0.59298412494E-01  0.31771385904E+01  0.35140946193E+01  0.15000000000E+01 0. -1.
</event>
<event>
 5   0  0.6596100E+00  0.9118800E+02  0.7818608E-02  0.1180000E+00
       11   -1    0    0    0    0  0.00000000000E+00  0.00000000000E+00  0.39999999673E+01  0.40000000000E+01  0.51109989000E-03 0. -1.
     -623   -1    0    0    0    0  0.00000000000E+00  0.00000000000E+00  0.12525980253E-10  0.17130000000E+03  0.17130000000E+03 0. -1.
       11    1    1    2    0    0 -0.69434951111E-01  0.37797103257E-01  0.10184449686E+00  0.12892787214E+00  0.51109989000E-03 0. -1.
     -623    1    1    2    0    0 -0.91289403366E-01 -0.62346042486E-01  0.33361155704E+00  0.17130036053E+03  0.17130000000E+03 0. -1.
      622    1    1    2    0    0  0.16072435448E+00  0.24548939228E-01  0.35645439135E+01  0.38707115986E+01  0.15000000000E+01 0. -1.
</event>
<event>
 5   0  0.6596100E+00  0.9118800E+02  0.7818608E-02  0.1180000E+00
       11   -1    0    0    0    0  0.00000000000E+00  0.00000000000E+00  0.39999999673E+01  0.40000000000E+01  0.51109989000E-03 0.  1.
     -623   -1    0    0    0    0  0.00000000000E+00  0.00000000000E+00  0.12525980253E-10  0.17130000000E+03  0.17130000000E+03 0. -1.
       11    1    1    2    0    0 -0.10397644367E+00 -0.16355372901E-01  0.57290351366E-01  0.11983757610E+00  0.51109989000E-03 0.  1.
     -623    1    1    2    0    0  0.30364104845E-01  0.10351236316E+00  0.36649101308E+00  0.17130042601E+03  0.17130000000E+03 0. -1.
      622    1    1    2    0    0  0.73612338829E-01 -0.87156990260E-01  0.35762186029E+01  0.38797364103E+01  0.15000000000E+01 0.  1.
</event>
<event>
 5   0  0.6596100E+00  0.9118800E+02  0.7818608E-02  0.1180000E+00
       11   -1    0    0    0    0  0.00000000000E+00  0.00000000000E+00  0.39999999673E+01  0.40000000000E+01  0.51109989000E-03 0. -1.
     -623   -1    0    0    0    0  0.00000000000E+00  0.00000000000E+00  0.12525980253E-10  0.17130000000E+03  0.17130000000E+03 0.  1.
       11    1    1    2    0    0  0.40288144010E-01 -0.14169338540E+00  0.12958417491E+00  0.19619497859E+00  0.51109989000E-03 0. -1.
     -623    1    1    2    0    0  0.14826289141E+00  0.17308722016E+00  0.38071322491E+00  0.17130057467E+03  0.17130000000E+03 0.  1.
      622    1    1    2    0    0 -0.18855103542E+00 -0.31393834753E-01  0.34897025675E+01  0.38032303474E+01  0.15000000000E+01 0. -1.
</event>
<event>
 5   0  0.6596100E+00  0.9118800E+02  0.7818608E-02  0.1180000E+00
       11   -1    0    0    0    0  0.00000000000E+00  0.00000000000E+00  0.39999999673E+01  0.40000000000E+01  0.51109989000E-03 0.  1.
     -623   -1    0    0    0    0  0.00000000000E+00  0.00000000000E+00  0.12525980253E-10  0.17130000000E+03  0.17130000000E+03 0.  1.
       11    1    1    2    0    0 -0.11705484094E-01 -0.15284322710E-02 -0.34983891179E-01  0.36925442808E-01  0.51109989000E-03 0.  1.
     -623    1    1    2    0    0  0.33510951682E-01  0.18187963729E+00  0.37179277953E+00  0.17130050331E+03  0.17130000000E+03 0.  1.
      622    1    1    2    0    0 -0.21805467587E-01 -0.18035120502E+00  0.36631910790E+01  0.39625712507E+01  0.15000000000E+01 0.  1.
</event>
<event>
 5   0  0.6596100E+00  0.9118800E+02  0.7818608E-02  0.1180000E+00
       11   -1    0    0    0    0  0.00000000000E+00  0.00000000000E+00  0.39999999673E+01  0.40000000000E+01  0.51109989000E-03 0. -1.
     -623   -1    0    0    0    0  0.00000000000E+00  0.00000000000E+00  0.12525980253E-10  0.17130000000E+03  0.17130000000E+03 0. -1.
       11    1    1    2    0    0  0.31360630910E-01 -0.16201244089E+00  0.11194358264E+01  0.11315336278E+01  0.51109989000E-03 0. -1.
     -623    1    1    2    0    0 -0.30268532278E+00  0.21056770452E+00  0.45230896820E+00  0.17130099399E+03  0.17130000000E+03 0. -1.
      622    1    1    2    0    0  0.27132469187E+00 -0.48555263634E-01  0.24282551728E+01  0.28674723863E+01  0.15000000000E+01 0. -1.
</event>
<event>
 5   0  0.6596100E+00  0.9118800E+02  0.7818608E-02  0.1180000E+00
       11   -1    0    0    0    0  0.00000000000E+00  0.00000000000E+00  0.39999999673E+01  0.40000000000E+01  0.51109989000E-03 0.  1.
     -623   -1    0    0    0    0  0.00000000000E+00  0.00000000000E+00  0.12525980253E-10  0.17130000000E+03  0.17130000000E+03 0.  1.
       11    1    1    2    0    0  0.13292658856E-01  0.26634679016E-01 -0.70845101445E-01  0.76846538813E-01  0.51109989000E-03 0.  1.
     -623    1    1    2    0    0  0.24073724007E-01  0.22691587351E+00  0.45566848491E+00  0.17130075804E+03  0.17130000000E+03 0.  1.
      622    1    1    2    0    0 -0.37366382863E-01 -0.25355055253E+00  0.36151765839E+01  0.39223954240E+01  0.15000000000E+01 0.  1.
</event>
<event>
 5   0  0.6596100E+00  0.9118800E+02  0.7818608E-02  0.1180000E+00
       11   -1    0    0    0    0  0.00000000000E+00  0.00000000000E+00  0.39999999673E+01  0.40000000000E+01  0.51109989000E-03 0. -1.
     -623   -1    0    0    0    0  0.00000000000E+00  0.00000000000E+00  0.12525980253E-10  0.17130000000E+03  0.17130000000E+03 0.  1.
       11    1    1    2    0    0  0.23458922015E+00 -0.45891707512E+00  0.76010015733E+00  0.91836239821E+00  0.51109989000E-03 0. -1.
     -623    1    1    2    0    0  0.12110022484E+00  0.47119225118E+00  0.57350664883E+00  0.17130165089E+03  0.17130000000E+03 0.  1.
      622    1    1    2    0    0 -0.35568944499E+00 -0.12275176058E-01  0.26663931612E+01  0.30799867128E+01  0.15000000000E+01 0. -1.
</event>
<event>
 5   0  0.6596100E+00  0.9118800E+02  0.7818608E-02  0.1180000E+00
       11   -1    0    0    0    0  0.00000000000E+00  0.00000000000E+00  0.39999999673E+01  0.40000000000E+01  0.51109989000E-03 0. -1.
     -623   -1    0    0    0    0  0.00000000000E+00  0.00000000000E+00  0.12525980253E-10  0.17130000000E+03  0.17130000000E+03 0.  1.
       11    1    1    2    0    0  0.77103375841E-01 -0.32888077079E+00  0.95664320371E+00  0.10145314053E+01  0.51109989000E-03 0. -1.
     -623    1    1    2    0    0 -0.29596815551E+00  0.31397124565E+00  0.47280050982E+00  0.17130119590E+03  0.17130000000E+03 0.  1.
      622    1    1    2    0    0  0.21886477967E+00  0.14909525139E-01  0.25705562538E+01  0.29842726986E+01  0.15000000000E+01 0. -1.
</event>
<event>
 5   0  0.6596100E+00  0.9118800E+02  0.7818608E-02  0.1180000E+00
       11   -1    0    0    0    0  0.00000000000E+00  0.00000000000E+00  0.39999999673E+01  0.40000000000E+01  0.51109989000E-03 0. -1.
     -623   -1    0    0    0    0  0.00000000000E+00  0.00000000000E+00  0.12525980253E-10  0.17130000000E+03  0.17130000000E+03 0.  1.
       11    1    1    2    0    0 -0.37936396963E+00  0.13273600096E-03  0.72893233560E+00  0.82174183913E+00  0.51109989000E-03 0. -1.
     -623    1    1    2    0    0  0.68650271154E-01  0.32621506346E+00  0.50674966069E+00  0.17130107391E+03  0.17130000000E+03 0.  1.
      622    1    1    2    0    0  0.31071369847E+00 -0.32634779946E+00  0.27643179711E+01  0.31771842461E+01  0.15000000000E+01 0. -1.
</event>
<event>
 5   0  0.6596100E+00  0.9118800E+02  0.7818608E-02  0.1180000E+00
       11   -1    0    0    0    0  0.00000000000E+00  0.00000000000E+00  0.39999999673E+01  0.40000000000E+01  0.51109989000E-03 0.  1.
     -623   -1    0    0    0    0  0.00000000000E+00  0.00000000000E+00  0.12525980253E-10  0.17130000000E+03  0.17130000000E+03 0.  1.
       11    1    1    2    0    0  0.11396610939E+00  0.22344626677E+00  0.36593150401E+00  0.44364697122E+00  0.51109989000E-03 0.  1.
     -623    1    1    2    0    0  0.22017402290E+00 -0.11790069183E+00  0.42942582635E+00  0.17130072032E+03  0.17130000000E+03 0.  1.
      622    1    1    2    0    0 -0.33414013229E+00 -0.10554557494E+00  0.32046426370E+01  0.35556327042E+01  0.15000000000E+01 0.  1.
</event>
<event>
 5   0  0.6596100E+00  0.9118800E+02  0.7818608E-02  0.1180000E+00
       11   -1    0    0    0    0  0.00000000000E+00  0.00000000000E+00  0.39999999673E+01  0.40000000000E+01  0.51109989000E-03 0. -1.
     -623   -1    0    0    0    0  0.00000000000E+00  0.00000000000E+00  0.12525980253E-10  0.17130000000E+03  0.17130000000E+03 0. -1.
       11    1    1    2    0    0 -0.33028603003E+00 -0.17741432076E+00  0.76777392555E+00  0.85442481519E+00  0.51109989000E-03 0. -1.
     -623    1    1    2    0    0  0.67706895223E-01 -0.19578546221E-01  0.48769859330E+00  0.17130070875E+03  0.17130000000E+03 0. -1.
      622    1    1    2    0    0  0.26257913480E+00  0.19699286698E+00  0.27445274485E+01  0.31448664371E+01  0.15000000000E+01 0. -1.
</event>
<event>
 5   0  0.6596100E+00  0.9118800E+02  0.7818608E-02  0.1180000E+00
       11   -1    0    0    0    0  0.00000000000E+00  0.00000000000E+00  0.39999999673E+01  0.40000000000E+01  0.51109989000E-03 0.  1.
     -623   -1    0    0    0    0  0.00000000000E+00  0.00000000000E+00  0.12525980253E-10  0.17130000000E+03  0.17130000000E+03 0. -1.
       11    1    1    2    0    0 -0.57191882288E+00  0.24548519218E+00  0.26050470029E+00  0.67469776910E+00  0.51109989000E-03 0.  1.
     -623    1    1    2    0    0  0.35280389549E+00 -0.15722281557E+00  0.78365001583E+00  0.17130222794E+03  0.17130000000E+03 0. -1.
      622    1    1    2    0    0  0.21911492739E+00 -0.88262376611E-01  0.29558452512E+01  0.33230742916E+01  0.15000000000E+01 0.  1.
</event>
<event>
 5   0  0.6596100E+00  0.9118800E+02  0.7818608E-02  0.1180000E+00
       11   -1    0    0    0    0  0.00000000000E+00  0.00000000000E+00  0.39999999673E+01  0.40000000000E+01  0.51109989000E-03 0. -1.
     -623   -1    0    0    0    0  0.00000000000E+00  0.00000000000E+00  0.12525980253E-10  0.17130000000E+03  0.17130000000E+03 0. -1.
       11    1    1    2    0    0 -0.20237284187E+00  0.23720377994E+00  0.34755697618E+00  0.46692238462E+00  0.51109989000E-03 0. -1.
     -623    1    1    2    0    0 -0.86770587646E-01 -0.13571226575E+00  0.46910203162E+00  0.17130071805E+03  0.17130000000E+03 0. -1.
      622    1    1    2    0    0  0.28914342952E+00 -0.10149151420E+00  0.31833409596E+01  0.35323595676E+01  0.15000000000E+01 0. -1.
</event>
</LesHouchesEvents>
