<LesHouchesEvents version="1.0">
<header>
<!--
#*********************************************************************
#                                                                    *
#                       MadGraph/MadEvent                            *
#                                                                    *
#                      The new web generation                        *
#                                                                    *
#                   http://madgraph.hep.uiuc.edu                     *
#                   http://madgraph.phys.ucl.ac.be                   *
#                   http://madgraph.roma2.infn.it                    *
#                                                                    *
#            CP3 team                      Tim Stelzer               *
#      Universite de Louvain          University of Illinois         *
#                                                                    *
#....................................................................*
#                                                                    *
# This file contains all the information necessary to reproduce      *
# the events generated:                                              *
#                                                                    *
# 1. software version                                                *
# 2. proc_card.dat      : code generation info including model       *
# 3. param_card.dat     : model primary parameters in the LH format  *
# 4. run_card.dat       : running parameters (collider and cuts)     *
# 5. pythia_card.dat    : present only in the pythia event file      *
# 6. pgs_card.dat       : present only in the pgs event file         *
#                                                                    *
#                                                                    *
#*********************************************************************
-->
<MGVersion>
# MG/ME version    : 4.4.17
# madgraph version : 4.4.2
# template version : 2.4.8
# helas version    : 3.5
# model version    : usrmod_1.0.4
</MGVersion>
<MGProcCard>
#*********************************************************************
#                        MadGraph/MadEvent                           *
#                   http://madgraph.hep.uiuc.edu                     *
#                                                                    *
#                          proc_card.dat                             *
#                                                                    *
# This file is used to generate the code for a specific process.     *
# Some notation/conventions:                                         *
#                                                                    *
# 0. Do not modify the TAGS and their order.                         *
# 1. hash/pound is a comment.                                        *
# 2. The number after the @ is used as an identifier for the class   *
#    of processes. It can be any positive integer.                   *
# 3. The number of lines for the max couplings depends on how many   *
#    different classes of couplings are present in the model         *
#    In the SM these are just two: QED (which include EW) and QCD    *
# 4. Write "end_coup" after  the couplings list,                     *
#    to tell MG that the couplings input is over.                    *
# 5. Write "done" after the proc list to                             *
#    to tell MG that the proc input is over.                         *
# 6. Some model names available at present are:                      *
#    sm     =  Standard Model                                        *
#    smckm =  Standard Model with Cabibbo matrix                     *
#    mssm   =  Minimal Supersymmetric Standard Model                 *
#    2hdm   =  Generic Two Higgs Doublet model                       *
#    heft   =  Higgs EFT (+Standard Model)                           *
#    usrmod =  User Model                                            *
# 7. Don't leave spaces between the particles name in the            *
#    definition of the multiparticles.                               *
#*********************************************************************
#*********************************************************************
# Process(es) requested : mg2 input                                  *
#*********************************************************************
# Begin PROCESS # This is TAG. Do not modify this line
e- N+ > e- N+ x      # Radiative
QCD=0             # Max QCD couplings
QED=1             # Max QED couplings
QFD=0 
QND=1
QWD=9
QDS=2
end_coup           # End the couplings input
done               # this tells MG there are no more procs
# End PROCESS  # This is TAG. Do not modify this line
#*********************************************************************
# Model information                                                  *
#*********************************************************************
# Begin MODEL  # This is TAG. Do not modify this line
fixedAP2     
# End   MODEL  # This is TAG. Do not modify this line
#*********************************************************************
# Start multiparticle definitions                                    *
#*********************************************************************
# Begin MULTIPARTICLES # This is TAG. Do not modify this line
P uu~cc~dd~ss~gf+f-
J uu~cc~dd~ss~gf+f-
L+ e+mu+
L- e-mu-
vl vevm
vl~ ve~vm~
# End  MULTIPARTICLES # This is TAG. Do not modify this line
</MGProcCard>
<slha>
#*********************************************************************
#                        MadGraph/MadEvent                           *
#                   http://madgraph.hep.uiuc.edu                     *
#                                                                    *
#                         param_card.dat                             *
#                                                                    *
#   Les Houches friendly file for the SM parameters of MadGraph      *
#        Spectrum and decay widths produced by SMCalc                *
#                                                                    *
#  Please note the following IMPORTANT issues:                       *
#                                                                    *
# 0. REFRAIN from editing this file by hand! Some of the parame-     *
#    ters are not independent                                        *
#    (such as G_Fermi, alpha_em, sin(theta_W),MZ,MW) and serious     *
#    problems might be encountered (such as violation of unitarity   *
#    or gauge invariance).  Always use a calculator.                 *
#                                                                    *
# 1. alpha_S(MZ) has been used in the calculation of the parameters  *
#    but, for consistency, it will be reset by madgraph to the       *
#    value expected IF the pdfs for collisions with hadrons are      *
#    used. This value is KEPT by madgraph when no pdf are used       *
#    lpp(i)=0 .                                                      *
#                                                                    *
#  2. Values of the charm and bottom kinematic (pole) masses are     *
#     those used in the matrix elements and phase space UNLESS they  *
#     are set to ZERO from the start in the model (particles.dat)    *
#     This happens, for example,  when using 5-flavor QCD where      *
#     charm and bottom are treated as partons in the initial state   *
#     and a zero mass might be hardwired in the model definition.    *
#                                                                    *
##********************************************************************
Block MODSEL # Select Model
     0   1   #  0 1 = SM
Block SMINPUTS      # Standard Model inputs
     1         1.27900000E+02   # alpha_em(MZ)(-1) SM MSbar
     2         1.16600000E-05   # G_Fermi
     3         1.18000000E-01   # alpha_s(MZ) SM MSbar
     4         9.15445065E+01   # Z mass (as input parameter)
Block MGYUKAWA     # Yukawa masses m/v=y/sqrt(2)
#    PDG          YMASS
     5         4.20000000E+00   # mbottom for the Yukawa  y_b
     4         1.25000000E+00   # mcharm  for the Yukawa  y_c
     6         1.74300000E+02   # mtop    for the Yukawa  y_t
    15         1.77700000E+00   # mtau    for the Yukawa  y_ta
Block MGCKM     # CKM elements for MadGraph
     1   1     9.75000000E-01   # Vud for Cabibbo matrix
#===========================================================
# QUANTUM NUMBERS OF NEW STATE(S) (NON SM PDG CODE) IF ANY
# (see below for masses and decay tables)
# These blocks are automatically created by the MadGraph
# qnumbers.pl script from the particles.dat model file
#===========================================================
BLOCK QNUMBERS 611 # f-
         1  -3 # 3 times electric charge
         2  2 # number of spin states (2S+1)
         3  1 # colour rep (1: singlet, 3: triplet, 8: octet)
         4  1 # Particle/Antiparticle distinction (0=own anti)
BLOCK QNUMBERS 622 # x
         1  0 # 3 times electric charge
         2  3 # number of spin states (2S+1)
         3  1 # colour rep (1: singlet, 3: triplet, 8: octet)
         4  0 # Particle/Antiparticle distinction (0=own anti)
BLOCK QNUMBERS 623 # N-
         1  0 # 3 times electric charge
         2  2 # number of spin states (2S+1)
         3  1 # colour rep (1: singlet, 3: triplet, 8: octet)
         4  1 # Particle/Antiparticle distinction (0=own anti)
# END of QNUMBERS blocks
#===========================================================
Block MASS      #  Mass spectrum (kinematic masses)
#       PDG       Mass
         4     1.40000000E+00   # charm    pole mass
         5     4.20000000E+00   # bottom   pole mass
         6     1.74300000E+02   # top      pole mass
        11     0.51109989E-03   # electron mass
        13     0.10565837E+00   # muon     mass
        15     1.77700000E+00   # tau      mass
        23     9.15445065E+01   # Z        mass
        24     8.02673592E+01   # W        mass
        25     1.20000000E+02   # H        mass
       611 0.001 # FMASS
       622 0.003 # APMASS
       623     1.71300000e+02   # HPMASS (tungsten)
#            PDG       Width
DECAY       611     0.00000000e+00   # ELWIDTH
DECAY 622 9.109906575e-05 # APWIDTH
DECAY       623     0.00000000e+00   # HPWIDTH
DECAY         6     1.51013490E+00   # top width
DECAY        23     2.44639985E+00   # Z   width
DECAY        24     2.03535570E+00   # W   width
DECAY        25     6.79485838E-03   # H   width
#        BR           NDA        ID1       ID2
     7.00588389E-02    2           4        -4   # BR( H -> c  cbar  )
     7.61074375E-01    2           5        -5   # BR( H -> b  bbar  )
     0.00000000E+00    2           6        -6   # BR( H -> t  tbar  )
     3.65529942E-02    2          15       -15   # BR( H -> tau- tau+)
     5.84716539E-03    2          23        23   # BR( H -> Z   Z^(*))
     6.31545979E-02    2          24       -24   # BR( H -> W   W^(*))
     2.55499652E-02    2          21        21   # BR( H -> g   g    )
     1.20906932E-03    2          22        22   # BR( H -> A   A    )
BLOCK MGUSER
         1     1.00000000e-00   # epsilon ,mixing coefficient
         2     74.0000000e+00   # Znuc    ,nuclear charge
</slha>
<MGRunCard>
#*********************************************************************
#                       MadGraph/MadEvent                            *
#                  http://madgraph.hep.uiuc.edu                      *
#                                                                    *
#                        run_card.dat                                *
#                                                                    *
#  This file is used to set the parameters of the run.               *
#                                                                    *
#  Some notation/conventions:                                        *
#                                                                    *
#   Lines starting with a '# ' are info or comments                  *
#                                                                    *
#   mind the format:   value    = variable     ! comment             *
#*********************************************************************
#
#*******************                                                 
# Running parameters
#*******************                                                 
#                                                                    
#*********************************************************************
# Tag name for the run (one word)                                    *
#*********************************************************************
  'HPS'     = run_tag ! name of the run 
#*********************************************************************
# Run to generate the grid pack                                      *
#*********************************************************************
  .false.     = gridpack  !True = setting up the grid pack
#*********************************************************************
# Number of events and rnd seed                                      *
#*********************************************************************
   1000      = nevents ! Number of unweighted events requested 
188699 = iseed ! rnd seed (0=assigned automatically=default))
#*********************************************************************
# Collider type and energy                                           *
#*********************************************************************
        0     = lpp1  ! beam 1 type (0=NO PDF)
        0     = lpp2  ! beam 2 type (0=NO PDF)
4 = ebeam1  ! beam 1 energy in GeV
    171.3    = ebeam2  ! beam 2 energy in GeV
    0.000511  = mbeam1  ! beam 1 energy in GeV
    171.3    = mbeam2  ! beam 2 energy in GeV
#*********************************************************************
# Beam polarization from -100 (left-handed) to 100 (right-handed)    *
#*********************************************************************
        0     = polbeam1 ! beam polarization for beam 1
        0     = polbeam2 ! beam polarization for beam 2
#*********************************************************************
# PDF CHOICE: this automatically fixes also alpha_s and its evol.    *
#*********************************************************************
 'cteq6l1'    = pdlabel     ! PDF set                                     
#*********************************************************************
# Renormalization and factorization scales                           *
#*********************************************************************
 F        = fixed_ren_scale  ! if .true. use fixed ren scale
 F        = fixed_fac_scale  ! if .true. use fixed fac scale
 91.1880  = scale            ! fixed ren scale
 91.1880  = dsqrt_q2fact1    ! fixed fact scale for pdf1
 91.1880  = dsqrt_q2fact2    ! fixed fact scale for pdf2
 1        = scalefact        ! scale factor for event-by-event scales
 F        = fixed_couplings  ! if .false. calc. coupl. for every event
#*********************************************************************
# Matching - Warning! ickkw > 0 is still beta
#*********************************************************************
 0        = ickkw            ! 0 no matching, 1 MLM, 2 CKKW matching
#*********************************************************************
#                                                                    
#**********************************
32.9311829414 = bwcutoff*Gamma)
#**********************************
32.9311829414 = bwcutoff
#*******************                                                 
# Fixed-Target Cuts
#*******************                                                 
#
 0.0 = ef        ! minimum E for all f's
 100.0 = efmax     ! maximum E for all f's
 0.0 = thetafmin ! min angle for both f's
 100.0 = thetafmax ! max angle for both f's
 0.0 = thetaxfmin ! min angle (x direction) for both f's
 100.0 = thetaxfmax ! max angle (x direction) for both f's 
 0.0 = thetayfmin ! min angle (y direction) for both f's
 100.0 = thetayfmax ! max angle (y direction) for both f's 
 0.0 = xthetaxfmin ! min angle (x direction) for >=1 f's
 100.0 = xthetaxfmax ! max angle (x direction) for >=1 f's 
 0.0 = xthetayfmin ! min angle (y direction) for >=1 f's
 100.0 = xthetayfmax ! max angle (y direction) for >=1 f's 
 0.0 = mmff      ! min invariant mass of f+f- lepton pair
 100.0 = mmffmax  ! max invariant mass of f+f- lepton pair
 0.0 = xef       ! min. energy for at least one f
 0.0 = xthetaf   ! minimum angle for at least one f
 0.0 = eftot     ! minimum energy for the two f's
 0d0 = efrat     ! min. ratio Emin/Emax for the two f's
 0.0  = el     !!! 0.2 = el  !!! was 0.05 with normal cuts! minimum E for the charged leptons 
 0.0  = drll  !!! was 0.1  ! min distance between leptons 
 0.0  = mmll    ! min invariant mass of l+l- (same flavour) lepton pair
#
#*******************                                                 
# Standard Cuts
#*******************                                                 
#                                                                    
#*********************************************************************
# Minimum and maximum pt's                                           *
#*********************************************************************
  0  = ptj       ! minimum pt for the jets 
  0  = ptb       ! minimum pt for the b 
  0  = pta       ! minimum pt for the photons 
  0  = ptl       ! minimum pt for the charged leptons 
  0  = misset    ! minimum missing Et (sum of neutrino's momenta)
  0  = ptheavy   ! minimum pt for one heavy final state
 1.0 = ptonium   ! minimum pt for the quarkonium states
 1d5 = ptjmax    ! maximum pt for the jets
 1d5 = ptbmax    ! maximum pt for the b
 1d5 = ptamax    ! maximum pt for the photons
 1d9 = ptlmax    ! maximum pt for the charged leptons
 1d9 = missetmax ! maximum missing Et (sum of neutrino's momenta)
#*********************************************************************
# Minimum and maximum E's (in the lab frame)                         *
#*********************************************************************
  0  = ej     ! minimum E for the jets 
  0  = eb     ! minimum E for the b 
  0  = ea     ! minimum E for the photons 
 1d5  = ejmax ! maximum E for the jets
 1d5  = ebmax ! maximum E for the b
 1d5  = eamax ! maximum E for the photons
 1.2  = elmax ! maximum E for the charged leptons
#*********************************************************************
# Maximum and minimum rapidity                                       *
#*********************************************************************
 1d5  = etaj    ! max rap for the jets 
 1d5  = etab    ! max rap for the b 
 1d5  = etaa    ! max rap for the photons 
 1d5  = etal     !!! 1(2) wth cuts ! max rap for the charged leptons 
 1d5  = etafl     !!! 0(1) wth cuts ! max rap for the charged leptons 
 0.0  = etaonium ! max rap for the quarkonium states
 0d0  = etajmin ! min rap for the jets
 0d0  = etabmin ! min rap for the b
 0d0  = etaamin ! min rap for the photons
 0d0  = etalmin ! main rap for the charged lepton
#*********************************************************************
# Minimum and maximum DeltaR distance                                *
#*********************************************************************
 0   = drjj    ! min distance between jets 
 0   = drbb    ! min distance between b's 
 0   = draa    ! min distance between gammas 
 0   = drbj    ! min distance between b and jet 
 0   = draj    ! min distance between gamma and jet 
 0   = drjl    ! min distance between jet and lepton 
 0   = drab    ! min distance between gamma and b 
 0   = drbl    ! min distance between b and lepton 
 0   = dral    ! min distance between gamma and lepton 
 1d2 = drjjmax ! max distance between jets
 1d2 = drbbmax ! max distance between b's
 1d9 = drllmax ! max distance between leptons
 1d2 = draamax ! max distance between gammas
 1d2 = drbjmax ! max distance between b and jet
 1d2 = drajmax ! max distance between gamma and jet
 1d2 = drjlmax ! max distance between jet and lepton
 1d2 = drabmax ! max distance between gamma and b
 1d2 = drblmax ! max distance between b and lepton
 1d2 = dralmax ! maxdistance between gamma and lepton
#*********************************************************************
# Minimum and maximum invariant mass for pairs                       *
#*********************************************************************
 0   = mmjj    ! min invariant mass of a jet pair 
 0   = mmbb    ! min invariant mass of a b pair 
 0   = mmaa    ! min invariant mass of gamma gamma pair
 1d5 = mmjjmax ! max invariant mass of a jet pair
 1d5 = mmbbmax ! max invariant mass of a b pair
 1d5 = mmaamax ! max invariant mass of gamma gamma pair
 1d5 = mmllmax ! max invariant mass of l+l- (same flavour) lepton pair
#*********************************************************************
# Minimum and maximum invariant mass for all letpons                 *
#*********************************************************************
 0   = mmnl    ! min invariant mass for all letpons (l+- and vl) 
 1d9 = mmnlmax ! max invariant mass for all letpons (l+- and vl) 
#*********************************************************************
# Inclusive cuts                                                     *
#*********************************************************************
 0  = xptj ! minimum pt for at least one jet  
 0  = xptb ! minimum pt for at least one b 
 0  = xpta ! minimum pt for at least one photon 
 0  = xptl ! minimum pt for at least one charged lepton 
#*********************************************************************
# Control the pt's of the jets sorted by pt                          *
#*********************************************************************
 0   = ptj1min ! minimum pt for the leading jet in pt
 0   = ptj2min ! minimum pt for the second jet in pt
 0   = ptj3min ! minimum pt for the third jet in pt
 0   = ptj4min ! minimum pt for the fourth jet in pt
 1d5 = ptj1max ! maximum pt for the leading jet in pt 
 1d5 = ptj2max ! maximum pt for the second jet in pt
 1d5 = ptj3max ! maximum pt for the third jet in pt
 1d5 = ptj4max ! maximum pt for the fourth jet in pt
 0   = cutuse  ! reject event if fails any (0) / all (1) jet pt cuts
#*********************************************************************
# Control the Ht(k)=Sum of k leading jets                            *
#*********************************************************************
 0   = htjmin ! minimum jet HT=Sum(jet pt)
 1d5 = htjmax ! maximum jet HT=Sum(jet pt)
 0   = ht2min ! minimum Ht for the two leading jets
 0   = ht3min ! minimum Ht for the three leading jets
 0   = ht4min ! minimum Ht for the four leading jets
 1d5 = ht2max ! maximum Ht for the two leading jets
 1d5 = ht3max ! maximum Ht for the three leading jets
 1d5 = ht4max ! maximum Ht for the four leading jets
#*********************************************************************
# WBF cuts                                                           *
#*********************************************************************
 0   = xetamin ! minimum rapidity for two jets in the WBF case  
 0   = deltaeta ! minimum rapidity for two jets in the WBF case 
#*********************************************************************
# maximal pdg code for quark to be considered as a jet               *
# otherwise b cuts are applied                                       *
#*********************************************************************
 4 = maxjetflavor
#*********************************************************************
# Jet measure cuts                                                   *
#*********************************************************************
 0   = xqcut   ! minimum kt jet measure between partons
#*********************************************************************
</MGRunCard>
<MGGenerationInfo>
#  Number of Events        :        1000
#  Integrated weight (pb)  :  .32941E+13
#  Truncated wgt (pb)      :  .31553E+10
#  Unit wgt                :  .32941E+10
</MGGenerationInfo>
</header>
<init>
       11     -623  0.40000000000E+01  0.17130000000E+03 0 0     0     0 3  1
  0.32940759650E+13  0.32308764261E+11  0.32941000000E+10   0
</init>
<event>
 5   0  0.3294100E+10  0.9118800E+02  0.7818608E-02  0.1180000E+00
       11   -1    0    0    0    0  0.00000000000E+00  0.00000000000E+00  0.39999999673E+01  0.40000000000E+01  0.51109989000E-03 0.  1.
     -623   -1    0    0    0    0  0.00000000000E+00  0.00000000000E+00  0.12525980253E-10  0.17130000000E+03  0.17130000000E+03 0. -1.
       11    1    1    2    0    0 -0.20709481015E-02  0.25410662109E-02  0.30893369866E+00  0.30895151275E+00  0.51109989000E-03 0.  1.
     -623    1    1    2    0    0 -0.20831908657E-03 -0.73618269127E-05  0.20574113754E-04  0.17130000000E+03  0.17130000000E+03 0. -1.
      622    1    1    2    0    0  0.22792671887E-02 -0.25337043840E-02  0.36910457077E+01  0.36910485002E+01  0.30000000000E-02 0.  1.
</event>
<event>
 5   0  0.3294100E+10  0.9118800E+02  0.7818608E-02  0.1180000E+00
       11   -1    0    0    0    0  0.00000000000E+00  0.00000000000E+00  0.39999999673E+01  0.40000000000E+01  0.51109989000E-03 0. -1.
     -623   -1    0    0    0    0  0.00000000000E+00  0.00000000000E+00  0.12525980253E-10  0.17130000000E+03  0.17130000000E+03 0. -1.
       11    1    1    2    0    0  0.54018939137E-03 -0.66267055392E-05  0.78578834850E+00  0.78578870042E+00  0.51109989000E-03 0. -1.
     -623    1    1    2    0    0  0.72611418526E-04  0.14804823401E-03  0.17809206567E-05  0.17130000000E+03  0.17130000000E+03 0. -1.
      622    1    1    2    0    0 -0.61280081512E-03 -0.14142153912E-03  0.32142101257E+01  0.32142115873E+01  0.30000000000E-02 0. -1.
</event>
<event>
 5   0  0.3294100E+10  0.9118800E+02  0.7818608E-02  0.1180000E+00
       11   -1    0    0    0    0  0.00000000000E+00  0.00000000000E+00  0.39999999673E+01  0.40000000000E+01  0.51109989000E-03 0. -1.
     -623   -1    0    0    0    0  0.00000000000E+00  0.00000000000E+00  0.12525980253E-10  0.17130000000E+03  0.17130000000E+03 0.  1.
       11    1    1    2    0    0 -0.15110086589E-02 -0.20046441917E-02  0.44581056582E+00  0.44581792647E+00  0.51109989000E-03 0. -1.
     -623    1    1    2    0    0  0.58814645658E-03  0.52990439182E-02  0.10323715711E-04  0.17130000008E+03  0.17130000000E+03 0.  1.
      622    1    1    2    0    0  0.92286219763E-03 -0.32943997690E-02  0.35541791098E+01  0.35541820226E+01  0.30000000000E-02 0. -1.
</event>
<event>
 5   0  0.3294100E+10  0.9118800E+02  0.7818608E-02  0.1180000E+00
       11   -1    0    0    0    0  0.00000000000E+00  0.00000000000E+00  0.39999999673E+01  0.40000000000E+01  0.51109989000E-03 0.  1.
     -623   -1    0    0    0    0  0.00000000000E+00  0.00000000000E+00  0.12525980253E-10  0.17130000000E+03  0.17130000000E+03 0. -1.
       11    1    1    2    0    0 -0.18350886101E-02  0.25405691968E-02  0.27231650501E+00  0.27233501824E+00  0.51109989000E-03 0.  1.
     -623    1    1    2    0    0  0.10721613669E-02 -0.38270015130E-02  0.20033942628E-04  0.17130000005E+03  0.17130000000E+03 0. -1.
      622    1    1    2    0    0  0.76292724316E-03  0.12864323162E-02  0.37276634284E+01  0.37276649356E+01  0.30000000000E-02 0.  1.
</event>
<event>
 5   0  0.3294100E+10  0.9118800E+02  0.7818608E-02  0.1180000E+00
       11   -1    0    0    0    0  0.00000000000E+00  0.00000000000E+00  0.39999999673E+01  0.40000000000E+01  0.51109989000E-03 0.  1.
     -623   -1    0    0    0    0  0.00000000000E+00  0.00000000000E+00  0.12525980253E-10  0.17130000000E+03  0.17130000000E+03 0.  1.
       11    1    1    2    0    0 -0.25009786763E-02 -0.20692661383E-02  0.34997870233E+00  0.34999412861E+00  0.51109989000E-03 0.  1.
     -623    1    1    2    0    0  0.50962509990E-04 -0.84837711902E-04  0.18084454343E-04  0.17130000000E+03  0.17130000000E+03 0.  1.
      622    1    1    2    0    0  0.24500161663E-02  0.21541038502E-02  0.36500031806E+01  0.36500058714E+01  0.30000000000E-02 0.  1.
</event>
<event>
 5   0  0.3294100E+10  0.9118800E+02  0.7818608E-02  0.1180000E+00
       11   -1    0    0    0    0  0.00000000000E+00  0.00000000000E+00  0.39999999673E+01  0.40000000000E+01  0.51109989000E-03 0. -1.
     -623   -1    0    0    0    0  0.00000000000E+00  0.00000000000E+00  0.12525980253E-10  0.17130000000E+03  0.17130000000E+03 0.  1.
       11    1    1    2    0    0  0.22668167389E-02  0.18598026531E-03  0.23313271196E+00  0.23314436655E+00  0.51109989000E-03 0. -1.
     -623    1    1    2    0    0 -0.31196892551E-03 -0.32659751475E-03  0.13327048864E-04  0.17130000000E+03  0.17130000000E+03 0.  1.
      622    1    1    2    0    0 -0.19548478136E-02  0.14061724920E-03  0.37668539254E+01  0.37668556299E+01  0.30000000000E-02 0. -1.
</event>
<event>
 5   0  0.3294100E+10  0.9118800E+02  0.7818608E-02  0.1180000E+00
       11   -1    0    0    0    0  0.00000000000E+00  0.00000000000E+00  0.39999999673E+01  0.40000000000E+01  0.51109989000E-03 0.  1.
     -623   -1    0    0    0    0  0.00000000000E+00  0.00000000000E+00  0.12525980253E-10  0.17130000000E+03  0.17130000000E+03 0. -1.
       11    1    1    2    0    0 -0.13118778189E-01  0.66480196032E-03  0.33560403901E+00  0.33586139481E+00  0.51109989000E-03 0.  1.
     -623    1    1    2    0    0  0.10856515648E-01  0.18761889622E-02  0.26048520953E-03  0.17130000035E+03  0.17130000000E+03 0. -1.
      622    1    1    2    0    0  0.22622625400E-02 -0.25409909225E-02  0.36641354433E+01  0.36641382508E+01  0.30000000000E-02 0.  1.
</event>
<event>
 5   0  0.3294100E+10  0.9118800E+02  0.7818608E-02  0.1180000E+00
       11   -1    0    0    0    0  0.00000000000E+00  0.00000000000E+00  0.39999999673E+01  0.40000000000E+01  0.51109989000E-03 0.  1.
     -623   -1    0    0    0    0  0.00000000000E+00  0.00000000000E+00  0.12525980253E-10  0.17130000000E+03  0.17130000000E+03 0. -1.
       11    1    1    2    0    0  0.40684033107E-03  0.60536612797E-04  0.25220441471E-02  0.26059764991E-02  0.51109989000E-03 0.  1.
     -623    1    1    2    0    0 -0.58698614756E-03 -0.95740622932E-04  0.85030713223E-04  0.17130000000E+03  0.17130000000E+03 0. -1.
      622    1    1    2    0    0  0.18014581671E-03  0.35204010171E-04  0.39973928940E+01  0.39973940239E+01  0.30000000000E-02 0.  1.
</event>
<event>
 5   0  0.3294100E+10  0.9118800E+02  0.7818608E-02  0.1180000E+00
       11   -1    0    0    0    0  0.00000000000E+00  0.00000000000E+00  0.39999999673E+01  0.40000000000E+01  0.51109989000E-03 0.  1.
     -623   -1    0    0    0    0  0.00000000000E+00  0.00000000000E+00  0.12525980253E-10  0.17130000000E+03  0.17130000000E+03 0. -1.
       11    1    1    2    0    0 -0.24191576244E-02 -0.76051996153E-03  0.90822985057E+00  0.90823353462E+00  0.51109989000E-03 0.  1.
     -623    1    1    2    0    0  0.14310770292E-01 -0.20131978821E-03  0.28723374048E-04  0.17130000060E+03  0.17130000000E+03 0. -1.
      622    1    1    2    0    0 -0.11891612476E-01  0.96183974705E-03  0.30917413399E+01  0.30917658140E+01  0.30000000000E-02 0.  1.
</event>
<event>
 5   0  0.3294100E+10  0.9118800E+02  0.7818608E-02  0.1180000E+00
       11   -1    0    0    0    0  0.00000000000E+00  0.00000000000E+00  0.39999999673E+01  0.40000000000E+01  0.51109989000E-03 0. -1.
     -623   -1    0    0    0    0  0.00000000000E+00  0.00000000000E+00  0.12525980253E-10  0.17130000000E+03  0.17130000000E+03 0.  1.
       11    1    1    2    0    0 -0.13839343557E-03 -0.19274091726E-02  0.30370446118E+00  0.30371103869E+00  0.51109989000E-03 0. -1.
     -623    1    1    2    0    0  0.11305087084E-02  0.12810180960E-02  0.79604906040E-05  0.17130000001E+03  0.17130000000E+03 0.  1.
      622    1    1    2    0    0 -0.99211527283E-03  0.64639107665E-03  0.36962875457E+01  0.36962889528E+01  0.30000000000E-02 0. -1.
</event>
<event>
 5   0  0.3294100E+10  0.9118800E+02  0.7818608E-02  0.1180000E+00
       11   -1    0    0    0    0  0.00000000000E+00  0.00000000000E+00  0.39999999673E+01  0.40000000000E+01  0.51109989000E-03 0. -1.
     -623   -1    0    0    0    0  0.00000000000E+00  0.00000000000E+00  0.12525980253E-10  0.17130000000E+03  0.17130000000E+03 0. -1.
       11    1    1    2    0    0 -0.31189680428E-02 -0.31860365859E-02  0.56579676314E+00  0.56581456078E+00  0.51109989000E-03 0. -1.
     -623    1    1    2    0    0 -0.11699056638E-02  0.77608369749E-04  0.23164296733E-04  0.17130000000E+03  0.17130000000E+03 0. -1.
      622    1    1    2    0    0  0.42888737067E-02  0.31084282161E-02  0.34341800399E+01  0.34341854352E+01  0.30000000000E-02 0. -1.
</event>
<event>
 5   0  0.3294100E+10  0.9118800E+02  0.7818608E-02  0.1180000E+00
       11   -1    0    0    0    0  0.00000000000E+00  0.00000000000E+00  0.39999999673E+01  0.40000000000E+01  0.51109989000E-03 0.  1.
     -623   -1    0    0    0    0  0.00000000000E+00  0.00000000000E+00  0.12525980253E-10  0.17130000000E+03  0.17130000000E+03 0. -1.
       11    1    1    2    0    0  0.12283042192E-02  0.14492643913E-02  0.10029583776E+00  0.10031513044E+00  0.51109989000E-03 0.  1.
     -623    1    1    2    0    0  0.72502145549E-04 -0.42168994410E-04  0.20884802753E-04  0.17130000000E+03  0.17130000000E+03 0. -1.
      622    1    1    2    0    0 -0.13008063644E-02 -0.14070953970E-02  0.38996832296E+01  0.38996848543E+01  0.30000000000E-02 0.  1.
</event>
<event>
 5   0  0.3294100E+10  0.9118800E+02  0.7818608E-02  0.1180000E+00
       11   -1    0    0    0    0  0.00000000000E+00  0.00000000000E+00  0.39999999673E+01  0.40000000000E+01  0.51109989000E-03 0.  1.
     -623   -1    0    0    0    0  0.00000000000E+00  0.00000000000E+00  0.12525980253E-10  0.17130000000E+03  0.17130000000E+03 0. -1.
       11    1    1    2    0    0  0.18971241041E-02  0.70119192881E-03  0.51700045939E+00  0.51700466824E+00  0.51109989000E-03 0.  1.
     -623    1    1    2    0    0 -0.14571273383E-04 -0.26138092351E-04  0.60423799053E-05  0.17130000000E+03  0.17130000000E+03 0. -1.
      622    1    1    2    0    0 -0.18825528308E-02 -0.67505383646E-03  0.34829934656E+01  0.34829953318E+01  0.30000000000E-02 0.  1.
</event>
<event>
 5   0  0.3294100E+10  0.9118800E+02  0.7818608E-02  0.1180000E+00
       11   -1    0    0    0    0  0.00000000000E+00  0.00000000000E+00  0.39999999673E+01  0.40000000000E+01  0.51109989000E-03 0. -1.
     -623   -1    0    0    0    0  0.00000000000E+00  0.00000000000E+00  0.12525980253E-10  0.17130000000E+03  0.17130000000E+03 0. -1.
       11    1    1    2    0    0  0.27097528354E-03 -0.10849729122E-02  0.68467750189E-02  0.69563025439E-02  0.51109989000E-03 0. -1.
     -623    1    1    2    0    0  0.56467122392E-03  0.40596556567E-03  0.11076846435E-03  0.17130000000E+03  0.17130000000E+03 0. -1.
      622    1    1    2    0    0 -0.83564650784E-03  0.67900734625E-03  0.39930424266E+01  0.39930436987E+01  0.30000000000E-02 0. -1.
</event>
<event>
 5   0  0.3294100E+10  0.9118800E+02  0.7818608E-02  0.1180000E+00
       11   -1    0    0    0    0  0.00000000000E+00  0.00000000000E+00  0.39999999673E+01  0.40000000000E+01  0.51109989000E-03 0. -1.
     -623   -1    0    0    0    0  0.00000000000E+00  0.00000000000E+00  0.12525980253E-10  0.17130000000E+03  0.17130000000E+03 0.  1.
       11    1    1    2    0    0 -0.14983733011E-02  0.22917672737E-03  0.14196727212E+00  0.14197628400E+00  0.51109989000E-03 0. -1.
     -623    1    1    2    0    0  0.19228257966E-02 -0.62918050140E-03  0.10201681356E-04  0.17130000001E+03  0.17130000000E+03 0.  1.
      622    1    1    2    0    0 -0.42445250018E-03  0.40000377557E-03  0.38580225033E+01  0.38580237138E+01  0.30000000000E-02 0. -1.
</event>
<event>
 5   0  0.3294100E+10  0.9118800E+02  0.7818608E-02  0.1180000E+00
       11   -1    0    0    0    0  0.00000000000E+00  0.00000000000E+00  0.39999999673E+01  0.40000000000E+01  0.51109989000E-03 0.  1.
     -623   -1    0    0    0    0  0.00000000000E+00  0.00000000000E+00  0.12525980253E-10  0.17130000000E+03  0.17130000000E+03 0. -1.
       11    1    1    2    0    0  0.17925523819E-03  0.27673482278E-02  0.37355631842E+00  0.37356696133E+00  0.51109989000E-03 0.  1.
     -623    1    1    2    0    0 -0.15530070856E-03  0.50020929907E-05  0.12911023830E-04  0.17130000000E+03  0.17130000000E+03 0. -1.
      622    1    1    2    0    0 -0.23954529624E-04 -0.27723503208E-02  0.36264307379E+01  0.36264330386E+01  0.30000000000E-02 0.  1.
</event>
<event>
 5   0  0.3294100E+10  0.9118800E+02  0.7818608E-02  0.1180000E+00
       11   -1    0    0    0    0  0.00000000000E+00  0.00000000000E+00  0.39999999673E+01  0.40000000000E+01  0.51109989000E-03 0. -1.
     -623   -1    0    0    0    0  0.00000000000E+00  0.00000000000E+00  0.12525980253E-10  0.17130000000E+03  0.17130000000E+03 0.  1.
       11    1    1    2    0    0  0.32251935168E-02 -0.33022663778E-02  0.40788383153E+00  0.40791026964E+00  0.51109989000E-03 0. -1.
     -623    1    1    2    0    0  0.82364755131E-03 -0.54857725584E-03  0.32007046395E-04  0.17130000000E+03  0.17130000000E+03 0.  1.
      622    1    1    2    0    0 -0.40488410681E-02  0.38508436336E-02  0.35920841288E+01  0.35920897275E+01  0.30000000000E-02 0. -1.
</event>
<event>
 5   0  0.3294100E+10  0.9118800E+02  0.7818608E-02  0.1180000E+00
       11   -1    0    0    0    0  0.00000000000E+00  0.00000000000E+00  0.39999999673E+01  0.40000000000E+01  0.51109989000E-03 0.  1.
     -623   -1    0    0    0    0  0.00000000000E+00  0.00000000000E+00  0.12525980253E-10  0.17130000000E+03  0.17130000000E+03 0. -1.
       11    1    1    2    0    0  0.18844976036E-02  0.25221112311E-03  0.11608181265E+01  0.11608197961E+01  0.51109989000E-03 0.  1.
     -623    1    1    2    0    0 -0.65829285478E-03  0.17363929341E-02  0.41931876122E-05  0.17130000001E+03  0.17130000000E+03 0. -1.
      622    1    1    2    0    0 -0.12262047284E-02 -0.19886041113E-02  0.28391777722E+01  0.28391803184E+01  0.30000000000E-02 0.  1.
</event>
<event>
 5   0  0.3294100E+10  0.9118800E+02  0.7818608E-02  0.1180000E+00
       11   -1    0    0    0    0  0.00000000000E+00  0.00000000000E+00  0.39999999673E+01  0.40000000000E+01  0.51109989000E-03 0. -1.
     -623   -1    0    0    0    0  0.00000000000E+00  0.00000000000E+00  0.12525980253E-10  0.17130000000E+03  0.17130000000E+03 0. -1.
       11    1    1    2    0    0  0.43475692501E-03  0.88088242679E-03  0.14340294239E+00  0.14340721765E+00  0.51109989000E-03 0. -1.
     -623    1    1    2    0    0  0.26567180037E-04 -0.51015159802E-04  0.55263494705E-05  0.17130000000E+03  0.17130000000E+03 0. -1.
      622    1    1    2    0    0 -0.46132410496E-03 -0.82986726715E-03  0.38565914856E+01  0.38565927693E+01  0.30000000000E-02 0. -1.
</event>
<event>
 5   0  0.3294100E+10  0.9118800E+02  0.7818608E-02  0.1180000E+00
       11   -1    0    0    0    0  0.00000000000E+00  0.00000000000E+00  0.39999999673E+01  0.40000000000E+01  0.51109989000E-03 0. -1.
     -623   -1    0    0    0    0  0.00000000000E+00  0.00000000000E+00  0.12525980253E-10  0.17130000000E+03  0.17130000000E+03 0.  1.
       11    1    1    2    0    0 -0.39921417598E-02  0.26817250470E-02  0.11061431033E+01  0.11061536761E+01  0.51109989000E-03 0. -1.
     -623    1    1    2    0    0  0.13934285118E-03 -0.20285301020E-03  0.15721783640E-04  0.17130000000E+03  0.17130000000E+03 0.  1.
      622    1    1    2    0    0  0.38527989086E-02 -0.24788720368E-02  0.28938411422E+01  0.28938463237E+01  0.30000000000E-02 0.  0.
</event>
<event>
 5   0  0.3294100E+10  0.9118800E+02  0.7818608E-02  0.1180000E+00
       11   -1    0    0    0    0  0.00000000000E+00  0.00000000000E+00  0.39999999673E+01  0.40000000000E+01  0.51109989000E-03 0.  1.
     -623   -1    0    0    0    0  0.00000000000E+00  0.00000000000E+00  0.12525980253E-10  0.17130000000E+03  0.17130000000E+03 0.  1.
       11    1    1    2    0    0 -0.82888825950E-03  0.27964033265E-03  0.59559956882E-01  0.59568573437E-01  0.51109989000E-03 0.  1.
     -623    1    1    2    0    0  0.18740087822E-04  0.32315671229E-04  0.98215577120E-05  0.17130000000E+03  0.17130000000E+03 0.  1.
      622    1    1    2    0    0  0.81014817149E-03 -0.31195600420E-03  0.39404302285E+01  0.39404314661E+01  0.30000000000E-02 0.  1.
</event>
<event>
 5   0  0.3294100E+10  0.9118800E+02  0.7818608E-02  0.1180000E+00
       11   -1    0    0    0    0  0.00000000000E+00  0.00000000000E+00  0.39999999673E+01  0.40000000000E+01  0.51109989000E-03 0. -1.
     -623   -1    0    0    0    0  0.00000000000E+00  0.00000000000E+00  0.12525980253E-10  0.17130000000E+03  0.17130000000E+03 0. -1.
       11    1    1    2    0    0 -0.11697292752E-02 -0.13392162102E-02  0.89829227085E+00  0.89829417612E+00  0.51109989000E-03 0. -1.
     -623    1    1    2    0    0 -0.21667166497E-02  0.39388813917E-03  0.52761392282E-05  0.17130000001E+03  0.17130000000E+03 0. -1.
      622    1    1    2    0    0  0.33364459150E-02  0.94532807283E-03  0.31017024020E+01  0.31017057914E+01  0.30000000000E-02 0. -1.
</event>
<event>
 5   0  0.3294100E+10  0.9118800E+02  0.7818608E-02  0.1180000E+00
       11   -1    0    0    0    0  0.00000000000E+00  0.00000000000E+00  0.39999999673E+01  0.40000000000E+01  0.51109989000E-03 0.  1.
     -623   -1    0    0    0    0  0.00000000000E+00  0.00000000000E+00  0.12525980253E-10  0.17130000000E+03  0.17130000000E+03 0. -1.
       11    1    1    2    0    0 -0.64450630218E-03  0.17329935047E-03  0.24962693007E+00  0.24962834546E+00  0.51109989000E-03 0.  1.
     -623    1    1    2    0    0  0.14759079985E-02 -0.35477692542E-03  0.26859087696E-05  0.17130000001E+03  0.17130000000E+03 0. -1.
      622    1    1    2    0    0 -0.83140165975E-03  0.18147756617E-03  0.37503702523E+01  0.37503715487E+01  0.30000000000E-02 0.  1.
</event>
<event>
 5   0  0.3294100E+10  0.9118800E+02  0.7818608E-02  0.1180000E+00
       11   -1    0    0    0    0  0.00000000000E+00  0.00000000000E+00  0.39999999673E+01  0.40000000000E+01  0.51109989000E-03 0.  1.
     -623   -1    0    0    0    0  0.00000000000E+00  0.00000000000E+00  0.12525980253E-10  0.17130000000E+03  0.17130000000E+03 0.  1.
       11    1    1    2    0    0  0.66909734384E-03 -0.20717277796E-02  0.74857684709E+00  0.74858018740E+00  0.51109989000E-03 0.  1.
     -623    1    1    2    0    0 -0.81339333725E-04  0.17464347571E-03  0.52983548597E-05  0.17130000000E+03  0.17130000000E+03 0.  1.
      622    1    1    2    0    0 -0.58775801062E-03  0.18970843050E-02  0.32514177969E+01  0.32514197875E+01  0.30000000000E-02 0.  0.
</event>
<event>
 5   0  0.3294100E+10  0.9118800E+02  0.7818608E-02  0.1180000E+00
       11   -1    0    0    0    0  0.00000000000E+00  0.00000000000E+00  0.39999999673E+01  0.40000000000E+01  0.51109989000E-03 0.  1.
     -623   -1    0    0    0    0  0.00000000000E+00  0.00000000000E+00  0.12525980253E-10  0.17130000000E+03  0.17130000000E+03 0.  1.
       11    1    1    2    0    0  0.58345058361E-03 -0.15189323613E-02  0.10191257132E+00  0.10192684133E+00  0.51109989000E-03 0.  1.
     -623    1    1    2    0    0 -0.30076263571E-03 -0.17961163664E-03  0.15772461281E-04  0.17130000000E+03  0.17130000000E+03 0.  1.
      622    1    1    2    0    0 -0.28268794790E-03  0.16985439979E-02  0.38980716236E+01  0.38980731583E+01  0.30000000000E-02 0.  1.
</event>
<event>
 5   0  0.3294100E+10  0.9118800E+02  0.7818608E-02  0.1180000E+00
       11   -1    0    0    0    0  0.00000000000E+00  0.00000000000E+00  0.39999999673E+01  0.40000000000E+01  0.51109989000E-03 0. -1.
     -623   -1    0    0    0    0  0.00000000000E+00  0.00000000000E+00  0.12525980253E-10  0.17130000000E+03  0.17130000000E+03 0.  1.
       11    1    1    2    0    0 -0.11573145043E-03  0.11396435035E-02  0.29851309418E+00  0.29851572957E+00  0.51109989000E-03 0. -1.
     -623    1    1    2    0    0 -0.24108456458E-04 -0.14696234291E-04  0.39920689261E-05  0.17130000000E+03  0.17130000000E+03 0.  1.
      622    1    1    2    0    0  0.13983990730E-03 -0.11249472689E-02  0.37014829510E+01  0.37014843403E+01  0.30000000000E-02 0. -1.
</event>
<event>
 5   0  0.3294100E+10  0.9118800E+02  0.7818608E-02  0.1180000E+00
       11   -1    0    0    0    0  0.00000000000E+00  0.00000000000E+00  0.39999999673E+01  0.40000000000E+01  0.51109989000E-03 0. -1.
     -623   -1    0    0    0    0  0.00000000000E+00  0.00000000000E+00  0.12525980253E-10  0.17130000000E+03  0.17130000000E+03 0.  1.
       11    1    1    2    0    0 -0.43861040326E-02  0.50569796275E-04  0.99470346491E+00  0.99471326762E+00  0.51109989000E-03 0. -1.
     -623    1    1    2    0    0  0.57615284835E-04  0.77691876084E-04  0.14387347868E-04  0.17130000000E+03  0.17130000000E+03 0.  1.
      622    1    1    2    0    0  0.43284887478E-02 -0.12826167236E-03  0.30052821151E+01  0.30052867323E+01  0.30000000000E-02 0. -1.
</event>
<event>
 5   0  0.3294100E+10  0.9118800E+02  0.7818608E-02  0.1180000E+00
       11   -1    0    0    0    0  0.00000000000E+00  0.00000000000E+00  0.39999999673E+01  0.40000000000E+01  0.51109989000E-03 0. -1.
     -623   -1    0    0    0    0  0.00000000000E+00  0.00000000000E+00  0.12525980253E-10  0.17130000000E+03  0.17130000000E+03 0.  1.
       11    1    1    2    0    0 -0.74331107588E-04  0.25099160767E-03  0.24433939959E+00  0.24434007435E+00  0.51109989000E-03 0. -1.
     -623    1    1    2    0    0  0.11839580695E-03 -0.97044583094E-04  0.18438010807E-05  0.17130000000E+03  0.17130000000E+03 0.  1.
      622    1    1    2    0    0 -0.44064703434E-04 -0.15394702124E-03  0.37556588617E+01  0.37556600633E+01  0.30000000000E-02 0. -1.
</event>
<event>
 5   0  0.3294100E+10  0.9118800E+02  0.7818608E-02  0.1180000E+00
       11   -1    0    0    0    0  0.00000000000E+00  0.00000000000E+00  0.39999999673E+01  0.40000000000E+01  0.51109989000E-03 0.  1.
     -623   -1    0    0    0    0  0.00000000000E+00  0.00000000000E+00  0.12525980253E-10  0.17130000000E+03  0.17130000000E+03 0. -1.
       11    1    1    2    0    0  0.17525240174E-02 -0.13792522459E-02  0.10304438446E+00  0.10306978252E+00  0.51109989000E-03 0.  1.
     -623    1    1    2    0    0  0.86998799108E-04  0.37700139588E-03  0.27083668200E-04  0.17130000000E+03  0.17130000000E+03 0. -1.
      622    1    1    2    0    0 -0.18395228166E-02  0.10022508497E-02  0.38969285019E+01  0.38969302197E+01  0.30000000000E-02 0.  1.
</event>
<event>
 5   0  0.3294100E+10  0.9118800E+02  0.7818608E-02  0.1180000E+00
       11   -1    0    0    0    0  0.00000000000E+00  0.00000000000E+00  0.39999999673E+01  0.40000000000E+01  0.51109989000E-03 0.  1.
     -623   -1    0    0    0    0  0.00000000000E+00  0.00000000000E+00  0.12525980253E-10  0.17130000000E+03  0.17130000000E+03 0.  1.
       11    1    1    2    0    0  0.15006902634E-02 -0.21909916550E-03  0.29834116396E+00  0.29834545650E+00  0.51109989000E-03 0.  1.
     -623    1    1    2    0    0 -0.52883812962E-04 -0.87698627781E-04  0.57714481740E-05  0.17130000000E+03  0.17130000000E+03 0.  1.
      622    1    1    2    0    0 -0.14478064505E-02  0.30679779328E-03  0.37016530320E+01  0.37016545435E+01  0.30000000000E-02 0.  1.
</event>
<event>
 5   0  0.3294100E+10  0.9118800E+02  0.7818608E-02  0.1180000E+00
       11   -1    0    0    0    0  0.00000000000E+00  0.00000000000E+00  0.39999999673E+01  0.40000000000E+01  0.51109989000E-03 0. -1.
     -623   -1    0    0    0    0  0.00000000000E+00  0.00000000000E+00  0.12525980253E-10  0.17130000000E+03  0.17130000000E+03 0. -1.
       11    1    1    2    0    0 -0.15129631398E-02  0.23720463494E-02  0.19371375052E+00  0.19373485496E+00  0.51109989000E-03 0. -1.
     -623    1    1    2    0    0 -0.79465236752E-04 -0.76605313667E-04  0.23279358587E-04  0.17130000000E+03  0.17130000000E+03 0. -1.
      622    1    1    2    0    0  0.15924283765E-02 -0.22954410357E-02  0.38062629375E+01  0.38062651450E+01  0.30000000000E-02 0. -1.
</event>
<event>
 5   0  0.3294100E+10  0.9118800E+02  0.7818608E-02  0.1180000E+00
       11   -1    0    0    0    0  0.00000000000E+00  0.00000000000E+00  0.39999999673E+01  0.40000000000E+01  0.51109989000E-03 0. -1.
     -623   -1    0    0    0    0  0.00000000000E+00  0.00000000000E+00  0.12525980253E-10  0.17130000000E+03  0.17130000000E+03 0.  1.
       11    1    1    2    0    0 -0.49047948434E-02 -0.18080437042E-02  0.11311820650E+00  0.11324008079E+00  0.51109989000E-03 0. -1.
     -623    1    1    2    0    0  0.40150412625E-03  0.13997489813E-03  0.12596675638E-03  0.17130000000E+03  0.17130000000E+03 0.  1.
      622    1    1    2    0    0  0.45032907171E-02  0.16680688060E-02  0.38867557941E+01  0.38867599186E+01  0.30000000000E-02 0. -1.
</event>
<event>
 5   0  0.3294100E+10  0.9118800E+02  0.7818608E-02  0.1180000E+00
       11   -1    0    0    0    0  0.00000000000E+00  0.00000000000E+00  0.39999999673E+01  0.40000000000E+01  0.51109989000E-03 0. -1.
     -623   -1    0    0    0    0  0.00000000000E+00  0.00000000000E+00  0.12525980253E-10  0.17130000000E+03  0.17130000000E+03 0.  1.
       11    1    1    2    0    0 -0.98204478179E-04 -0.75480543635E-03  0.91494144052E-01  0.91498737665E-01  0.51109989000E-03 0. -1.
     -623    1    1    2    0    0  0.37290642359E-04 -0.14118457864E-04  0.57884244997E-05  0.17130000000E+03  0.17130000000E+03 0.  1.
      622    1    1    2    0    0  0.60913835850E-04  0.76892389420E-03  0.39085000317E+01  0.39085012591E+01  0.30000000000E-02 0. -1.
</event>
<event>
 5   0  0.3294100E+10  0.9118800E+02  0.7818608E-02  0.1180000E+00
       11   -1    0    0    0    0  0.00000000000E+00  0.00000000000E+00  0.39999999673E+01  0.40000000000E+01  0.51109989000E-03 0. -1.
     -623   -1    0    0    0    0  0.00000000000E+00  0.00000000000E+00  0.12525980253E-10  0.17130000000E+03  0.17130000000E+03 0.  1.
       11    1    1    2    0    0 -0.67510689950E-03 -0.20361099032E-02  0.24262141421E+00  0.24263143524E+00  0.51109989000E-03 0. -1.
     -623    1    1    2    0    0 -0.38764275037E-04 -0.20404765390E-04  0.11816657090E-04  0.17130000000E+03  0.17130000000E+03 0.  1.
      622    1    1    2    0    0  0.71387117454E-03  0.20565146686E-02  0.37573667365E+01  0.37573685648E+01  0.30000000000E-02 0. -1.
</event>
<event>
 5   0  0.3294100E+10  0.9118800E+02  0.7818608E-02  0.1180000E+00
       11   -1    0    0    0    0  0.00000000000E+00  0.00000000000E+00  0.39999999673E+01  0.40000000000E+01  0.51109989000E-03 0.  1.
     -623   -1    0    0    0    0  0.00000000000E+00  0.00000000000E+00  0.12525980253E-10  0.17130000000E+03  0.17130000000E+03 0.  1.
       11    1    1    2    0    0 -0.46134414345E-04 -0.45100175905E-03  0.50387068858E+00  0.50387115175E+00  0.51109989000E-03 0.  1.
     -623    1    1    2    0    0  0.43183040471E-04  0.10076858820E-03  0.17352436750E-05  0.17130000000E+03  0.17130000000E+03 0.  1.
      622    1    1    2    0    0  0.29513738747E-05  0.35023317085E-03  0.34961275435E+01  0.34961288482E+01  0.30000000000E-02 0.  1.
</event>
<event>
 5   0  0.3294100E+10  0.9118800E+02  0.7818608E-02  0.1180000E+00
       11   -1    0    0    0    0  0.00000000000E+00  0.00000000000E+00  0.39999999673E+01  0.40000000000E+01  0.51109989000E-03 0. -1.
     -623   -1    0    0    0    0  0.00000000000E+00  0.00000000000E+00  0.12525980253E-10  0.17130000000E+03  0.17130000000E+03 0.  1.
       11    1    1    2    0    0 -0.47198328067E-03  0.35008326708E-03  0.12647766899E+00  0.12648006682E+00  0.51109989000E-03 0. -1.
     -623    1    1    2    0    0  0.57768546370E-03 -0.35203290111E-03  0.35297025325E-05  0.17130000000E+03  0.17130000000E+03 0.  1.
      622    1    1    2    0    0 -0.10570218036E-03  0.19496323939E-05  0.38735187501E+01  0.38735199133E+01  0.30000000000E-02 0. -1.
</event>
<event>
 5   0  0.3294100E+10  0.9118800E+02  0.7818608E-02  0.1180000E+00
       11   -1    0    0    0    0  0.00000000000E+00  0.00000000000E+00  0.39999999673E+01  0.40000000000E+01  0.51109989000E-03 0.  1.
     -623   -1    0    0    0    0  0.00000000000E+00  0.00000000000E+00  0.12525980253E-10  0.17130000000E+03  0.17130000000E+03 0. -1.
       11    1    1    2    0    0 -0.21731430024E-03 -0.20677828406E-02  0.33081997998E+00  0.33082690841E+00  0.51109989000E-03 0.  1.
     -623    1    1    2    0    0  0.23444228820E-02  0.41217746110E-03  0.91288522470E-05  0.17130000002E+03  0.17130000000E+03 0. -1.
      622    1    1    2    0    0 -0.21271085818E-02  0.16556053795E-02  0.36691708585E+01  0.36691730751E+01  0.30000000000E-02 0.  1.
</event>
<event>
 5   0  0.3294100E+10  0.9118800E+02  0.7818608E-02  0.1180000E+00
       11   -1    0    0    0    0  0.00000000000E+00  0.00000000000E+00  0.39999999673E+01  0.40000000000E+01  0.51109989000E-03 0.  1.
     -623   -1    0    0    0    0  0.00000000000E+00  0.00000000000E+00  0.12525980253E-10  0.17130000000E+03  0.17130000000E+03 0. -1.
       11    1    1    2    0    0 -0.27687443231E-03  0.53352346996E-03  0.13030454656E+00  0.13030693528E+00  0.51109989000E-03 0.  1.
     -623    1    1    2    0    0 -0.98327666755E-04  0.47332335051E-05  0.35746230163E-05  0.17130000000E+03  0.17130000000E+03 0. -1.
      622    1    1    2    0    0  0.37520210077E-03 -0.53825670355E-03  0.38696919155E+01  0.38696931340E+01  0.30000000000E-02 0.  1.
</event>
<event>
 5   0  0.3294100E+10  0.9118800E+02  0.7818608E-02  0.1180000E+00
       11   -1    0    0    0    0  0.00000000000E+00  0.00000000000E+00  0.39999999673E+01  0.40000000000E+01  0.51109989000E-03 0. -1.
     -623   -1    0    0    0    0  0.00000000000E+00  0.00000000000E+00  0.12525980253E-10  0.17130000000E+03  0.17130000000E+03 0.  1.
       11    1    1    2    0    0  0.34879806194E-03 -0.14758422980E-03  0.66027768703E+00  0.66027799346E+00  0.51109989000E-03 0. -1.
     -623    1    1    2    0    0  0.11824788253E-03 -0.21211790260E-03  0.16734119606E-05  0.17130000000E+03  0.17130000000E+03 0.  1.
      622    1    1    2    0    0 -0.46704594447E-03  0.35970213240E-03  0.33397206069E+01  0.33397220064E+01  0.30000000000E-02 0. -1.
</event>
<event>
 5   0  0.3294100E+10  0.9118800E+02  0.7818608E-02  0.1180000E+00
       11   -1    0    0    0    0  0.00000000000E+00  0.00000000000E+00  0.39999999673E+01  0.40000000000E+01  0.51109989000E-03 0.  1.
     -623   -1    0    0    0    0  0.00000000000E+00  0.00000000000E+00  0.12525980253E-10  0.17130000000E+03  0.17130000000E+03 0. -1.
       11    1    1    2    0    0  0.46628708617E-03 -0.58602012165E-03  0.41151703721E+00  0.41151803604E+00  0.51109989000E-03 0.  1.
     -623    1    1    2    0    0 -0.71962129222E-04 -0.85987634484E-04  0.23048201676E-05  0.17130000000E+03  0.17130000000E+03 0. -1.
      622    1    1    2    0    0 -0.39432495680E-03  0.67200775631E-03  0.35884806335E+01  0.35884819721E+01  0.30000000000E-02 0.  1.
</event>
<event>
 5   0  0.3294100E+10  0.9118800E+02  0.7818608E-02  0.1180000E+00
       11   -1    0    0    0    0  0.00000000000E+00  0.00000000000E+00  0.39999999673E+01  0.40000000000E+01  0.51109989000E-03 0. -1.
     -623   -1    0    0    0    0  0.00000000000E+00  0.00000000000E+00  0.12525980253E-10  0.17130000000E+03  0.17130000000E+03 0.  1.
       11    1    1    2    0    0 -0.27922094505E-04 -0.12488418197E-02  0.27093802968E-01  0.27127398821E-01  0.51109989000E-03 0. -1.
     -623    1    1    2    0    0  0.10913661044E-02  0.17433559284E-02  0.34881351751E-04  0.17130000001E+03  0.17130000000E+03 0.  1.
      622    1    1    2    0    0 -0.10634440098E-02 -0.49451410870E-03  0.39728712830E+01  0.39728725888E+01  0.30000000000E-02 0. -1.
</event>
<event>
 5   0  0.3294100E+10  0.9118800E+02  0.7818608E-02  0.1180000E+00
       11   -1    0    0    0    0  0.00000000000E+00  0.00000000000E+00  0.39999999673E+01  0.40000000000E+01  0.51109989000E-03 0. -1.
     -623   -1    0    0    0    0  0.00000000000E+00  0.00000000000E+00  0.12525980253E-10  0.17130000000E+03  0.17130000000E+03 0.  1.
       11    1    1    2    0    0  0.10819238750E-01  0.19333878770E-02  0.63343986196E+00  0.63353540853E+00  0.51109989000E-03 0. -1.
     -623    1    1    2    0    0 -0.11109296263E-03 -0.45605062952E-03  0.11420591750E-03  0.17130000000E+03  0.17130000000E+03 0.  1.
      622    1    1    2    0    0 -0.10708145787E-01 -0.14773372475E-02  0.33664458995E+01  0.33664645908E+01  0.30000000000E-02 0. -1.
</event>
<event>
 5   0  0.3294100E+10  0.9118800E+02  0.7818608E-02  0.1180000E+00
       11   -1    0    0    0    0  0.00000000000E+00  0.00000000000E+00  0.39999999673E+01  0.40000000000E+01  0.51109989000E-03 0. -1.
     -623   -1    0    0    0    0  0.00000000000E+00  0.00000000000E+00  0.12525980253E-10  0.17130000000E+03  0.17130000000E+03 0. -1.
       11    1    1    2    0    0 -0.11813256422E-02  0.85262346583E-03  0.82490109864E-01  0.82504557120E-01  0.51109989000E-03 0. -1.
     -623    1    1    2    0    0  0.93606974987E-03  0.19112504460E-03  0.15712695346E-04  0.17130000000E+03  0.17130000000E+03 0. -1.
      622    1    1    2    0    0  0.24525589448E-03 -0.10437485100E-02  0.39174941358E+01  0.39174954312E+01  0.30000000000E-02 0. -1.
</event>
<event>
 5   0  0.3294100E+10  0.9118800E+02  0.7818608E-02  0.1180000E+00
       11   -1    0    0    0    0  0.00000000000E+00  0.00000000000E+00  0.39999999673E+01  0.40000000000E+01  0.51109989000E-03 0. -1.
     -623   -1    0    0    0    0  0.00000000000E+00  0.00000000000E+00  0.12525980253E-10  0.17130000000E+03  0.17130000000E+03 0. -1.
       11    1    1    2    0    0 -0.13194811362E-02  0.20275338861E-02  0.41908058451E+00  0.41908787797E+00  0.51109989000E-03 0. -1.
     -623    1    1    2    0    0  0.20850563064E-04  0.16350415499E-04  0.93362534028E-05  0.17130000000E+03  0.17130000000E+03 0. -1.
      622    1    1    2    0    0  0.12986305731E-02 -0.20438843016E-02  0.35809100466E+01  0.35809121220E+01  0.30000000000E-02 0. -1.
</event>
<event>
 5   0  0.3294100E+10  0.9118800E+02  0.7818608E-02  0.1180000E+00
       11   -1    0    0    0    0  0.00000000000E+00  0.00000000000E+00  0.39999999673E+01  0.40000000000E+01  0.51109989000E-03 0. -1.
     -623   -1    0    0    0    0  0.00000000000E+00  0.00000000000E+00  0.12525980253E-10  0.17130000000E+03  0.17130000000E+03 0.  1.
       11    1    1    2    0    0  0.74888707152E-03  0.25165202896E-04  0.12344921388E+00  0.12345254592E+00  0.51109989000E-03 0.  1.
     -623    1    1    2    0    0  0.13677820790E-02  0.19046857010E-02  0.55345209624E-05  0.17130000002E+03  0.17130000000E+03 0.  1.
      622    1    1    2    0    0 -0.21166691875E-02 -0.19298509554E-02  0.38765453271E+01  0.38765475462E+01  0.30000000000E-02 0. -1.
</event>
<event>
 5   0  0.3294100E+10  0.9118800E+02  0.7818608E-02  0.1180000E+00
       11   -1    0    0    0    0  0.00000000000E+00  0.00000000000E+00  0.39999999673E+01  0.40000000000E+01  0.51109989000E-03 0. -1.
     -623   -1    0    0    0    0  0.00000000000E+00  0.00000000000E+00  0.12525980253E-10  0.17130000000E+03  0.17130000000E+03 0. -1.
       11    1    1    2    0    0 -0.19417388529E-02  0.10797603240E-02  0.74032385270E+00  0.74032736295E+00  0.51109989000E-03 0. -1.
     -623    1    1    2    0    0 -0.29134579203E-02 -0.19184492016E-02  0.86173757432E-05  0.17130000004E+03  0.17130000000E+03 0. -1.
      622    1    1    2    0    0  0.48551967732E-02  0.83868887760E-03  0.32596674973E+01  0.32596726015E+01  0.30000000000E-02 0.  0.
</event>
<event>
 5   0  0.3294100E+10  0.9118800E+02  0.7818608E-02  0.1180000E+00
       11   -1    0    0    0    0  0.00000000000E+00  0.00000000000E+00  0.39999999673E+01  0.40000000000E+01  0.51109989000E-03 0. -1.
     -623   -1    0    0    0    0  0.00000000000E+00  0.00000000000E+00  0.12525980253E-10  0.17130000000E+03  0.17130000000E+03 0.  1.
       11    1    1    2    0    0  0.25035243080E-03 -0.37839755041E-04  0.15624801942E+00  0.15624906048E+00  0.51109989000E-03 0. -1.
     -623    1    1    2    0    0  0.47289895028E-03  0.12931625640E-02  0.24577210729E-05  0.17130000001E+03  0.17130000000E+03 0.  1.
      622    1    1    2    0    0 -0.72325138108E-03 -0.12553228090E-02  0.38437494902E+01  0.38437509340E+01  0.30000000000E-02 0.  0.
</event>
<event>
 5   0  0.3294100E+10  0.9118800E+02  0.7818608E-02  0.1180000E+00
       11   -1    0    0    0    0  0.00000000000E+00  0.00000000000E+00  0.39999999673E+01  0.40000000000E+01  0.51109989000E-03 0. -1.
     -623   -1    0    0    0    0  0.00000000000E+00  0.00000000000E+00  0.12525980253E-10  0.17130000000E+03  0.17130000000E+03 0. -1.
       11    1    1    2    0    0  0.36728016511E-03  0.25971373618E-03  0.10360803333E+00  0.10361027043E+00  0.51109989000E-03 0.  1.
     -623    1    1    2    0    0 -0.85275180142E-04  0.78238339408E-03  0.35107486531E-05  0.17130000000E+03  0.17130000000E+03 0. -1.
      622    1    1    2    0    0 -0.28200498407E-03 -0.10420971385E-02  0.38963884655E+01  0.38963897700E+01  0.30000000000E-02 0. -1.
</event>
<event>
 5   0  0.3294100E+10  0.9118800E+02  0.7818608E-02  0.1180000E+00
       11   -1    0    0    0    0  0.00000000000E+00  0.00000000000E+00  0.39999999673E+01  0.40000000000E+01  0.51109989000E-03 0. -1.
     -623   -1    0    0    0    0  0.00000000000E+00  0.00000000000E+00  0.12525980253E-10  0.17130000000E+03  0.17130000000E+03 0.  1.
       11    1    1    2    0    0 -0.23779125000E-03 -0.15143631757E-02  0.53587571586E+00  0.53587815211E+00  0.51109989000E-03 0. -1.
     -623    1    1    2    0    0 -0.12037492955E-03  0.68107982034E-03  0.38227761876E-05  0.17130000000E+03  0.17130000000E+03 0.  1.
      622    1    1    2    0    0  0.35816617955E-03  0.83328335540E-03  0.34641204287E+01  0.34641218465E+01  0.30000000000E-02 0. -1.
</event>
<event>
 5   0  0.3294100E+10  0.9118800E+02  0.7818608E-02  0.1180000E+00
       11   -1    0    0    0    0  0.00000000000E+00  0.00000000000E+00  0.39999999673E+01  0.40000000000E+01  0.51109989000E-03 0.  1.
     -623   -1    0    0    0    0  0.00000000000E+00  0.00000000000E+00  0.12525980253E-10  0.17130000000E+03  0.17130000000E+03 0. -1.
       11    1    1    2    0    0  0.59328408445E-03  0.13605897950E-02  0.23734659201E+00  0.23735178354E+00  0.51109989000E-03 0.  1.
     -623    1    1    2    0    0 -0.32241495975E-03 -0.17615098751E-02  0.63953277905E-05  0.17130000001E+03  0.17130000000E+03 0. -1.
      622    1    1    2    0    0 -0.27086912469E-03  0.40092008011E-03  0.37626469800E+01  0.37626482071E+01  0.30000000000E-02 0.  1.
</event>
<event>
 5   0  0.3294100E+10  0.9118800E+02  0.7818608E-02  0.1180000E+00
       11   -1    0    0    0    0  0.00000000000E+00  0.00000000000E+00  0.39999999673E+01  0.40000000000E+01  0.51109989000E-03 0.  1.
     -623   -1    0    0    0    0  0.00000000000E+00  0.00000000000E+00  0.12525980253E-10  0.17130000000E+03  0.17130000000E+03 0. -1.
       11    1    1    2    0    0 -0.40439185314E-02  0.11395751050E-02  0.99547994237E+00  0.99548893957E+00  0.51109989000E-03 0.  1.
     -623    1    1    2    0    0  0.10182982107E-01 -0.48648921082E-02  0.19415510608E-04  0.17130000037E+03  0.17130000000E+03 0. -1.
      622    1    1    2    0    0 -0.61390638538E-02  0.37253171362E-02  0.30045007189E+01  0.30045107981E+01  0.30000000000E-02 0.  1.
</event>
<event>
 5   0  0.3294100E+10  0.9118800E+02  0.7818608E-02  0.1180000E+00
       11   -1    0    0    0    0  0.00000000000E+00  0.00000000000E+00  0.39999999673E+01  0.40000000000E+01  0.51109989000E-03 0.  1.
     -623   -1    0    0    0    0  0.00000000000E+00  0.00000000000E+00  0.12525980253E-10  0.17130000000E+03  0.17130000000E+03 0. -1.
       11    1    1    2    0    0 -0.10179812399E-02  0.35155074207E-03  0.90017735758E+00  0.90017814692E+00  0.51109989000E-03 0.  1.
     -623    1    1    2    0    0 -0.13083735111E-03  0.13877268621E-03  0.24601651254E-05  0.17130000000E+03  0.17130000000E+03 0. -1.
      622    1    1    2    0    0  0.11488185883E-02 -0.49032342541E-03  0.30998200669E+01  0.30998217703E+01  0.30000000000E-02 0.  0.
</event>
<event>
 5   0  0.3294100E+10  0.9118800E+02  0.7818608E-02  0.1180000E+00
       11   -1    0    0    0    0  0.00000000000E+00  0.00000000000E+00  0.39999999673E+01  0.40000000000E+01  0.51109989000E-03 0.  1.
     -623   -1    0    0    0    0  0.00000000000E+00  0.00000000000E+00  0.12525980253E-10  0.17130000000E+03  0.17130000000E+03 0. -1.
       11    1    1    2    0    0 -0.15454567259E-02  0.15866932785E-02  0.23126019403E+00  0.23127136571E+00  0.51109989000E-03 0. -1.
     -623    1    1    2    0    0  0.94189651681E-03 -0.35840951058E-03  0.12584528179E-04  0.17130000000E+03  0.17130000000E+03 0. -1.
      622    1    1    2    0    0  0.60356020911E-03 -0.12282837679E-02  0.37687271888E+01  0.37687286313E+01  0.30000000000E-02 0.  1.
</event>
<event>
 5   0  0.3294100E+10  0.9118800E+02  0.7818608E-02  0.1180000E+00
       11   -1    0    0    0    0  0.00000000000E+00  0.00000000000E+00  0.39999999673E+01  0.40000000000E+01  0.51109989000E-03 0.  1.
     -623   -1    0    0    0    0  0.00000000000E+00  0.00000000000E+00  0.12525980253E-10  0.17130000000E+03  0.17130000000E+03 0. -1.
       11    1    1    2    0    0 -0.18292426822E-02  0.29331377862E-03  0.16479412771E+00  0.16480533338E+00  0.51109989000E-03 0.  1.
     -623    1    1    2    0    0  0.20786247509E-02  0.27610281388E-03  0.12409586081E-04  0.17130000001E+03  0.17130000000E+03 0. -1.
      622    1    1    2    0    0 -0.24938206869E-03 -0.56941659249E-03  0.38351934301E+01  0.38351946538E+01  0.30000000000E-02 0.  1.
</event>
<event>
 5   0  0.3294100E+10  0.9118800E+02  0.7818608E-02  0.1180000E+00
       11   -1    0    0    0    0  0.00000000000E+00  0.00000000000E+00  0.39999999673E+01  0.40000000000E+01  0.51109989000E-03 0.  1.
     -623   -1    0    0    0    0  0.00000000000E+00  0.00000000000E+00  0.12525980253E-10  0.17130000000E+03  0.17130000000E+03 0. -1.
       11    1    1    2    0    0  0.24356987819E-03  0.11755875260E-02  0.58048826220E+00  0.58048972869E+00  0.51109989000E-03 0.  1.
     -623    1    1    2    0    0  0.70757790950E-04 -0.12692237875E-03  0.29251278817E-05  0.17130000000E+03  0.17130000000E+03 0. -1.
      622    1    1    2    0    0 -0.31432767164E-03 -0.10486651428E-02  0.34195089215E+01  0.34195104127E+01  0.30000000000E-02 0.  1.
</event>
<event>
 5   0  0.3294100E+10  0.9118800E+02  0.7818608E-02  0.1180000E+00
       11   -1    0    0    0    0  0.00000000000E+00  0.00000000000E+00  0.39999999673E+01  0.40000000000E+01  0.51109989000E-03 0.  1.
     -623   -1    0    0    0    0  0.00000000000E+00  0.00000000000E+00  0.12525980253E-10  0.17130000000E+03  0.17130000000E+03 0. -1.
       11    1    1    2    0    0 -0.54902405513E-03  0.10959860226E-02  0.60919411066E-01  0.60933886133E-01  0.51109989000E-03 0.  1.
     -623    1    1    2    0    0  0.71916407819E-03  0.34180900292E-03  0.15852759697E-04  0.17130000000E+03  0.17130000000E+03 0. -1.
      622    1    1    2    0    0 -0.17014002306E-03 -0.14377950256E-02  0.39390647035E+01  0.39390661120E+01  0.30000000000E-02 0.  1.
</event>
<event>
 5   0  0.3294100E+10  0.9118800E+02  0.7818608E-02  0.1180000E+00
       11   -1    0    0    0    0  0.00000000000E+00  0.00000000000E+00  0.39999999673E+01  0.40000000000E+01  0.51109989000E-03 0.  1.
     -623   -1    0    0    0    0  0.00000000000E+00  0.00000000000E+00  0.12525980253E-10  0.17130000000E+03  0.17130000000E+03 0. -1.
       11    1    1    2    0    0 -0.10594462325E-02  0.15768661199E-03  0.60837651467E+00  0.60837767227E+00  0.51109989000E-03 0.  1.
     -623    1    1    2    0    0  0.95105888919E-04 -0.56644312185E-03  0.26144475425E-05  0.17130000000E+03  0.17130000000E+03 0. -1.
      622    1    1    2    0    0  0.96434034358E-03  0.40875650986E-03  0.33916208382E+01  0.33916223268E+01  0.30000000000E-02 0.  1.
</event>
<event>
 5   0  0.3294100E+10  0.9118800E+02  0.7818608E-02  0.1180000E+00
       11   -1    0    0    0    0  0.00000000000E+00  0.00000000000E+00  0.39999999673E+01  0.40000000000E+01  0.51109989000E-03 0. -1.
     -623   -1    0    0    0    0  0.00000000000E+00  0.00000000000E+00  0.12525980253E-10  0.17130000000E+03  0.17130000000E+03 0. -1.
       11    1    1    2    0    0  0.10934992496E-02 -0.22148167587E-02  0.30051833838E+00  0.30052892386E+00  0.51109989000E-03 0. -1.
     -623    1    1    2    0    0  0.64661117741E-04 -0.21807453471E-04  0.12626644927E-04  0.17130000000E+03  0.17130000000E+03 0. -1.
      622    1    1    2    0    0 -0.11581603674E-02  0.22366242122E-02  0.36994690023E+01  0.36994710761E+01  0.30000000000E-02 0. -1.
</event>
<event>
 5   0  0.3294100E+10  0.9118800E+02  0.7818608E-02  0.1180000E+00
       11   -1    0    0    0    0  0.00000000000E+00  0.00000000000E+00  0.39999999673E+01  0.40000000000E+01  0.51109989000E-03 0.  1.
     -623   -1    0    0    0    0  0.00000000000E+00  0.00000000000E+00  0.12525980253E-10  0.17130000000E+03  0.17130000000E+03 0. -1.
       11    1    1    2    0    0 -0.23568700551E-02  0.22911159244E-02  0.93859820605E+00  0.93860410060E+00  0.51109989000E-03 0.  1.
     -623    1    1    2    0    0  0.73161222246E-03 -0.64885222580E-02  0.10765181434E-04  0.17130000012E+03  0.17130000000E+03 0. -1.
      622    1    1    2    0    0  0.16252578326E-02  0.41974063336E-02  0.30613909961E+01  0.30613957749E+01  0.30000000000E-02 0.  1.
</event>
<event>
 5   0  0.3294100E+10  0.9118800E+02  0.7818608E-02  0.1180000E+00
       11   -1    0    0    0    0  0.00000000000E+00  0.00000000000E+00  0.39999999673E+01  0.40000000000E+01  0.51109989000E-03 0.  1.
     -623   -1    0    0    0    0  0.00000000000E+00  0.00000000000E+00  0.12525980253E-10  0.17130000000E+03  0.17130000000E+03 0.  1.
       11    1    1    2    0    0  0.35505284202E-02  0.80528123755E-02  0.17431190386E+00  0.17453468163E+00  0.51109989000E-03 0.  1.
     -623    1    1    2    0    0  0.23962823320E-02  0.12130527796E-03  0.23729378122E-03  0.17130000002E+03  0.17130000000E+03 0.  1.
      622    1    1    2    0    0 -0.59468107522E-02 -0.81741176535E-02  0.38254507697E+01  0.38254653014E+01  0.30000000000E-02 0.  1.
</event>
<event>
 5   0  0.3294100E+10  0.9118800E+02  0.7818608E-02  0.1180000E+00
       11   -1    0    0    0    0  0.00000000000E+00  0.00000000000E+00  0.39999999673E+01  0.40000000000E+01  0.51109989000E-03 0.  1.
     -623   -1    0    0    0    0  0.00000000000E+00  0.00000000000E+00  0.12525980253E-10  0.17130000000E+03  0.17130000000E+03 0.  1.
       11    1    1    2    0    0  0.42862492773E-02  0.10537252362E-02  0.95689668155E+00  0.95690699792E+00  0.51109989000E-03 0.  1.
     -623    1    1    2    0    0 -0.31787233755E-02  0.57629959322E-03  0.12431043587E-04  0.17130000003E+03  0.17130000000E+03 0.  1.
      622    1    1    2    0    0 -0.11075259017E-02 -0.16300248295E-02  0.30430908548E+01  0.30430929716E+01  0.30000000000E-02 0.  0.
</event>
<event>
 5   0  0.3294100E+10  0.9118800E+02  0.7818608E-02  0.1180000E+00
       11   -1    0    0    0    0  0.00000000000E+00  0.00000000000E+00  0.39999999673E+01  0.40000000000E+01  0.51109989000E-03 0. -1.
     -623   -1    0    0    0    0  0.00000000000E+00  0.00000000000E+00  0.12525980253E-10  0.17130000000E+03  0.17130000000E+03 0.  1.
       11    1    1    2    0    0  0.24012454853E-02  0.38340065809E-03  0.37091676275E+00  0.37092508555E+00  0.51109989000E-03 0. -1.
     -623    1    1    2    0    0 -0.10757800301E-02 -0.95550848935E-03  0.98233340968E-05  0.17130000001E+03  0.17130000000E+03 0.  1.
      622    1    1    2    0    0 -0.13254654534E-02  0.57210783292E-03  0.36290733882E+01  0.36290749154E+01  0.30000000000E-02 0. -1.
</event>
<event>
 5   0  0.3294100E+10  0.9118800E+02  0.7818608E-02  0.1180000E+00
       11   -1    0    0    0    0  0.00000000000E+00  0.00000000000E+00  0.39999999673E+01  0.40000000000E+01  0.51109989000E-03 0. -1.
     -623   -1    0    0    0    0  0.00000000000E+00  0.00000000000E+00  0.12525980253E-10  0.17130000000E+03  0.17130000000E+03 0. -1.
       11    1    1    2    0    0  0.16054026808E-03 -0.44479184064E-03  0.63259269725E+00  0.63259308046E+00  0.51109989000E-03 0. -1.
     -623    1    1    2    0    0 -0.44564470908E-03 -0.85435313037E-03  0.19522978829E-05  0.17130000000E+03  0.17130000000E+03 0. -1.
      622    1    1    2    0    0  0.28510444435E-03  0.12991449774E-02  0.33674053478E+01  0.33674069469E+01  0.30000000000E-02 0.  0.
</event>
<event>
 5   0  0.3294100E+10  0.9118800E+02  0.7818608E-02  0.1180000E+00
       11   -1    0    0    0    0  0.00000000000E+00  0.00000000000E+00  0.39999999673E+01  0.40000000000E+01  0.51109989000E-03 0. -1.
     -623   -1    0    0    0    0  0.00000000000E+00  0.00000000000E+00  0.12525980253E-10  0.17130000000E+03  0.17130000000E+03 0.  1.
       11    1    1    2    0    0  0.48773594311E-02 -0.42896338826E-02  0.25470998006E+00  0.25479329811E+00  0.51109989000E-03 0. -1.
     -623    1    1    2    0    0 -0.53409680526E-02  0.29754277418E-02  0.84855340365E-04  0.17130000011E+03  0.17130000000E+03 0.  1.
      622    1    1    2    0    0  0.46360861555E-03  0.13142061441E-02  0.37452051275E+01  0.37452065883E+01  0.30000000000E-02 0. -1.
</event>
<event>
 5   0  0.3294100E+10  0.9118800E+02  0.7818608E-02  0.1180000E+00
       11   -1    0    0    0    0  0.00000000000E+00  0.00000000000E+00  0.39999999673E+01  0.40000000000E+01  0.51109989000E-03 0. -1.
     -623   -1    0    0    0    0  0.00000000000E+00  0.00000000000E+00  0.12525980253E-10  0.17130000000E+03  0.17130000000E+03 0.  1.
       11    1    1    2    0    0  0.45446563739E-03 -0.18235893715E-02  0.27093422610E+00  0.27094122630E+00  0.51109989000E-03 0. -1.
     -623    1    1    2    0    0 -0.46592434628E-04 -0.11016678152E-04  0.86479059087E-05  0.17130000000E+03  0.17130000000E+03 0.  1.
      622    1    1    2    0    0 -0.40787320276E-03  0.18346060496E-02  0.37290570934E+01  0.37290587737E+01  0.30000000000E-02 0. -1.
</event>
<event>
 5   0  0.3294100E+10  0.9118800E+02  0.7818608E-02  0.1180000E+00
       11   -1    0    0    0    0  0.00000000000E+00  0.00000000000E+00  0.39999999673E+01  0.40000000000E+01  0.51109989000E-03 0. -1.
     -623   -1    0    0    0    0  0.00000000000E+00  0.00000000000E+00  0.12525980253E-10  0.17130000000E+03  0.17130000000E+03 0.  1.
       11    1    1    2    0    0 -0.42654335297E-02 -0.13054411903E-02  0.78511320465E+00  0.78512604303E+00  0.51109989000E-03 0. -1.
     -623    1    1    2    0    0  0.86548743876E-03  0.88854193253E-03  0.16034841128E-04  0.17130000000E+03  0.17130000000E+03 0.  1.
      622    1    1    2    0    0  0.33999460856E-02  0.41689925227E-03  0.32148707524E+01  0.32148739770E+01  0.30000000000E-02 0.  1.
</event>
<event>
 5   0  0.3294100E+10  0.9118800E+02  0.7818608E-02  0.1180000E+00
       11   -1    0    0    0    0  0.00000000000E+00  0.00000000000E+00  0.39999999673E+01  0.40000000000E+01  0.51109989000E-03 0. -1.
     -623   -1    0    0    0    0  0.00000000000E+00  0.00000000000E+00  0.12525980253E-10  0.17130000000E+03  0.17130000000E+03 0.  1.
       11    1    1    2    0    0  0.36820505179E-03 -0.19202973585E-03  0.58690075066E+00  0.58690112012E+00  0.51109989000E-03 0. -1.
     -623    1    1    2    0    0  0.46991627761E-03  0.14595074153E-03  0.17591922274E-05  0.17130000000E+03  0.17130000000E+03 0.  1.
      622    1    1    2    0    0 -0.83812132939E-03  0.46078994326E-04  0.34130974575E+01  0.34130988792E+01  0.30000000000E-02 0. -1.
</event>
<event>
 5   0  0.3294100E+10  0.9118800E+02  0.7818608E-02  0.1180000E+00
       11   -1    0    0    0    0  0.00000000000E+00  0.00000000000E+00  0.39999999673E+01  0.40000000000E+01  0.51109989000E-03 0.  1.
     -623   -1    0    0    0    0  0.00000000000E+00  0.00000000000E+00  0.12525980253E-10  0.17130000000E+03  0.17130000000E+03 0.  1.
       11    1    1    2    0    0  0.93868788282E-03  0.43928543019E-03  0.58333462407E-01  0.58344906942E-01  0.51109989000E-03 0.  1.
     -623    1    1    2    0    0 -0.11472745551E-03  0.18788244281E-03  0.12689705132E-04  0.17130000000E+03  0.17130000000E+03 0.  1.
      622    1    1    2    0    0 -0.82396042799E-03 -0.62716787188E-03  0.39416537915E+01  0.39416550692E+01  0.30000000000E-02 0.  1.
</event>
<event>
 5   0  0.3294100E+10  0.9118800E+02  0.7818608E-02  0.1180000E+00
       11   -1    0    0    0    0  0.00000000000E+00  0.00000000000E+00  0.39999999673E+01  0.40000000000E+01  0.51109989000E-03 0. -1.
     -623   -1    0    0    0    0  0.00000000000E+00  0.00000000000E+00  0.12525980253E-10  0.17130000000E+03  0.17130000000E+03 0.  1.
       11    1    1    2    0    0  0.57699200151E-03 -0.31233325950E-03  0.57383829604E-01  0.57389856203E-01  0.51109989000E-03 0. -1.
     -623    1    1    2    0    0 -0.31057347576E-03 -0.14424166025E-02  0.75411866582E-05  0.17130000001E+03  0.17130000000E+03 0.  1.
      622    1    1    2    0    0 -0.26641852345E-03  0.17547498727E-02  0.39426086262E+01  0.39426101671E+01  0.30000000000E-02 0. -1.
</event>
<event>
 5   0  0.3294100E+10  0.9118800E+02  0.7818608E-02  0.1180000E+00
       11   -1    0    0    0    0  0.00000000000E+00  0.00000000000E+00  0.39999999673E+01  0.40000000000E+01  0.51109989000E-03 0. -1.
     -623   -1    0    0    0    0  0.00000000000E+00  0.00000000000E+00  0.12525980253E-10  0.17130000000E+03  0.17130000000E+03 0. -1.
       11    1    1    2    0    0  0.51102729254E-03  0.24499764388E-03  0.25364538235E-01  0.25376016151E-01  0.51109989000E-03 0.  1.
     -623    1    1    2    0    0  0.60759130175E-03  0.85861898743E-04  0.12749741376E-04  0.17130000000E+03  0.17130000000E+03 0. -1.
      622    1    1    2    0    0 -0.11186185976E-02 -0.33085954309E-03  0.39746227012E+01  0.39746240046E+01  0.30000000000E-02 0. -1.
</event>
<event>
 5   0  0.3294100E+10  0.9118800E+02  0.7818608E-02  0.1180000E+00
       11   -1    0    0    0    0  0.00000000000E+00  0.00000000000E+00  0.39999999673E+01  0.40000000000E+01  0.51109989000E-03 0. -1.
     -623   -1    0    0    0    0  0.00000000000E+00  0.00000000000E+00  0.12525980253E-10  0.17130000000E+03  0.17130000000E+03 0. -1.
       11    1    1    2    0    0  0.17711220615E-03  0.24932452143E-03  0.76938337091E+00  0.76938360145E+00  0.51109989000E-03 0. -1.
     -623    1    1    2    0    0  0.26220846372E-04 -0.77845354111E-05  0.16062563675E-05  0.17130000000E+03  0.17130000000E+03 0. -1.
      622    1    1    2    0    0 -0.20333305252E-03 -0.24153998602E-03  0.32306149902E+01  0.32306163985E+01  0.30000000000E-02 0. -1.
</event>
<event>
 5   0  0.3294100E+10  0.9118800E+02  0.7818608E-02  0.1180000E+00
       11   -1    0    0    0    0  0.00000000000E+00  0.00000000000E+00  0.39999999673E+01  0.40000000000E+01  0.51109989000E-03 0. -1.
     -623   -1    0    0    0    0  0.00000000000E+00  0.00000000000E+00  0.12525980253E-10  0.17130000000E+03  0.17130000000E+03 0. -1.
       11    1    1    2    0    0 -0.32433947149E-03  0.88464294383E-03  0.94794160427E+00  0.94794221032E+00  0.51109989000E-03 0. -1.
     -623    1    1    2    0    0 -0.67053699535E-04 -0.34502938327E-03  0.21209908532E-05  0.17130000000E+03  0.17130000000E+03 0. -1.
      622    1    1    2    0    0  0.39139317205E-03 -0.53961355533E-03  0.30520563027E+01  0.30520578499E+01  0.30000000000E-02 0.  0.
</event>
<event>
 5   0  0.3294100E+10  0.9118800E+02  0.7818608E-02  0.1180000E+00
       11   -1    0    0    0    0  0.00000000000E+00  0.00000000000E+00  0.39999999673E+01  0.40000000000E+01  0.51109989000E-03 0. -1.
     -623   -1    0    0    0    0  0.00000000000E+00  0.00000000000E+00  0.12525980253E-10  0.17130000000E+03  0.17130000000E+03 0.  1.
       11    1    1    2    0    0  0.11426158515E-02 -0.87752630198E-03  0.35271403197E+00  0.35271734462E+00  0.51109989000E-03 0. -1.
     -623    1    1    2    0    0  0.10583737085E-02  0.55671942493E-03  0.51961923817E-05  0.17130000000E+03  0.17130000000E+03 0.  1.
      622    1    1    2    0    0 -0.22009895455E-02  0.32080688463E-03  0.36472806848E+01  0.36472825968E+01  0.30000000000E-02 0. -1.
</event>
<event>
 5   0  0.3294100E+10  0.9118800E+02  0.7818608E-02  0.1180000E+00
       11   -1    0    0    0    0  0.00000000000E+00  0.00000000000E+00  0.39999999673E+01  0.40000000000E+01  0.51109989000E-03 0.  1.
     -623   -1    0    0    0    0  0.00000000000E+00  0.00000000000E+00  0.12525980253E-10  0.17130000000E+03  0.17130000000E+03 0. -1.
       11    1    1    2    0    0  0.25945016901E-02 -0.16388564967E-03  0.82994023921E+00  0.82994446813E+00  0.51109989000E-03 0.  1.
     -623    1    1    2    0    0 -0.13451753679E-03 -0.11615466352E-03  0.65827583744E-05  0.17130000000E+03  0.17130000000E+03 0. -1.
      622    1    1    2    0    0 -0.24599841516E-02  0.28004031465E-03  0.31700531955E+01  0.31700555818E+01  0.30000000000E-02 0.  1.
</event>
<event>
 5   0  0.3294100E+10  0.9118800E+02  0.7818608E-02  0.1180000E+00
       11   -1    0    0    0    0  0.00000000000E+00  0.00000000000E+00  0.39999999673E+01  0.40000000000E+01  0.51109989000E-03 0. -1.
     -623   -1    0    0    0    0  0.00000000000E+00  0.00000000000E+00  0.12525980253E-10  0.17130000000E+03  0.17130000000E+03 0.  1.
       11    1    1    2    0    0  0.24119219403E-02  0.15200410256E-02  0.11761370602E+01  0.11761406265E+01  0.51109989000E-03 0. -1.
     -623    1    1    2    0    0  0.19317059917E-02  0.44452981937E-04  0.89122503284E-05  0.17130000001E+03  0.17130000000E+03 0.  1.
      622    1    1    2    0    0 -0.43436279320E-02 -0.15644940075E-02  0.28238539949E+01  0.28238593626E+01  0.30000000000E-02 0. -1.
</event>
<event>
 5   0  0.3294100E+10  0.9118800E+02  0.7818608E-02  0.1180000E+00
       11   -1    0    0    0    0  0.00000000000E+00  0.00000000000E+00  0.39999999673E+01  0.40000000000E+01  0.51109989000E-03 0. -1.
     -623   -1    0    0    0    0  0.00000000000E+00  0.00000000000E+00  0.12525980253E-10  0.17130000000E+03  0.17130000000E+03 0.  1.
       11    1    1    2    0    0 -0.41313843880E-04  0.61548865958E-03  0.81627496782E-01  0.81631427693E-01  0.51109989000E-03 0. -1.
     -623    1    1    2    0    0  0.17399091236E-04 -0.21370883265E-05  0.50947861672E-05  0.17130000000E+03  0.17130000000E+03 0.  1.
      622    1    1    2    0    0  0.23914752123E-04 -0.61335157119E-03  0.39183674954E+01  0.39183686919E+01  0.30000000000E-02 0. -1.
</event>
<event>
 5   0  0.3294100E+10  0.9118800E+02  0.7818608E-02  0.1180000E+00
       11   -1    0    0    0    0  0.00000000000E+00  0.00000000000E+00  0.39999999673E+01  0.40000000000E+01  0.51109989000E-03 0. -1.
     -623   -1    0    0    0    0  0.00000000000E+00  0.00000000000E+00  0.12525980253E-10  0.17130000000E+03  0.17130000000E+03 0.  1.
       11    1    1    2    0    0  0.40836611264E-03 -0.17036001304E-03  0.22382471297E+00  0.22382573388E+00  0.51109989000E-03 0. -1.
     -623    1    1    2    0    0 -0.11948028864E-04  0.84989147275E-04  0.22017413972E-05  0.17130000000E+03  0.17130000000E+03 0.  1.
      622    1    1    2    0    0 -0.39641808342E-03  0.85370863214E-04  0.37761731729E+01  0.37761743863E+01  0.30000000000E-02 0. -1.
</event>
<event>
 5   0  0.3294100E+10  0.9118800E+02  0.7818608E-02  0.1180000E+00
       11   -1    0    0    0    0  0.00000000000E+00  0.00000000000E+00  0.39999999673E+01  0.40000000000E+01  0.51109989000E-03 0.  1.
     -623   -1    0    0    0    0  0.00000000000E+00  0.00000000000E+00  0.12525980253E-10  0.17130000000E+03  0.17130000000E+03 0.  1.
       11    1    1    2    0    0 -0.25071500286E-04 -0.77459220525E-03  0.40790141503E+00  0.40790247147E+00  0.51109989000E-03 0.  1.
     -623    1    1    2    0    0  0.46283295588E-04  0.57713233324E-04  0.23481589162E-05  0.17130000000E+03  0.17130000000E+03 0.  1.
      622    1    1    2    0    0 -0.21211797304E-04  0.71687896943E-03  0.35920963771E+01  0.35920977014E+01  0.30000000000E-02 0.  1.
</event>
<event>
 5   0  0.3294100E+10  0.9118800E+02  0.7818608E-02  0.1180000E+00
       11   -1    0    0    0    0  0.00000000000E+00  0.00000000000E+00  0.39999999673E+01  0.40000000000E+01  0.51109989000E-03 0.  1.
     -623   -1    0    0    0    0  0.00000000000E+00  0.00000000000E+00  0.12525980253E-10  0.17130000000E+03  0.17130000000E+03 0. -1.
       11    1    1    2    0    0 -0.59134372237E-03  0.20719142268E-02  0.33954149654E+00  0.33954871758E+00  0.51109989000E-03 0.  1.
     -623    1    1    2    0    0  0.52903669755E-04  0.45785459142E-04  0.90699568789E-05  0.17130000000E+03  0.17130000000E+03 0. -1.
      622    1    1    2    0    0  0.53844005273E-03 -0.21176996858E-02  0.36604493922E+01  0.36604512737E+01  0.30000000000E-02 0.  1.
</event>
<event>
 5   0  0.3294100E+10  0.9118800E+02  0.7818608E-02  0.1180000E+00
       11   -1    0    0    0    0  0.00000000000E+00  0.00000000000E+00  0.39999999673E+01  0.40000000000E+01  0.51109989000E-03 0. -1.
     -623   -1    0    0    0    0  0.00000000000E+00  0.00000000000E+00  0.12525980253E-10  0.17130000000E+03  0.17130000000E+03 0.  1.
       11    1    1    2    0    0  0.14337694346E-04  0.33347599501E-03  0.97791544849E+00  0.97791563901E+00  0.51109989000E-03 0. -1.
     -623    1    1    2    0    0 -0.10867944214E-04 -0.15418013247E-04  0.16636623843E-05  0.17130000000E+03  0.17130000000E+03 0.  1.
      622    1    1    2    0    0 -0.34697501312E-05 -0.31805798177E-03  0.30220828552E+01  0.30220843610E+01  0.30000000000E-02 0. -1.
</event>
<event>
 5   0  0.3294100E+10  0.9118800E+02  0.7818608E-02  0.1180000E+00
       11   -1    0    0    0    0  0.00000000000E+00  0.00000000000E+00  0.39999999673E+01  0.40000000000E+01  0.51109989000E-03 0.  1.
     -623   -1    0    0    0    0  0.00000000000E+00  0.00000000000E+00  0.12525980253E-10  0.17130000000E+03  0.17130000000E+03 0. -1.
       11    1    1    2    0    0  0.10861498957E-02  0.27629681681E-02  0.80544630855E-01  0.80600945998E-01  0.51109989000E-03 0.  1.
     -623    1    1    2    0    0 -0.33602744719E-03  0.56364482939E-05  0.58480610513E-04  0.17130000000E+03  0.17130000000E+03 0. -1.
      622    1    1    2    0    0 -0.75012244851E-03 -0.27686046164E-02  0.39193968559E+01  0.39193990537E+01  0.30000000000E-02 0.  1.
</event>
<event>
 5   0  0.3294100E+10  0.9118800E+02  0.7818608E-02  0.1180000E+00
       11   -1    0    0    0    0  0.00000000000E+00  0.00000000000E+00  0.39999999673E+01  0.40000000000E+01  0.51109989000E-03 0. -1.
     -623   -1    0    0    0    0  0.00000000000E+00  0.00000000000E+00  0.12525980253E-10  0.17130000000E+03  0.17130000000E+03 0.  1.
       11    1    1    2    0    0 -0.11738587547E-02  0.64841865315E-03  0.36831280263E+00  0.36831559863E+00  0.51109989000E-03 0. -1.
     -623    1    1    2    0    0 -0.40344629437E-03  0.10432708109E-02  0.47426398799E-05  0.17130000000E+03  0.17130000000E+03 0.  1.
      622    1    1    2    0    0  0.15773050491E-02 -0.16916894641E-02  0.36316824221E+01  0.36316843977E+01  0.30000000000E-02 0. -1.
</event>
<event>
 5   0  0.3294100E+10  0.9118800E+02  0.7818608E-02  0.1180000E+00
       11   -1    0    0    0    0  0.00000000000E+00  0.00000000000E+00  0.39999999673E+01  0.40000000000E+01  0.51109989000E-03 0. -1.
     -623   -1    0    0    0    0  0.00000000000E+00  0.00000000000E+00  0.12525980253E-10  0.17130000000E+03  0.17130000000E+03 0.  1.
       11    1    1    2    0    0  0.23318860222E-02  0.33639962683E-02  0.66921347944E+00  0.66922619229E+00  0.51109989000E-03 0. -1.
     -623    1    1    2    0    0 -0.14623772581E-02 -0.29805207625E-02  0.14198991579E-04  0.17130000003E+03  0.17130000000E+03 0.  1.
      622    1    1    2    0    0 -0.86950875782E-03 -0.38347549300E-03  0.33307723061E+01  0.33307737927E+01  0.30000000000E-02 0. -1.
</event>
<event>
 5   0  0.3294100E+10  0.9118800E+02  0.7818608E-02  0.1180000E+00
       11   -1    0    0    0    0  0.00000000000E+00  0.00000000000E+00  0.39999999673E+01  0.40000000000E+01  0.51109989000E-03 0.  1.
     -623   -1    0    0    0    0  0.00000000000E+00  0.00000000000E+00  0.12525980253E-10  0.17130000000E+03  0.17130000000E+03 0.  1.
       11    1    1    2    0    0 -0.10893424512E-02 -0.16603316802E-02  0.72883062813E+00  0.72883351260E+00  0.51109989000E-03 0.  1.
     -623    1    1    2    0    0  0.69158215818E-03  0.53891416477E-03  0.44461350162E-05  0.17130000000E+03  0.17130000000E+03 0.  1.
      622    1    1    2    0    0  0.39776029299E-03  0.11214175154E-02  0.32711648931E+01  0.32711664852E+01  0.30000000000E-02 0.  1.
</event>
<event>
 5   0  0.3294100E+10  0.9118800E+02  0.7818608E-02  0.1180000E+00
       11   -1    0    0    0    0  0.00000000000E+00  0.00000000000E+00  0.39999999673E+01  0.40000000000E+01  0.51109989000E-03 0. -1.
     -623   -1    0    0    0    0  0.00000000000E+00  0.00000000000E+00  0.12525980253E-10  0.17130000000E+03  0.17130000000E+03 0. -1.
       11    1    1    2    0    0 -0.34655905206E-03 -0.79660938621E-03  0.26124901287E+00  0.26125095720E+00  0.51109989000E-03 0. -1.
     -623    1    1    2    0    0  0.31094744866E-05  0.36505406874E-04  0.32083419743E-05  0.17130000000E+03  0.17130000000E+03 0. -1.
      622    1    1    2    0    0  0.34344957757E-03  0.76010397934E-03  0.37387477461E+01  0.37387490428E+01  0.30000000000E-02 0. -1.
</event>
<event>
 5   0  0.3294100E+10  0.9118800E+02  0.7818608E-02  0.1180000E+00
       11   -1    0    0    0    0  0.00000000000E+00  0.00000000000E+00  0.39999999673E+01  0.40000000000E+01  0.51109989000E-03 0.  1.
     -623   -1    0    0    0    0  0.00000000000E+00  0.00000000000E+00  0.12525980253E-10  0.17130000000E+03  0.17130000000E+03 0. -1.
       11    1    1    2    0    0  0.36953916334E-03  0.27829854971E-04  0.38393873939E-01  0.38399063957E-01  0.51109989000E-03 0.  1.
     -623    1    1    2    0    0  0.12276237131E-03  0.29002489995E-03  0.63369130316E-05  0.17130000000E+03  0.17130000000E+03 0. -1.
      622    1    1    2    0    0 -0.49230153443E-03 -0.31785475438E-03  0.39615997491E+01  0.39616009283E+01  0.30000000000E-02 0.  1.
</event>
<event>
 5   0  0.3294100E+10  0.9118800E+02  0.7818608E-02  0.1180000E+00
       11   -1    0    0    0    0  0.00000000000E+00  0.00000000000E+00  0.39999999673E+01  0.40000000000E+01  0.51109989000E-03 0. -1.
     -623   -1    0    0    0    0  0.00000000000E+00  0.00000000000E+00  0.12525980253E-10  0.17130000000E+03  0.17130000000E+03 0.  1.
       11    1    1    2    0    0 -0.21562513735E-01  0.50656312916E-02  0.34211151221E+00  0.34282816487E+00  0.51109989000E-03 0. -1.
     -623    1    1    2    0    0  0.21083874465E-01 -0.69989929657E-02  0.71983484820E-03  0.17130000144E+03  0.17130000000E+03 0.  1.
      622    1    1    2    0    0  0.47863927084E-03  0.19333616741E-02  0.36571686203E+01  0.36571703931E+01  0.30000000000E-02 0. -1.
</event>
<event>
 5   0  0.3294100E+10  0.9118800E+02  0.7818608E-02  0.1180000E+00
       11   -1    0    0    0    0  0.00000000000E+00  0.00000000000E+00  0.39999999673E+01  0.40000000000E+01  0.51109989000E-03 0.  1.
     -623   -1    0    0    0    0  0.00000000000E+00  0.00000000000E+00  0.12525980253E-10  0.17130000000E+03  0.17130000000E+03 0. -1.
       11    1    1    2    0    0  0.22754206608E-02  0.11253021477E-03  0.11088523084E+01  0.11088547665E+01  0.51109989000E-03 0.  1.
     -623    1    1    2    0    0 -0.16807036781E-02 -0.99696908560E-04  0.40514428563E-05  0.17130000001E+03  0.17130000000E+03 0. -1.
      622    1    1    2    0    0 -0.59471694857E-03 -0.12833304190E-04  0.28911436887E+01  0.28911453064E+01  0.30000000000E-02 0.  0.
</event>
<event>
 5   0  0.3294100E+10  0.9118800E+02  0.7818608E-02  0.1180000E+00
       11   -1    0    0    0    0  0.00000000000E+00  0.00000000000E+00  0.39999999673E+01  0.40000000000E+01  0.51109989000E-03 0.  1.
     -623   -1    0    0    0    0  0.00000000000E+00  0.00000000000E+00  0.12525980253E-10  0.17130000000E+03  0.17130000000E+03 0.  1.
       11    1    1    2    0    0  0.22536160729E-02 -0.69825288118E-03  0.12292768983E+00  0.12295139077E+00  0.51109989000E-03 0.  1.
     -623    1    1    2    0    0  0.43058170866E-03 -0.44444954952E-04  0.25829839342E-04  0.17130000000E+03  0.17130000000E+03 0.  1.
      622    1    1    2    0    0 -0.26841977802E-02  0.74269783599E-03  0.38770464344E+01  0.38770485954E+01  0.30000000000E-02 0.  1.
</event>
<event>
 5   0  0.3294100E+10  0.9118800E+02  0.7818608E-02  0.1180000E+00
       11   -1    0    0    0    0  0.00000000000E+00  0.00000000000E+00  0.39999999673E+01  0.40000000000E+01  0.51109989000E-03 0. -1.
     -623   -1    0    0    0    0  0.00000000000E+00  0.00000000000E+00  0.12525980253E-10  0.17130000000E+03  0.17130000000E+03 0.  1.
       11    1    1    2    0    0 -0.43561729422E-02  0.65199070278E-03  0.75690115257E+00  0.75691414131E+00  0.51109989000E-03 0. -1.
     -623    1    1    2    0    0 -0.20623972124E-03 -0.12162790260E-04  0.17616142072E-04  0.17130000000E+03  0.17130000000E+03 0.  1.
      622    1    1    2    0    0  0.45624126635E-02 -0.63982791252E-03  0.32430811986E+01  0.32430858586E+01  0.30000000000E-02 0. -1.
</event>
<event>
 5   0  0.3294100E+10  0.9118800E+02  0.7818608E-02  0.1180000E+00
       11   -1    0    0    0    0  0.00000000000E+00  0.00000000000E+00  0.39999999673E+01  0.40000000000E+01  0.51109989000E-03 0.  1.
     -623   -1    0    0    0    0  0.00000000000E+00  0.00000000000E+00  0.12525980253E-10  0.17130000000E+03  0.17130000000E+03 0. -1.
       11    1    1    2    0    0 -0.57434704878E-03 -0.94687529486E-03  0.13373711852E+00  0.13374268033E+00  0.51109989000E-03 0. -1.
     -623    1    1    2    0    0  0.44401176096E-04  0.68204187824E-04  0.68292629911E-05  0.17130000000E+03  0.17130000000E+03 0. -1.
      622    1    1    2    0    0  0.52994587269E-03  0.87867110703E-03  0.38662560196E+01  0.38662573197E+01  0.30000000000E-02 0.  1.
</event>
<event>
 5   0  0.3294100E+10  0.9118800E+02  0.7818608E-02  0.1180000E+00
       11   -1    0    0    0    0  0.00000000000E+00  0.00000000000E+00  0.39999999673E+01  0.40000000000E+01  0.51109989000E-03 0. -1.
     -623   -1    0    0    0    0  0.00000000000E+00  0.00000000000E+00  0.12525980253E-10  0.17130000000E+03  0.17130000000E+03 0. -1.
       11    1    1    2    0    0  0.17467423988E-03  0.31731488992E-03  0.76948577760E-01  0.76951127621E-01  0.51109989000E-03 0. -1.
     -623    1    1    2    0    0  0.17462883441E-04 -0.39506652826E-03  0.36702206190E-05  0.17130000000E+03  0.17130000000E+03 0. -1.
      622    1    1    2    0    0 -0.19213712332E-03  0.77751638224E-04  0.39230477182E+01  0.39230488708E+01  0.30000000000E-02 0. -1.
</event>
<event>
 5   0  0.3294100E+10  0.9118800E+02  0.7818608E-02  0.1180000E+00
       11   -1    0    0    0    0  0.00000000000E+00  0.00000000000E+00  0.39999999673E+01  0.40000000000E+01  0.51109989000E-03 0.  1.
     -623   -1    0    0    0    0  0.00000000000E+00  0.00000000000E+00  0.12525980253E-10  0.17130000000E+03  0.17130000000E+03 0. -1.
       11    1    1    2    0    0 -0.18862364513E-03  0.15568619510E-02  0.34205582431E-01  0.34245328011E-01  0.51109989000E-03 0.  1.
     -623    1    1    2    0    0 -0.32769585597E-03  0.47621557033E-03  0.41403383058E-04  0.17130000000E+03  0.17130000000E+03 0. -1.
      622    1    1    2    0    0  0.51631950113E-03 -0.20330775214E-02  0.39657529820E+01  0.39657546714E+01  0.30000000000E-02 0.  1.
</event>
<event>
 5   0  0.3294100E+10  0.9118800E+02  0.7818608E-02  0.1180000E+00
       11   -1    0    0    0    0  0.00000000000E+00  0.00000000000E+00  0.39999999673E+01  0.40000000000E+01  0.51109989000E-03 0.  1.
     -623   -1    0    0    0    0  0.00000000000E+00  0.00000000000E+00  0.12525980253E-10  0.17130000000E+03  0.17130000000E+03 0. -1.
       11    1    1    2    0    0  0.57192345127E-03 -0.23016488641E-03  0.41386685057E+00  0.41386762533E+00  0.51109989000E-03 0.  1.
     -623    1    1    2    0    0 -0.26901308958E-04 -0.18905317814E-03  0.20629775164E-05  0.17130000000E+03  0.17130000000E+03 0. -1.
      622    1    1    2    0    0 -0.54502214231E-03  0.41921806455E-03  0.35861310538E+01  0.35861323746E+01  0.30000000000E-02 0.  1.
</event>
<event>
 5   0  0.3294100E+10  0.9118800E+02  0.7818608E-02  0.1180000E+00
       11   -1    0    0    0    0  0.00000000000E+00  0.00000000000E+00  0.39999999673E+01  0.40000000000E+01  0.51109989000E-03 0. -1.
     -623   -1    0    0    0    0  0.00000000000E+00  0.00000000000E+00  0.12525980253E-10  0.17130000000E+03  0.17130000000E+03 0. -1.
       11    1    1    2    0    0  0.15635128875E-02 -0.23263676376E-02  0.32995413804E+00  0.32996643919E+00  0.51109989000E-03 0. -1.
     -623    1    1    2    0    0 -0.25295722413E-02  0.46183486999E-03  0.14114735645E-04  0.17130000002E+03  0.17130000000E+03 0. -1.
      622    1    1    2    0    0  0.96605935611E-03  0.18645327672E-02  0.36700317183E+01  0.36700335452E+01  0.30000000000E-02 0. -1.
</event>
<event>
 5   0  0.3294100E+10  0.9118800E+02  0.7818608E-02  0.1180000E+00
       11   -1    0    0    0    0  0.00000000000E+00  0.00000000000E+00  0.39999999673E+01  0.40000000000E+01  0.51109989000E-03 0. -1.
     -623   -1    0    0    0    0  0.00000000000E+00  0.00000000000E+00  0.12525980253E-10  0.17130000000E+03  0.17130000000E+03 0. -1.
       11    1    1    2    0    0  0.11567749832E-02  0.32842334947E-03  0.90865180220E+00  0.90865274162E+00  0.51109989000E-03 0. -1.
     -623    1    1    2    0    0  0.17825861593E-03  0.24905405066E-03  0.27049431259E-05  0.17130000000E+03  0.17130000000E+03 0. -1.
      622    1    1    2    0    0 -0.13350336043E-02 -0.57747740733E-03  0.30913455759E+01  0.30913473738E+01  0.30000000000E-02 0.  0.
</event>
<event>
 5   0  0.3294100E+10  0.9118800E+02  0.7818608E-02  0.1180000E+00
       11   -1    0    0    0    0  0.00000000000E+00  0.00000000000E+00  0.39999999673E+01  0.40000000000E+01  0.51109989000E-03 0. -1.
     -623   -1    0    0    0    0  0.00000000000E+00  0.00000000000E+00  0.12525980253E-10  0.17130000000E+03  0.17130000000E+03 0. -1.
       11    1    1    2    0    0 -0.38711083091E-02  0.65904103688E-04  0.31811031975E+00  0.31813429016E+00  0.51109989000E-03 0. -1.
     -623    1    1    2    0    0  0.20033762531E-02 -0.16776943807E-04  0.25645755277E-04  0.17130000001E+03  0.17130000000E+03 0. -1.
      622    1    1    2    0    0  0.18677320532E-02 -0.49127159857E-04  0.36818640075E+01  0.36818657038E+01  0.30000000000E-02 0. -1.
</event>
<event>
 5   0  0.3294100E+10  0.9118800E+02  0.7818608E-02  0.1180000E+00
       11   -1    0    0    0    0  0.00000000000E+00  0.00000000000E+00  0.39999999673E+01  0.40000000000E+01  0.51109989000E-03 0.  1.
     -623   -1    0    0    0    0  0.00000000000E+00  0.00000000000E+00  0.12525980253E-10  0.17130000000E+03  0.17130000000E+03 0.  1.
       11    1    1    2    0    0  0.66429500488E-03  0.11238117321E-02  0.97492243518E+00  0.97492344318E+00  0.51109989000E-03 0.  1.
     -623    1    1    2    0    0  0.60720108243E-03  0.53380051060E-03  0.31862101615E-05  0.17130000000E+03  0.17130000000E+03 0.  1.
      622    1    1    2    0    0 -0.12714960873E-02 -0.16576122427E-02  0.30250743460E+01  0.30250765549E+01  0.30000000000E-02 0.  0.
</event>
<event>
 5   0  0.3294100E+10  0.9118800E+02  0.7818608E-02  0.1180000E+00
       11   -1    0    0    0    0  0.00000000000E+00  0.00000000000E+00  0.39999999673E+01  0.40000000000E+01  0.51109989000E-03 0. -1.
     -623   -1    0    0    0    0  0.00000000000E+00  0.00000000000E+00  0.12525980253E-10  0.17130000000E+03  0.17130000000E+03 0.  1.
       11    1    1    2    0    0 -0.10563882242E-02 -0.46400259487E-02  0.47099884976E-01  0.47342435348E-01  0.51109989000E-03 0. -1.
     -623    1    1    2    0    0 -0.21813589667E-02  0.99900608156E-03  0.24667623561E-03  0.17130000002E+03  0.17130000000E+03 0.  1.
      622    1    1    2    0    0  0.32377471915E-02  0.36410198668E-02  0.39526534074E+01  0.39526575489E+01  0.30000000000E-02 0. -1.
</event>
<event>
 5   0  0.3294100E+10  0.9118800E+02  0.7818608E-02  0.1180000E+00
       11   -1    0    0    0    0  0.00000000000E+00  0.00000000000E+00  0.39999999673E+01  0.40000000000E+01  0.51109989000E-03 0.  1.
     -623   -1    0    0    0    0  0.00000000000E+00  0.00000000000E+00  0.12525980253E-10  0.17130000000E+03  0.17130000000E+03 0. -1.
       11    1    1    2    0    0 -0.12266902465E-02 -0.45872321449E-03  0.21756325341E+00  0.21756779553E+00  0.51109989000E-03 0.  1.
     -623    1    1    2    0    0 -0.20837588722E-03  0.90197328802E-03  0.59998990412E-05  0.17130000000E+03  0.17130000000E+03 0. -1.
      622    1    1    2    0    0  0.14350661337E-02 -0.44325007353E-03  0.37824307140E+01  0.37824322020E+01  0.30000000000E-02 0.  1.
</event>
<event>
 5   0  0.3294100E+10  0.9118800E+02  0.7818608E-02  0.1180000E+00
       11   -1    0    0    0    0  0.00000000000E+00  0.00000000000E+00  0.39999999673E+01  0.40000000000E+01  0.51109989000E-03 0. -1.
     -623   -1    0    0    0    0  0.00000000000E+00  0.00000000000E+00  0.12525980253E-10  0.17130000000E+03  0.17130000000E+03 0.  1.
       11    1    1    2    0    0 -0.34224412575E-02  0.13730805340E-02  0.67779042833E+00  0.67780065241E+00  0.51109989000E-03 0. -1.
     -623    1    1    2    0    0  0.76931105445E-02 -0.20630456656E-02  0.14547752750E-04  0.17130000019E+03  0.17130000000E+03 0.  1.
      622    1    1    2    0    0 -0.42706692742E-02  0.68996512817E-03  0.33221949846E+01  0.33221991558E+01  0.30000000000E-02 0. -1.
</event>
<event>
 5   0  0.3294100E+10  0.9118800E+02  0.7818608E-02  0.1180000E+00
       11   -1    0    0    0    0  0.00000000000E+00  0.00000000000E+00  0.39999999673E+01  0.40000000000E+01  0.51109989000E-03 0. -1.
     -623   -1    0    0    0    0  0.00000000000E+00  0.00000000000E+00  0.12525980253E-10  0.17130000000E+03  0.17130000000E+03 0.  1.
       11    1    1    2    0    0 -0.12482344523E-02  0.36956622198E-04  0.11884412073E+01  0.11884419733E+01  0.51109989000E-03 0. -1.
     -623    1    1    2    0    0  0.50324348851E-03  0.18921916195E-03  0.24425325575E-05  0.17130000000E+03  0.17130000000E+03 0.  1.
      622    1    1    2    0    0  0.74499096379E-03 -0.22617578415E-03  0.28115563175E+01  0.28115580259E+01  0.30000000000E-02 0. -1.
</event>
<event>
 5   0  0.3294100E+10  0.9118800E+02  0.7818608E-02  0.1180000E+00
       11   -1    0    0    0    0  0.00000000000E+00  0.00000000000E+00  0.39999999673E+01  0.40000000000E+01  0.51109989000E-03 0.  1.
     -623   -1    0    0    0    0  0.00000000000E+00  0.00000000000E+00  0.12525980253E-10  0.17130000000E+03  0.17130000000E+03 0.  1.
       11    1    1    2    0    0  0.97564312856E-03  0.23611346320E-03  0.98176856978E+00  0.98176921599E+00  0.51109989000E-03 0.  1.
     -623    1    1    2    0    0 -0.38648700873E-04 -0.25738982808E-03  0.22502225758E-05  0.17130000000E+03  0.17130000000E+03 0.  1.
      622    1    1    2    0    0 -0.93699442852E-03  0.21276359331E-04  0.30182290611E+01  0.30182306975E+01  0.30000000000E-02 0.  1.
</event>
<event>
 5   0  0.3294100E+10  0.9118800E+02  0.7818608E-02  0.1180000E+00
       11   -1    0    0    0    0  0.00000000000E+00  0.00000000000E+00  0.39999999673E+01  0.40000000000E+01  0.51109989000E-03 0. -1.
     -623   -1    0    0    0    0  0.00000000000E+00  0.00000000000E+00  0.12525980253E-10  0.17130000000E+03  0.17130000000E+03 0. -1.
       11    1    1    2    0    0  0.77021202008E-03 -0.57713077498E-03  0.83388261313E+00  0.83388332518E+00  0.51109989000E-03 0. -1.
     -623    1    1    2    0    0 -0.35343101745E-04 -0.11026715587E-03  0.22606508456E-05  0.17130000000E+03  0.17130000000E+03 0. -1.
      622    1    1    2    0    0 -0.73486891841E-03  0.68739793061E-03  0.31661150850E+01  0.31661166662E+01  0.30000000000E-02 0. -1.
</event>
<event>
 5   0  0.3294100E+10  0.9118800E+02  0.7818608E-02  0.1180000E+00
       11   -1    0    0    0    0  0.00000000000E+00  0.00000000000E+00  0.39999999673E+01  0.40000000000E+01  0.51109989000E-03 0.  1.
     -623   -1    0    0    0    0  0.00000000000E+00  0.00000000000E+00  0.12525980253E-10  0.17130000000E+03  0.17130000000E+03 0.  1.
       11    1    1    2    0    0  0.76788419251E-03  0.84056440142E-03  0.29970106027E+00  0.29970365854E+00  0.51109989000E-03 0.  1.
     -623    1    1    2    0    0  0.13541996561E-04 -0.70642074574E-05  0.39581354701E-05  0.17130000000E+03  0.17130000000E+03 0.  1.
      622    1    1    2    0    0 -0.78142618907E-03 -0.83350019396E-03  0.37002949490E+01  0.37002963415E+01  0.30000000000E-02 0.  1.
</event>
<event>
 5   0  0.3294100E+10  0.9118800E+02  0.7818608E-02  0.1180000E+00
       11   -1    0    0    0    0  0.00000000000E+00  0.00000000000E+00  0.39999999673E+01  0.40000000000E+01  0.51109989000E-03 0. -1.
     -623   -1    0    0    0    0  0.00000000000E+00  0.00000000000E+00  0.12525980253E-10  0.17130000000E+03  0.17130000000E+03 0.  1.
       11    1    1    2    0    0 -0.94072273192E-03 -0.24076874168E-03  0.69525612225E+00  0.69525698823E+00  0.51109989000E-03 0. -1.
     -623    1    1    2    0    0 -0.25834607856E-04 -0.12953171645E-04  0.23461047371E-05  0.17130000000E+03  0.17130000000E+03 0.  1.
      622    1    1    2    0    0  0.96655733977E-03  0.25372191332E-03  0.33047414990E+01  0.33047430118E+01  0.30000000000E-02 0.  0.
</event>
<event>
 5   0  0.3294100E+10  0.9118800E+02  0.7818608E-02  0.1180000E+00
       11   -1    0    0    0    0  0.00000000000E+00  0.00000000000E+00  0.39999999673E+01  0.40000000000E+01  0.51109989000E-03 0. -1.
     -623   -1    0    0    0    0  0.00000000000E+00  0.00000000000E+00  0.12525980253E-10  0.17130000000E+03  0.17130000000E+03 0. -1.
       11    1    1    2    0    0  0.58620455527E-03 -0.38527345995E-03  0.88141477008E-02  0.88567766793E-02  0.51109989000E-03 0. -1.
     -623    1    1    2    0    0 -0.10949114963E-02  0.10803902356E-02  0.43823699092E-04  0.17130000001E+03  0.17130000000E+03 0. -1.
      622    1    1    2    0    0  0.50870694102E-03 -0.69511677562E-03  0.39911419960E+01  0.39911432164E+01  0.30000000000E-02 0. -1.
</event>
<event>
 5   0  0.3294100E+10  0.9118800E+02  0.7818608E-02  0.1180000E+00
       11   -1    0    0    0    0  0.00000000000E+00  0.00000000000E+00  0.39999999673E+01  0.40000000000E+01  0.51109989000E-03 0.  1.
     -623   -1    0    0    0    0  0.00000000000E+00  0.00000000000E+00  0.12525980253E-10  0.17130000000E+03  0.17130000000E+03 0. -1.
       11    1    1    2    0    0  0.18444238613E-02 -0.17374619935E-02  0.36440713475E-01  0.36532280152E-01  0.51109989000E-03 0. -1.
     -623    1    1    2    0    0 -0.11008308905E-02  0.14949272943E-02  0.92756666107E-04  0.17130000001E+03  0.17130000000E+03 0. -1.
      622    1    1    2    0    0 -0.74359297074E-03  0.24253469920E-03  0.39634664972E+01  0.39634677098E+01  0.30000000000E-02 0.  1.
</event>
<event>
 5   0  0.3294100E+10  0.9118800E+02  0.7818608E-02  0.1180000E+00
       11   -1    0    0    0    0  0.00000000000E+00  0.00000000000E+00  0.39999999673E+01  0.40000000000E+01  0.51109989000E-03 0.  1.
     -623   -1    0    0    0    0  0.00000000000E+00  0.00000000000E+00  0.12525980253E-10  0.17130000000E+03  0.17130000000E+03 0. -1.
       11    1    1    2    0    0 -0.15343496971E-02 -0.12577549069E-01  0.84186349314E+00  0.84195899620E+00  0.51109989000E-03 0.  1.
     -623    1    1    2    0    0 -0.31255167563E-03  0.20916618991E-02  0.11485710981E-03  0.17130000001E+03  0.17130000000E+03 0. -1.
      622    1    1    2    0    0  0.18469013726E-02  0.10485887170E-01  0.31580216166E+01  0.31580409902E+01  0.30000000000E-02 0. -1.
</event>
<event>
 5   0  0.3294100E+10  0.9118800E+02  0.7818608E-02  0.1180000E+00
       11   -1    0    0    0    0  0.00000000000E+00  0.00000000000E+00  0.39999999673E+01  0.40000000000E+01  0.51109989000E-03 0.  1.
     -623   -1    0    0    0    0  0.00000000000E+00  0.00000000000E+00  0.12525980253E-10  0.17130000000E+03  0.17130000000E+03 0. -1.
       11    1    1    2    0    0 -0.10144991154E-01  0.76371297190E-03  0.85404492018E+00  0.85410566736E+00  0.51109989000E-03 0.  1.
     -623    1    1    2    0    0  0.78229225761E-03 -0.17310303835E-02  0.76236744432E-04  0.17130000001E+03  0.17130000000E+03 0. -1.
      622    1    1    2    0    0  0.93626988960E-02  0.96731741268E-03  0.31458788129E+01  0.31458943246E+01  0.30000000000E-02 0.  1.
</event>
<event>
 5   0  0.3294100E+10  0.9118800E+02  0.7818608E-02  0.1180000E+00
       11   -1    0    0    0    0  0.00000000000E+00  0.00000000000E+00  0.39999999673E+01  0.40000000000E+01  0.51109989000E-03 0. -1.
     -623   -1    0    0    0    0  0.00000000000E+00  0.00000000000E+00  0.12525980253E-10  0.17130000000E+03  0.17130000000E+03 0.  1.
       11    1    1    2    0    0 -0.61231087337E-03 -0.65391448537E-03  0.28789760276E+00  0.28789945020E+00  0.51109989000E-03 0. -1.
     -623    1    1    2    0    0 -0.14345102201E-03  0.87660162245E-04  0.31472594557E-05  0.17130000000E+03  0.17130000000E+03 0.  1.
      622    1    1    2    0    0  0.75576189537E-03  0.56625432313E-03  0.37120992173E+01  0.37121005497E+01  0.30000000000E-02 0. -1.
</event>
<event>
 5   0  0.3294100E+10  0.9118800E+02  0.7818608E-02  0.1180000E+00
       11   -1    0    0    0    0  0.00000000000E+00  0.00000000000E+00  0.39999999673E+01  0.40000000000E+01  0.51109989000E-03 0. -1.
     -623   -1    0    0    0    0  0.00000000000E+00  0.00000000000E+00  0.12525980253E-10  0.17130000000E+03  0.17130000000E+03 0.  1.
       11    1    1    2    0    0 -0.30358350777E-02 -0.28236211350E-02  0.10761425123E+01  0.10761506201E+01  0.51109989000E-03 0. -1.
     -623    1    1    2    0    0  0.14076693486E-02  0.30353265055E-02  0.10107891980E-04  0.17130000003E+03  0.17130000000E+03 0.  1.
      622    1    1    2    0    0  0.16281657334E-02 -0.21170536137E-03  0.29238473351E+01  0.29238493352E+01  0.30000000000E-02 0.  0.
</event>
<event>
 5   0  0.3294100E+10  0.9118800E+02  0.7818608E-02  0.1180000E+00
       11   -1    0    0    0    0  0.00000000000E+00  0.00000000000E+00  0.39999999673E+01  0.40000000000E+01  0.51109989000E-03 0. -1.
     -623   -1    0    0    0    0  0.00000000000E+00  0.00000000000E+00  0.12525980253E-10  0.17130000000E+03  0.17130000000E+03 0. -1.
       11    1    1    2    0    0  0.16330720691E-02  0.11768330316E-02  0.11501018593E+01  0.11501037344E+01  0.51109989000E-03 0. -1.
     -623    1    1    2    0    0 -0.58896054505E-04  0.14468327901E-04  0.41052112727E-05  0.17130000000E+03  0.17130000000E+03 0. -1.
      622    1    1    2    0    0 -0.15741760146E-02 -0.11913013595E-02  0.28498940029E+01  0.28498962656E+01  0.30000000000E-02 0. -1.
</event>
<event>
 5   0  0.3294100E+10  0.9118800E+02  0.7818608E-02  0.1180000E+00
       11   -1    0    0    0    0  0.00000000000E+00  0.00000000000E+00  0.39999999673E+01  0.40000000000E+01  0.51109989000E-03 0. -1.
     -623   -1    0    0    0    0  0.00000000000E+00  0.00000000000E+00  0.12525980253E-10  0.17130000000E+03  0.17130000000E+03 0.  1.
       11    1    1    2    0    0 -0.32105500351E-03 -0.93570648837E-03  0.85052046189E+00  0.85052119077E+00  0.51109989000E-03 0. -1.
     -623    1    1    2    0    0 -0.40841798809E-04 -0.62313094232E-05  0.22866961427E-05  0.17130000000E+03  0.17130000000E+03 0.  1.
      622    1    1    2    0    0  0.36189680161E-03  0.94193779768E-03  0.31494771490E+01  0.31494787395E+01  0.30000000000E-02 0.  0.
</event>
<event>
 5   0  0.3294100E+10  0.9118800E+02  0.7818608E-02  0.1180000E+00
       11   -1    0    0    0    0  0.00000000000E+00  0.00000000000E+00  0.39999999673E+01  0.40000000000E+01  0.51109989000E-03 0.  1.
     -623   -1    0    0    0    0  0.00000000000E+00  0.00000000000E+00  0.12525980253E-10  0.17130000000E+03  0.17130000000E+03 0. -1.
       11    1    1    2    0    0 -0.12279424507E-03 -0.58284037354E-03  0.50120220803E+00  0.50120282255E+00  0.51109989000E-03 0.  1.
     -623    1    1    2    0    0  0.54928881902E-03 -0.18240765843E-03  0.19786991383E-05  0.17130000000E+03  0.17130000000E+03 0. -1.
      622    1    1    2    0    0 -0.42649457396E-03  0.76524803196E-03  0.34987957806E+01  0.34987971765E+01  0.30000000000E-02 0.  1.
</event>
<event>
 5   0  0.3294100E+10  0.9118800E+02  0.7818608E-02  0.1180000E+00
       11   -1    0    0    0    0  0.00000000000E+00  0.00000000000E+00  0.39999999673E+01  0.40000000000E+01  0.51109989000E-03 0. -1.
     -623   -1    0    0    0    0  0.00000000000E+00  0.00000000000E+00  0.12525980253E-10  0.17130000000E+03  0.17130000000E+03 0. -1.
       11    1    1    2    0    0  0.37895001484E-03  0.11788788845E-02  0.57478974602E+00  0.57479130709E+00  0.51109989000E-03 0. -1.
     -623    1    1    2    0    0 -0.68326948700E-03 -0.26093187464E-03  0.29803059443E-05  0.17130000000E+03  0.17130000000E+03 0. -1.
      622    1    1    2    0    0  0.30431947216E-03 -0.91794700985E-03  0.34252072410E+01  0.34252086913E+01  0.30000000000E-02 0. -1.
</event>
<event>
 5   0  0.3294100E+10  0.9118800E+02  0.7818608E-02  0.1180000E+00
       11   -1    0    0    0    0  0.00000000000E+00  0.00000000000E+00  0.39999999673E+01  0.40000000000E+01  0.51109989000E-03 0. -1.
     -623   -1    0    0    0    0  0.00000000000E+00  0.00000000000E+00  0.12525980253E-10  0.17130000000E+03  0.17130000000E+03 0.  1.
       11    1    1    2    0    0  0.22838380660E-02  0.17930898357E-02  0.41737387920E-01  0.41841389314E-01  0.51109989000E-03 0. -1.
     -623    1    1    2    0    0 -0.26279706055E-02 -0.30299299952E-02  0.10536083670E-03  0.17130000005E+03  0.17130000000E+03 0.  1.
      622    1    1    2    0    0  0.34413253949E-03  0.12368401594E-02  0.39581572186E+01  0.39581585637E+01  0.30000000000E-02 0. -1.
</event>
<event>
 5   0  0.3294100E+10  0.9118800E+02  0.7818608E-02  0.1180000E+00
       11   -1    0    0    0    0  0.00000000000E+00  0.00000000000E+00  0.39999999673E+01  0.40000000000E+01  0.51109989000E-03 0. -1.
     -623   -1    0    0    0    0  0.00000000000E+00  0.00000000000E+00  0.12525980253E-10  0.17130000000E+03  0.17130000000E+03 0. -1.
       11    1    1    2    0    0  0.78139182422E-04  0.10777246237E-03  0.33334323637E+00  0.33334365477E+00  0.51109989000E-03 0. -1.
     -623    1    1    2    0    0  0.23537738882E-04 -0.88093805506E-04  0.16145261106E-05  0.17130000000E+03  0.17130000000E+03 0. -1.
      622    1    1    2    0    0 -0.10167692058E-03 -0.19678659568E-04  0.36666549936E+01  0.36666562223E+01  0.30000000000E-02 0. -1.
</event>
<event>
 5   0  0.3294100E+10  0.9118800E+02  0.7818608E-02  0.1180000E+00
       11   -1    0    0    0    0  0.00000000000E+00  0.00000000000E+00  0.39999999673E+01  0.40000000000E+01  0.51109989000E-03 0. -1.
     -623   -1    0    0    0    0  0.00000000000E+00  0.00000000000E+00  0.12525980253E-10  0.17130000000E+03  0.17130000000E+03 0.  1.
       11    1    1    2    0    0  0.80818424999E-03  0.15825873733E-02  0.35195634061E+00  0.35196119767E+00  0.51109989000E-03 0. -1.
     -623    1    1    2    0    0 -0.22575173920E-03 -0.17897254785E-03  0.63747201695E-05  0.17130000000E+03  0.17130000000E+03 0.  1.
      622    1    1    2    0    0 -0.58243250859E-03 -0.14036148237E-02  0.36480372911E+01  0.36480388412E+01  0.30000000000E-02 0. -1.
</event>
<event>
 5   0  0.3294100E+10  0.9118800E+02  0.7818608E-02  0.1180000E+00
       11   -1    0    0    0    0  0.00000000000E+00  0.00000000000E+00  0.39999999673E+01  0.40000000000E+01  0.51109989000E-03 0. -1.
     -623   -1    0    0    0    0  0.00000000000E+00  0.00000000000E+00  0.12525980253E-10  0.17130000000E+03  0.17130000000E+03 0. -1.
       11    1    1    2    0    0  0.25638535871E-03  0.42637527120E-03  0.30459387544E+00  0.30459471057E+00  0.51109989000E-03 0.  1.
     -623    1    1    2    0    0 -0.27373068200E-04 -0.57953129315E-04  0.20456930776E-05  0.17130000000E+03  0.17130000000E+03 0. -1.
      622    1    1    2    0    0 -0.22901228868E-03 -0.36842213802E-03  0.36954043134E+01  0.36954055566E+01  0.30000000000E-02 0. -1.
</event>
<event>
 5   0  0.3294100E+10  0.9118800E+02  0.7818608E-02  0.1180000E+00
       11   -1    0    0    0    0  0.00000000000E+00  0.00000000000E+00  0.39999999673E+01  0.40000000000E+01  0.51109989000E-03 0.  1.
     -623   -1    0    0    0    0  0.00000000000E+00  0.00000000000E+00  0.12525980253E-10  0.17130000000E+03  0.17130000000E+03 0. -1.
       11    1    1    2    0    0  0.20321366774E-03  0.10957372172E-02  0.88169307398E+00  0.88169392640E+00  0.51109989000E-03 0.  1.
     -623    1    1    2    0    0  0.18095995585E-03 -0.68643526957E-04  0.24558014036E-05  0.17130000000E+03  0.17130000000E+03 0. -1.
      622    1    1    2    0    0 -0.38417362359E-03 -0.10270936902E-02  0.31183044376E+01  0.31183060735E+01  0.30000000000E-02 0.  1.
</event>
<event>
 5   0  0.3294100E+10  0.9118800E+02  0.7818608E-02  0.1180000E+00
       11   -1    0    0    0    0  0.00000000000E+00  0.00000000000E+00  0.39999999673E+01  0.40000000000E+01  0.51109989000E-03 0.  1.
     -623   -1    0    0    0    0  0.00000000000E+00  0.00000000000E+00  0.12525980253E-10  0.17130000000E+03  0.17130000000E+03 0.  1.
       11    1    1    2    0    0 -0.20609878293E-02  0.11635773197E-05  0.11066839787E+01  0.11066860158E+01  0.51109989000E-03 0.  1.
     -623    1    1    2    0    0  0.11011767682E-02 -0.42045575879E-03  0.37534243726E-05  0.17130000000E+03  0.17130000000E+03 0.  1.
      622    1    1    2    0    0  0.95981106112E-03  0.41929218147E-03  0.28933122352E+01  0.28933139801E+01  0.30000000000E-02 0.  1.
</event>
<event>
 5   0  0.3294100E+10  0.9118800E+02  0.7818608E-02  0.1180000E+00
       11   -1    0    0    0    0  0.00000000000E+00  0.00000000000E+00  0.39999999673E+01  0.40000000000E+01  0.51109989000E-03 0.  1.
     -623   -1    0    0    0    0  0.00000000000E+00  0.00000000000E+00  0.12525980253E-10  0.17130000000E+03  0.17130000000E+03 0. -1.
       11    1    1    2    0    0  0.18372281074E-02  0.14748618755E-02  0.17027527827E+00  0.17029234345E+00  0.51109989000E-03 0.  1.
     -623    1    1    2    0    0 -0.12644605868E-03 -0.10069616396E-03  0.18836288737E-04  0.17130000000E+03  0.17130000000E+03 0. -1.
      622    1    1    2    0    0 -0.17107820487E-02 -0.13741657116E-02  0.38297058528E+01  0.38297076565E+01  0.30000000000E-02 0.  1.
</event>
<event>
 5   0  0.3294100E+10  0.9118800E+02  0.7818608E-02  0.1180000E+00
       11   -1    0    0    0    0  0.00000000000E+00  0.00000000000E+00  0.39999999673E+01  0.40000000000E+01  0.51109989000E-03 0.  1.
     -623   -1    0    0    0    0  0.00000000000E+00  0.00000000000E+00  0.12525980253E-10  0.17130000000E+03  0.17130000000E+03 0. -1.
       11    1    1    2    0    0 -0.23107973640E-03  0.30625126548E-03  0.33858562969E-01  0.33864593561E-01  0.51109989000E-03 0.  1.
     -623    1    1    2    0    0  0.17974526357E-03 -0.24008924409E-04  0.71430295496E-05  0.17130000000E+03  0.17130000000E+03 0. -1.
      622    1    1    2    0    0  0.51334472753E-04 -0.28224234106E-03  0.39661342631E+01  0.39661354081E+01  0.30000000000E-02 0.  1.
</event>
<event>
 5   0  0.3294100E+10  0.9118800E+02  0.7818608E-02  0.1180000E+00
       11   -1    0    0    0    0  0.00000000000E+00  0.00000000000E+00  0.39999999673E+01  0.40000000000E+01  0.51109989000E-03 0.  1.
     -623   -1    0    0    0    0  0.00000000000E+00  0.00000000000E+00  0.12525980253E-10  0.17130000000E+03  0.17130000000E+03 0.  1.
       11    1    1    2    0    0  0.46713314203E-03 -0.20483004567E-03  0.10763915071E+01  0.10763917493E+01  0.51109989000E-03 0.  1.
     -623    1    1    2    0    0 -0.17531415867E-03  0.29866120127E-03  0.17651675095E-05  0.17130000000E+03  0.17130000000E+03 0.  1.
      622    1    1    2    0    0 -0.29181898336E-03 -0.93831155599E-04  0.29236066951E+01  0.29236082503E+01  0.30000000000E-02 0.  0.
</event>
<event>
 5   0  0.3294100E+10  0.9118800E+02  0.7818608E-02  0.1180000E+00
       11   -1    0    0    0    0  0.00000000000E+00  0.00000000000E+00  0.39999999673E+01  0.40000000000E+01  0.51109989000E-03 0.  1.
     -623   -1    0    0    0    0  0.00000000000E+00  0.00000000000E+00  0.12525980253E-10  0.17130000000E+03  0.17130000000E+03 0. -1.
       11    1    1    2    0    0 -0.35648324589E-03 -0.10863780087E-02  0.12444142870E+00  0.12444773078E+00  0.51109989000E-03 0.  1.
     -623    1    1    2    0    0  0.13535478412E-03 -0.69483631143E-04  0.76093104839E-05  0.17130000000E+03  0.17130000000E+03 0. -1.
      622    1    1    2    0    0  0.22112846058E-03  0.11558616405E-02  0.38755509646E+01  0.38755523044E+01  0.30000000000E-02 0.  1.
</event>
<event>
 5   0  0.3294100E+10  0.9118800E+02  0.7818608E-02  0.1180000E+00
       11   -1    0    0    0    0  0.00000000000E+00  0.00000000000E+00  0.39999999673E+01  0.40000000000E+01  0.51109989000E-03 0.  1.
     -623   -1    0    0    0    0  0.00000000000E+00  0.00000000000E+00  0.12525980253E-10  0.17130000000E+03  0.17130000000E+03 0. -1.
       11    1    1    2    0    0  0.81209569632E-03  0.68928166459E-03  0.59428124215E+00  0.59428241653E+00  0.51109989000E-03 0.  1.
     -623    1    1    2    0    0  0.18563297689E-03 -0.43803694397E-03  0.26191251652E-05  0.17130000000E+03  0.17130000000E+03 0. -1.
      622    1    1    2    0    0 -0.99772867320E-03 -0.25124472062E-03  0.34057161061E+01  0.34057175828E+01  0.30000000000E-02 0.  1.
</event>
<event>
 5   0  0.3294100E+10  0.9118800E+02  0.7818608E-02  0.1180000E+00
       11   -1    0    0    0    0  0.00000000000E+00  0.00000000000E+00  0.39999999673E+01  0.40000000000E+01  0.51109989000E-03 0. -1.
     -623   -1    0    0    0    0  0.00000000000E+00  0.00000000000E+00  0.12525980253E-10  0.17130000000E+03  0.17130000000E+03 0.  1.
       11    1    1    2    0    0  0.15532039713E-02 -0.84684476582E-03  0.31404142109E+00  0.31404681971E+00  0.51109989000E-03 0. -1.
     -623    1    1    2    0    0 -0.30508763223E-02  0.36720768586E-02  0.80403787925E-05  0.17130000007E+03  0.17130000000E+03 0.  1.
      622    1    1    2    0    0  0.14976723475E-02 -0.28252320886E-02  0.36859505014E+01  0.36859531093E+01  0.30000000000E-02 0. -1.
</event>
<event>
 5   0  0.3294100E+10  0.9118800E+02  0.7818608E-02  0.1180000E+00
       11   -1    0    0    0    0  0.00000000000E+00  0.00000000000E+00  0.39999999673E+01  0.40000000000E+01  0.51109989000E-03 0.  1.
     -623   -1    0    0    0    0  0.00000000000E+00  0.00000000000E+00  0.12525980253E-10  0.17130000000E+03  0.17130000000E+03 0. -1.
       11    1    1    2    0    0 -0.11316132812E-02 -0.35613280049E-03  0.67070633661E+00  0.67070758052E+00  0.51109989000E-03 0.  1.
     -623    1    1    2    0    0  0.12686332911E-02 -0.16430852949E-03  0.26111839637E-05  0.17130000000E+03  0.17130000000E+03 0. -1.
      622    1    1    2    0    0 -0.13702000988E-03  0.52044132997E-03  0.33292910196E+01  0.33292924147E+01  0.30000000000E-02 0.  0.
</event>
<event>
 5   0  0.3294100E+10  0.9118800E+02  0.7818608E-02  0.1180000E+00
       11   -1    0    0    0    0  0.00000000000E+00  0.00000000000E+00  0.39999999673E+01  0.40000000000E+01  0.51109989000E-03 0.  1.
     -623   -1    0    0    0    0  0.00000000000E+00  0.00000000000E+00  0.12525980253E-10  0.17130000000E+03  0.17130000000E+03 0.  1.
       11    1    1    2    0    0 -0.85490776987E-03 -0.16359367876E-02  0.10124558699E+01  0.10124576815E+01  0.51109989000E-03 0.  1.
     -623    1    1    2    0    0  0.56759624909E-04 -0.99564161855E-04  0.38959798667E-05  0.17130000000E+03  0.17130000000E+03 0.  1.
      622    1    1    2    0    0  0.79814814421E-03  0.17355009507E-02  0.29875402541E+01  0.29875423711E+01  0.30000000000E-02 0.  1.
</event>
<event>
 5   0  0.3294100E+10  0.9118800E+02  0.7818608E-02  0.1180000E+00
       11   -1    0    0    0    0  0.00000000000E+00  0.00000000000E+00  0.39999999673E+01  0.40000000000E+01  0.51109989000E-03 0. -1.
     -623   -1    0    0    0    0  0.00000000000E+00  0.00000000000E+00  0.12525980253E-10  0.17130000000E+03  0.17130000000E+03 0. -1.
       11    1    1    2    0    0  0.16605745098E-02 -0.16691834689E-02  0.10458793846E+01  0.10458821597E+01  0.51109989000E-03 0. -1.
     -623    1    1    2    0    0 -0.11501043308E-02 -0.89684969195E-04  0.48373838917E-05  0.17130000000E+03  0.17130000000E+03 0. -1.
      622    1    1    2    0    0 -0.51047017895E-03  0.17588684381E-02  0.29541157454E+01  0.29541178364E+01  0.30000000000E-02 0. -1.
</event>
<event>
 5   0  0.3294100E+10  0.9118800E+02  0.7818608E-02  0.1180000E+00
       11   -1    0    0    0    0  0.00000000000E+00  0.00000000000E+00  0.39999999673E+01  0.40000000000E+01  0.51109989000E-03 0. -1.
     -623   -1    0    0    0    0  0.00000000000E+00  0.00000000000E+00  0.12525980253E-10  0.17130000000E+03  0.17130000000E+03 0.  1.
       11    1    1    2    0    0 -0.14840720020E-02  0.33268309537E-03  0.87909223616E+00  0.87909370038E+00  0.51109989000E-03 0. -1.
     -623    1    1    2    0    0 -0.14848748277E-03 -0.65415703982E-03  0.33183390364E-05  0.17130000000E+03  0.17130000000E+03 0.  1.
      622    1    1    2    0    0  0.16325594851E-02  0.32147394577E-03  0.31209044209E+01  0.31209063063E+01  0.30000000000E-02 0. -1.
</event>
<event>
 5   0  0.3294100E+10  0.9118800E+02  0.7818608E-02  0.1180000E+00
       11   -1    0    0    0    0  0.00000000000E+00  0.00000000000E+00  0.39999999673E+01  0.40000000000E+01  0.51109989000E-03 0.  1.
     -623   -1    0    0    0    0  0.00000000000E+00  0.00000000000E+00  0.12525980253E-10  0.17130000000E+03  0.17130000000E+03 0.  1.
       11    1    1    2    0    0 -0.21689320985E-03 -0.55397469011E-03  0.77875254857E+00  0.77875294353E+00  0.51109989000E-03 0.  1.
     -623    1    1    2    0    0  0.94926530700E-04  0.16978011595E-04  0.18063915395E-05  0.17130000000E+03  0.17130000000E+03 0.  1.
      622    1    1    2    0    0  0.12196667591E-03  0.53699667794E-03  0.32212457488E+01  0.32212471928E+01  0.30000000000E-02 0.  1.
</event>
<event>
 5   0  0.3294100E+10  0.9118800E+02  0.7818608E-02  0.1180000E+00
       11   -1    0    0    0    0  0.00000000000E+00  0.00000000000E+00  0.39999999673E+01  0.40000000000E+01  0.51109989000E-03 0. -1.
     -623   -1    0    0    0    0  0.00000000000E+00  0.00000000000E+00  0.12525980253E-10  0.17130000000E+03  0.17130000000E+03 0.  1.
       11    1    1    2    0    0  0.16105204844E-02  0.20760488382E-02  0.46391883916E+00  0.46392656133E+00  0.51109989000E-03 0. -1.
     -623    1    1    2    0    0  0.20862586115E-04 -0.23321074765E-03  0.98188107094E-05  0.17130000000E+03  0.17130000000E+03 0.  1.
      622    1    1    2    0    0 -0.16313830707E-02 -0.18428380889E-02  0.35360713377E+01  0.35360734668E+01  0.30000000000E-02 0. -1.
</event>
<event>
 5   0  0.3294100E+10  0.9118800E+02  0.7818608E-02  0.1180000E+00
       11   -1    0    0    0    0  0.00000000000E+00  0.00000000000E+00  0.39999999673E+01  0.40000000000E+01  0.51109989000E-03 0. -1.
     -623   -1    0    0    0    0  0.00000000000E+00  0.00000000000E+00  0.12525980253E-10  0.17130000000E+03  0.17130000000E+03 0. -1.
       11    1    1    2    0    0 -0.23249440350E-03 -0.29760863777E-03  0.10470952775E+01  0.10470954703E+01  0.51109989000E-03 0. -1.
     -623    1    1    2    0    0 -0.70579379981E-04 -0.34727918434E-04  0.17183981873E-05  0.17130000000E+03  0.17130000000E+03 0. -1.
      622    1    1    2    0    0  0.30307378289E-03  0.33233655591E-03  0.29529029381E+01  0.29529044963E+01  0.30000000000E-02 0.  0.
</event>
<event>
 5   0  0.3294100E+10  0.9118800E+02  0.7818608E-02  0.1180000E+00
       11   -1    0    0    0    0  0.00000000000E+00  0.00000000000E+00  0.39999999673E+01  0.40000000000E+01  0.51109989000E-03 0.  1.
     -623   -1    0    0    0    0  0.00000000000E+00  0.00000000000E+00  0.12525980253E-10  0.17130000000E+03  0.17130000000E+03 0. -1.
       11    1    1    2    0    0  0.74269207099E-03 -0.44434475403E-04  0.24330608052E+00  0.24330775492E+00  0.51109989000E-03 0.  1.
     -623    1    1    2    0    0  0.18469294082E-03  0.35126171861E-03  0.29670861332E-05  0.17130000000E+03  0.17130000000E+03 0. -1.
      622    1    1    2    0    0 -0.92738501054E-03 -0.30682724078E-03  0.37566908921E+01  0.37566922170E+01  0.30000000000E-02 0.  1.
</event>
<event>
 5   0  0.3294100E+10  0.9118800E+02  0.7818608E-02  0.1180000E+00
       11   -1    0    0    0    0  0.00000000000E+00  0.00000000000E+00  0.39999999673E+01  0.40000000000E+01  0.51109989000E-03 0. -1.
     -623   -1    0    0    0    0  0.00000000000E+00  0.00000000000E+00  0.12525980253E-10  0.17130000000E+03  0.17130000000E+03 0. -1.
       11    1    1    2    0    0  0.16911310106E-02  0.64876241405E-03  0.33071591845E+00  0.33072127352E+00  0.51109989000E-03 0. -1.
     -623    1    1    2    0    0 -0.77212601654E-02 -0.17001816588E-02  0.11836909083E-04  0.17130000018E+03  0.17130000000E+03 0. -1.
      622    1    1    2    0    0  0.60301291548E-02  0.10514192448E-02  0.36692722120E+01  0.36692785440E+01  0.30000000000E-02 0. -1.
</event>
<event>
 5   0  0.3294100E+10  0.9118800E+02  0.7818608E-02  0.1180000E+00
       11   -1    0    0    0    0  0.00000000000E+00  0.00000000000E+00  0.39999999673E+01  0.40000000000E+01  0.51109989000E-03 0. -1.
     -623   -1    0    0    0    0  0.00000000000E+00  0.00000000000E+00  0.12525980253E-10  0.17130000000E+03  0.17130000000E+03 0. -1.
       11    1    1    2    0    0  0.53538398885E-03 -0.25052165152E-03  0.32307956008E+00  0.32308050508E+00  0.51109989000E-03 0. -1.
     -623    1    1    2    0    0 -0.48444692337E-03  0.21424275324E-03  0.21375597679E-05  0.17130000000E+03  0.17130000000E+03 0. -1.
      622    1    1    2    0    0 -0.50937056140E-04  0.36278894148E-04  0.36769183469E+01  0.36769195712E+01  0.30000000000E-02 0. -1.
</event>
<event>
 5   0  0.3294100E+10  0.9118800E+02  0.7818608E-02  0.1180000E+00
       11   -1    0    0    0    0  0.00000000000E+00  0.00000000000E+00  0.39999999673E+01  0.40000000000E+01  0.51109989000E-03 0. -1.
     -623   -1    0    0    0    0  0.00000000000E+00  0.00000000000E+00  0.12525980253E-10  0.17130000000E+03  0.17130000000E+03 0.  1.
       11    1    1    2    0    0 -0.19141991078E-02  0.90955586280E-04  0.10043497746E+00  0.10045455864E+00  0.51109989000E-03 0. -1.
     -623    1    1    2    0    0 -0.69524165139E-03 -0.43511525114E-03  0.21592746964E-04  0.17130000000E+03  0.17130000000E+03 0.  1.
      622    1    1    2    0    0  0.26094407638E-02  0.34415966774E-03  0.38995434236E+01  0.38995454659E+01  0.30000000000E-02 0. -1.
</event>
<event>
 5   0  0.3294100E+10  0.9118800E+02  0.7818608E-02  0.1180000E+00
       11   -1    0    0    0    0  0.00000000000E+00  0.00000000000E+00  0.39999999673E+01  0.40000000000E+01  0.51109989000E-03 0.  1.
     -623   -1    0    0    0    0  0.00000000000E+00  0.00000000000E+00  0.12525980253E-10  0.17130000000E+03  0.17130000000E+03 0.  1.
       11    1    1    2    0    0  0.26971695155E-02  0.93564424625E-03  0.16109323650E+00  0.16111934155E+00  0.51109989000E-03 0.  1.
     -623    1    1    2    0    0 -0.20274823773E-04  0.52400466413E-05  0.28293247397E-04  0.17130000000E+03  0.17130000000E+03 0.  1.
      622    1    1    2    0    0 -0.26768946917E-02 -0.94088429289E-03  0.38388784376E+01  0.38388806584E+01  0.30000000000E-02 0.  1.
</event>
<event>
 5   0  0.3294100E+10  0.9118800E+02  0.7818608E-02  0.1180000E+00
       11   -1    0    0    0    0  0.00000000000E+00  0.00000000000E+00  0.39999999673E+01  0.40000000000E+01  0.51109989000E-03 0. -1.
     -623   -1    0    0    0    0  0.00000000000E+00  0.00000000000E+00  0.12525980253E-10  0.17130000000E+03  0.17130000000E+03 0. -1.
       11    1    1    2    0    0 -0.31885730664E-03  0.38165205525E-03  0.95287735551E-01  0.95290404017E-01  0.51109989000E-03 0. -1.
     -623    1    1    2    0    0 -0.42641772867E-04 -0.10592286563E-03  0.38147880823E-05  0.17130000000E+03  0.17130000000E+03 0. -1.
      622    1    1    2    0    0  0.36149908018E-03 -0.27572918795E-03  0.39047084803E+01  0.39047096593E+01  0.30000000000E-02 0. -1.
</event>
<event>
 5   0  0.3294100E+10  0.9118800E+02  0.7818608E-02  0.1180000E+00
       11   -1    0    0    0    0  0.00000000000E+00  0.00000000000E+00  0.39999999673E+01  0.40000000000E+01  0.51109989000E-03 0.  1.
     -623   -1    0    0    0    0  0.00000000000E+00  0.00000000000E+00  0.12525980253E-10  0.17130000000E+03  0.17130000000E+03 0.  1.
       11    1    1    2    0    0  0.17884506897E-03 -0.64684158304E-04  0.27373206394E+00  0.27373260716E+00  0.51109989000E-03 0.  1.
     -623    1    1    2    0    0  0.32587048195E-04  0.13200450549E-03  0.17248815074E-05  0.17130000000E+03  0.17130000000E+03 0.  1.
      622    1    1    2    0    0 -0.21143211676E-03 -0.67320345533E-04  0.37262661284E+01  0.37262673426E+01  0.30000000000E-02 0.  1.
</event>
<event>
 5   0  0.3294100E+10  0.9118800E+02  0.7818608E-02  0.1180000E+00
       11   -1    0    0    0    0  0.00000000000E+00  0.00000000000E+00  0.39999999673E+01  0.40000000000E+01  0.51109989000E-03 0.  1.
     -623   -1    0    0    0    0  0.00000000000E+00  0.00000000000E+00  0.12525980253E-10  0.17130000000E+03  0.17130000000E+03 0. -1.
       11    1    1    2    0    0 -0.81717019553E-03 -0.15735567503E-02  0.83206473320E+00  0.83206677936E+00  0.51109989000E-03 0.  1.
     -623    1    1    2    0    0  0.13613619744E-03 -0.48074727365E-04  0.39223121995E-05  0.17130000000E+03  0.17130000000E+03 0. -1.
      622    1    1    2    0    0  0.68103399547E-03  0.16216314786E-02  0.31679313890E+01  0.31679332977E+01  0.30000000000E-02 0. -1.
</event>
<event>
 5   0  0.3294100E+10  0.9118800E+02  0.7818608E-02  0.1180000E+00
       11   -1    0    0    0    0  0.00000000000E+00  0.00000000000E+00  0.39999999673E+01  0.40000000000E+01  0.51109989000E-03 0.  1.
     -623   -1    0    0    0    0  0.00000000000E+00  0.00000000000E+00  0.12525980253E-10  0.17130000000E+03  0.17130000000E+03 0. -1.
       11    1    1    2    0    0 -0.31072574064E-03 -0.68199205999E-03  0.78061749095E-01  0.78067019659E-01  0.51109989000E-03 0. -1.
     -623    1    1    2    0    0 -0.66532287504E-04 -0.34415012938E-05  0.64633719887E-05  0.17130000000E+03  0.17130000000E+03 0. -1.
      622    1    1    2    0    0  0.37725802874E-03  0.68543356132E-03  0.39219317904E+01  0.39219330158E+01  0.30000000000E-02 0.  1.
</event>
<event>
 5   0  0.3294100E+10  0.9118800E+02  0.7818608E-02  0.1180000E+00
       11   -1    0    0    0    0  0.00000000000E+00  0.00000000000E+00  0.39999999673E+01  0.40000000000E+01  0.51109989000E-03 0. -1.
     -623   -1    0    0    0    0  0.00000000000E+00  0.00000000000E+00  0.12525980253E-10  0.17130000000E+03  0.17130000000E+03 0.  1.
       11    1    1    2    0    0 -0.12950813642E-02  0.15821839017E-02  0.11105206960E+01  0.11105226958E+01  0.51109989000E-03 0.  1.
     -623    1    1    2    0    0  0.29686130515E-03 -0.60216597730E-03  0.38645274163E-05  0.17130000000E+03  0.17130000000E+03 0.  1.
      622    1    1    2    0    0  0.99822005904E-03 -0.98001792440E-03  0.28894754069E+01  0.28894773029E+01  0.30000000000E-02 0. -1.
</event>
<event>
 5   0  0.3294100E+10  0.9118800E+02  0.7818608E-02  0.1180000E+00
       11   -1    0    0    0    0  0.00000000000E+00  0.00000000000E+00  0.39999999673E+01  0.40000000000E+01  0.51109989000E-03 0.  1.
     -623   -1    0    0    0    0  0.00000000000E+00  0.00000000000E+00  0.12525980253E-10  0.17130000000E+03  0.17130000000E+03 0. -1.
       11    1    1    2    0    0 -0.80257541041E-04  0.32809552026E-03  0.76445385258E-01  0.76447839984E-01  0.51109989000E-03 0.  1.
     -623    1    1    2    0    0  0.37813319943E-04 -0.48428243946E-04  0.35792140660E-05  0.17130000000E+03  0.17130000000E+03 0. -1.
      622    1    1    2    0    0  0.42444219879E-04 -0.27966727475E-03  0.39235511318E+01  0.39235522889E+01  0.30000000000E-02 0.  1.
</event>
<event>
 5   0  0.3294100E+10  0.9118800E+02  0.7818608E-02  0.1180000E+00
       11   -1    0    0    0    0  0.00000000000E+00  0.00000000000E+00  0.39999999673E+01  0.40000000000E+01  0.51109989000E-03 0.  1.
     -623   -1    0    0    0    0  0.00000000000E+00  0.00000000000E+00  0.12525980253E-10  0.17130000000E+03  0.17130000000E+03 0.  1.
       11    1    1    2    0    0  0.20987216139E-03  0.17840475158E-03  0.96537939571E-01  0.96539685489E-01  0.51109989000E-03 0.  1.
     -623    1    1    2    0    0  0.41070309762E-03  0.55056842030E-04  0.29229136906E-05  0.17130000000E+03  0.17130000000E+03 0.  1.
      622    1    1    2    0    0 -0.62057526772E-03 -0.23346159477E-03  0.39034591896E+01  0.39034603988E+01  0.30000000000E-02 0.  1.
</event>
<event>
 5   0  0.3294100E+10  0.9118800E+02  0.7818608E-02  0.1180000E+00
       11   -1    0    0    0    0  0.00000000000E+00  0.00000000000E+00  0.39999999673E+01  0.40000000000E+01  0.51109989000E-03 0.  1.
     -623   -1    0    0    0    0  0.00000000000E+00  0.00000000000E+00  0.12525980253E-10  0.17130000000E+03  0.17130000000E+03 0. -1.
       11    1    1    2    0    0  0.16812148357E-02  0.36541327368E-03  0.11469495660E+01  0.11469509703E+01  0.51109989000E-03 0.  1.
     -623    1    1    2    0    0 -0.74425563059E-04  0.12267298130E-03  0.34431492311E-05  0.17130000000E+03  0.17130000000E+03 0. -1.
      622    1    1    2    0    0 -0.16067892745E-02 -0.48808625179E-03  0.28530468540E+01  0.28530489255E+01  0.30000000000E-02 0.  1.
</event>
<event>
 5   0  0.3294100E+10  0.9118800E+02  0.7818608E-02  0.1180000E+00
       11   -1    0    0    0    0  0.00000000000E+00  0.00000000000E+00  0.39999999673E+01  0.40000000000E+01  0.51109989000E-03 0. -1.
     -623   -1    0    0    0    0  0.00000000000E+00  0.00000000000E+00  0.12525980253E-10  0.17130000000E+03  0.17130000000E+03 0. -1.
       11    1    1    2    0    0  0.22622241434E-02  0.18182392052E-02  0.47254718734E+00  0.47255637667E+00  0.51109989000E-03 0. -1.
     -623    1    1    2    0    0 -0.11428041142E-02  0.72919388179E-03  0.11535241633E-04  0.17130000001E+03  0.17130000000E+03 0. -1.
      622    1    1    2    0    0 -0.11194200125E-02 -0.25474330976E-02  0.35274413032E+01  0.35274436764E+01  0.30000000000E-02 0. -1.
</event>
<event>
 5   0  0.3294100E+10  0.9118800E+02  0.7818608E-02  0.1180000E+00
       11   -1    0    0    0    0  0.00000000000E+00  0.00000000000E+00  0.39999999673E+01  0.40000000000E+01  0.51109989000E-03 0.  1.
     -623   -1    0    0    0    0  0.00000000000E+00  0.00000000000E+00  0.12525980253E-10  0.17130000000E+03  0.17130000000E+03 0. -1.
       11    1    1    2    0    0  0.88562123555E-03 -0.48544430960E-04  0.82047322850E+00  0.82047386709E+00  0.51109989000E-03 0.  1.
     -623    1    1    2    0    0 -0.34108366473E-03  0.54720943745E-03  0.21082108601E-05  0.17130000000E+03  0.17130000000E+03 0. -1.
      622    1    1    2    0    0 -0.54453758589E-03 -0.49866498231E-03  0.31795244539E+01  0.31795259549E+01  0.30000000000E-02 0.  1.
</event>
<event>
 5   0  0.3294100E+10  0.9118800E+02  0.7818608E-02  0.1180000E+00
       11   -1    0    0    0    0  0.00000000000E+00  0.00000000000E+00  0.39999999673E+01  0.40000000000E+01  0.51109989000E-03 0.  1.
     -623   -1    0    0    0    0  0.00000000000E+00  0.00000000000E+00  0.12525980253E-10  0.17130000000E+03  0.17130000000E+03 0.  1.
       11    1    1    2    0    0 -0.12028225130E-02 -0.89995049702E-03  0.36250783839E+00  0.36251131129E+00  0.51109989000E-03 0.  1.
     -623    1    1    2    0    0  0.30248726193E-04  0.90726884505E-04  0.49564074405E-05  0.17130000000E+03  0.17130000000E+03 0.  1.
      622    1    1    2    0    0  0.11725737869E-02  0.80922361291E-03  0.36374871551E+01  0.36374886712E+01  0.30000000000E-02 0.  1.
</event>
<event>
 5   0  0.3294100E+10  0.9118800E+02  0.7818608E-02  0.1180000E+00
       11   -1    0    0    0    0  0.00000000000E+00  0.00000000000E+00  0.39999999673E+01  0.40000000000E+01  0.51109989000E-03 0. -1.
     -623   -1    0    0    0    0  0.00000000000E+00  0.00000000000E+00  0.12525980253E-10  0.17130000000E+03  0.17130000000E+03 0.  1.
       11    1    1    2    0    0  0.46791993448E-03  0.52914738460E-03  0.23840179444E+00  0.23840338874E+00  0.51109989000E-03 0. -1.
     -623    1    1    2    0    0  0.25496820402E-03 -0.15829394302E-03  0.28459589840E-05  0.17130000000E+03  0.17130000000E+03 0.  1.
      622    1    1    2    0    0 -0.72288813850E-03 -0.37085344158E-03  0.37615953270E+01  0.37615966110E+01  0.30000000000E-02 0. -1.
</event>
<event>
 5   0  0.3294100E+10  0.9118800E+02  0.7818608E-02  0.1180000E+00
       11   -1    0    0    0    0  0.00000000000E+00  0.00000000000E+00  0.39999999673E+01  0.40000000000E+01  0.51109989000E-03 0. -1.
     -623   -1    0    0    0    0  0.00000000000E+00  0.00000000000E+00  0.12525980253E-10  0.17130000000E+03  0.17130000000E+03 0.  1.
       11    1    1    2    0    0  0.11205759602E-02  0.37823884459E-03  0.73415039535E+00  0.73415152589E+00  0.51109989000E-03 0. -1.
     -623    1    1    2    0    0 -0.11236893454E-04 -0.19014905649E-03  0.26697299842E-05  0.17130000000E+03  0.17130000000E+03 0.  1.
      622    1    1    2    0    0 -0.11093390668E-02 -0.18808978810E-03  0.32658469023E+01  0.32658484740E+01  0.30000000000E-02 0. -1.
</event>
<event>
 5   0  0.3294100E+10  0.9118800E+02  0.7818608E-02  0.1180000E+00
       11   -1    0    0    0    0  0.00000000000E+00  0.00000000000E+00  0.39999999673E+01  0.40000000000E+01  0.51109989000E-03 0.  1.
     -623   -1    0    0    0    0  0.00000000000E+00  0.00000000000E+00  0.12525980253E-10  0.17130000000E+03  0.17130000000E+03 0. -1.
       11    1    1    2    0    0 -0.24826749341E-02 -0.85344639504E-03  0.76904234370E+00  0.76904699445E+00  0.51109989000E-03 0.  1.
     -623    1    1    2    0    0  0.59763395369E-04 -0.27777786622E-04  0.70395538438E-05  0.17130000000E+03  0.17130000000E+03 0. -1.
      622    1    1    2    0    0  0.24229115383E-02  0.88122418187E-03  0.32309506131E+01  0.32309530346E+01  0.30000000000E-02 0.  0.
</event>
<event>
 5   0  0.3294100E+10  0.9118800E+02  0.7818608E-02  0.1180000E+00
       11   -1    0    0    0    0  0.00000000000E+00  0.00000000000E+00  0.39999999673E+01  0.40000000000E+01  0.51109989000E-03 0.  1.
     -623   -1    0    0    0    0  0.00000000000E+00  0.00000000000E+00  0.12525980253E-10  0.17130000000E+03  0.17130000000E+03 0. -1.
       11    1    1    2    0    0  0.16427119027E-02 -0.16663814529E-02  0.91040676841E+00  0.91040991894E+00  0.51109989000E-03 0.  1.
     -623    1    1    2    0    0 -0.38627110005E-04 -0.14745802993E-04  0.54481922107E-05  0.17130000000E+03  0.17130000000E+03 0. -1.
      622    1    1    2    0    0 -0.16040847927E-02  0.16811272559E-02  0.30895877508E+01  0.30895900811E+01  0.30000000000E-02 0.  1.
</event>
<event>
 5   0  0.3294100E+10  0.9118800E+02  0.7818608E-02  0.1180000E+00
       11   -1    0    0    0    0  0.00000000000E+00  0.00000000000E+00  0.39999999673E+01  0.40000000000E+01  0.51109989000E-03 0. -1.
     -623   -1    0    0    0    0  0.00000000000E+00  0.00000000000E+00  0.12525980253E-10  0.17130000000E+03  0.17130000000E+03 0. -1.
       11    1    1    2    0    0 -0.51834651942E-03 -0.12426380858E-02  0.11692748217E+01  0.11692757086E+01  0.51109989000E-03 0. -1.
     -623    1    1    2    0    0  0.11046508177E-03  0.97623072999E-04  0.27049835372E-05  0.17130000000E+03  0.17130000000E+03 0. -1.
      622    1    1    2    0    0  0.40788143467E-03  0.11450150102E-02  0.28307225488E+01  0.28307243995E+01  0.30000000000E-02 0.  0.
</event>
<event>
 5   0  0.3294100E+10  0.9118800E+02  0.7818608E-02  0.1180000E+00
       11   -1    0    0    0    0  0.00000000000E+00  0.00000000000E+00  0.39999999673E+01  0.40000000000E+01  0.51109989000E-03 0.  1.
     -623   -1    0    0    0    0  0.00000000000E+00  0.00000000000E+00  0.12525980253E-10  0.17130000000E+03  0.17130000000E+03 0. -1.
       11    1    1    2    0    0 -0.31060729881E-03 -0.15372591844E-03  0.63518258435E+00  0.63518288452E+00  0.51109989000E-03 0.  1.
     -623    1    1    2    0    0  0.67017443126E-03  0.53933310433E-03  0.16483686442E-05  0.17130000000E+03  0.17130000000E+03 0. -1.
      622    1    1    2    0    0 -0.35956713245E-03 -0.38560718589E-03  0.33648157346E+01  0.33648171133E+01  0.30000000000E-02 0.  1.
</event>
<event>
 5   0  0.3294100E+10  0.9118800E+02  0.7818608E-02  0.1180000E+00
       11   -1    0    0    0    0  0.00000000000E+00  0.00000000000E+00  0.39999999673E+01  0.40000000000E+01  0.51109989000E-03 0. -1.
     -623   -1    0    0    0    0  0.00000000000E+00  0.00000000000E+00  0.12525980253E-10  0.17130000000E+03  0.17130000000E+03 0.  1.
       11    1    1    2    0    0  0.16387860775E-02  0.22191864391E-03  0.43968402110E-01  0.44002459860E-01  0.51109989000E-03 0. -1.
     -623    1    1    2    0    0 -0.49867180608E-03 -0.24120423191E-02  0.35950874916E-04  0.17130000002E+03  0.17130000000E+03 0.  1.
      622    1    1    2    0    0 -0.11401142714E-02  0.21901236752E-02  0.39559956144E+01  0.39559975224E+01  0.30000000000E-02 0. -1.
</event>
<event>
 5   0  0.3294100E+10  0.9118800E+02  0.7818608E-02  0.1180000E+00
       11   -1    0    0    0    0  0.00000000000E+00  0.00000000000E+00  0.39999999673E+01  0.40000000000E+01  0.51109989000E-03 0.  1.
     -623   -1    0    0    0    0  0.00000000000E+00  0.00000000000E+00  0.12525980253E-10  0.17130000000E+03  0.17130000000E+03 0.  1.
       11    1    1    2    0    0 -0.76080509700E-03 -0.85634029838E-03  0.11178715009E+01  0.11178722047E+01  0.51109989000E-03 0.  1.
     -623    1    1    2    0    0  0.58696690156E-03 -0.84148913577E-04  0.23921566048E-05  0.17130000000E+03  0.17130000000E+03 0.  1.
      622    1    1    2    0    0  0.17383819544E-03  0.94048921196E-03  0.28821260743E+01  0.28821277943E+01  0.30000000000E-02 0.  1.
</event>
<event>
 5   0  0.3294100E+10  0.9118800E+02  0.7818608E-02  0.1180000E+00
       11   -1    0    0    0    0  0.00000000000E+00  0.00000000000E+00  0.39999999673E+01  0.40000000000E+01  0.51109989000E-03 0.  1.
     -623   -1    0    0    0    0  0.00000000000E+00  0.00000000000E+00  0.12525980253E-10  0.17130000000E+03  0.17130000000E+03 0.  1.
       11    1    1    2    0    0 -0.17300123396E-02 -0.26569968100E-02  0.53781927484E+00  0.53782886329E+00  0.51109989000E-03 0.  1.
     -623    1    1    2    0    0 -0.16350300787E-03  0.60962687796E-03  0.11979892247E-04  0.17130000000E+03  0.17130000000E+03 0.  1.
      622    1    1    2    0    0  0.18935153475E-02  0.20473699320E-02  0.34621687126E+01  0.34621711355E+01  0.30000000000E-02 0.  1.
</event>
<event>
 5   0  0.3294100E+10  0.9118800E+02  0.7818608E-02  0.1180000E+00
       11   -1    0    0    0    0  0.00000000000E+00  0.00000000000E+00  0.39999999673E+01  0.40000000000E+01  0.51109989000E-03 0.  1.
     -623   -1    0    0    0    0  0.00000000000E+00  0.00000000000E+00  0.12525980253E-10  0.17130000000E+03  0.17130000000E+03 0.  1.
       11    1    1    2    0    0  0.88868523672E-02 -0.67131231765E-02  0.11307357727E+01  0.11307907371E+01  0.51109989000E-03 0.  1.
     -623    1    1    2    0    0 -0.12183801793E-02 -0.28499381496E-02  0.82712803610E-04  0.17130000003E+03  0.17130000000E+03 0.  1.
      622    1    1    2    0    0 -0.76684721879E-02  0.95630613261E-02  0.28691814818E+01  0.28692092348E+01  0.30000000000E-02 0.  1.
</event>
<event>
 5   0  0.3294100E+10  0.9118800E+02  0.7818608E-02  0.1180000E+00
       11   -1    0    0    0    0  0.00000000000E+00  0.00000000000E+00  0.39999999673E+01  0.40000000000E+01  0.51109989000E-03 0. -1.
     -623   -1    0    0    0    0  0.00000000000E+00  0.00000000000E+00  0.12525980253E-10  0.17130000000E+03  0.17130000000E+03 0. -1.
       11    1    1    2    0    0 -0.12167087536E-02  0.17454395430E-02  0.10656812454E+01  0.10656834919E+01  0.51109989000E-03 0. -1.
     -623    1    1    2    0    0 -0.19072824717E-03 -0.87914487288E-04  0.45532738215E-05  0.17130000000E+03  0.17130000000E+03 0. -1.
      622    1    1    2    0    0  0.14074370008E-02 -0.16575250557E-02  0.29343141687E+01  0.29343165080E+01  0.30000000000E-02 0. -1.
</event>
<event>
 5   0  0.3294100E+10  0.9118800E+02  0.7818608E-02  0.1180000E+00
       11   -1    0    0    0    0  0.00000000000E+00  0.00000000000E+00  0.39999999673E+01  0.40000000000E+01  0.51109989000E-03 0.  1.
     -623   -1    0    0    0    0  0.00000000000E+00  0.00000000000E+00  0.12525980253E-10  0.17130000000E+03  0.17130000000E+03 0.  1.
       11    1    1    2    0    0  0.15675804153E-02 -0.69289885746E-03  0.46980868970E+00  0.46981209389E+00  0.51109989000E-03 0.  1.
     -623    1    1    2    0    0  0.12701568201E-03  0.17206784594E-03  0.50915448511E-05  0.17130000000E+03  0.17130000000E+03 0.  1.
      622    1    1    2    0    0 -0.16945960988E-02  0.52083100950E-03  0.35301862331E+01  0.35301879529E+01  0.30000000000E-02 0.  1.
</event>
<event>
 5   0  0.3294100E+10  0.9118800E+02  0.7818608E-02  0.1180000E+00
       11   -1    0    0    0    0  0.00000000000E+00  0.00000000000E+00  0.39999999673E+01  0.40000000000E+01  0.51109989000E-03 0. -1.
     -623   -1    0    0    0    0  0.00000000000E+00  0.00000000000E+00  0.12525980253E-10  0.17130000000E+03  0.17130000000E+03 0. -1.
       11    1    1    2    0    0  0.30097827557E-03  0.85478299540E-04  0.20214358180E+00  0.20214447006E+00  0.51109989000E-03 0. -1.
     -623    1    1    2    0    0 -0.93093371987E-03  0.88802635528E-03  0.22223514815E-05  0.17130000000E+03  0.17130000000E+03 0. -1.
      622    1    1    2    0    0  0.62995544430E-03 -0.97350465482E-03  0.37978541632E+01  0.37978555251E+01  0.30000000000E-02 0. -1.
</event>
<event>
 5   0  0.3294100E+10  0.9118800E+02  0.7818608E-02  0.1180000E+00
       11   -1    0    0    0    0  0.00000000000E+00  0.00000000000E+00  0.39999999673E+01  0.40000000000E+01  0.51109989000E-03 0. -1.
     -623   -1    0    0    0    0  0.00000000000E+00  0.00000000000E+00  0.12525980253E-10  0.17130000000E+03  0.17130000000E+03 0.  1.
       11    1    1    2    0    0 -0.26731643545E-02  0.52787611467E-03  0.26271934825E+00  0.26273397502E+00  0.51109989000E-03 0.  1.
     -623    1    1    2    0    0  0.25651677987E-03  0.34445784148E-04  0.16622059092E-04  0.17130000000E+03  0.17130000000E+03 0.  1.
      622    1    1    2    0    0  0.24166475747E-02 -0.56232189882E-03  0.37372639970E+01  0.37372660248E+01  0.30000000000E-02 0. -1.
</event>
<event>
 5   0  0.3294100E+10  0.9118800E+02  0.7818608E-02  0.1180000E+00
       11   -1    0    0    0    0  0.00000000000E+00  0.00000000000E+00  0.39999999673E+01  0.40000000000E+01  0.51109989000E-03 0.  1.
     -623   -1    0    0    0    0  0.00000000000E+00  0.00000000000E+00  0.12525980253E-10  0.17130000000E+03  0.17130000000E+03 0.  1.
       11    1    1    2    0    0  0.42174250309E-04  0.52541743507E-03  0.93106951134E+00  0.93106980083E+00  0.51109989000E-03 0.  1.
     -623    1    1    2    0    0  0.17753785617E-04 -0.47123633892E-04  0.17610193019E-05  0.17130000000E+03  0.17130000000E+03 0.  1.
      622    1    1    2    0    0 -0.59928035926E-04 -0.47829380118E-03  0.30689286950E+01  0.30689301992E+01  0.30000000000E-02 0.  1.
</event>
<event>
 5   0  0.3294100E+10  0.9118800E+02  0.7818608E-02  0.1180000E+00
       11   -1    0    0    0    0  0.00000000000E+00  0.00000000000E+00  0.39999999673E+01  0.40000000000E+01  0.51109989000E-03 0.  1.
     -623   -1    0    0    0    0  0.00000000000E+00  0.00000000000E+00  0.12525980253E-10  0.17130000000E+03  0.17130000000E+03 0. -1.
       11    1    1    2    0    0 -0.21084569521E-02 -0.27855729430E-02  0.37928030503E+00  0.37929673873E+00  0.51109989000E-03 0.  1.
     -623    1    1    2    0    0 -0.59852264327E-04  0.27016853612E-03  0.19167163177E-04  0.17130000000E+03  0.17130000000E+03 0. -1.
      622    1    1    2    0    0  0.21683092164E-02  0.25154044069E-02  0.36207004952E+01  0.36207032610E+01  0.30000000000E-02 0.  1.
</event>
<event>
 5   0  0.3294100E+10  0.9118800E+02  0.7818608E-02  0.1180000E+00
       11   -1    0    0    0    0  0.00000000000E+00  0.00000000000E+00  0.39999999673E+01  0.40000000000E+01  0.51109989000E-03 0. -1.
     -623   -1    0    0    0    0  0.00000000000E+00  0.00000000000E+00  0.12525980253E-10  0.17130000000E+03  0.17130000000E+03 0.  1.
       11    1    1    2    0    0 -0.36198583995E-03 -0.22952023640E-02  0.79814339224E+00  0.79814693809E+00  0.51109989000E-03 0. -1.
     -623    1    1    2    0    0  0.18517335558E-03  0.15268043274E-03  0.56405347251E-05  0.17130000000E+03  0.17130000000E+03 0.  1.
      622    1    1    2    0    0  0.17681248333E-03  0.21425219304E-02  0.32018509571E+01  0.32018530842E+01  0.30000000000E-02 0.  0.
</event>
<event>
 5   0  0.3294100E+10  0.9118800E+02  0.7818608E-02  0.1180000E+00
       11   -1    0    0    0    0  0.00000000000E+00  0.00000000000E+00  0.39999999673E+01  0.40000000000E+01  0.51109989000E-03 0.  1.
     -623   -1    0    0    0    0  0.00000000000E+00  0.00000000000E+00  0.12525980253E-10  0.17130000000E+03  0.17130000000E+03 0.  1.
       11    1    1    2    0    0 -0.13335355127E-02 -0.40217369215E-03  0.14171968901E+00  0.14172745511E+00  0.51109989000E-03 0.  1.
     -623    1    1    2    0    0  0.18117612463E-04  0.62760951299E-03  0.91317635098E-05  0.17130000000E+03  0.17130000000E+03 0.  1.
      622    1    1    2    0    0  0.13154179003E-02 -0.22543582084E-03  0.38582711466E+01  0.38582725437E+01  0.30000000000E-02 0.  1.
</event>
<event>
 5   0  0.3294100E+10  0.9118800E+02  0.7818608E-02  0.1180000E+00
       11   -1    0    0    0    0  0.00000000000E+00  0.00000000000E+00  0.39999999673E+01  0.40000000000E+01  0.51109989000E-03 0.  1.
     -623   -1    0    0    0    0  0.00000000000E+00  0.00000000000E+00  0.12525980253E-10  0.17130000000E+03  0.17130000000E+03 0.  1.
       11    1    1    2    0    0  0.18307855001E-02 -0.24500959538E-02  0.29054430616E+00  0.29056085389E+00  0.51109989000E-03 0.  1.
     -623    1    1    2    0    0 -0.23740388413E-02  0.20391486910E-02  0.17819339373E-04  0.17130000003E+03  0.17130000000E+03 0.  1.
      622    1    1    2    0    0  0.54325334661E-03  0.41094725812E-03  0.37094378510E+01  0.37094391267E+01  0.30000000000E-02 0.  1.
</event>
<event>
 5   0  0.3294100E+10  0.9118800E+02  0.7818608E-02  0.1180000E+00
       11   -1    0    0    0    0  0.00000000000E+00  0.00000000000E+00  0.39999999673E+01  0.40000000000E+01  0.51109989000E-03 0. -1.
     -623   -1    0    0    0    0  0.00000000000E+00  0.00000000000E+00  0.12525980253E-10  0.17130000000E+03  0.17130000000E+03 0. -1.
       11    1    1    2    0    0 -0.68161936087E-03 -0.10102976884E-02  0.30359050411E+00  0.30359338055E+00  0.51109989000E-03 0. -1.
     -623    1    1    2    0    0  0.44097859130E-03 -0.62789795263E-04  0.42253739321E-05  0.17130000000E+03  0.17130000000E+03 0. -1.
      622    1    1    2    0    0  0.24064076957E-03  0.10730874836E-02  0.36964052379E+01  0.36964066189E+01  0.30000000000E-02 0. -1.
</event>
<event>
 5   0  0.3294100E+10  0.9118800E+02  0.7818608E-02  0.1180000E+00
       11   -1    0    0    0    0  0.00000000000E+00  0.00000000000E+00  0.39999999673E+01  0.40000000000E+01  0.51109989000E-03 0. -1.
     -623   -1    0    0    0    0  0.00000000000E+00  0.00000000000E+00  0.12525980253E-10  0.17130000000E+03  0.17130000000E+03 0.  1.
       11    1    1    2    0    0 -0.22761413586E-04  0.43797206156E-03  0.39508612682E+00  0.39508670082E+00  0.51109989000E-03 0. -1.
     -623    1    1    2    0    0 -0.34092985178E-03  0.32586173830E-03  0.18895743490E-05  0.17130000000E+03  0.17130000000E+03 0.  1.
      622    1    1    2    0    0  0.36369126536E-03 -0.76383379986E-03  0.36049119510E+01  0.36049132985E+01  0.30000000000E-02 0. -1.
</event>
<event>
 5   0  0.3294100E+10  0.9118800E+02  0.7818608E-02  0.1180000E+00
       11   -1    0    0    0    0  0.00000000000E+00  0.00000000000E+00  0.39999999673E+01  0.40000000000E+01  0.51109989000E-03 0.  1.
     -623   -1    0    0    0    0  0.00000000000E+00  0.00000000000E+00  0.12525980253E-10  0.17130000000E+03  0.17130000000E+03 0.  1.
       11    1    1    2    0    0 -0.17849531483E-02 -0.27984809143E-02  0.90586832356E+00  0.90587454893E+00  0.51109989000E-03 0.  1.
     -623    1    1    2    0    0  0.17937199896E-03 -0.37778037489E-04  0.93637212530E-05  0.17130000000E+03  0.17130000000E+03 0.  1.
      622    1    1    2    0    0  0.16055811494E-02  0.28362589518E-02  0.30941222801E+01  0.30941254510E+01  0.30000000000E-02 0.  1.
</event>
<event>
 5   0  0.3294100E+10  0.9118800E+02  0.7818608E-02  0.1180000E+00
       11   -1    0    0    0    0  0.00000000000E+00  0.00000000000E+00  0.39999999673E+01  0.40000000000E+01  0.51109989000E-03 0.  1.
     -623   -1    0    0    0    0  0.00000000000E+00  0.00000000000E+00  0.12525980253E-10  0.17130000000E+03  0.17130000000E+03 0.  1.
       11    1    1    2    0    0  0.74660004781E-02 -0.33163012697E-02  0.31969528442E-01  0.33000772547E-01  0.51109989000E-03 0.  1.
     -623    1    1    2    0    0 -0.44590201753E-02  0.94093659451E-03  0.10342603722E-02  0.17130000006E+03  0.17130000000E+03 0.  1.
      622    1    1    2    0    0 -0.30069803028E-02  0.23753646752E-02  0.39669961785E+01  0.39669991637E+01  0.30000000000E-02 0.  1.
</event>
<event>
 5   0  0.3294100E+10  0.9118800E+02  0.7818608E-02  0.1180000E+00
       11   -1    0    0    0    0  0.00000000000E+00  0.00000000000E+00  0.39999999673E+01  0.40000000000E+01  0.51109989000E-03 0. -1.
     -623   -1    0    0    0    0  0.00000000000E+00  0.00000000000E+00  0.12525980253E-10  0.17130000000E+03  0.17130000000E+03 0.  1.
       11    1    1    2    0    0 -0.11299597807E-02 -0.13677199452E-02  0.20948310630E+00  0.20949124209E+00  0.51109989000E-03 0.  1.
     -623    1    1    2    0    0 -0.65415110523E-04  0.22717748009E-03  0.96505679337E-05  0.17130000000E+03  0.17130000000E+03 0.  1.
      622    1    1    2    0    0  0.11953748912E-02  0.11405424651E-02  0.37905072105E+01  0.37905087577E+01  0.30000000000E-02 0. -1.
</event>
<event>
 5   0  0.3294100E+10  0.9118800E+02  0.7818608E-02  0.1180000E+00
       11   -1    0    0    0    0  0.00000000000E+00  0.00000000000E+00  0.39999999673E+01  0.40000000000E+01  0.51109989000E-03 0. -1.
     -623   -1    0    0    0    0  0.00000000000E+00  0.00000000000E+00  0.12525980253E-10  0.17130000000E+03  0.17130000000E+03 0.  1.
       11    1    1    2    0    0  0.26743591175E-03 -0.18228157824E-03  0.41778096787E+00  0.41778140586E+00  0.51109989000E-03 0. -1.
     -623    1    1    2    0    0 -0.12346025460E-04  0.12333301957E-03  0.16711716313E-05  0.17130000000E+03  0.17130000000E+03 0.  1.
      622    1    1    2    0    0 -0.25508988640E-03  0.58948559782E-04  0.35822172923E+01  0.35822185580E+01  0.30000000000E-02 0. -1.
</event>
<event>
 5   0  0.3294100E+10  0.9118800E+02  0.7818608E-02  0.1180000E+00
       11   -1    0    0    0    0  0.00000000000E+00  0.00000000000E+00  0.39999999673E+01  0.40000000000E+01  0.51109989000E-03 0.  1.
     -623   -1    0    0    0    0  0.00000000000E+00  0.00000000000E+00  0.12525980253E-10  0.17130000000E+03  0.17130000000E+03 0. -1.
       11    1    1    2    0    0 -0.13410482947E-03  0.28885885871E-03  0.42798622442E-01  0.42802858894E-01  0.51109989000E-03 0.  1.
     -623    1    1    2    0    0  0.42530837521E-04 -0.22004671945E-04  0.53510454783E-05  0.17130000000E+03  0.17130000000E+03 0. -1.
      622    1    1    2    0    0  0.91573991968E-04 -0.26685418678E-03  0.39571959917E+01  0.39571971389E+01  0.30000000000E-02 0.  1.
</event>
<event>
 5   0  0.3294100E+10  0.9118800E+02  0.7818608E-02  0.1180000E+00
       11   -1    0    0    0    0  0.00000000000E+00  0.00000000000E+00  0.39999999673E+01  0.40000000000E+01  0.51109989000E-03 0.  1.
     -623   -1    0    0    0    0  0.00000000000E+00  0.00000000000E+00  0.12525980253E-10  0.17130000000E+03  0.17130000000E+03 0. -1.
       11    1    1    2    0    0  0.48163133186E-03  0.50241374797E-04  0.45497143427E+00  0.45497197904E+00  0.51109989000E-03 0.  1.
     -623    1    1    2    0    0 -0.13395624640E-03 -0.70165300969E-04  0.17986909242E-05  0.17130000000E+03  0.17130000000E+03 0. -1.
      622    1    1    2    0    0 -0.34767508545E-03  0.19923926172E-04  0.35450267344E+01  0.35450280209E+01  0.30000000000E-02 0.  0.
</event>
<event>
 5   0  0.3294100E+10  0.9118800E+02  0.7818608E-02  0.1180000E+00
       11   -1    0    0    0    0  0.00000000000E+00  0.00000000000E+00  0.39999999673E+01  0.40000000000E+01  0.51109989000E-03 0.  1.
     -623   -1    0    0    0    0  0.00000000000E+00  0.00000000000E+00  0.12525980253E-10  0.17130000000E+03  0.17130000000E+03 0. -1.
       11    1    1    2    0    0 -0.24529434977E-02 -0.57193033347E-03  0.49426194776E+00  0.49426862966E+00  0.51109989000E-03 0.  1.
     -623    1    1    2    0    0  0.87838942418E-05 -0.28011284591E-04  0.88362281514E-05  0.17130000000E+03  0.17130000000E+03 0. -1.
      622    1    1    2    0    0  0.24441596034E-02  0.59994161823E-03  0.35057292083E+01  0.35057313953E+01  0.30000000000E-02 0.  1.
</event>
<event>
 5   0  0.3294100E+10  0.9118800E+02  0.7818608E-02  0.1180000E+00
       11   -1    0    0    0    0  0.00000000000E+00  0.00000000000E+00  0.39999999673E+01  0.40000000000E+01  0.51109989000E-03 0. -1.
     -623   -1    0    0    0    0  0.00000000000E+00  0.00000000000E+00  0.12525980253E-10  0.17130000000E+03  0.17130000000E+03 0. -1.
       11    1    1    2    0    0  0.10929759455E-02  0.84704872102E-03  0.13062934339E+00  0.13063766174E+00  0.51109989000E-03 0. -1.
     -623    1    1    2    0    0 -0.40807228125E-03  0.17694558359E-03  0.96453725504E-05  0.17130000000E+03  0.17130000000E+03 0. -1.
      622    1    1    2    0    0 -0.68490366421E-03 -0.10239943046E-02  0.38693609786E+01  0.38693623377E+01  0.30000000000E-02 0. -1.
</event>
<event>
 5   0  0.3294100E+10  0.9118800E+02  0.7818608E-02  0.1180000E+00
       11   -1    0    0    0    0  0.00000000000E+00  0.00000000000E+00  0.39999999673E+01  0.40000000000E+01  0.51109989000E-03 0.  1.
     -623   -1    0    0    0    0  0.00000000000E+00  0.00000000000E+00  0.12525980253E-10  0.17130000000E+03  0.17130000000E+03 0.  1.
       11    1    1    2    0    0  0.80711678505E-03  0.66307674910E-04  0.15651776252E+00  0.15652069205E+00  0.51109989000E-03 0. -1.
     -623    1    1    2    0    0  0.90032787225E-05  0.19322731682E-04  0.41553100303E-05  0.17130000000E+03  0.17130000000E+03 0.  1.
      622    1    1    2    0    0 -0.81612006378E-03 -0.85630406592E-04  0.38434780495E+01  0.38434793079E+01  0.30000000000E-02 0.  1.
</event>
<event>
 5   0  0.3294100E+10  0.9118800E+02  0.7818608E-02  0.1180000E+00
       11   -1    0    0    0    0  0.00000000000E+00  0.00000000000E+00  0.39999999673E+01  0.40000000000E+01  0.51109989000E-03 0. -1.
     -623   -1    0    0    0    0  0.00000000000E+00  0.00000000000E+00  0.12525980253E-10  0.17130000000E+03  0.17130000000E+03 0.  1.
       11    1    1    2    0    0  0.16272389504E-03 -0.13778665499E-03  0.41548195677E-02  0.41915645010E-02  0.51109989000E-03 0. -1.
     -623    1    1    2    0    0 -0.17375453153E-03 -0.10768805317E-03  0.37846154871E-04  0.17130000000E+03  0.17130000000E+03 0.  1.
      622    1    1    2    0    0  0.11030636904E-04  0.24547470841E-03  0.39958073112E+01  0.39958084449E+01  0.30000000000E-02 0. -1.
</event>
<event>
 5   0  0.3294100E+10  0.9118800E+02  0.7818608E-02  0.1180000E+00
       11   -1    0    0    0    0  0.00000000000E+00  0.00000000000E+00  0.39999999673E+01  0.40000000000E+01  0.51109989000E-03 0.  1.
     -623   -1    0    0    0    0  0.00000000000E+00  0.00000000000E+00  0.12525980253E-10  0.17130000000E+03  0.17130000000E+03 0.  1.
       11    1    1    2    0    0 -0.20102405544E-02  0.43495585585E-03  0.47481703197E+00  0.47482176164E+00  0.51109989000E-03 0.  1.
     -623    1    1    2    0    0  0.41351378542E-02  0.32402334697E-03  0.67459024082E-05  0.17130000005E+03  0.17130000000E+03 0.  1.
      622    1    1    2    0    0 -0.21248972580E-02 -0.75897919955E-03  0.35251761491E+01  0.35251781477E+01  0.30000000000E-02 0.  1.
</event>
<event>
 5   0  0.3294100E+10  0.9118800E+02  0.7818608E-02  0.1180000E+00
       11   -1    0    0    0    0  0.00000000000E+00  0.00000000000E+00  0.39999999673E+01  0.40000000000E+01  0.51109989000E-03 0.  1.
     -623   -1    0    0    0    0  0.00000000000E+00  0.00000000000E+00  0.12525980253E-10  0.17130000000E+03  0.17130000000E+03 0. -1.
       11    1    1    2    0    0 -0.36001174202E-03 -0.88279776832E-03  0.20335211422E+00  0.20335499138E+00  0.51109989000E-03 0.  1.
     -623    1    1    2    0    0  0.27505937276E-03 -0.31986071256E-03  0.42217283074E-05  0.17130000000E+03  0.17130000000E+03 0. -1.
      622    1    1    2    0    0  0.84952369256E-04  0.12026584809E-02  0.37966436314E+01  0.37966450081E+01  0.30000000000E-02 0.  1.
</event>
<event>
 5   0  0.3294100E+10  0.9118800E+02  0.7818608E-02  0.1180000E+00
       11   -1    0    0    0    0  0.00000000000E+00  0.00000000000E+00  0.39999999673E+01  0.40000000000E+01  0.51109989000E-03 0. -1.
     -623   -1    0    0    0    0  0.00000000000E+00  0.00000000000E+00  0.12525980253E-10  0.17130000000E+03  0.17130000000E+03 0.  1.
       11    1    1    2    0    0 -0.51892519162E-02  0.18453543953E-02  0.69919484795E+00  0.69921672627E+00  0.51109989000E-03 0. -1.
     -623    1    1    2    0    0  0.13334730092E-02 -0.31366432901E-03  0.25821898363E-04  0.17130000001E+03  0.17130000000E+03 0.  1.
      622    1    1    2    0    0  0.38557789013E-02 -0.15316900649E-02  0.33007793146E+01  0.33007832854E+01  0.30000000000E-02 0.  1.
</event>
<event>
 5   0  0.3294100E+10  0.9118800E+02  0.7818608E-02  0.1180000E+00
       11   -1    0    0    0    0  0.00000000000E+00  0.00000000000E+00  0.39999999673E+01  0.40000000000E+01  0.51109989000E-03 0. -1.
     -623   -1    0    0    0    0  0.00000000000E+00  0.00000000000E+00  0.12525980253E-10  0.17130000000E+03  0.17130000000E+03 0. -1.
       11    1    1    2    0    0  0.15005946989E-03  0.33647852462E-03  0.12834345334E+00  0.12834499981E+00  0.51109989000E-03 0.  1.
     -623    1    1    2    0    0  0.12766452510E-04  0.28181814680E-04  0.26967148035E-05  0.17130000000E+03  0.17130000000E+03 0. -1.
      622    1    1    2    0    0 -0.16282592244E-03 -0.36466033939E-03  0.38716538301E+01  0.38716550130E+01  0.30000000000E-02 0. -1.
</event>
<event>
 5   0  0.3294100E+10  0.9118800E+02  0.7818608E-02  0.1180000E+00
       11   -1    0    0    0    0  0.00000000000E+00  0.00000000000E+00  0.39999999673E+01  0.40000000000E+01  0.51109989000E-03 0.  1.
     -623   -1    0    0    0    0  0.00000000000E+00  0.00000000000E+00  0.12525980253E-10  0.17130000000E+03  0.17130000000E+03 0. -1.
       11    1    1    2    0    0  0.37707358171E-04  0.57983395693E-03  0.54475607910E+00  0.54475662875E+00  0.51109989000E-03 0.  1.
     -623    1    1    2    0    0 -0.22340210224E-03 -0.61613280603E-03  0.18258145578E-05  0.17130000000E+03  0.17130000000E+03 0. -1.
      622    1    1    2    0    0  0.18569473652E-03  0.36298828278E-04  0.34552419273E+01  0.34552432348E+01  0.30000000000E-02 0.  1.
</event>
<event>
 5   0  0.3294100E+10  0.9118800E+02  0.7818608E-02  0.1180000E+00
       11   -1    0    0    0    0  0.00000000000E+00  0.00000000000E+00  0.39999999673E+01  0.40000000000E+01  0.51109989000E-03 0. -1.
     -623   -1    0    0    0    0  0.00000000000E+00  0.00000000000E+00  0.12525980253E-10  0.17130000000E+03  0.17130000000E+03 0. -1.
       11    1    1    2    0    0 -0.18478820200E-02 -0.15914405146E-03  0.55622137956E-01  0.55655399087E-01  0.51109989000E-03 0. -1.
     -623    1    1    2    0    0  0.57110587491E-02 -0.48307462267E-03  0.36409375931E-04  0.17130000010E+03  0.17130000000E+03 0. -1.
      622    1    1    2    0    0 -0.38631767290E-02  0.64221867413E-03  0.39443414200E+01  0.39443445050E+01  0.30000000000E-02 0. -1.
</event>
<event>
 5   0  0.3294100E+10  0.9118800E+02  0.7818608E-02  0.1180000E+00
       11   -1    0    0    0    0  0.00000000000E+00  0.00000000000E+00  0.39999999673E+01  0.40000000000E+01  0.51109989000E-03 0. -1.
     -623   -1    0    0    0    0  0.00000000000E+00  0.00000000000E+00  0.12525980253E-10  0.17130000000E+03  0.17130000000E+03 0.  1.
       11    1    1    2    0    0  0.14232125377E-02  0.14723271026E-02  0.42918781231E+00  0.42919300173E+00  0.51109989000E-03 0. -1.
     -623    1    1    2    0    0  0.78384549249E-03 -0.25309629653E-03  0.73092077728E-05  0.17130000000E+03  0.17130000000E+03 0.  1.
      622    1    1    2    0    0 -0.22070580302E-02 -0.12192308060E-02  0.35708048458E+01  0.35708069963E+01  0.30000000000E-02 0. -1.
</event>
<event>
 5   0  0.3294100E+10  0.9118800E+02  0.7818608E-02  0.1180000E+00
       11   -1    0    0    0    0  0.00000000000E+00  0.00000000000E+00  0.39999999673E+01  0.40000000000E+01  0.51109989000E-03 0.  1.
     -623   -1    0    0    0    0  0.00000000000E+00  0.00000000000E+00  0.12525980253E-10  0.17130000000E+03  0.17130000000E+03 0. -1.
       11    1    1    2    0    0  0.27002698258E-02 -0.77367522234E-02  0.13921801184E+00  0.13945990405E+00  0.51109989000E-03 0.  1.
     -623    1    1    2    0    0  0.10066307528E-02  0.51281213556E-02  0.24576613377E-03  0.17130000008E+03  0.17130000000E+03 0. -1.
      622    1    1    2    0    0 -0.37069005790E-02  0.26086308663E-02  0.38605361906E+01  0.38605400172E+01  0.30000000000E-02 0.  1.
</event>
<event>
 5   0  0.3294100E+10  0.9118800E+02  0.7818608E-02  0.1180000E+00
       11   -1    0    0    0    0  0.00000000000E+00  0.00000000000E+00  0.39999999673E+01  0.40000000000E+01  0.51109989000E-03 0. -1.
     -623   -1    0    0    0    0  0.00000000000E+00  0.00000000000E+00  0.12525980253E-10  0.17130000000E+03  0.17130000000E+03 0.  1.
       11    1    1    2    0    0 -0.25905771108E-05 -0.14337831150E-02  0.67269212519E+00  0.67269384735E+00  0.51109989000E-03 0. -1.
     -623    1    1    2    0    0 -0.47008853232E-04  0.28019859316E-04  0.33393012049E-05  0.17130000000E+03  0.17130000000E+03 0.  1.
      622    1    1    2    0    0  0.49599430343E-04  0.14057632557E-02  0.33273045029E+01  0.33273061526E+01  0.30000000000E-02 0. -1.
</event>
<event>
 5   0  0.3294100E+10  0.9118800E+02  0.7818608E-02  0.1180000E+00
       11   -1    0    0    0    0  0.00000000000E+00  0.00000000000E+00  0.39999999673E+01  0.40000000000E+01  0.51109989000E-03 0.  1.
     -623   -1    0    0    0    0  0.00000000000E+00  0.00000000000E+00  0.12525980253E-10  0.17130000000E+03  0.17130000000E+03 0. -1.
       11    1    1    2    0    0 -0.11417554856E-02  0.96078404689E-03  0.10094618756E-01  0.10217106366E-01  0.51109989000E-03 0.  1.
     -623    1    1    2    0    0  0.50208654470E-03 -0.27513227905E-02  0.12405878509E-03  0.17130000002E+03  0.17130000000E+03 0. -1.
      622    1    1    2    0    0  0.63966894065E-03  0.17905387451E-02  0.39897812920E+01  0.39897828729E+01  0.30000000000E-02 0.  1.
</event>
<event>
 5   0  0.3294100E+10  0.9118800E+02  0.7818608E-02  0.1180000E+00
       11   -1    0    0    0    0  0.00000000000E+00  0.00000000000E+00  0.39999999673E+01  0.40000000000E+01  0.51109989000E-03 0. -1.
     -623   -1    0    0    0    0  0.00000000000E+00  0.00000000000E+00  0.12525980253E-10  0.17130000000E+03  0.17130000000E+03 0. -1.
       11    1    1    2    0    0 -0.37758377961E-03  0.19479932053E-03  0.58767894170E+00  0.58767931753E+00  0.51109989000E-03 0. -1.
     -623    1    1    2    0    0  0.76087272788E-03  0.85964252527E-03  0.18502319703E-05  0.17130000000E+03  0.17130000000E+03 0. -1.
      622    1    1    2    0    0 -0.38328894827E-03 -0.10544418458E-02  0.34123191754E+01  0.34123206786E+01  0.30000000000E-02 0. -1.
</event>
<event>
 5   0  0.3294100E+10  0.9118800E+02  0.7818608E-02  0.1180000E+00
       11   -1    0    0    0    0  0.00000000000E+00  0.00000000000E+00  0.39999999673E+01  0.40000000000E+01  0.51109989000E-03 0.  1.
     -623   -1    0    0    0    0  0.00000000000E+00  0.00000000000E+00  0.12525980253E-10  0.17130000000E+03  0.17130000000E+03 0.  1.
       11    1    1    2    0    0 -0.68054605803E-03 -0.10712228239E-02  0.57904532402E+00  0.57904694037E+00  0.51109989000E-03 0.  1.
     -623    1    1    2    0    0  0.10516213701E-03 -0.64381959322E-04  0.31360526704E-05  0.17130000000E+03  0.17130000000E+03 0.  1.
      622    1    1    2    0    0  0.57538392425E-03  0.11356047812E-02  0.34209513841E+01  0.34209529364E+01  0.30000000000E-02 0.  1.
</event>
<event>
 5   0  0.3294100E+10  0.9118800E+02  0.7818608E-02  0.1180000E+00
       11   -1    0    0    0    0  0.00000000000E+00  0.00000000000E+00  0.39999999673E+01  0.40000000000E+01  0.51109989000E-03 0. -1.
     -623   -1    0    0    0    0  0.00000000000E+00  0.00000000000E+00  0.12525980253E-10  0.17130000000E+03  0.17130000000E+03 0.  1.
       11    1    1    2    0    0  0.59249919074E-03  0.61974818340E-03  0.36981536609E+00  0.36981671320E+00  0.51109989000E-03 0. -1.
     -623    1    1    2    0    0  0.19580321601E-03 -0.68400658464E-03  0.26417145786E-05  0.17130000000E+03  0.17130000000E+03 0.  1.
      622    1    1    2    0    0 -0.78830240937E-03  0.64258410423E-04  0.36301820132E+01  0.36301833390E+01  0.30000000000E-02 0. -1.
</event>
<event>
 5   0  0.3294100E+10  0.9118800E+02  0.7818608E-02  0.1180000E+00
       11   -1    0    0    0    0  0.00000000000E+00  0.00000000000E+00  0.39999999673E+01  0.40000000000E+01  0.51109989000E-03 0.  1.
     -623   -1    0    0    0    0  0.00000000000E+00  0.00000000000E+00  0.12525980253E-10  0.17130000000E+03  0.17130000000E+03 0. -1.
       11    1    1    2    0    0  0.28665806899E-04 -0.43789234672E-03  0.15489801412E+00  0.15489947893E+00  0.51109989000E-03 0.  1.
     -623    1    1    2    0    0 -0.79171723932E-04  0.70728402223E-03  0.26137378817E-05  0.17130000000E+03  0.17130000000E+03 0. -1.
      622    1    1    2    0    0  0.50505917409E-04 -0.26939167887E-03  0.38450993585E+01  0.38451005386E+01  0.30000000000E-02 0.  1.
</event>
<event>
 5   0  0.3294100E+10  0.9118800E+02  0.7818608E-02  0.1180000E+00
       11   -1    0    0    0    0  0.00000000000E+00  0.00000000000E+00  0.39999999673E+01  0.40000000000E+01  0.51109989000E-03 0.  1.
     -623   -1    0    0    0    0  0.00000000000E+00  0.00000000000E+00  0.12525980253E-10  0.17130000000E+03  0.17130000000E+03 0. -1.
       11    1    1    2    0    0 -0.49973688094E-03 -0.52880319536E-03  0.48324642267E+00  0.48324724068E+00  0.51109989000E-03 0.  1.
     -623    1    1    2    0    0  0.11397837103E-04 -0.63499074512E-04  0.21487470776E-05  0.17130000000E+03  0.17130000000E+03 0. -1.
      622    1    1    2    0    0  0.48833904354E-03  0.59230227149E-03  0.35167514978E+01  0.35167528612E+01  0.30000000000E-02 0.  1.
</event>
<event>
 5   0  0.3294100E+10  0.9118800E+02  0.7818608E-02  0.1180000E+00
       11   -1    0    0    0    0  0.00000000000E+00  0.00000000000E+00  0.39999999673E+01  0.40000000000E+01  0.51109989000E-03 0. -1.
     -623   -1    0    0    0    0  0.00000000000E+00  0.00000000000E+00  0.12525980253E-10  0.17130000000E+03  0.17130000000E+03 0. -1.
       11    1    1    2    0    0  0.76228413790E-03 -0.81025223579E-03  0.15312134254E+00  0.15312623665E+00  0.51109989000E-03 0. -1.
     -623    1    1    2    0    0 -0.77558112054E-04 -0.80715871258E-05  0.61792427570E-05  0.17130000000E+03  0.17130000000E+03 0. -1.
      622    1    1    2    0    0 -0.68472602584E-03  0.81832382291E-03  0.38468724456E+01  0.38468737633E+01  0.30000000000E-02 0. -1.
</event>
<event>
 5   0  0.3294100E+10  0.9118800E+02  0.7818608E-02  0.1180000E+00
       11   -1    0    0    0    0  0.00000000000E+00  0.00000000000E+00  0.39999999673E+01  0.40000000000E+01  0.51109989000E-03 0.  1.
     -623   -1    0    0    0    0  0.00000000000E+00  0.00000000000E+00  0.12525980253E-10  0.17130000000E+03  0.17130000000E+03 0.  1.
       11    1    1    2    0    0  0.10287807193E-02 -0.22369582190E-03  0.37423886446E+00  0.37424069437E+00  0.51109989000E-03 0.  1.
     -623    1    1    2    0    0  0.29460101992E-04  0.90206004949E-03  0.32586621010E-05  0.17130000000E+03  0.17130000000E+03 0.  1.
      622    1    1    2    0    0 -0.10582408213E-02 -0.67836422758E-03  0.36257578442E+01  0.36257593033E+01  0.30000000000E-02 0.  1.
</event>
<event>
 5   0  0.3294100E+10  0.9118800E+02  0.7818608E-02  0.1180000E+00
       11   -1    0    0    0    0  0.00000000000E+00  0.00000000000E+00  0.39999999673E+01  0.40000000000E+01  0.51109989000E-03 0. -1.
     -623   -1    0    0    0    0  0.00000000000E+00  0.00000000000E+00  0.12525980253E-10  0.17130000000E+03  0.17130000000E+03 0.  1.
       11    1    1    2    0    0  0.82200197445E-03  0.31176091187E-02  0.10492562914E+01  0.10492613695E+01  0.51109989000E-03 0. -1.
     -623    1    1    2    0    0 -0.24866864251E-03 -0.84301019918E-03  0.75051124342E-05  0.17130000000E+03  0.17130000000E+03 0.  1.
      622    1    1    2    0    0 -0.57333332857E-03 -0.22745989081E-02  0.29507362251E+01  0.29507386825E+01  0.30000000000E-02 0. -1.
</event>
<event>
 5   0  0.3294100E+10  0.9118800E+02  0.7818608E-02  0.1180000E+00
       11   -1    0    0    0    0  0.00000000000E+00  0.00000000000E+00  0.39999999673E+01  0.40000000000E+01  0.51109989000E-03 0. -1.
     -623   -1    0    0    0    0  0.00000000000E+00  0.00000000000E+00  0.12525980253E-10  0.17130000000E+03  0.17130000000E+03 0.  1.
       11    1    1    2    0    0 -0.73834275266E-03  0.29605193164E-04  0.12283618831E-01  0.12316433785E-01  0.51109989000E-03 0.  1.
     -623    1    1    2    0    0 -0.13846720717E-03 -0.51777729670E-04  0.34007313463E-04  0.17130000000E+03  0.17130000000E+03 0.  1.
      622    1    1    2    0    0  0.87680995982E-03  0.22172536504E-04  0.39876823410E+01  0.39876835660E+01  0.30000000000E-02 0. -1.
</event>
<event>
 5   0  0.3294100E+10  0.9118800E+02  0.7818608E-02  0.1180000E+00
       11   -1    0    0    0    0  0.00000000000E+00  0.00000000000E+00  0.39999999673E+01  0.40000000000E+01  0.51109989000E-03 0.  1.
     -623   -1    0    0    0    0  0.00000000000E+00  0.00000000000E+00  0.12525980253E-10  0.17130000000E+03  0.17130000000E+03 0.  1.
       11    1    1    2    0    0  0.45195316937E-03  0.50755783814E-03  0.10501842354E+01  0.10501845796E+01  0.51109989000E-03 0.  1.
     -623    1    1    2    0    0  0.96082178275E-05  0.20509171695E-03  0.19594708265E-05  0.17130000000E+03  0.17130000000E+03 0.  1.
      622    1    1    2    0    0 -0.46156138716E-03 -0.71264955423E-03  0.29498137557E+01  0.29498154034E+01  0.30000000000E-02 0.  0.
</event>
<event>
 5   0  0.3294100E+10  0.9118800E+02  0.7818608E-02  0.1180000E+00
       11   -1    0    0    0    0  0.00000000000E+00  0.00000000000E+00  0.39999999673E+01  0.40000000000E+01  0.51109989000E-03 0. -1.
     -623   -1    0    0    0    0  0.00000000000E+00  0.00000000000E+00  0.12525980253E-10  0.17130000000E+03  0.17130000000E+03 0.  1.
       11    1    1    2    0    0  0.20810987286E-02 -0.17490432423E-02  0.67039616788E+00  0.67040187444E+00  0.51109989000E-03 0. -1.
     -623    1    1    2    0    0  0.67563303973E-03  0.12506326071E-02  0.82098527621E-05  0.17130000001E+03  0.17130000000E+03 0.  1.
      622    1    1    2    0    0 -0.27567317683E-02  0.49841063516E-03  0.33295955896E+01  0.33295981197E+01  0.30000000000E-02 0. -1.
</event>
<event>
 5   0  0.3294100E+10  0.9118800E+02  0.7818608E-02  0.1180000E+00
       11   -1    0    0    0    0  0.00000000000E+00  0.00000000000E+00  0.39999999673E+01  0.40000000000E+01  0.51109989000E-03 0. -1.
     -623   -1    0    0    0    0  0.00000000000E+00  0.00000000000E+00  0.12525980253E-10  0.17130000000E+03  0.17130000000E+03 0. -1.
       11    1    1    2    0    0 -0.12523586447E-03 -0.49374892928E-04  0.21383005807E+00  0.21383071126E+00  0.51109989000E-03 0. -1.
     -623    1    1    2    0    0 -0.13635558466E-04 -0.14314957618E-04  0.18121729086E-05  0.17130000000E+03  0.17130000000E+03 0. -1.
      622    1    1    2    0    0  0.13887142360E-03  0.63689851240E-04  0.37861682910E+01  0.37861694827E+01  0.30000000000E-02 0. -1.
</event>
<event>
 5   0  0.3294100E+10  0.9118800E+02  0.7818608E-02  0.1180000E+00
       11   -1    0    0    0    0  0.00000000000E+00  0.00000000000E+00  0.39999999673E+01  0.40000000000E+01  0.51109989000E-03 0.  1.
     -623   -1    0    0    0    0  0.00000000000E+00  0.00000000000E+00  0.12525980253E-10  0.17130000000E+03  0.17130000000E+03 0. -1.
       11    1    1    2    0    0 -0.98172123980E-04 -0.18562511472E-02  0.90040187841E+00  0.90040394222E+00  0.51109989000E-03 0.  1.
     -623    1    1    2    0    0 -0.10340630332E-03  0.62156043417E-04  0.40087979878E-05  0.17130000000E+03  0.17130000000E+03 0. -1.
      622    1    1    2    0    0  0.20157842730E-03  0.17940951038E-02  0.30995940802E+01  0.30995960577E+01  0.30000000000E-02 0.  1.
</event>
<event>
 5   0  0.3294100E+10  0.9118800E+02  0.7818608E-02  0.1180000E+00
       11   -1    0    0    0    0  0.00000000000E+00  0.00000000000E+00  0.39999999673E+01  0.40000000000E+01  0.51109989000E-03 0. -1.
     -623   -1    0    0    0    0  0.00000000000E+00  0.00000000000E+00  0.12525980253E-10  0.17130000000E+03  0.17130000000E+03 0. -1.
       11    1    1    2    0    0  0.66912721590E-04 -0.15841754938E-02  0.53637334641E+00  0.53637593351E+00  0.51109989000E-03 0. -1.
     -623    1    1    2    0    0 -0.20467417157E-02  0.39056947703E-03  0.46378597496E-05  0.17130000001E+03  0.17130000000E+03 0. -1.
      622    1    1    2    0    0  0.19798290122E-02  0.11936060133E-02  0.34636220184E+01  0.34636240892E+01  0.30000000000E-02 0. -1.
</event>
<event>
 5   0  0.3294100E+10  0.9118800E+02  0.7818608E-02  0.1180000E+00
       11   -1    0    0    0    0  0.00000000000E+00  0.00000000000E+00  0.39999999673E+01  0.40000000000E+01  0.51109989000E-03 0. -1.
     -623   -1    0    0    0    0  0.00000000000E+00  0.00000000000E+00  0.12525980253E-10  0.17130000000E+03  0.17130000000E+03 0. -1.
       11    1    1    2    0    0  0.13097422357E-02 -0.20715023315E-02  0.66504248402E-01  0.66551354783E-01  0.51109989000E-03 0. -1.
     -623    1    1    2    0    0  0.99289661898E-05  0.40168010381E-03  0.48794064051E-04  0.17130000000E+03  0.17130000000E+03 0. -1.
      622    1    1    2    0    0 -0.13196712019E-02  0.16698222277E-02  0.39334469249E+01  0.39334486447E+01  0.30000000000E-02 0. -1.
</event>
<event>
 5   0  0.3294100E+10  0.9118800E+02  0.7818608E-02  0.1180000E+00
       11   -1    0    0    0    0  0.00000000000E+00  0.00000000000E+00  0.39999999673E+01  0.40000000000E+01  0.51109989000E-03 0. -1.
     -623   -1    0    0    0    0  0.00000000000E+00  0.00000000000E+00  0.12525980253E-10  0.17130000000E+03  0.17130000000E+03 0.  1.
       11    1    1    2    0    0  0.15651654060E-02 -0.21682434108E-02  0.45526392975E+00  0.45527207027E+00  0.51109989000E-03 0. -1.
     -623    1    1    2    0    0 -0.17816744426E-02  0.21074091024E-02  0.94067437368E-05  0.17130000002E+03  0.17130000000E+03 0.  1.
      622    1    1    2    0    0  0.21650904137E-03  0.60834302771E-04  0.35447266416E+01  0.35447279182E+01  0.30000000000E-02 0. -1.
</event>
<event>
 5   0  0.3294100E+10  0.9118800E+02  0.7818608E-02  0.1180000E+00
       11   -1    0    0    0    0  0.00000000000E+00  0.00000000000E+00  0.39999999673E+01  0.40000000000E+01  0.51109989000E-03 0.  1.
     -623   -1    0    0    0    0  0.00000000000E+00  0.00000000000E+00  0.12525980253E-10  0.17130000000E+03  0.17130000000E+03 0.  1.
       11    1    1    2    0    0  0.79646641270E-03  0.81991434541E-03  0.85029419804E-01  0.85038638702E-01  0.51109989000E-03 0.  1.
     -623    1    1    2    0    0  0.81720627831E-04  0.52038097007E-05  0.10521160858E-04  0.17130000000E+03  0.17130000000E+03 0.  1.
      622    1    1    2    0    0 -0.87818704053E-03 -0.82511815511E-03  0.39149600264E+01  0.39149613613E+01  0.30000000000E-02 0.  1.
</event>
<event>
 5   0  0.3294100E+10  0.9118800E+02  0.7818608E-02  0.1180000E+00
       11   -1    0    0    0    0  0.00000000000E+00  0.00000000000E+00  0.39999999673E+01  0.40000000000E+01  0.51109989000E-03 0.  1.
     -623   -1    0    0    0    0  0.00000000000E+00  0.00000000000E+00  0.12525980253E-10  0.17130000000E+03  0.17130000000E+03 0.  1.
       11    1    1    2    0    0  0.13224414761E-02  0.61281429837E-03  0.53798203918E+00  0.53798425636E+00  0.51109989000E-03 0.  1.
     -623    1    1    2    0    0 -0.37392239894E-04  0.17028936277E-04  0.37801598438E-05  0.17130000000E+03  0.17130000000E+03 0.  1.
      622    1    1    2    0    0 -0.12850492361E-02 -0.62984323471E-03  0.34620141633E+01  0.34620157589E+01  0.30000000000E-02 0.  1.
</event>
<event>
 5   0  0.3294100E+10  0.9118800E+02  0.7818608E-02  0.1180000E+00
       11   -1    0    0    0    0  0.00000000000E+00  0.00000000000E+00  0.39999999673E+01  0.40000000000E+01  0.51109989000E-03 0. -1.
     -623   -1    0    0    0    0  0.00000000000E+00  0.00000000000E+00  0.12525980253E-10  0.17130000000E+03  0.17130000000E+03 0.  1.
       11    1    1    2    0    0  0.30122213965E-02 -0.35668707188E-02  0.70708461620E+00  0.70710021336E+00  0.51109989000E-03 0. -1.
     -623    1    1    2    0    0 -0.28640574624E-03 -0.69761233295E-03  0.20822325768E-04  0.17130000000E+03  0.17130000000E+03 0.  1.
      622    1    1    2    0    0 -0.27258156483E-02  0.42644830566E-02  0.32928945566E+01  0.32928998127E+01  0.30000000000E-02 0. -1.
</event>
<event>
 5   0  0.3294100E+10  0.9118800E+02  0.7818608E-02  0.1180000E+00
       11   -1    0    0    0    0  0.00000000000E+00  0.00000000000E+00  0.39999999673E+01  0.40000000000E+01  0.51109989000E-03 0.  1.
     -623   -1    0    0    0    0  0.00000000000E+00  0.00000000000E+00  0.12525980253E-10  0.17130000000E+03  0.17130000000E+03 0. -1.
       11    1    1    2    0    0  0.17494888203E-03  0.43870598754E-03  0.19853224517E+00  0.19853346485E+00  0.51109989000E-03 0.  1.
     -623    1    1    2    0    0 -0.30787470987E-04 -0.29220794741E-04  0.23955869581E-05  0.17130000000E+03  0.17130000000E+03 0. -1.
      622    1    1    2    0    0 -0.14416141034E-03 -0.40948519213E-03  0.38014654181E+01  0.38014666267E+01  0.30000000000E-02 0.  1.
</event>
<event>
 5   0  0.3294100E+10  0.9118800E+02  0.7818608E-02  0.1180000E+00
       11   -1    0    0    0    0  0.00000000000E+00  0.00000000000E+00  0.39999999673E+01  0.40000000000E+01  0.51109989000E-03 0.  1.
     -623   -1    0    0    0    0  0.00000000000E+00  0.00000000000E+00  0.12525980253E-10  0.17130000000E+03  0.17130000000E+03 0. -1.
       11    1    1    2    0    0 -0.73667900321E-03  0.64386899797E-04  0.24270332489E-01  0.24286973954E-01  0.51109989000E-03 0. -1.
     -623    1    1    2    0    0  0.76795696112E-04 -0.29211025974E-04  0.17795637060E-04  0.17130000000E+03  0.17130000000E+03 0. -1.
      622    1    1    2    0    0  0.65988330664E-03 -0.35175873649E-04  0.39757118631E+01  0.39757130499E+01  0.30000000000E-02 0.  1.
</event>
<event>
 5   0  0.3294100E+10  0.9118800E+02  0.7818608E-02  0.1180000E+00
       11   -1    0    0    0    0  0.00000000000E+00  0.00000000000E+00  0.39999999673E+01  0.40000000000E+01  0.51109989000E-03 0.  1.
     -623   -1    0    0    0    0  0.00000000000E+00  0.00000000000E+00  0.12525980253E-10  0.17130000000E+03  0.17130000000E+03 0. -1.
       11    1    1    2    0    0  0.13422918519E-02  0.51276878061E-03  0.79443488363E-01  0.79458125736E-01  0.51109989000E-03 0.  1.
     -623    1    1    2    0    0  0.12764050570E-02 -0.92035448017E-03  0.16655519657E-04  0.17130000001E+03  0.17130000000E+03 0. -1.
      622    1    1    2    0    0 -0.26186969127E-02  0.40758570225E-03  0.39205398352E+01  0.39205418787E+01  0.30000000000E-02 0.  1.
</event>
<event>
 5   0  0.3294100E+10  0.9118800E+02  0.7818608E-02  0.1180000E+00
       11   -1    0    0    0    0  0.00000000000E+00  0.00000000000E+00  0.39999999673E+01  0.40000000000E+01  0.51109989000E-03 0. -1.
     -623   -1    0    0    0    0  0.00000000000E+00  0.00000000000E+00  0.12525980253E-10  0.17130000000E+03  0.17130000000E+03 0. -1.
       11    1    1    2    0    0  0.11203958519E-02 -0.38097020989E-03  0.39086941409E+00  0.39087153966E+00  0.51109989000E-03 0. -1.
     -623    1    1    2    0    0  0.46804117199E-04 -0.13849205937E-03  0.35659555340E-05  0.17130000000E+03  0.17130000000E+03 0. -1.
      622    1    1    2    0    0 -0.11671999704E-02  0.51946227301E-03  0.36091270955E+01  0.36091285685E+01  0.30000000000E-02 0. -1.
</event>
<event>
 5   0  0.3294100E+10  0.9118800E+02  0.7818608E-02  0.1180000E+00
       11   -1    0    0    0    0  0.00000000000E+00  0.00000000000E+00  0.39999999673E+01  0.40000000000E+01  0.51109989000E-03 0.  1.
     -623   -1    0    0    0    0  0.00000000000E+00  0.00000000000E+00  0.12525980253E-10  0.17130000000E+03  0.17130000000E+03 0.  1.
       11    1    1    2    0    0 -0.58845121797E-03 -0.10302818857E-02  0.73752446127E-01  0.73763759994E-01  0.51109989000E-03 0.  1.
     -623    1    1    2    0    0 -0.13175307655E-03  0.96454700808E-03  0.12496734447E-04  0.17130000000E+03  0.17130000000E+03 0.  1.
      622    1    1    2    0    0  0.72020429498E-03  0.65734874170E-04  0.39262350386E+01  0.39262362514E+01  0.30000000000E-02 0.  1.
</event>
<event>
 5   0  0.3294100E+10  0.9118800E+02  0.7818608E-02  0.1180000E+00
       11   -1    0    0    0    0  0.00000000000E+00  0.00000000000E+00  0.39999999673E+01  0.40000000000E+01  0.51109989000E-03 0. -1.
     -623   -1    0    0    0    0  0.00000000000E+00  0.00000000000E+00  0.12525980253E-10  0.17130000000E+03  0.17130000000E+03 0. -1.
       11    1    1    2    0    0 -0.90484432014E-03 -0.39590189213E-02  0.67837619186E+00  0.67838854020E+00  0.51109989000E-03 0. -1.
     -623    1    1    2    0    0 -0.26949873427E-04 -0.17307987554E-03  0.16371429151E-04  0.17130000000E+03  0.17130000000E+03 0. -1.
      622    1    1    2    0    0  0.93179419357E-03  0.41320987968E-02  0.33216074041E+01  0.33216114597E+01  0.30000000000E-02 0. -1.
</event>
<event>
 5   0  0.3294100E+10  0.9118800E+02  0.7818608E-02  0.1180000E+00
       11   -1    0    0    0    0  0.00000000000E+00  0.00000000000E+00  0.39999999673E+01  0.40000000000E+01  0.51109989000E-03 0.  1.
     -623   -1    0    0    0    0  0.00000000000E+00  0.00000000000E+00  0.12525980253E-10  0.17130000000E+03  0.17130000000E+03 0. -1.
       11    1    1    2    0    0  0.15035816095E-02 -0.20364755242E-02  0.21378366616E+00  0.21379926363E+00  0.51109989000E-03 0.  1.
     -623    1    1    2    0    0  0.27468520977E-04  0.25061513813E-05  0.17609251366E-04  0.17130000000E+03  0.17130000000E+03 0. -1.
      622    1    1    2    0    0 -0.15310501305E-02  0.20339693728E-02  0.37861986920E+01  0.37862007364E+01  0.30000000000E-02 0.  1.
</event>
<event>
 5   0  0.3294100E+10  0.9118800E+02  0.7818608E-02  0.1180000E+00
       11   -1    0    0    0    0  0.00000000000E+00  0.00000000000E+00  0.39999999673E+01  0.40000000000E+01  0.51109989000E-03 0.  1.
     -623   -1    0    0    0    0  0.00000000000E+00  0.00000000000E+00  0.12525980253E-10  0.17130000000E+03  0.17130000000E+03 0. -1.
       11    1    1    2    0    0  0.14324377879E-02  0.54492866894E-03  0.89877405183E+00  0.89877550383E+00  0.51109989000E-03 0.  1.
     -623    1    1    2    0    0  0.59424058434E-04 -0.24428032193E-03  0.32439957840E-05  0.17130000000E+03  0.17130000000E+03 0. -1.
      622    1    1    2    0    0 -0.14918618462E-02 -0.30064834722E-03  0.31012226682E+01  0.31012244926E+01  0.30000000000E-02 0.  1.
</event>
<event>
 5   0  0.3294100E+10  0.9118800E+02  0.7818608E-02  0.1180000E+00
       11   -1    0    0    0    0  0.00000000000E+00  0.00000000000E+00  0.39999999673E+01  0.40000000000E+01  0.51109989000E-03 0.  1.
     -623   -1    0    0    0    0  0.00000000000E+00  0.00000000000E+00  0.12525980253E-10  0.17130000000E+03  0.17130000000E+03 0.  1.
       11    1    1    2    0    0 -0.12097934563E-03  0.70146867660E-03  0.52039577600E+00  0.52039651382E+00  0.51109989000E-03 0.  1.
     -623    1    1    2    0    0  0.26581618392E-03 -0.28298372741E-03  0.20270505079E-05  0.17130000000E+03  0.17130000000E+03 0.  1.
      622    1    1    2    0    0 -0.14483683911E-03 -0.41848494832E-03  0.34796021766E+01  0.34796034981E+01  0.30000000000E-02 0.  1.
</event>
<event>
 5   0  0.3294100E+10  0.9118800E+02  0.7818608E-02  0.1180000E+00
       11   -1    0    0    0    0  0.00000000000E+00  0.00000000000E+00  0.39999999673E+01  0.40000000000E+01  0.51109989000E-03 0.  1.
     -623   -1    0    0    0    0  0.00000000000E+00  0.00000000000E+00  0.12525980253E-10  0.17130000000E+03  0.17130000000E+03 0. -1.
       11    1    1    2    0    0 -0.15658276816E-02 -0.29453017509E-03  0.11391810232E+00  0.11393039025E+00  0.51109989000E-03 0.  1.
     -623    1    1    2    0    0 -0.25737203466E-04 -0.33676015231E-04  0.13753053151E-04  0.17130000000E+03  0.17130000000E+03 0. -1.
      622    1    1    2    0    0  0.15915648851E-02  0.32820619032E-03  0.38860681120E+01  0.38860696097E+01  0.30000000000E-02 0.  1.
</event>
<event>
 5   0  0.3294100E+10  0.9118800E+02  0.7818608E-02  0.1180000E+00
       11   -1    0    0    0    0  0.00000000000E+00  0.00000000000E+00  0.39999999673E+01  0.40000000000E+01  0.51109989000E-03 0.  1.
     -623   -1    0    0    0    0  0.00000000000E+00  0.00000000000E+00  0.12525980253E-10  0.17130000000E+03  0.17130000000E+03 0.  1.
       11    1    1    2    0    0 -0.26578715608E-03  0.13965326939E-02  0.11696852786E+01  0.11696862541E+01  0.51109989000E-03 0.  1.
     -623    1    1    2    0    0 -0.37466471965E-03  0.93972714196E-03  0.35725102667E-05  0.17130000000E+03  0.17130000000E+03 0.  1.
      622    1    1    2    0    0  0.64045187573E-03 -0.23362598358E-02  0.28303111163E+01  0.28303137429E+01  0.30000000000E-02 0.  0.
</event>
<event>
 5   0  0.3294100E+10  0.9118800E+02  0.7818608E-02  0.1180000E+00
       11   -1    0    0    0    0  0.00000000000E+00  0.00000000000E+00  0.39999999673E+01  0.40000000000E+01  0.51109989000E-03 0.  1.
     -623   -1    0    0    0    0  0.00000000000E+00  0.00000000000E+00  0.12525980253E-10  0.17130000000E+03  0.17130000000E+03 0. -1.
       11    1    1    2    0    0 -0.23930639556E-02 -0.23466716764E-02  0.87903978541E+00  0.87904632368E+00  0.51109989000E-03 0.  1.
     -623    1    1    2    0    0  0.56576064894E-04  0.12309839195E-04  0.96951212538E-05  0.17130000000E+03  0.17130000000E+03 0. -1.
      622    1    1    2    0    0  0.23364878906E-02  0.23343618372E-02  0.31209504920E+01  0.31209536815E+01  0.30000000000E-02 0.  1.
</event>
<event>
 5   0  0.3294100E+10  0.9118800E+02  0.7818608E-02  0.1180000E+00
       11   -1    0    0    0    0  0.00000000000E+00  0.00000000000E+00  0.39999999673E+01  0.40000000000E+01  0.51109989000E-03 0. -1.
     -623   -1    0    0    0    0  0.00000000000E+00  0.00000000000E+00  0.12525980253E-10  0.17130000000E+03  0.17130000000E+03 0.  1.
       11    1    1    2    0    0  0.34151943977E-03 -0.43356106090E-03  0.51898402367E+00  0.51898456880E+00  0.51109989000E-03 0. -1.
     -623    1    1    2    0    0  0.91435690627E-04  0.13066966193E-03  0.18453985469E-05  0.17130000000E+03  0.17130000000E+03 0.  1.
      622    1    1    2    0    0 -0.43295513455E-03  0.30289139303E-03  0.34810142801E+01  0.34810156129E+01  0.30000000000E-02 0. -1.
</event>
<event>
 5   0  0.3294100E+10  0.9118800E+02  0.7818608E-02  0.1180000E+00
       11   -1    0    0    0    0  0.00000000000E+00  0.00000000000E+00  0.39999999673E+01  0.40000000000E+01  0.51109989000E-03 0.  1.
     -623   -1    0    0    0    0  0.00000000000E+00  0.00000000000E+00  0.12525980253E-10  0.17130000000E+03  0.17130000000E+03 0.  1.
       11    1    1    2    0    0  0.32798417243E-03  0.19118261286E-02  0.99822441284E+00  0.99822642835E+00  0.51109989000E-03 0.  1.
     -623    1    1    2    0    0 -0.12623484745E-02 -0.72339704920E-03  0.38688411510E-05  0.17130000001E+03  0.17130000000E+03 0.  1.
      622    1    1    2    0    0  0.93436430210E-03 -0.11884290794E-02  0.30017716857E+01  0.30017735655E+01  0.30000000000E-02 0.  1.
</event>
<event>
 5   0  0.3294100E+10  0.9118800E+02  0.7818608E-02  0.1180000E+00
       11   -1    0    0    0    0  0.00000000000E+00  0.00000000000E+00  0.39999999673E+01  0.40000000000E+01  0.51109989000E-03 0. -1.
     -623   -1    0    0    0    0  0.00000000000E+00  0.00000000000E+00  0.12525980253E-10  0.17130000000E+03  0.17130000000E+03 0. -1.
       11    1    1    2    0    0  0.37791585579E-03  0.66076310642E-03  0.37810579555E+00  0.37810690721E+00  0.51109989000E-03 0. -1.
     -623    1    1    2    0    0  0.10983026914E-03 -0.14690037765E-03  0.23908537554E-05  0.17130000000E+03  0.17130000000E+03 0. -1.
      622    1    1    2    0    0 -0.48774612493E-03 -0.51386272876E-03  0.36218917810E+01  0.36218930927E+01  0.30000000000E-02 0. -1.
</event>
<event>
 5   0  0.3294100E+10  0.9118800E+02  0.7818608E-02  0.1180000E+00
       11   -1    0    0    0    0  0.00000000000E+00  0.00000000000E+00  0.39999999673E+01  0.40000000000E+01  0.51109989000E-03 0.  1.
     -623   -1    0    0    0    0  0.00000000000E+00  0.00000000000E+00  0.12525980253E-10  0.17130000000E+03  0.17130000000E+03 0. -1.
       11    1    1    2    0    0 -0.66655931022E-03 -0.52114683702E-03  0.11829392765E+00  0.11829805761E+00  0.51109989000E-03 0.  1.
     -623    1    1    2    0    0 -0.35150959224E-03  0.57339329402E-03  0.53917887737E-05  0.17130000000E+03  0.17130000000E+03 0. -1.
      622    1    1    2    0    0  0.10180689025E-02 -0.52246456999E-04  0.38817006479E+01  0.38817019411E+01  0.30000000000E-02 0.  1.
</event>
<event>
 5   0  0.3294100E+10  0.9118800E+02  0.7818608E-02  0.1180000E+00
       11   -1    0    0    0    0  0.00000000000E+00  0.00000000000E+00  0.39999999673E+01  0.40000000000E+01  0.51109989000E-03 0. -1.
     -623   -1    0    0    0    0  0.00000000000E+00  0.00000000000E+00  0.12525980253E-10  0.17130000000E+03  0.17130000000E+03 0.  1.
       11    1    1    2    0    0  0.25174810789E-02 -0.37757268528E-02  0.37650667915E+00  0.37653437358E+00  0.51109989000E-03 0. -1.
     -623    1    1    2    0    0 -0.71246400012E-05  0.22197336108E-04  0.31717432189E-04  0.17130000000E+03  0.17130000000E+03 0.  1.
      622    1    1    2    0    0 -0.25103564389E-02  0.37535295167E-02  0.36234615708E+01  0.36234656264E+01  0.30000000000E-02 0. -1.
</event>
<event>
 5   0  0.3294100E+10  0.9118800E+02  0.7818608E-02  0.1180000E+00
       11   -1    0    0    0    0  0.00000000000E+00  0.00000000000E+00  0.39999999673E+01  0.40000000000E+01  0.51109989000E-03 0.  1.
     -623   -1    0    0    0    0  0.00000000000E+00  0.00000000000E+00  0.12525980253E-10  0.17130000000E+03  0.17130000000E+03 0.  1.
       11    1    1    2    0    0  0.71827863423E-03 -0.48715290305E-03  0.40766062750E+00  0.40766187175E+00  0.51109989000E-03 0.  1.
     -623    1    1    2    0    0  0.17382515222E-03 -0.10100703293E-02  0.28901194233E-05  0.17130000000E+03  0.17130000000E+03 0.  1.
      622    1    1    2    0    0 -0.89210378644E-03  0.14972232324E-02  0.35923364497E+01  0.35923381252E+01  0.30000000000E-02 0.  0.
</event>
<event>
 5   0  0.3294100E+10  0.9118800E+02  0.7818608E-02  0.1180000E+00
       11   -1    0    0    0    0  0.00000000000E+00  0.00000000000E+00  0.39999999673E+01  0.40000000000E+01  0.51109989000E-03 0. -1.
     -623   -1    0    0    0    0  0.00000000000E+00  0.00000000000E+00  0.12525980253E-10  0.17130000000E+03  0.17130000000E+03 0.  1.
       11    1    1    2    0    0  0.16407338261E-02  0.21593107687E-02  0.64970425122E+00  0.64971011221E+00  0.51109989000E-03 0. -1.
     -623    1    1    2    0    0  0.50015283190E-04 -0.19458822387E-04  0.82815193014E-05  0.17130000000E+03  0.17130000000E+03 0.  1.
      622    1    1    2    0    0 -0.16907491093E-02 -0.21398519463E-02  0.33502874335E+01  0.33502898866E+01  0.30000000000E-02 0. -1.
</event>
<event>
 5   0  0.3294100E+10  0.9118800E+02  0.7818608E-02  0.1180000E+00
       11   -1    0    0    0    0  0.00000000000E+00  0.00000000000E+00  0.39999999673E+01  0.40000000000E+01  0.51109989000E-03 0.  1.
     -623   -1    0    0    0    0  0.00000000000E+00  0.00000000000E+00  0.12525980253E-10  0.17130000000E+03  0.17130000000E+03 0.  1.
       11    1    1    2    0    0  0.77374271030E-03  0.61546411910E-03  0.28342242509E-01  0.28364086544E-01  0.51109989000E-03 0.  1.
     -623    1    1    2    0    0  0.10629223610E-03  0.98891636935E-06  0.23089803912E-04  0.17130000000E+03  0.17130000000E+03 0.  1.
      622    1    1    2    0    0 -0.88003494639E-03 -0.61645303547E-03  0.39716346350E+01  0.39716359134E+01  0.30000000000E-02 0.  1.
</event>
<event>
 5   0  0.3294100E+10  0.9118800E+02  0.7818608E-02  0.1180000E+00
       11   -1    0    0    0    0  0.00000000000E+00  0.00000000000E+00  0.39999999673E+01  0.40000000000E+01  0.51109989000E-03 0. -1.
     -623   -1    0    0    0    0  0.00000000000E+00  0.00000000000E+00  0.12525980253E-10  0.17130000000E+03  0.17130000000E+03 0.  1.
       11    1    1    2    0    0  0.20556587026E-02 -0.94336037278E-04  0.95444411873E+00  0.95444647395E+00  0.51109989000E-03 0. -1.
     -623    1    1    2    0    0 -0.20230464823E-02  0.12020034802E-02  0.40179103884E-05  0.17130000002E+03  0.17130000000E+03 0.  1.
      622    1    1    2    0    0 -0.32612261554E-04 -0.11076674184E-02  0.30455517492E+01  0.30455534284E+01  0.30000000000E-02 0. -1.
</event>
<event>
 5   0  0.3294100E+10  0.9118800E+02  0.7818608E-02  0.1180000E+00
       11   -1    0    0    0    0  0.00000000000E+00  0.00000000000E+00  0.39999999673E+01  0.40000000000E+01  0.51109989000E-03 0. -1.
     -623   -1    0    0    0    0  0.00000000000E+00  0.00000000000E+00  0.12525980253E-10  0.17130000000E+03  0.17130000000E+03 0. -1.
       11    1    1    2    0    0 -0.46693188517E-03  0.78135270201E-03  0.16634091653E+00  0.16634419218E+00  0.51109989000E-03 0.  1.
     -623    1    1    2    0    0 -0.21461893026E-03  0.18347415711E-03  0.45990458251E-05  0.17130000000E+03  0.17130000000E+03 0. -1.
      622    1    1    2    0    0  0.68155081544E-03 -0.96482685911E-03  0.38336544518E+01  0.38336558076E+01  0.30000000000E-02 0. -1.
</event>
<event>
 5   0  0.3294100E+10  0.9118800E+02  0.7818608E-02  0.1180000E+00
       11   -1    0    0    0    0  0.00000000000E+00  0.00000000000E+00  0.39999999673E+01  0.40000000000E+01  0.51109989000E-03 0. -1.
     -623   -1    0    0    0    0  0.00000000000E+00  0.00000000000E+00  0.12525980253E-10  0.17130000000E+03  0.17130000000E+03 0. -1.
       11    1    1    2    0    0 -0.90990689116E-04 -0.67268995001E-03  0.63958821534E+00  0.63958877977E+00  0.51109989000E-03 0. -1.
     -623    1    1    2    0    0  0.32136616400E-04  0.39424823225E-03  0.18834262008E-05  0.17130000000E+03  0.17130000000E+03 0. -1.
      622    1    1    2    0    0  0.58854071621E-04  0.27844170433E-03  0.33604100049E+01  0.33604113561E+01  0.30000000000E-02 0. -1.
</event>
<event>
 5   0  0.3294100E+10  0.9118800E+02  0.7818608E-02  0.1180000E+00
       11   -1    0    0    0    0  0.00000000000E+00  0.00000000000E+00  0.39999999673E+01  0.40000000000E+01  0.51109989000E-03 0.  1.
     -623   -1    0    0    0    0  0.00000000000E+00  0.00000000000E+00  0.12525980253E-10  0.17130000000E+03  0.17130000000E+03 0. -1.
       11    1    1    2    0    0  0.48216991850E-03  0.31120157525E-03  0.13838733226E-01  0.13860053920E-01  0.51109989000E-03 0.  1.
     -623    1    1    2    0    0 -0.31486965444E-03 -0.14821579417E-03  0.22424163040E-04  0.17130000000E+03  0.17130000000E+03 0. -1.
      622    1    1    2    0    0 -0.16730026396E-03 -0.16298578102E-03  0.39861388113E+01  0.39861399470E+01  0.30000000000E-02 0.  1.
</event>
<event>
 5   0  0.3294100E+10  0.9118800E+02  0.7818608E-02  0.1180000E+00
       11   -1    0    0    0    0  0.00000000000E+00  0.00000000000E+00  0.39999999673E+01  0.40000000000E+01  0.51109989000E-03 0.  1.
     -623   -1    0    0    0    0  0.00000000000E+00  0.00000000000E+00  0.12525980253E-10  0.17130000000E+03  0.17130000000E+03 0.  1.
       11    1    1    2    0    0 -0.10650982028E-02 -0.32882631541E-03  0.71135158120E+00  0.71135263819E+00  0.51109989000E-03 0.  1.
     -623    1    1    2    0    0  0.17893238542E-03  0.10228992375E-04  0.25276124664E-05  0.17130000000E+03  0.17130000000E+03 0.  1.
      622    1    1    2    0    0  0.88616581738E-03  0.31859732303E-03  0.32886458585E+01  0.32886473617E+01  0.30000000000E-02 0.  0.
</event>
<event>
 5   0  0.3294100E+10  0.9118800E+02  0.7818608E-02  0.1180000E+00
       11   -1    0    0    0    0  0.00000000000E+00  0.00000000000E+00  0.39999999673E+01  0.40000000000E+01  0.51109989000E-03 0. -1.
     -623   -1    0    0    0    0  0.00000000000E+00  0.00000000000E+00  0.12525980253E-10  0.17130000000E+03  0.17130000000E+03 0. -1.
       11    1    1    2    0    0 -0.52728752870E-03 -0.24329677561E-02  0.70200892757E+00  0.70201352763E+00  0.51109989000E-03 0. -1.
     -623    1    1    2    0    0  0.11149606331E-02  0.21945280284E-02  0.60105532902E-05  0.17130000002E+03  0.17130000000E+03 0. -1.
      622    1    1    2    0    0 -0.58767310269E-03  0.23843973092E-03  0.32979850232E+01  0.32979864487E+01  0.30000000000E-02 0. -1.
</event>
<event>
 5   0  0.3294100E+10  0.9118800E+02  0.7818608E-02  0.1180000E+00
       11   -1    0    0    0    0  0.00000000000E+00  0.00000000000E+00  0.39999999673E+01  0.40000000000E+01  0.51109989000E-03 0. -1.
     -623   -1    0    0    0    0  0.00000000000E+00  0.00000000000E+00  0.12525980253E-10  0.17130000000E+03  0.17130000000E+03 0. -1.
       11    1    1    2    0    0 -0.28768859747E-02 -0.13582223317E-02  0.52876164300E+00  0.52877146062E+00  0.51109989000E-03 0. -1.
     -623    1    1    2    0    0  0.10403271262E-03  0.56602248804E-04  0.12432927248E-04  0.17130000000E+03  0.17130000000E+03 0. -1.
      622    1    1    2    0    0  0.27728532608E-02  0.13016200822E-02  0.34712259426E+01  0.34712285905E+01  0.30000000000E-02 0. -1.
</event>
<event>
 5   0  0.3294100E+10  0.9118800E+02  0.7818608E-02  0.1180000E+00
       11   -1    0    0    0    0  0.00000000000E+00  0.00000000000E+00  0.39999999673E+01  0.40000000000E+01  0.51109989000E-03 0.  1.
     -623   -1    0    0    0    0  0.00000000000E+00  0.00000000000E+00  0.12525980253E-10  0.17130000000E+03  0.17130000000E+03 0.  1.
       11    1    1    2    0    0  0.37245084247E-03 -0.44540053497E-04  0.11144337728E+01  0.11144339531E+01  0.51109989000E-03 0.  1.
     -623    1    1    2    0    0  0.38436991290E-03  0.98381779403E-03  0.19625510679E-05  0.17130000000E+03  0.17130000000E+03 0.  1.
      622    1    1    2    0    0 -0.75682075090E-03 -0.93927772911E-03  0.28855641856E+01  0.28855659972E+01  0.30000000000E-02 0. -1.
</event>
<event>
 5   0  0.3294100E+10  0.9118800E+02  0.7818608E-02  0.1180000E+00
       11   -1    0    0    0    0  0.00000000000E+00  0.00000000000E+00  0.39999999673E+01  0.40000000000E+01  0.51109989000E-03 0. -1.
     -623   -1    0    0    0    0  0.00000000000E+00  0.00000000000E+00  0.12525980253E-10  0.17130000000E+03  0.17130000000E+03 0. -1.
       11    1    1    2    0    0  0.32783445929E-02 -0.15834485065E-02  0.31328104162E+00  0.31330261269E+00  0.51109989000E-03 0. -1.
     -623    1    1    2    0    0 -0.30462066949E-04  0.61473105470E-04  0.24503851197E-04  0.17130000000E+03  0.17130000000E+03 0. -1.
      622    1    1    2    0    0 -0.32478825259E-02  0.15219754010E-02  0.36866944242E+01  0.36866973897E+01  0.30000000000E-02 0. -1.
</event>
<event>
 5   0  0.3294100E+10  0.9118800E+02  0.7818608E-02  0.1180000E+00
       11   -1    0    0    0    0  0.00000000000E+00  0.00000000000E+00  0.39999999673E+01  0.40000000000E+01  0.51109989000E-03 0.  1.
     -623   -1    0    0    0    0  0.00000000000E+00  0.00000000000E+00  0.12525980253E-10  0.17130000000E+03  0.17130000000E+03 0. -1.
       11    1    1    2    0    0 -0.41675410036E-03  0.34336217824E-03  0.74053763400E+00  0.74053800724E+00  0.51109989000E-03 0.  1.
     -623    1    1    2    0    0  0.80118565775E-03  0.62016587162E-04  0.17709635518E-05  0.17130000000E+03  0.17130000000E+03 0. -1.
      622    1    1    2    0    0 -0.38443155738E-03 -0.40537876540E-03  0.32594605624E+01  0.32594619909E+01  0.30000000000E-02 0.  1.
</event>
<event>
 5   0  0.3294100E+10  0.9118800E+02  0.7818608E-02  0.1180000E+00
       11   -1    0    0    0    0  0.00000000000E+00  0.00000000000E+00  0.39999999673E+01  0.40000000000E+01  0.51109989000E-03 0.  1.
     -623   -1    0    0    0    0  0.00000000000E+00  0.00000000000E+00  0.12525980253E-10  0.17130000000E+03  0.17130000000E+03 0. -1.
       11    1    1    2    0    0 -0.32924238907E-02  0.57960972892E-03  0.12066259303E+00  0.12070997713E+00  0.51109989000E-03 0.  1.
     -623    1    1    2    0    0  0.38923293997E-02 -0.87676006154E-03  0.48615705317E-04  0.17130000005E+03  0.17130000000E+03 0. -1.
      622    1    1    2    0    0 -0.59990550894E-03  0.29715033262E-03  0.38792887586E+01  0.38792899764E+01  0.30000000000E-02 0.  1.
</event>
<event>
 5   0  0.3294100E+10  0.9118800E+02  0.7818608E-02  0.1180000E+00
       11   -1    0    0    0    0  0.00000000000E+00  0.00000000000E+00  0.39999999673E+01  0.40000000000E+01  0.51109989000E-03 0.  1.
     -623   -1    0    0    0    0  0.00000000000E+00  0.00000000000E+00  0.12525980253E-10  0.17130000000E+03  0.17130000000E+03 0. -1.
       11    1    1    2    0    0 -0.43159029561E-02 -0.44666551996E-02  0.97161347386E-01  0.97361012093E-01  0.51109989000E-03 0.  1.
     -623    1    1    2    0    0  0.41556737661E-02 -0.16582546183E-02  0.20565328659E-03  0.17130000006E+03  0.17130000000E+03 0. -1.
      622    1    1    2    0    0  0.16022919080E-03  0.61249098176E-02  0.39026329658E+01  0.39026389285E+01  0.30000000000E-02 0.  1.
</event>
<event>
 5   0  0.3294100E+10  0.9118800E+02  0.7818608E-02  0.1180000E+00
       11   -1    0    0    0    0  0.00000000000E+00  0.00000000000E+00  0.39999999673E+01  0.40000000000E+01  0.51109989000E-03 0.  1.
     -623   -1    0    0    0    0  0.00000000000E+00  0.00000000000E+00  0.12525980253E-10  0.17130000000E+03  0.17130000000E+03 0. -1.
       11    1    1    2    0    0  0.23469843687E-03  0.32526499715E-03  0.53915267241E+00  0.53915306386E+00  0.51109989000E-03 0.  1.
     -623    1    1    2    0    0 -0.73984928045E-04 -0.52028167033E-05  0.16776165452E-05  0.17130000000E+03  0.17130000000E+03 0. -1.
      622    1    1    2    0    0 -0.16071350883E-03 -0.32006218045E-03  0.34608456173E+01  0.34608469361E+01  0.30000000000E-02 0.  1.
</event>
<event>
 5   0  0.3294100E+10  0.9118800E+02  0.7818608E-02  0.1180000E+00
       11   -1    0    0    0    0  0.00000000000E+00  0.00000000000E+00  0.39999999673E+01  0.40000000000E+01  0.51109989000E-03 0.  1.
     -623   -1    0    0    0    0  0.00000000000E+00  0.00000000000E+00  0.12525980253E-10  0.17130000000E+03  0.17130000000E+03 0. -1.
       11    1    1    2    0    0 -0.89637083055E-03 -0.75358034551E-03  0.25061224506E+00  0.25061550223E+00  0.51109989000E-03 0.  1.
     -623    1    1    2    0    0  0.57615128257E-03 -0.40653726880E-03  0.46193382515E-05  0.17130000000E+03  0.17130000000E+03 0. -1.
      622    1    1    2    0    0  0.32021954948E-03  0.11601176132E-02  0.37493830925E+01  0.37493844859E+01  0.30000000000E-02 0.  1.
</event>
<event>
 5   0  0.3294100E+10  0.9118800E+02  0.7818608E-02  0.1180000E+00
       11   -1    0    0    0    0  0.00000000000E+00  0.00000000000E+00  0.39999999673E+01  0.40000000000E+01  0.51109989000E-03 0.  1.
     -623   -1    0    0    0    0  0.00000000000E+00  0.00000000000E+00  0.12525980253E-10  0.17130000000E+03  0.17130000000E+03 0.  1.
       11    1    1    2    0    0  0.26212079588E-03  0.21497257812E-02  0.24756990475E+00  0.24757990425E+00  0.51109989000E-03 0. -1.
     -623    1    1    2    0    0 -0.45977296772E-03  0.52124522702E-03  0.12123299082E-04  0.17130000000E+03  0.17130000000E+03 0.  1.
      622    1    1    2    0    0  0.19765217185E-03 -0.26709710082E-02  0.37524179393E+01  0.37524200943E+01  0.30000000000E-02 0.  1.
</event>
<event>
 5   0  0.3294100E+10  0.9118800E+02  0.7818608E-02  0.1180000E+00
       11   -1    0    0    0    0  0.00000000000E+00  0.00000000000E+00  0.39999999673E+01  0.40000000000E+01  0.51109989000E-03 0. -1.
     -623   -1    0    0    0    0  0.00000000000E+00  0.00000000000E+00  0.12525980253E-10  0.17130000000E+03  0.17130000000E+03 0. -1.
       11    1    1    2    0    0  0.14301201922E-02 -0.67828922734E-03  0.56371282699E-01  0.56395815933E-01  0.51109989000E-03 0. -1.
     -623    1    1    2    0    0 -0.81578928188E-04  0.36140016108E-03  0.25885388345E-04  0.17130000000E+03  0.17130000000E+03 0. -1.
      622    1    1    2    0    0 -0.13485412640E-02  0.31688906626E-03  0.39436027993E+01  0.39436041837E+01  0.30000000000E-02 0. -1.
</event>
<event>
 5   0  0.3294100E+10  0.9118800E+02  0.7818608E-02  0.1180000E+00
       11   -1    0    0    0    0  0.00000000000E+00  0.00000000000E+00  0.39999999673E+01  0.40000000000E+01  0.51109989000E-03 0.  1.
     -623   -1    0    0    0    0  0.00000000000E+00  0.00000000000E+00  0.12525980253E-10  0.17130000000E+03  0.17130000000E+03 0.  1.
       11    1    1    2    0    0 -0.11509426773E-01 -0.12462090036E-01  0.28066190107E+00  0.28117456238E+00  0.51109989000E-03 0.  1.
     -623    1    1    2    0    0  0.36299059209E-03  0.12549151836E-02  0.54743650679E-03  0.17130000001E+03  0.17130000000E+03 0.  1.
      622    1    1    2    0    0  0.11146436181E-01  0.11207174853E-01  0.37187906298E+01  0.37188254318E+01  0.30000000000E-02 0.  1.
</event>
<event>
 5   0  0.3294100E+10  0.9118800E+02  0.7818608E-02  0.1180000E+00
       11   -1    0    0    0    0  0.00000000000E+00  0.00000000000E+00  0.39999999673E+01  0.40000000000E+01  0.51109989000E-03 0. -1.
     -623   -1    0    0    0    0  0.00000000000E+00  0.00000000000E+00  0.12525980253E-10  0.17130000000E+03  0.17130000000E+03 0.  1.
       11    1    1    2    0    0 -0.14905704155E-04 -0.68501189345E-03  0.63209817204E-01  0.63215596790E-01  0.51109989000E-03 0.  1.
     -623    1    1    2    0    0 -0.83978063681E-04 -0.14298388704E-03  0.69784065531E-05  0.17130000000E+03  0.17130000000E+03 0.  1.
      622    1    1    2    0    0  0.98883768371E-04  0.82799578140E-03  0.39367831972E+01  0.39367844286E+01  0.30000000000E-02 0. -1.
</event>
<event>
 5   0  0.3294100E+10  0.9118800E+02  0.7818608E-02  0.1180000E+00
       11   -1    0    0    0    0  0.00000000000E+00  0.00000000000E+00  0.39999999673E+01  0.40000000000E+01  0.51109989000E-03 0. -1.
     -623   -1    0    0    0    0  0.00000000000E+00  0.00000000000E+00  0.12525980253E-10  0.17130000000E+03  0.17130000000E+03 0. -1.
       11    1    1    2    0    0  0.18365389213E-02 -0.10457079571E-02  0.36482033194E+00  0.36482681124E+00  0.51109989000E-03 0. -1.
     -623    1    1    2    0    0  0.12625948828E-04  0.64159463343E-04  0.82874160512E-05  0.17130000000E+03  0.17130000000E+03 0. -1.
      622    1    1    2    0    0 -0.18491648701E-02  0.98154849379E-03  0.36351713480E+01  0.36351731887E+01  0.30000000000E-02 0. -1.
</event>
<event>
 5   0  0.3294100E+10  0.9118800E+02  0.7818608E-02  0.1180000E+00
       11   -1    0    0    0    0  0.00000000000E+00  0.00000000000E+00  0.39999999673E+01  0.40000000000E+01  0.51109989000E-03 0.  1.
     -623   -1    0    0    0    0  0.00000000000E+00  0.00000000000E+00  0.12525980253E-10  0.17130000000E+03  0.17130000000E+03 0. -1.
       11    1    1    2    0    0 -0.54984946991E-03  0.79906813112E-03  0.96978021841E+00  0.96978083817E+00  0.51109989000E-03 0.  1.
     -623    1    1    2    0    0 -0.33614656589E-03  0.10962085001E-03  0.23383023993E-05  0.17130000000E+03  0.17130000000E+03 0. -1.
      622    1    1    2    0    0  0.88599603580E-03 -0.90868898113E-03  0.30302174106E+01  0.30302191615E+01  0.30000000000E-02 0.  1.
</event>
<event>
 5   0  0.3294100E+10  0.9118800E+02  0.7818608E-02  0.1180000E+00
       11   -1    0    0    0    0  0.00000000000E+00  0.00000000000E+00  0.39999999673E+01  0.40000000000E+01  0.51109989000E-03 0.  1.
     -623   -1    0    0    0    0  0.00000000000E+00  0.00000000000E+00  0.12525980253E-10  0.17130000000E+03  0.17130000000E+03 0. -1.
       11    1    1    2    0    0  0.26899407417E-03 -0.31861183195E-03  0.57531387681E+00  0.57531425494E+00  0.51109989000E-03 0.  1.
     -623    1    1    2    0    0 -0.31925209027E-03 -0.12562081302E-04  0.16761625687E-05  0.17130000000E+03  0.17130000000E+03 0. -1.
      622    1    1    2    0    0  0.50258016105E-04  0.33117391325E-03  0.34246844144E+01  0.34246857448E+01  0.30000000000E-02 0.  1.
</event>
<event>
 5   0  0.3294100E+10  0.9118800E+02  0.7818608E-02  0.1180000E+00
       11   -1    0    0    0    0  0.00000000000E+00  0.00000000000E+00  0.39999999673E+01  0.40000000000E+01  0.51109989000E-03 0. -1.
     -623   -1    0    0    0    0  0.00000000000E+00  0.00000000000E+00  0.12525980253E-10  0.17130000000E+03  0.17130000000E+03 0. -1.
       11    1    1    2    0    0  0.14218386715E-02  0.15274814947E-02  0.86887915292E+00  0.86888180923E+00  0.51109989000E-03 0. -1.
     -623    1    1    2    0    0  0.45055624173E-03  0.29961724051E-03  0.51546456095E-05  0.17130000000E+03  0.17130000000E+03 0. -1.
      622    1    1    2    0    0 -0.18723949218E-02 -0.18270987409E-02  0.31311157363E+01  0.31311182664E+01  0.30000000000E-02 0.  0.
</event>
<event>
 5   0  0.3294100E+10  0.9118800E+02  0.7818608E-02  0.1180000E+00
       11   -1    0    0    0    0  0.00000000000E+00  0.00000000000E+00  0.39999999673E+01  0.40000000000E+01  0.51109989000E-03 0.  1.
     -623   -1    0    0    0    0  0.00000000000E+00  0.00000000000E+00  0.12525980253E-10  0.17130000000E+03  0.17130000000E+03 0.  1.
       11    1    1    2    0    0 -0.11526971891E-02  0.61557546205E-03  0.11934300110E+01  0.11934308359E+01  0.51109989000E-03 0.  1.
     -623    1    1    2    0    0  0.80259156152E-04 -0.15101903811E-03  0.26390505279E-05  0.17130000000E+03  0.17130000000E+03 0.  1.
      622    1    1    2    0    0  0.10724380348E-02 -0.46455642745E-03  0.28065672242E+01  0.28065690709E+01  0.30000000000E-02 0.  1.
</event>
<event>
 5   0  0.3294100E+10  0.9118800E+02  0.7818608E-02  0.1180000E+00
       11   -1    0    0    0    0  0.00000000000E+00  0.00000000000E+00  0.39999999673E+01  0.40000000000E+01  0.51109989000E-03 0.  1.
     -623   -1    0    0    0    0  0.00000000000E+00  0.00000000000E+00  0.12525980253E-10  0.17130000000E+03  0.17130000000E+03 0.  1.
       11    1    1    2    0    0  0.72236289034E-04 -0.22310474950E-03  0.28601028279E+00  0.28601083560E+00  0.51109989000E-03 0.  1.
     -623    1    1    2    0    0 -0.19116959059E-04  0.11767355094E-03  0.17337195146E-05  0.17130000000E+03  0.17130000000E+03 0.  1.
      622    1    1    2    0    0 -0.53119330286E-04  0.10543120047E-03  0.37139878858E+01  0.37139890994E+01  0.30000000000E-02 0.  1.
</event>
<event>
 5   0  0.3294100E+10  0.9118800E+02  0.7818608E-02  0.1180000E+00
       11   -1    0    0    0    0  0.00000000000E+00  0.00000000000E+00  0.39999999673E+01  0.40000000000E+01  0.51109989000E-03 0.  1.
     -623   -1    0    0    0    0  0.00000000000E+00  0.00000000000E+00  0.12525980253E-10  0.17130000000E+03  0.17130000000E+03 0. -1.
       11    1    1    2    0    0 -0.32784641155E-03 -0.56959033845E-03  0.18437362955E-02  0.20229934791E-02  0.51109989000E-03 0. -1.
     -623    1    1    2    0    0  0.29126759774E-03  0.25661538563E-03  0.18036306520E-03  0.17130000000E+03  0.17130000000E+03 0. -1.
      622    1    1    2    0    0  0.36578813810E-04  0.31297495282E-03  0.39979758680E+01  0.39979770060E+01  0.30000000000E-02 0.  1.
</event>
<event>
 5   0  0.3294100E+10  0.9118800E+02  0.7818608E-02  0.1180000E+00
       11   -1    0    0    0    0  0.00000000000E+00  0.00000000000E+00  0.39999999673E+01  0.40000000000E+01  0.51109989000E-03 0.  1.
     -623   -1    0    0    0    0  0.00000000000E+00  0.00000000000E+00  0.12525980253E-10  0.17130000000E+03  0.17130000000E+03 0.  1.
       11    1    1    2    0    0 -0.15996851300E-02  0.62619514647E-03  0.64731660538E+00  0.64731908665E+00  0.51109989000E-03 0.  1.
     -623    1    1    2    0    0  0.19579234403E-02 -0.76125464814E-03  0.38255757109E-05  0.17130000001E+03  0.17130000000E+03 0.  1.
      622    1    1    2    0    0 -0.35823831033E-03  0.13505950167E-03  0.33526795364E+01  0.33526809005E+01  0.30000000000E-02 0.  1.
</event>
<event>
 5   0  0.3294100E+10  0.9118800E+02  0.7818608E-02  0.1180000E+00
       11   -1    0    0    0    0  0.00000000000E+00  0.00000000000E+00  0.39999999673E+01  0.40000000000E+01  0.51109989000E-03 0.  1.
     -623   -1    0    0    0    0  0.00000000000E+00  0.00000000000E+00  0.12525980253E-10  0.17130000000E+03  0.17130000000E+03 0.  1.
       11    1    1    2    0    0 -0.39570457802E-03  0.11075641854E-02  0.10244357080E+01  0.10244365107E+01  0.51109989000E-03 0.  1.
     -623    1    1    2    0    0  0.16226527721E-03 -0.11081184265E-03  0.24585327152E-05  0.17130000000E+03  0.17130000000E+03 0.  1.
      622    1    1    2    0    0  0.23343929910E-03 -0.99675234163E-03  0.29755618428E+01  0.29755635313E+01  0.30000000000E-02 0.  0.
</event>
<event>
 5   0  0.3294100E+10  0.9118800E+02  0.7818608E-02  0.1180000E+00
       11   -1    0    0    0    0  0.00000000000E+00  0.00000000000E+00  0.39999999673E+01  0.40000000000E+01  0.51109989000E-03 0.  1.
     -623   -1    0    0    0    0  0.00000000000E+00  0.00000000000E+00  0.12525980253E-10  0.17130000000E+03  0.17130000000E+03 0.  1.
       11    1    1    2    0    0  0.10059532764E-02 -0.21407362990E-03  0.37549773334E+00  0.37549948966E+00  0.51109989000E-03 0. -1.
     -623    1    1    2    0    0  0.92933562863E-04 -0.10130947761E-03  0.31455906320E-05  0.17130000000E+03  0.17130000000E+03 0.  1.
      622    1    1    2    0    0 -0.10988868386E-02  0.31538310679E-03  0.36244990602E+01  0.36245004821E+01  0.30000000000E-02 0.  1.
</event>
<event>
 5   0  0.3294100E+10  0.9118800E+02  0.7818608E-02  0.1180000E+00
       11   -1    0    0    0    0  0.00000000000E+00  0.00000000000E+00  0.39999999673E+01  0.40000000000E+01  0.51109989000E-03 0. -1.
     -623   -1    0    0    0    0  0.00000000000E+00  0.00000000000E+00  0.12525980253E-10  0.17130000000E+03  0.17130000000E+03 0.  1.
       11    1    1    2    0    0  0.37297738042E-03 -0.61362607296E-04  0.85537559265E+00  0.85537582886E+00  0.51109989000E-03 0. -1.
     -623    1    1    2    0    0  0.16551421363E-03  0.17896897831E-03  0.16830638114E-05  0.17130000000E+03  0.17130000000E+03 0.  1.
      622    1    1    2    0    0 -0.53849159405E-03 -0.11760637102E-03  0.31446226917E+01  0.31446241710E+01  0.30000000000E-02 0. -1.
</event>
<event>
 5   0  0.3294100E+10  0.9118800E+02  0.7818608E-02  0.1180000E+00
       11   -1    0    0    0    0  0.00000000000E+00  0.00000000000E+00  0.39999999673E+01  0.40000000000E+01  0.51109989000E-03 0. -1.
     -623   -1    0    0    0    0  0.00000000000E+00  0.00000000000E+00  0.12525980253E-10  0.17130000000E+03  0.17130000000E+03 0.  1.
       11    1    1    2    0    0 -0.87790668758E-04  0.37959819535E-03  0.28538872815E-01  0.28546108082E-01  0.51109989000E-03 0.  1.
     -623    1    1    2    0    0  0.16628926109E-03  0.27850900996E-03  0.83913238402E-05  0.17130000000E+03  0.17130000000E+03 0.  1.
      622    1    1    2    0    0 -0.78498594014E-04 -0.65810720812E-03  0.39714527436E+01  0.39714539320E+01  0.30000000000E-02 0. -1.
</event>
<event>
 5   0  0.3294100E+10  0.9118800E+02  0.7818608E-02  0.1180000E+00
       11   -1    0    0    0    0  0.00000000000E+00  0.00000000000E+00  0.39999999673E+01  0.40000000000E+01  0.51109989000E-03 0. -1.
     -623   -1    0    0    0    0  0.00000000000E+00  0.00000000000E+00  0.12525980253E-10  0.17130000000E+03  0.17130000000E+03 0.  1.
       11    1    1    2    0    0  0.25998637783E-02  0.14600466435E-03  0.10598769653E+01  0.10598802873E+01  0.51109989000E-03 0. -1.
     -623    1    1    2    0    0  0.17632437236E-03  0.37957526033E-03  0.61780954095E-05  0.17130000000E+03  0.17130000000E+03 0.  1.
      622    1    1    2    0    0 -0.27761881507E-02 -0.52557992469E-03  0.29401168240E+01  0.29401197122E+01  0.30000000000E-02 0. -1.
</event>
<event>
 5   0  0.3294100E+10  0.9118800E+02  0.7818608E-02  0.1180000E+00
       11   -1    0    0    0    0  0.00000000000E+00  0.00000000000E+00  0.39999999673E+01  0.40000000000E+01  0.51109989000E-03 0. -1.
     -623   -1    0    0    0    0  0.00000000000E+00  0.00000000000E+00  0.12525980253E-10  0.17130000000E+03  0.17130000000E+03 0. -1.
       11    1    1    2    0    0  0.90752322163E-03 -0.80090628676E-03  0.21068262924E+00  0.21068672605E+00  0.51109989000E-03 0. -1.
     -623    1    1    2    0    0 -0.65027832270E-04  0.21378848767E-05  0.54295813134E-05  0.17130000000E+03  0.17130000000E+03 0. -1.
      622    1    1    2    0    0 -0.84249538936E-03  0.79876840189E-03  0.37893119085E+01  0.37893132739E+01  0.30000000000E-02 0. -1.
</event>
<event>
 5   0  0.3294100E+10  0.9118800E+02  0.7818608E-02  0.1180000E+00
       11   -1    0    0    0    0  0.00000000000E+00  0.00000000000E+00  0.39999999673E+01  0.40000000000E+01  0.51109989000E-03 0. -1.
     -623   -1    0    0    0    0  0.00000000000E+00  0.00000000000E+00  0.12525980253E-10  0.17130000000E+03  0.17130000000E+03 0. -1.
       11    1    1    2    0    0  0.59861042312E-03 -0.13138307811E-02  0.15943381334E+00  0.15944116954E+00  0.51109989000E-03 0. -1.
     -623    1    1    2    0    0  0.11258548806E-04  0.12279954488E-04  0.87642359294E-05  0.17130000000E+03  0.17130000000E+03 0. -1.
      622    1    1    2    0    0 -0.60986897187E-03  0.13015508266E-02  0.38405573687E+01  0.38405588094E+01  0.30000000000E-02 0. -1.
</event>
<event>
 5   0  0.3294100E+10  0.9118800E+02  0.7818608E-02  0.1180000E+00
       11   -1    0    0    0    0  0.00000000000E+00  0.00000000000E+00  0.39999999673E+01  0.40000000000E+01  0.51109989000E-03 0. -1.
     -623   -1    0    0    0    0  0.00000000000E+00  0.00000000000E+00  0.12525980253E-10  0.17130000000E+03  0.17130000000E+03 0.  1.
       11    1    1    2    0    0 -0.57270960114E-03 -0.52413731578E-03  0.43839424220E+00  0.43839522754E+00  0.51109989000E-03 0. -1.
     -623    1    1    2    0    0  0.96806419282E-03  0.21117678474E-02  0.26077261768E-05  0.17130000002E+03  0.17130000000E+03 0.  1.
      622    1    1    2    0    0 -0.39535459168E-03 -0.15876305317E-02  0.35616031174E+01  0.35616047567E+01  0.30000000000E-02 0. -1.
</event>
<event>
 5   0  0.3294100E+10  0.9118800E+02  0.7818608E-02  0.1180000E+00
       11   -1    0    0    0    0  0.00000000000E+00  0.00000000000E+00  0.39999999673E+01  0.40000000000E+01  0.51109989000E-03 0. -1.
     -623   -1    0    0    0    0  0.00000000000E+00  0.00000000000E+00  0.12525980253E-10  0.17130000000E+03  0.17130000000E+03 0. -1.
       11    1    1    2    0    0 -0.57718130549E-03 -0.20262851196E-03  0.14111283662E+00  0.14111508806E+00  0.51109989000E-03 0. -1.
     -623    1    1    2    0    0  0.35117197318E-04 -0.36944068567E-04  0.34304582894E-05  0.17130000000E+03  0.17130000000E+03 0. -1.
      622    1    1    2    0    0  0.54206410822E-03  0.23957258047E-03  0.38588836946E+01  0.38588849062E+01  0.30000000000E-02 0. -1.
</event>
<event>
 5   0  0.3294100E+10  0.9118800E+02  0.7818608E-02  0.1180000E+00
       11   -1    0    0    0    0  0.00000000000E+00  0.00000000000E+00  0.39999999673E+01  0.40000000000E+01  0.51109989000E-03 0.  1.
     -623   -1    0    0    0    0  0.00000000000E+00  0.00000000000E+00  0.12525980253E-10  0.17130000000E+03  0.17130000000E+03 0. -1.
       11    1    1    2    0    0 -0.52687489299E-03 -0.21693466814E-04  0.52521071544E-01  0.52526205335E-01  0.51109989000E-03 0.  1.
     -623    1    1    2    0    0 -0.61023543939E-04 -0.18962995922E-03  0.62906717639E-05  0.17130000000E+03  0.17130000000E+03 0. -1.
      622    1    1    2    0    0  0.58789843786E-03  0.21132342895E-03  0.39474726667E+01  0.39474738561E+01  0.30000000000E-02 0.  1.
</event>
<event>
 5   0  0.3294100E+10  0.9118800E+02  0.7818608E-02  0.1180000E+00
       11   -1    0    0    0    0  0.00000000000E+00  0.00000000000E+00  0.39999999673E+01  0.40000000000E+01  0.51109989000E-03 0. -1.
     -623   -1    0    0    0    0  0.00000000000E+00  0.00000000000E+00  0.12525980253E-10  0.17130000000E+03  0.17130000000E+03 0.  1.
       11    1    1    2    0    0 -0.16614316444E-02  0.27673378798E-02  0.69358163037E+00  0.69358932931E+00  0.51109989000E-03 0. -1.
     -623    1    1    2    0    0 -0.10512158227E-02 -0.50226240261E-02  0.10986062378E-04  0.17130000008E+03  0.17130000000E+03 0.  1.
      622    1    1    2    0    0  0.27126474669E-02  0.22552861451E-02  0.33064073500E+01  0.33064105929E+01  0.30000000000E-02 0. -1.
</event>
<event>
 5   0  0.3294100E+10  0.9118800E+02  0.7818608E-02  0.1180000E+00
       11   -1    0    0    0    0  0.00000000000E+00  0.00000000000E+00  0.39999999673E+01  0.40000000000E+01  0.51109989000E-03 0. -1.
     -623   -1    0    0    0    0  0.00000000000E+00  0.00000000000E+00  0.12525980253E-10  0.17130000000E+03  0.17130000000E+03 0. -1.
       11    1    1    2    0    0 -0.85995472247E-03 -0.24856884401E-03  0.45314205652E-01  0.45325928182E-01  0.51109989000E-03 0.  1.
     -623    1    1    2    0    0 -0.46888807757E-03  0.14852294996E-03  0.13053014000E-04  0.17130000000E+03  0.17130000000E+03 0. -1.
      622    1    1    2    0    0  0.13288428012E-02  0.10004589369E-03  0.39546727182E+01  0.39546740806E+01  0.30000000000E-02 0. -1.
</event>
<event>
 5   0  0.3294100E+10  0.9118800E+02  0.7818608E-02  0.1180000E+00
       11   -1    0    0    0    0  0.00000000000E+00  0.00000000000E+00  0.39999999673E+01  0.40000000000E+01  0.51109989000E-03 0. -1.
     -623   -1    0    0    0    0  0.00000000000E+00  0.00000000000E+00  0.12525980253E-10  0.17130000000E+03  0.17130000000E+03 0.  1.
       11    1    1    2    0    0 -0.43453407240E-03  0.14051307418E-02  0.84194772607E-01  0.84209169155E-01  0.51109989000E-03 0. -1.
     -623    1    1    2    0    0  0.77651112480E-04 -0.44771427515E-04  0.15765684826E-04  0.17130000000E+03  0.17130000000E+03 0.  1.
      622    1    1    2    0    0  0.35688295975E-03 -0.13603593142E-02  0.39157894380E+01  0.39157908397E+01  0.30000000000E-02 0. -1.
</event>
<event>
 5   0  0.3294100E+10  0.9118800E+02  0.7818608E-02  0.1180000E+00
       11   -1    0    0    0    0  0.00000000000E+00  0.00000000000E+00  0.39999999673E+01  0.40000000000E+01  0.51109989000E-03 0.  1.
     -623   -1    0    0    0    0  0.00000000000E+00  0.00000000000E+00  0.12525980253E-10  0.17130000000E+03  0.17130000000E+03 0. -1.
       11    1    1    2    0    0  0.14944046251E-02  0.15527660778E-03  0.50934188853E-01  0.50958906711E-01  0.51109989000E-03 0.  1.
     -623    1    1    2    0    0  0.16091687514E-03  0.58641829187E-04  0.26177548146E-04  0.17130000000E+03  0.17130000000E+03 0. -1.
      622    1    1    2    0    0 -0.16553215006E-02 -0.21391843711E-03  0.39490396109E+01  0.39490411031E+01  0.30000000000E-02 0.  1.
</event>
<event>
 5   0  0.3294100E+10  0.9118800E+02  0.7818608E-02  0.1180000E+00
       11   -1    0    0    0    0  0.00000000000E+00  0.00000000000E+00  0.39999999673E+01  0.40000000000E+01  0.51109989000E-03 0.  1.
     -623   -1    0    0    0    0  0.00000000000E+00  0.00000000000E+00  0.12525980253E-10  0.17130000000E+03  0.17130000000E+03 0.  1.
       11    1    1    2    0    0  0.36439658894E-03 -0.15218982597E-03  0.11850357089E+00  0.11850533103E+00  0.51109989000E-03 0. -1.
     -623    1    1    2    0    0  0.68052258955E-04 -0.32864486386E-04  0.29153691652E-05  0.17130000000E+03  0.17130000000E+03 0.  1.
      622    1    1    2    0    0 -0.43244884769E-03  0.18505431225E-03  0.38814934692E+01  0.38814946570E+01  0.30000000000E-02 0.  1.
</event>
<event>
 5   0  0.3294100E+10  0.9118800E+02  0.7818608E-02  0.1180000E+00
       11   -1    0    0    0    0  0.00000000000E+00  0.00000000000E+00  0.39999999673E+01  0.40000000000E+01  0.51109989000E-03 0. -1.
     -623   -1    0    0    0    0  0.00000000000E+00  0.00000000000E+00  0.12525980253E-10  0.17130000000E+03  0.17130000000E+03 0.  1.
       11    1    1    2    0    0 -0.78620886500E-03 -0.34861276995E-03  0.66904763144E-01  0.66912242599E-01  0.51109989000E-03 0. -1.
     -623    1    1    2    0    0  0.26024465446E-04 -0.20676115139E-03  0.87037567389E-05  0.17130000000E+03  0.17130000000E+03 0.  1.
      622    1    1    2    0    0  0.76018439967E-03  0.55537392042E-03  0.39330864826E+01  0.39330877394E+01  0.30000000000E-02 0. -1.
</event>
<event>
 5   0  0.3294100E+10  0.9118800E+02  0.7818608E-02  0.1180000E+00
       11   -1    0    0    0    0  0.00000000000E+00  0.00000000000E+00  0.39999999673E+01  0.40000000000E+01  0.51109989000E-03 0.  1.
     -623   -1    0    0    0    0  0.00000000000E+00  0.00000000000E+00  0.12525980253E-10  0.17130000000E+03  0.17130000000E+03 0.  1.
       11    1    1    2    0    0  0.81835194277E-04 -0.43454768278E-03  0.21755565679E+00  0.21755670652E+00  0.51109989000E-03 0.  1.
     -623    1    1    2    0    0 -0.22901353660E-03  0.19493545406E-03  0.22175171535E-05  0.17130000000E+03  0.17130000000E+03 0.  1.
      622    1    1    2    0    0  0.14717834504E-03  0.23961222640E-03  0.37824421405E+01  0.37824433407E+01  0.30000000000E-02 0.  1.
</event>
<event>
 5   0  0.3294100E+10  0.9118800E+02  0.7818608E-02  0.1180000E+00
       11   -1    0    0    0    0  0.00000000000E+00  0.00000000000E+00  0.39999999673E+01  0.40000000000E+01  0.51109989000E-03 0. -1.
     -623   -1    0    0    0    0  0.00000000000E+00  0.00000000000E+00  0.12525980253E-10  0.17130000000E+03  0.17130000000E+03 0. -1.
       11    1    1    2    0    0  0.95572696672E-03 -0.99081099334E-03  0.47168427780E+00  0.47168656359E+00  0.51109989000E-03 0. -1.
     -623    1    1    2    0    0 -0.12383581072E-04  0.15689804071E-02  0.37092075620E-05  0.17130000001E+03  0.17130000000E+03 0. -1.
      622    1    1    2    0    0 -0.94334338556E-03 -0.57816942501E-03  0.35283120091E+01  0.35283134579E+01  0.30000000000E-02 0. -1.
</event>
<event>
 5   0  0.3294100E+10  0.9118800E+02  0.7818608E-02  0.1180000E+00
       11   -1    0    0    0    0  0.00000000000E+00  0.00000000000E+00  0.39999999673E+01  0.40000000000E+01  0.51109989000E-03 0.  1.
     -623   -1    0    0    0    0  0.00000000000E+00  0.00000000000E+00  0.12525980253E-10  0.17130000000E+03  0.17130000000E+03 0.  1.
       11    1    1    2    0    0  0.10052076776E-02  0.14010385633E-03  0.80590661443E-01  0.80598672475E-01  0.51109989000E-03 0.  1.
     -623    1    1    2    0    0 -0.57619953981E-04  0.16783234240E-03  0.92532644085E-05  0.17130000000E+03  0.17130000000E+03 0.  1.
      622    1    1    2    0    0 -0.94758772362E-03 -0.30793619873E-03  0.39194000527E+01  0.39194013274E+01  0.30000000000E-02 0.  1.
</event>
<event>
 5   0  0.3294100E+10  0.9118800E+02  0.7818608E-02  0.1180000E+00
       11   -1    0    0    0    0  0.00000000000E+00  0.00000000000E+00  0.39999999673E+01  0.40000000000E+01  0.51109989000E-03 0.  1.
     -623   -1    0    0    0    0  0.00000000000E+00  0.00000000000E+00  0.12525980253E-10  0.17130000000E+03  0.17130000000E+03 0. -1.
       11    1    1    2    0    0  0.66182936150E-03  0.65940757844E-03  0.19973852668E+00  0.19974136552E+00  0.51109989000E-03 0.  1.
     -623    1    1    2    0    0 -0.96354997456E-03  0.89859918493E-04  0.40789048081E-05  0.17130000000E+03  0.17130000000E+03 0. -1.
      622    1    1    2    0    0  0.30172062711E-03 -0.74926749825E-03  0.38002574201E+01  0.38002586901E+01  0.30000000000E-02 0.  1.
</event>
<event>
 5   0  0.3294100E+10  0.9118800E+02  0.7818608E-02  0.1180000E+00
       11   -1    0    0    0    0  0.00000000000E+00  0.00000000000E+00  0.39999999673E+01  0.40000000000E+01  0.51109989000E-03 0.  1.
     -623   -1    0    0    0    0  0.00000000000E+00  0.00000000000E+00  0.12525980253E-10  0.17130000000E+03  0.17130000000E+03 0. -1.
       11    1    1    2    0    0 -0.85772287446E-03 -0.13158270450E-02  0.15935151038E+00  0.15936007081E+00  0.51109989000E-03 0.  1.
     -623    1    1    2    0    0 -0.47613783596E-04  0.57101538757E-04  0.10012464541E-04  0.17130000000E+03  0.17130000000E+03 0. -1.
      622    1    1    2    0    0  0.90533665805E-03  0.12587255062E-02  0.38406384445E+01  0.38406399292E+01  0.30000000000E-02 0.  1.
</event>
<event>
 5   0  0.3294100E+10  0.9118800E+02  0.7818608E-02  0.1180000E+00
       11   -1    0    0    0    0  0.00000000000E+00  0.00000000000E+00  0.39999999673E+01  0.40000000000E+01  0.51109989000E-03 0. -1.
     -623   -1    0    0    0    0  0.00000000000E+00  0.00000000000E+00  0.12525980253E-10  0.17130000000E+03  0.17130000000E+03 0.  1.
       11    1    1    2    0    0 -0.27241084417E-03  0.91097611455E-05  0.70950843151E+00  0.70950866795E+00  0.51109989000E-03 0. -1.
     -623    1    1    2    0    0 -0.33524145691E-04 -0.39469141389E-05  0.15856065474E-05  0.17130000000E+03  0.17130000000E+03 0.  1.
      622    1    1    2    0    0  0.30593498986E-03 -0.51628470066E-05  0.32904899502E+01  0.32904913320E+01  0.30000000000E-02 0. -1.
</event>
<event>
 5   0  0.3294100E+10  0.9118800E+02  0.7818608E-02  0.1180000E+00
       11   -1    0    0    0    0  0.00000000000E+00  0.00000000000E+00  0.39999999673E+01  0.40000000000E+01  0.51109989000E-03 0.  1.
     -623   -1    0    0    0    0  0.00000000000E+00  0.00000000000E+00  0.12525980253E-10  0.17130000000E+03  0.17130000000E+03 0.  1.
       11    1    1    2    0    0  0.18773570964E-02  0.31499025845E-02  0.38975983349E+00  0.38977741774E+00  0.51109989000E-03 0.  1.
     -623    1    1    2    0    0 -0.94423252040E-04  0.13895711896E-03  0.20736463270E-04  0.17130000000E+03  0.17130000000E+03 0.  1.
      622    1    1    2    0    0 -0.17829338443E-02 -0.32888597035E-02  0.36102193974E+01  0.36102225822E+01  0.30000000000E-02 0.  1.
</event>
<event>
 5   0  0.3294100E+10  0.9118800E+02  0.7818608E-02  0.1180000E+00
       11   -1    0    0    0    0  0.00000000000E+00  0.00000000000E+00  0.39999999673E+01  0.40000000000E+01  0.51109989000E-03 0. -1.
     -623   -1    0    0    0    0  0.00000000000E+00  0.00000000000E+00  0.12525980253E-10  0.17130000000E+03  0.17130000000E+03 0.  1.
       11    1    1    2    0    0  0.10813982447E-02  0.68183531557E-04  0.27157601213E-01  0.27184013646E-01  0.51109989000E-03 0.  1.
     -623    1    1    2    0    0  0.15803774359E-03 -0.86763566950E-04  0.27705970592E-04  0.17130000000E+03  0.17130000000E+03 0.  1.
      622    1    1    2    0    0 -0.12394359878E-02  0.18580035100E-04  0.39728146466E+01  0.39728159727E+01  0.30000000000E-02 0. -1.
</event>
<event>
 5   0  0.3294100E+10  0.9118800E+02  0.7818608E-02  0.1180000E+00
       11   -1    0    0    0    0  0.00000000000E+00  0.00000000000E+00  0.39999999673E+01  0.40000000000E+01  0.51109989000E-03 0. -1.
     -623   -1    0    0    0    0  0.00000000000E+00  0.00000000000E+00  0.12525980253E-10  0.17130000000E+03  0.17130000000E+03 0.  1.
       11    1    1    2    0    0  0.63181135704E-02 -0.77411553253E-04  0.10195951038E+01  0.10196148104E+01  0.51109989000E-03 0. -1.
     -623    1    1    2    0    0 -0.18662736370E-02 -0.34594545159E-02  0.26652391310E-04  0.17130000005E+03  0.17130000000E+03 0.  1.
      622    1    1    2    0    0 -0.44518399333E-02  0.35368660692E-02  0.29803782111E+01  0.29803851445E+01  0.30000000000E-02 0. -1.
</event>
<event>
 5   0  0.3294100E+10  0.9118800E+02  0.7818608E-02  0.1180000E+00
       11   -1    0    0    0    0  0.00000000000E+00  0.00000000000E+00  0.39999999673E+01  0.40000000000E+01  0.51109989000E-03 0.  1.
     -623   -1    0    0    0    0  0.00000000000E+00  0.00000000000E+00  0.12525980253E-10  0.17130000000E+03  0.17130000000E+03 0. -1.
       11    1    1    2    0    0 -0.39355026392E-03  0.32492438981E-03  0.68084888018E-01  0.68088719015E-01  0.51109989000E-03 0. -1.
     -623    1    1    2    0    0  0.15674954990E-03 -0.23223334773E-03  0.49512916411E-05  0.17130000000E+03  0.17130000000E+03 0. -1.
      622    1    1    2    0    0  0.23680071174E-03 -0.92691038701E-04  0.39319101864E+01  0.39319113391E+01  0.30000000000E-02 0.  1.
</event>
<event>
 5   0  0.3294100E+10  0.9118800E+02  0.7818608E-02  0.1180000E+00
       11   -1    0    0    0    0  0.00000000000E+00  0.00000000000E+00  0.39999999673E+01  0.40000000000E+01  0.51109989000E-03 0.  1.
     -623   -1    0    0    0    0  0.00000000000E+00  0.00000000000E+00  0.12525980253E-10  0.17130000000E+03  0.17130000000E+03 0. -1.
       11    1    1    2    0    0  0.28954405602E-02 -0.33418271137E-02  0.54052656966E-01  0.54235618671E-01  0.51109989000E-03 0.  1.
     -623    1    1    2    0    0 -0.57591590839E-03  0.21239890078E-03  0.18599349075E-03  0.17130000000E+03  0.17130000000E+03 0. -1.
      622    1    1    2    0    0 -0.23195246519E-02  0.31294282129E-02  0.39457613163E+01  0.39457643796E+01  0.30000000000E-02 0.  1.
</event>
<event>
 5   0  0.3294100E+10  0.9118800E+02  0.7818608E-02  0.1180000E+00
       11   -1    0    0    0    0  0.00000000000E+00  0.00000000000E+00  0.39999999673E+01  0.40000000000E+01  0.51109989000E-03 0. -1.
     -623   -1    0    0    0    0  0.00000000000E+00  0.00000000000E+00  0.12525980253E-10  0.17130000000E+03  0.17130000000E+03 0. -1.
       11    1    1    2    0    0  0.37622395396E-02  0.35482783621E-03  0.29334119050E+00  0.29336597556E+00  0.51109989000E-03 0. -1.
     -623    1    1    2    0    0  0.18892266654E-02 -0.94190023703E-03  0.30334330700E-04  0.17130000001E+03  0.17130000000E+03 0. -1.
      622    1    1    2    0    0 -0.56514662135E-02  0.58707240508E-03  0.37066284606E+01  0.37066340295E+01  0.30000000000E-02 0. -1.
</event>
<event>
 5   0  0.3294100E+10  0.9118800E+02  0.7818608E-02  0.1180000E+00
       11   -1    0    0    0    0  0.00000000000E+00  0.00000000000E+00  0.39999999673E+01  0.40000000000E+01  0.51109989000E-03 0. -1.
     -623   -1    0    0    0    0  0.00000000000E+00  0.00000000000E+00  0.12525980253E-10  0.17130000000E+03  0.17130000000E+03 0. -1.
       11    1    1    2    0    0  0.43199979353E-02  0.30873649444E-02  0.78863038021E+00  0.78864842105E+00  0.51109989000E-03 0. -1.
     -623    1    1    2    0    0 -0.17480382108E-01 -0.18260530531E-03  0.48581511008E-04  0.17130000089E+03  0.17130000000E+03 0. -1.
      622    1    1    2    0    0  0.13160384187E-01 -0.29047596389E-02  0.32113210089E+01  0.32113506902E+01  0.30000000000E-02 0. -1.
</event>
<event>
 5   0  0.3294100E+10  0.9118800E+02  0.7818608E-02  0.1180000E+00
       11   -1    0    0    0    0  0.00000000000E+00  0.00000000000E+00  0.39999999673E+01  0.40000000000E+01  0.51109989000E-03 0. -1.
     -623   -1    0    0    0    0  0.00000000000E+00  0.00000000000E+00  0.12525980253E-10  0.17130000000E+03  0.17130000000E+03 0.  1.
       11    1    1    2    0    0 -0.87078298099E-03 -0.10596618072E-02  0.80448974477E-01  0.80462288457E-01  0.51109989000E-03 0. -1.
     -623    1    1    2    0    0 -0.20791230855E-03  0.21739183530E-03  0.14668630366E-04  0.17130000000E+03  0.17130000000E+03 0.  1.
      622    1    1    2    0    0  0.10786952899E-02  0.84226997150E-03  0.39195363308E+01  0.39195377178E+01  0.30000000000E-02 0. -1.
</event>
<event>
 5   0  0.3294100E+10  0.9118800E+02  0.7818608E-02  0.1180000E+00
       11   -1    0    0    0    0  0.00000000000E+00  0.00000000000E+00  0.39999999673E+01  0.40000000000E+01  0.51109989000E-03 0. -1.
     -623   -1    0    0    0    0  0.00000000000E+00  0.00000000000E+00  0.12525980253E-10  0.17130000000E+03  0.17130000000E+03 0. -1.
       11    1    1    2    0    0 -0.91924747377E-03 -0.18274489067E-02  0.20324759806E+00  0.20325853469E+00  0.51109989000E-03 0. -1.
     -623    1    1    2    0    0  0.13373842308E-02  0.37817369529E-03  0.12394489141E-04  0.17130000001E+03  0.17130000000E+03 0. -1.
      622    1    1    2    0    0 -0.41813675783E-03  0.14492752112E-02  0.37967399772E+01  0.37967414620E+01  0.30000000000E-02 0. -1.
</event>
<event>
 5   0  0.3294100E+10  0.9118800E+02  0.7818608E-02  0.1180000E+00
       11   -1    0    0    0    0  0.00000000000E+00  0.00000000000E+00  0.39999999673E+01  0.40000000000E+01  0.51109989000E-03 0.  1.
     -623   -1    0    0    0    0  0.00000000000E+00  0.00000000000E+00  0.12525980253E-10  0.17130000000E+03  0.17130000000E+03 0.  1.
       11    1    1    2    0    0 -0.22561890939E-02  0.39711928345E-03  0.26504831890E-01  0.26608559323E-01  0.51109989000E-03 0.  1.
     -623    1    1    2    0    0  0.12353833010E-02 -0.29990515364E-02  0.10584111923E-03  0.17130000003E+03  0.17130000000E+03 0.  1.
      622    1    1    2    0    0  0.10208057929E-02  0.26019322530E-02  0.39733892944E+01  0.39733914099E+01  0.30000000000E-02 0.  1.
</event>
<event>
 5   0  0.3294100E+10  0.9118800E+02  0.7818608E-02  0.1180000E+00
       11   -1    0    0    0    0  0.00000000000E+00  0.00000000000E+00  0.39999999673E+01  0.40000000000E+01  0.51109989000E-03 0.  1.
     -623   -1    0    0    0    0  0.00000000000E+00  0.00000000000E+00  0.12525980253E-10  0.17130000000E+03  0.17130000000E+03 0.  1.
       11    1    1    2    0    0  0.25699952414E-02  0.14775762616E-02  0.23317140779E+00  0.23319081187E+00  0.51109989000E-03 0.  1.
     -623    1    1    2    0    0 -0.23313247881E-03  0.69315242490E-04  0.21608758072E-04  0.17130000000E+03  0.17130000000E+03 0.  1.
      622    1    1    2    0    0 -0.23368627626E-02 -0.15468915041E-02  0.37668069508E+01  0.37668091880E+01  0.30000000000E-02 0.  1.
</event>
<event>
 5   0  0.3294100E+10  0.9118800E+02  0.7818608E-02  0.1180000E+00
       11   -1    0    0    0    0  0.00000000000E+00  0.00000000000E+00  0.39999999673E+01  0.40000000000E+01  0.51109989000E-03 0. -1.
     -623   -1    0    0    0    0  0.00000000000E+00  0.00000000000E+00  0.12525980253E-10  0.17130000000E+03  0.17130000000E+03 0. -1.
       11    1    1    2    0    0  0.82423544182E-04  0.12371242899E-03  0.19362468154E+00  0.19362541317E+00  0.51109989000E-03 0. -1.
     -623    1    1    2    0    0  0.27495931691E-04 -0.17730421798E-03  0.18832696549E-05  0.17130000000E+03  0.17130000000E+03 0. -1.
      622    1    1    2    0    0 -0.10991947759E-03  0.53591800024E-04  0.38063736516E+01  0.38063748358E+01  0.30000000000E-02 0. -1.
</event>
<event>
 5   0  0.3294100E+10  0.9118800E+02  0.7818608E-02  0.1180000E+00
       11   -1    0    0    0    0  0.00000000000E+00  0.00000000000E+00  0.39999999673E+01  0.40000000000E+01  0.51109989000E-03 0. -1.
     -623   -1    0    0    0    0  0.00000000000E+00  0.00000000000E+00  0.12525980253E-10  0.17130000000E+03  0.17130000000E+03 0.  1.
       11    1    1    2    0    0  0.55083838753E-03  0.80337381712E-03  0.49616100793E+00  0.49616222734E+00  0.51109989000E-03 0. -1.
     -623    1    1    2    0    0 -0.40177055862E-03 -0.24315373774E-03  0.25196823512E-05  0.17130000000E+03  0.17130000000E+03 0.  1.
      622    1    1    2    0    0 -0.14906782891E-03 -0.56022007938E-03  0.35038364397E+01  0.35038377720E+01  0.30000000000E-02 0. -1.
</event>
<event>
 5   0  0.3294100E+10  0.9118800E+02  0.7818608E-02  0.1180000E+00
       11   -1    0    0    0    0  0.00000000000E+00  0.00000000000E+00  0.39999999673E+01  0.40000000000E+01  0.51109989000E-03 0.  1.
     -623   -1    0    0    0    0  0.00000000000E+00  0.00000000000E+00  0.12525980253E-10  0.17130000000E+03  0.17130000000E+03 0.  1.
       11    1    1    2    0    0 -0.13657285463E-03 -0.45371359812E-03  0.29589846297E-01  0.29598052866E-01  0.51109989000E-03 0.  1.
     -623    1    1    2    0    0 -0.29264408902E-03  0.49403709730E-03  0.93316833274E-05  0.17130000000E+03  0.17130000000E+03 0.  1.
      622    1    1    2    0    0  0.42921694365E-03 -0.40323499186E-04  0.39704007894E+01  0.39704019462E+01  0.30000000000E-02 0.  1.
</event>
<event>
 5   0  0.3294100E+10  0.9118800E+02  0.7818608E-02  0.1180000E+00
       11   -1    0    0    0    0  0.00000000000E+00  0.00000000000E+00  0.39999999673E+01  0.40000000000E+01  0.51109989000E-03 0.  1.
     -623   -1    0    0    0    0  0.00000000000E+00  0.00000000000E+00  0.12525980253E-10  0.17130000000E+03  0.17130000000E+03 0.  1.
       11    1    1    2    0    0  0.83970499256E-02  0.81862117114E-03  0.61497527279E+00  0.61503335515E+00  0.51109989000E-03 0.  1.
     -623    1    1    2    0    0 -0.15613565334E-02  0.15617258209E-02  0.67132429151E-04  0.17130000001E+03  0.17130000000E+03 0.  1.
      622    1    1    2    0    0 -0.68356933929E-02 -0.23803469913E-02  0.33849575603E+01  0.33849666287E+01  0.30000000000E-02 0.  1.
</event>
<event>
 5   0  0.3294100E+10  0.9118800E+02  0.7818608E-02  0.1180000E+00
       11   -1    0    0    0    0  0.00000000000E+00  0.00000000000E+00  0.39999999673E+01  0.40000000000E+01  0.51109989000E-03 0.  1.
     -623   -1    0    0    0    0  0.00000000000E+00  0.00000000000E+00  0.12525980253E-10  0.17130000000E+03  0.17130000000E+03 0.  1.
       11    1    1    2    0    0 -0.29823743597E-03 -0.14910590824E-03  0.97846701350E-01  0.97848604315E-01  0.51109989000E-03 0.  1.
     -623    1    1    2    0    0  0.85803565541E-04  0.72533864960E-04  0.30301051797E-05  0.17130000000E+03  0.17130000000E+03 0.  1.
      622    1    1    2    0    0  0.21243386835E-03  0.76572041522E-04  0.39021503328E+01  0.39021514926E+01  0.30000000000E-02 0.  1.
</event>
<event>
 5   0  0.3294100E+10  0.9118800E+02  0.7818608E-02  0.1180000E+00
       11   -1    0    0    0    0  0.00000000000E+00  0.00000000000E+00  0.39999999673E+01  0.40000000000E+01  0.51109989000E-03 0. -1.
     -623   -1    0    0    0    0  0.00000000000E+00  0.00000000000E+00  0.12525980253E-10  0.17130000000E+03  0.17130000000E+03 0. -1.
       11    1    1    2    0    0  0.27478415516E-03 -0.12962272949E-03  0.72726653479E+00  0.72726677785E+00  0.51109989000E-03 0. -1.
     -623    1    1    2    0    0 -0.10089532995E-05 -0.62589700893E-04  0.16025193963E-05  0.17130000000E+03  0.17130000000E+03 0. -1.
      622    1    1    2    0    0 -0.27377520179E-03  0.19221243459E-03  0.32727320988E+01  0.32727334909E+01  0.30000000000E-02 0. -1.
</event>
<event>
 5   0  0.3294100E+10  0.9118800E+02  0.7818608E-02  0.1180000E+00
       11   -1    0    0    0    0  0.00000000000E+00  0.00000000000E+00  0.39999999673E+01  0.40000000000E+01  0.51109989000E-03 0.  1.
     -623   -1    0    0    0    0  0.00000000000E+00  0.00000000000E+00  0.12525980253E-10  0.17130000000E+03  0.17130000000E+03 0. -1.
       11    1    1    2    0    0  0.21174896713E-02  0.68124055507E-03  0.23124768167E+00  0.23125894438E+00  0.51109989000E-03 0.  1.
     -623    1    1    2    0    0  0.29844398652E-04  0.13469077634E-04  0.13099876704E-04  0.17130000000E+03  0.17130000000E+03 0. -1.
      622    1    1    2    0    0 -0.21473340700E-02 -0.69470963272E-03  0.37687391905E+01  0.37687410603E+01  0.30000000000E-02 0.  1.
</event>
<event>
 5   0  0.3294100E+10  0.9118800E+02  0.7818608E-02  0.1180000E+00
       11   -1    0    0    0    0  0.00000000000E+00  0.00000000000E+00  0.39999999673E+01  0.40000000000E+01  0.51109989000E-03 0. -1.
     -623   -1    0    0    0    0  0.00000000000E+00  0.00000000000E+00  0.12525980253E-10  0.17130000000E+03  0.17130000000E+03 0.  1.
       11    1    1    2    0    0  0.13639569751E-03  0.28009016393E-04  0.24250540275E-01  0.24256325258E-01  0.51109989000E-03 0. -1.
     -623    1    1    2    0    0 -0.59813137152E-05  0.11266856044E-03  0.68888718494E-05  0.17130000000E+03  0.17130000000E+03 0.  1.
      622    1    1    2    0    0 -0.13041438383E-03 -0.14067757615E-03  0.39757425140E+01  0.39757436505E+01  0.30000000000E-02 0. -1.
</event>
<event>
 5   0  0.3294100E+10  0.9118800E+02  0.7818608E-02  0.1180000E+00
       11   -1    0    0    0    0  0.00000000000E+00  0.00000000000E+00  0.39999999673E+01  0.40000000000E+01  0.51109989000E-03 0. -1.
     -623   -1    0    0    0    0  0.00000000000E+00  0.00000000000E+00  0.12525980253E-10  0.17130000000E+03  0.17130000000E+03 0.  1.
       11    1    1    2    0    0 -0.11747306744E-02 -0.32611031762E-03  0.18762787539E+00  0.18763253232E+00  0.51109989000E-03 0.  1.
     -623    1    1    2    0    0 -0.20458629480E-03 -0.10871159526E-03  0.60791307459E-05  0.17130000000E+03  0.17130000000E+03 0.  1.
      622    1    1    2    0    0  0.13793169692E-02  0.43482191288E-03  0.38123660128E+01  0.38123674675E+01  0.30000000000E-02 0. -1.
</event>
<event>
 5   0  0.3294100E+10  0.9118800E+02  0.7818608E-02  0.1180000E+00
       11   -1    0    0    0    0  0.00000000000E+00  0.00000000000E+00  0.39999999673E+01  0.40000000000E+01  0.51109989000E-03 0.  1.
     -623   -1    0    0    0    0  0.00000000000E+00  0.00000000000E+00  0.12525980253E-10  0.17130000000E+03  0.17130000000E+03 0.  1.
       11    1    1    2    0    0  0.25610011561E-03  0.13403797146E-02  0.76039870307E-01  0.76053831622E-01  0.51109989000E-03 0.  1.
     -623    1    1    2    0    0 -0.20369039311E-02 -0.62056417639E-02  0.18620285252E-04  0.17130000012E+03  0.17130000000E+03 0.  1.
      622    1    1    2    0    0  0.17808038235E-02  0.48652620739E-02  0.39239414926E+01  0.39239460597E+01  0.30000000000E-02 0.  1.
</event>
<event>
 5   0  0.3294100E+10  0.9118800E+02  0.7818608E-02  0.1180000E+00
       11   -1    0    0    0    0  0.00000000000E+00  0.00000000000E+00  0.39999999673E+01  0.40000000000E+01  0.51109989000E-03 0. -1.
     -623   -1    0    0    0    0  0.00000000000E+00  0.00000000000E+00  0.12525980253E-10  0.17130000000E+03  0.17130000000E+03 0.  1.
       11    1    1    2    0    0  0.29881358746E-03 -0.10135496784E-02  0.94877125216E-01  0.94884385880E-01  0.51109989000E-03 0. -1.
     -623    1    1    2    0    0 -0.60582777004E-03  0.48977537839E-03  0.84293241636E-05  0.17130000000E+03  0.17130000000E+03 0.  1.
      622    1    1    2    0    0  0.30701418258E-03  0.52377429998E-03  0.39051144128E+01  0.39051156123E+01  0.30000000000E-02 0. -1.
</event>
<event>
 5   0  0.3294100E+10  0.9118800E+02  0.7818608E-02  0.1180000E+00
       11   -1    0    0    0    0  0.00000000000E+00  0.00000000000E+00  0.39999999673E+01  0.40000000000E+01  0.51109989000E-03 0. -1.
     -623   -1    0    0    0    0  0.00000000000E+00  0.00000000000E+00  0.12525980253E-10  0.17130000000E+03  0.17130000000E+03 0.  1.
       11    1    1    2    0    0 -0.91269361284E-03 -0.59560627630E-03  0.37572312322E+00  0.37572505147E+00  0.51109989000E-03 0. -1.
     -623    1    1    2    0    0 -0.57848589778E-05  0.18350466065E-04  0.32995912216E-05  0.17130000000E+03  0.17130000000E+03 0.  1.
      622    1    1    2    0    0  0.91847847182E-03  0.57725581023E-03  0.36242735446E+01  0.36242749485E+01  0.30000000000E-02 0. -1.
</event>
<event>
 5   0  0.3294100E+10  0.9118800E+02  0.7818608E-02  0.1180000E+00
       11   -1    0    0    0    0  0.00000000000E+00  0.00000000000E+00  0.39999999673E+01  0.40000000000E+01  0.51109989000E-03 0.  1.
     -623   -1    0    0    0    0  0.00000000000E+00  0.00000000000E+00  0.12525980253E-10  0.17130000000E+03  0.17130000000E+03 0.  1.
       11    1    1    2    0    0 -0.44169360503E-03  0.37631784044E-03  0.25813397744E+00  0.25813513562E+00  0.51109989000E-03 0.  1.
     -623    1    1    2    0    0  0.16999436179E-03 -0.22731646300E-02  0.28339580043E-05  0.17130000002E+03  0.17130000000E+03 0.  1.
      622    1    1    2    0    0  0.27169923842E-03  0.18968468540E-02  0.37418632694E+01  0.37418649626E+01  0.30000000000E-02 0.  1.
</event>
<event>
 5   0  0.3294100E+10  0.9118800E+02  0.7818608E-02  0.1180000E+00
       11   -1    0    0    0    0  0.00000000000E+00  0.00000000000E+00  0.39999999673E+01  0.40000000000E+01  0.51109989000E-03 0. -1.
     -623   -1    0    0    0    0  0.00000000000E+00  0.00000000000E+00  0.12525980253E-10  0.17130000000E+03  0.17130000000E+03 0. -1.
       11    1    1    2    0    0 -0.63118459775E-04 -0.10052359694E-03  0.96964285834E-01  0.96965705481E-01  0.51109989000E-03 0.  1.
     -623    1    1    2    0    0 -0.22216335917E-03 -0.50670361895E-04  0.25534615600E-05  0.17130000000E+03  0.17130000000E+03 0. -1.
      622    1    1    2    0    0  0.28528182447E-03  0.15119396010E-03  0.39030332276E+01  0.39030343939E+01  0.30000000000E-02 0. -1.
</event>
<event>
 5   0  0.3294100E+10  0.9118800E+02  0.7818608E-02  0.1180000E+00
       11   -1    0    0    0    0  0.00000000000E+00  0.00000000000E+00  0.39999999673E+01  0.40000000000E+01  0.51109989000E-03 0.  1.
     -623   -1    0    0    0    0  0.00000000000E+00  0.00000000000E+00  0.12525980253E-10  0.17130000000E+03  0.17130000000E+03 0. -1.
       11    1    1    2    0    0 -0.11691715998E-02  0.13099125301E-02  0.80574995889E+00  0.80575203401E+00  0.51109989000E-03 0.  1.
     -623    1    1    2    0    0  0.80500371829E-03 -0.23563077373E-03  0.36547225113E-05  0.17130000000E+03  0.17130000000E+03 0. -1.
      622    1    1    2    0    0  0.36416786199E-03 -0.10742817507E-02  0.31942464510E+01  0.31942480612E+01  0.30000000000E-02 0.  1.
</event>
<event>
 5   0  0.3294100E+10  0.9118800E+02  0.7818608E-02  0.1180000E+00
       11   -1    0    0    0    0  0.00000000000E+00  0.00000000000E+00  0.39999999673E+01  0.40000000000E+01  0.51109989000E-03 0.  1.
     -623   -1    0    0    0    0  0.00000000000E+00  0.00000000000E+00  0.12525980253E-10  0.17130000000E+03  0.17130000000E+03 0.  1.
       11    1    1    2    0    0 -0.26895732293E-02  0.67172066464E-02  0.20318012153E+00  0.20330956120E+00  0.51109989000E-03 0.  1.
     -623    1    1    2    0    0 -0.22043658418E-03 -0.96812457619E-02  0.13313824328E-03  0.17130000027E+03  0.17130000000E+03 0.  1.
      622    1    1    2    0    0  0.29100098135E-02  0.29640391155E-02  0.37966867076E+01  0.37966901650E+01  0.30000000000E-02 0.  1.
</event>
<event>
 5   0  0.3294100E+10  0.9118800E+02  0.7818608E-02  0.1180000E+00
       11   -1    0    0    0    0  0.00000000000E+00  0.00000000000E+00  0.39999999673E+01  0.40000000000E+01  0.51109989000E-03 0. -1.
     -623   -1    0    0    0    0  0.00000000000E+00  0.00000000000E+00  0.12525980253E-10  0.17130000000E+03  0.17130000000E+03 0. -1.
       11    1    1    2    0    0  0.13606939979E-03 -0.88287361963E-03  0.53739759258E+00  0.53739857807E+00  0.51109989000E-03 0. -1.
     -623    1    1    2    0    0 -0.23576870379E-03  0.18070778667E-04  0.23620441154E-05  0.17130000000E+03  0.17130000000E+03 0. -1.
      622    1    1    2    0    0  0.99699303996E-04  0.86480284097E-03  0.34626000127E+01  0.34626014218E+01  0.30000000000E-02 0. -1.
</event>
<event>
 5   0  0.3294100E+10  0.9118800E+02  0.7818608E-02  0.1180000E+00
       11   -1    0    0    0    0  0.00000000000E+00  0.00000000000E+00  0.39999999673E+01  0.40000000000E+01  0.51109989000E-03 0. -1.
     -623   -1    0    0    0    0  0.00000000000E+00  0.00000000000E+00  0.12525980253E-10  0.17130000000E+03  0.17130000000E+03 0. -1.
       11    1    1    2    0    0  0.12496545197E-02  0.16364787711E-02  0.35058582178E+00  0.35059224086E+00  0.51109989000E-03 0. -1.
     -623    1    1    2    0    0  0.11203619388E-02  0.13498611125E-03  0.88227593880E-05  0.17130000000E+03  0.17130000000E+03 0. -1.
      622    1    1    2    0    0 -0.23700164589E-02 -0.17714648824E-02  0.36494053241E+01  0.36494077567E+01  0.30000000000E-02 0. -1.
</event>
<event>
 5   0  0.3294100E+10  0.9118800E+02  0.7818608E-02  0.1180000E+00
       11   -1    0    0    0    0  0.00000000000E+00  0.00000000000E+00  0.39999999673E+01  0.40000000000E+01  0.51109989000E-03 0.  1.
     -623   -1    0    0    0    0  0.00000000000E+00  0.00000000000E+00  0.12525980253E-10  0.17130000000E+03  0.17130000000E+03 0. -1.
       11    1    1    2    0    0 -0.12515620682E-02  0.36675885835E-03  0.59191739243E+00  0.59191904987E+00  0.51109989000E-03 0.  1.
     -623    1    1    2    0    0 -0.48649657333E-04 -0.10732911708E-03  0.32031311710E-05  0.17130000000E+03  0.17130000000E+03 0. -1.
      622    1    1    2    0    0  0.13002117254E-02 -0.25942974170E-03  0.34080793557E+01  0.34080809340E+01  0.30000000000E-02 0. -1.
</event>
<event>
 5   0  0.3294100E+10  0.9118800E+02  0.7818608E-02  0.1180000E+00
       11   -1    0    0    0    0  0.00000000000E+00  0.00000000000E+00  0.39999999673E+01  0.40000000000E+01  0.51109989000E-03 0. -1.
     -623   -1    0    0    0    0  0.00000000000E+00  0.00000000000E+00  0.12525980253E-10  0.17130000000E+03  0.17130000000E+03 0. -1.
       11    1    1    2    0    0  0.12364964229E-04  0.76548472124E-03  0.86721469692E+00  0.86721518547E+00  0.51109989000E-03 0. -1.
     -623    1    1    2    0    0 -0.39632430430E-03 -0.14410418467E-03  0.19779976346E-05  0.17130000000E+03  0.17130000000E+03 0. -1.
      622    1    1    2    0    0  0.38395934106E-03 -0.62138053621E-03  0.31327833024E+01  0.31327848240E+01  0.30000000000E-02 0. -1.
</event>
<event>
 5   0  0.3294100E+10  0.9118800E+02  0.7818608E-02  0.1180000E+00
       11   -1    0    0    0    0  0.00000000000E+00  0.00000000000E+00  0.39999999673E+01  0.40000000000E+01  0.51109989000E-03 0. -1.
     -623   -1    0    0    0    0  0.00000000000E+00  0.00000000000E+00  0.12525980253E-10  0.17130000000E+03  0.17130000000E+03 0. -1.
       11    1    1    2    0    0 -0.92800385345E-03  0.18612820774E-02  0.11885271601E+01  0.11885290897E+01  0.51109989000E-03 0. -1.
     -623    1    1    2    0    0 -0.18723127088E-03  0.12673714571E-02  0.54643469092E-05  0.17130000000E+03  0.17130000000E+03 0. -1.
      622    1    1    2    0    0  0.11152351243E-02 -0.31286535345E-02  0.28114673429E+01  0.28114709055E+01  0.30000000000E-02 0.  0.
</event>
<event>
 5   0  0.3294100E+10  0.9118800E+02  0.7818608E-02  0.1180000E+00
       11   -1    0    0    0    0  0.00000000000E+00  0.00000000000E+00  0.39999999673E+01  0.40000000000E+01  0.51109989000E-03 0. -1.
     -623   -1    0    0    0    0  0.00000000000E+00  0.00000000000E+00  0.12525980253E-10  0.17130000000E+03  0.17130000000E+03 0. -1.
       11    1    1    2    0    0  0.89333761864E-03  0.28874051879E-02  0.74313040918E+00  0.74313673131E+00  0.51109989000E-03 0. -1.
     -623    1    1    2    0    0 -0.28635713030E-04  0.54047454597E-03  0.95907778901E-05  0.17130000000E+03  0.17130000000E+03 0. -1.
      622    1    1    2    0    0 -0.86470190561E-03 -0.34278797339E-02  0.32568599674E+01  0.32568632678E+01  0.30000000000E-02 0. -1.
</event>
<event>
 5   0  0.3294100E+10  0.9118800E+02  0.7818608E-02  0.1180000E+00
       11   -1    0    0    0    0  0.00000000000E+00  0.00000000000E+00  0.39999999673E+01  0.40000000000E+01  0.51109989000E-03 0.  1.
     -623   -1    0    0    0    0  0.00000000000E+00  0.00000000000E+00  0.12525980253E-10  0.17130000000E+03  0.17130000000E+03 0.  1.
       11    1    1    2    0    0 -0.51543942373E-03 -0.52358988102E-03  0.71179278215E-01  0.71184904962E-01  0.51109989000E-03 0. -1.
     -623    1    1    2    0    0 -0.42362056936E-04 -0.12299896572E-03  0.68323440923E-05  0.17130000000E+03  0.17130000000E+03 0.  1.
      622    1    1    2    0    0  0.55780148163E-03  0.64658884954E-03  0.39288139480E+01  0.39288151862E+01  0.30000000000E-02 0.  1.
</event>
<event>
 5   0  0.3294100E+10  0.9118800E+02  0.7818608E-02  0.1180000E+00
       11   -1    0    0    0    0  0.00000000000E+00  0.00000000000E+00  0.39999999673E+01  0.40000000000E+01  0.51109989000E-03 0. -1.
     -623   -1    0    0    0    0  0.00000000000E+00  0.00000000000E+00  0.12525980253E-10  0.17130000000E+03  0.17130000000E+03 0. -1.
       11    1    1    2    0    0 -0.31187947505E-03 -0.43524133861E-03  0.42526309027E+00  0.42526373449E+00  0.51109989000E-03 0. -1.
     -623    1    1    2    0    0  0.11497257401E-03 -0.15683254132E-03  0.19249793524E-05  0.17130000000E+03  0.17130000000E+03 0. -1.
      622    1    1    2    0    0  0.19690690104E-03  0.59207387993E-03  0.35747349521E+01  0.35747362654E+01  0.30000000000E-02 0. -1.
</event>
<event>
 5   0  0.3294100E+10  0.9118800E+02  0.7818608E-02  0.1180000E+00
       11   -1    0    0    0    0  0.00000000000E+00  0.00000000000E+00  0.39999999673E+01  0.40000000000E+01  0.51109989000E-03 0.  1.
     -623   -1    0    0    0    0  0.00000000000E+00  0.00000000000E+00  0.12525980253E-10  0.17130000000E+03  0.17130000000E+03 0. -1.
       11    1    1    2    0    0  0.75896336176E-03 -0.64562342929E-03  0.51810639556E+00  0.51810760581E+00  0.51109989000E-03 0.  1.
     -623    1    1    2    0    0 -0.11316463361E-02  0.63523925078E-03  0.24948869584E-05  0.17130000000E+03  0.17130000000E+03 0. -1.
      622    1    1    2    0    0  0.37268303577E-03  0.10384144046E-04  0.34818912939E+01  0.34818926063E+01  0.30000000000E-02 0.  1.
</event>
<event>
 5   0  0.3294100E+10  0.9118800E+02  0.7818608E-02  0.1180000E+00
       11   -1    0    0    0    0  0.00000000000E+00  0.00000000000E+00  0.39999999673E+01  0.40000000000E+01  0.51109989000E-03 0. -1.
     -623   -1    0    0    0    0  0.00000000000E+00  0.00000000000E+00  0.12525980253E-10  0.17130000000E+03  0.17130000000E+03 0. -1.
       11    1    1    2    0    0 -0.27640547194E-02 -0.32471073689E-02  0.35998064155E+00  0.36000625997E+00  0.51109989000E-03 0. -1.
     -623    1    1    2    0    0  0.45109628689E-03  0.69339212234E-03  0.28454715198E-04  0.17130000000E+03  0.17130000000E+03 0. -1.
      622    1    1    2    0    0  0.23129584301E-02  0.25537152429E-02  0.36399908924E+01  0.36399937593E+01  0.30000000000E-02 0. -1.
</event>
<event>
 5   0  0.3294100E+10  0.9118800E+02  0.7818608E-02  0.1180000E+00
       11   -1    0    0    0    0  0.00000000000E+00  0.00000000000E+00  0.39999999673E+01  0.40000000000E+01  0.51109989000E-03 0. -1.
     -623   -1    0    0    0    0  0.00000000000E+00  0.00000000000E+00  0.12525980253E-10  0.17130000000E+03  0.17130000000E+03 0. -1.
       11    1    1    2    0    0  0.84090632124E-03 -0.72046211930E-03  0.62489508696E-01  0.62501408858E-01  0.51109989000E-03 0. -1.
     -623    1    1    2    0    0  0.75208160448E-06  0.19800165107E-04  0.13162675662E-04  0.17130000000E+03  0.17130000000E+03 0. -1.
      622    1    1    2    0    0 -0.84165840285E-03  0.70066195407E-03  0.39374973206E+01  0.39374986158E+01  0.30000000000E-02 0. -1.
</event>
<event>
 5   0  0.3294100E+10  0.9118800E+02  0.7818608E-02  0.1180000E+00
       11   -1    0    0    0    0  0.00000000000E+00  0.00000000000E+00  0.39999999673E+01  0.40000000000E+01  0.51109989000E-03 0.  1.
     -623   -1    0    0    0    0  0.00000000000E+00  0.00000000000E+00  0.12525980253E-10  0.17130000000E+03  0.17130000000E+03 0. -1.
       11    1    1    2    0    0  0.12496646118E-03  0.61291347185E-03  0.20320441889E+00  0.20320602442E+00  0.51109989000E-03 0. -1.
     -623    1    1    2    0    0 -0.53439135233E-04 -0.25914462233E-03  0.27754562186E-05  0.17130000000E+03  0.17130000000E+03 0. -1.
      622    1    1    2    0    0 -0.71527325399E-04 -0.35376884687E-03  0.37967928139E+01  0.37967940163E+01  0.30000000000E-02 0.  1.
</event>
<event>
 5   0  0.3294100E+10  0.9118800E+02  0.7818608E-02  0.1180000E+00
       11   -1    0    0    0    0  0.00000000000E+00  0.00000000000E+00  0.39999999673E+01  0.40000000000E+01  0.51109989000E-03 0.  1.
     -623   -1    0    0    0    0  0.00000000000E+00  0.00000000000E+00  0.12525980253E-10  0.17130000000E+03  0.17130000000E+03 0.  1.
       11    1    1    2    0    0  0.65037846779E-03 -0.17686612356E-03  0.25126944117E+00  0.25127086493E+00  0.51109989000E-03 0.  1.
     -623    1    1    2    0    0 -0.22296814561E-03  0.20675683312E-03  0.26162815083E-05  0.17130000000E+03  0.17130000000E+03 0.  1.
      622    1    1    2    0    0 -0.42741031226E-03 -0.29890718750E-04  0.37487280877E+01  0.37487293126E+01  0.30000000000E-02 0.  1.
</event>
<event>
 5   0  0.3294100E+10  0.9118800E+02  0.7818608E-02  0.1180000E+00
       11   -1    0    0    0    0  0.00000000000E+00  0.00000000000E+00  0.39999999673E+01  0.40000000000E+01  0.51109989000E-03 0.  1.
     -623   -1    0    0    0    0  0.00000000000E+00  0.00000000000E+00  0.12525980253E-10  0.17130000000E+03  0.17130000000E+03 0. -1.
       11    1    1    2    0    0  0.26722253815E-03 -0.24532332164E-03  0.32563089206E+00  0.32563149521E+00  0.51109989000E-03 0.  1.
     -623    1    1    2    0    0 -0.68261883112E-03 -0.11139307250E-02  0.20750928176E-05  0.17130000000E+03  0.17130000000E+03 0. -1.
      622    1    1    2    0    0  0.41539629298E-03  0.13592540467E-02  0.36743670002E+01  0.36743684998E+01  0.30000000000E-02 0.  1.
</event>
<event>
 5   0  0.3294100E+10  0.9118800E+02  0.7818608E-02  0.1180000E+00
       11   -1    0    0    0    0  0.00000000000E+00  0.00000000000E+00  0.39999999673E+01  0.40000000000E+01  0.51109989000E-03 0.  1.
     -623   -1    0    0    0    0  0.00000000000E+00  0.00000000000E+00  0.12525980253E-10  0.17130000000E+03  0.17130000000E+03 0.  1.
       11    1    1    2    0    0  0.33897346909E-04  0.14561724017E-02  0.74098679568E+00  0.74098840354E+00  0.51109989000E-03 0.  1.
     -623    1    1    2    0    0  0.13806920440E-02 -0.10014934623E-02  0.33032213862E-05  0.17130000001E+03  0.17130000000E+03 0.  1.
      622    1    1    2    0    0 -0.14145893909E-02 -0.45467893934E-03  0.32590098685E+01  0.32590115880E+01  0.30000000000E-02 0.  1.
</event>
<event>
 5   0  0.3294100E+10  0.9118800E+02  0.7818608E-02  0.1180000E+00
       11   -1    0    0    0    0  0.00000000000E+00  0.00000000000E+00  0.39999999673E+01  0.40000000000E+01  0.51109989000E-03 0. -1.
     -623   -1    0    0    0    0  0.00000000000E+00  0.00000000000E+00  0.12525980253E-10  0.17130000000E+03  0.17130000000E+03 0. -1.
       11    1    1    2    0    0  0.74565296796E-02 -0.25230125261E-02  0.34091148986E+00  0.34100274276E+00  0.51109989000E-03 0. -1.
     -623    1    1    2    0    0 -0.16866244946E-02 -0.31530436678E-03  0.98108890620E-04  0.17130000001E+03  0.17130000000E+03 0. -1.
      622    1    1    2    0    0 -0.57699051851E-02  0.28383168929E-02  0.36589903686E+01  0.36589972486E+01  0.30000000000E-02 0. -1.
</event>
<event>
 5   0  0.3294100E+10  0.9118800E+02  0.7818608E-02  0.1180000E+00
       11   -1    0    0    0    0  0.00000000000E+00  0.00000000000E+00  0.39999999673E+01  0.40000000000E+01  0.51109989000E-03 0. -1.
     -623   -1    0    0    0    0  0.00000000000E+00  0.00000000000E+00  0.12525980253E-10  0.17130000000E+03  0.17130000000E+03 0.  1.
       11    1    1    2    0    0  0.80722521519E-03  0.37330515907E-03  0.53717464892E+00  0.53717562830E+00  0.51109989000E-03 0. -1.
     -623    1    1    2    0    0  0.31391432041E-03 -0.97955736674E-03  0.24839030934E-05  0.17130000000E+03  0.17130000000E+03 0.  1.
      622    1    1    2    0    0 -0.11211395356E-02  0.60625220767E-03  0.34628228345E+01  0.34628243686E+01  0.30000000000E-02 0. -1.
</event>
<event>
 5   0  0.3294100E+10  0.9118800E+02  0.7818608E-02  0.1180000E+00
       11   -1    0    0    0    0  0.00000000000E+00  0.00000000000E+00  0.39999999673E+01  0.40000000000E+01  0.51109989000E-03 0. -1.
     -623   -1    0    0    0    0  0.00000000000E+00  0.00000000000E+00  0.12525980253E-10  0.17130000000E+03  0.17130000000E+03 0. -1.
       11    1    1    2    0    0  0.12916185748E-01  0.91166377917E-02  0.78094275378E+00  0.78110292973E+00  0.51109989000E-03 0. -1.
     -623    1    1    2    0    0 -0.40074892412E-02 -0.11392557200E-01  0.17509970483E-03  0.17130000043E+03  0.17130000000E+03 0. -1.
      622    1    1    2    0    0 -0.89086965073E-02  0.22759194084E-02  0.32188821139E+01  0.32188966445E+01  0.30000000000E-02 0. -1.
</event>
<event>
 5   0  0.3294100E+10  0.9118800E+02  0.7818608E-02  0.1180000E+00
       11   -1    0    0    0    0  0.00000000000E+00  0.00000000000E+00  0.39999999673E+01  0.40000000000E+01  0.51109989000E-03 0.  1.
     -623   -1    0    0    0    0  0.00000000000E+00  0.00000000000E+00  0.12525980253E-10  0.17130000000E+03  0.17130000000E+03 0.  1.
       11    1    1    2    0    0  0.34437420842E-02 -0.37065873914E-02  0.94886223043E+00  0.94887585685E+00  0.51109989000E-03 0.  1.
     -623    1    1    2    0    0 -0.27911657369E-02  0.47686717791E-02  0.15412399435E-04  0.17130000009E+03  0.17130000000E+03 0.  1.
      622    1    1    2    0    0 -0.65257634730E-03 -0.10620843877E-02  0.30511223245E+01  0.30511240540E+01  0.30000000000E-02 0.  1.
</event>
<event>
 5   0  0.3294100E+10  0.9118800E+02  0.7818608E-02  0.1180000E+00
       11   -1    0    0    0    0  0.00000000000E+00  0.00000000000E+00  0.39999999673E+01  0.40000000000E+01  0.51109989000E-03 0. -1.
     -623   -1    0    0    0    0  0.00000000000E+00  0.00000000000E+00  0.12525980253E-10  0.17130000000E+03  0.17130000000E+03 0.  1.
       11    1    1    2    0    0  0.12686801255E-02 -0.12958253747E-03  0.28594061362E+00  0.28594391422E+00  0.51109989000E-03 0. -1.
     -623    1    1    2    0    0  0.21946658255E-04 -0.48170679556E-04  0.47080788943E-05  0.17130000000E+03  0.17130000000E+03 0.  1.
      622    1    1    2    0    0 -0.12906267838E-02  0.17775321703E-03  0.37140546457E+01  0.37140560858E+01  0.30000000000E-02 0. -1.
</event>
<event>
 5   0  0.3294100E+10  0.9118800E+02  0.7818608E-02  0.1180000E+00
       11   -1    0    0    0    0  0.00000000000E+00  0.00000000000E+00  0.39999999673E+01  0.40000000000E+01  0.51109989000E-03 0.  1.
     -623   -1    0    0    0    0  0.00000000000E+00  0.00000000000E+00  0.12525980253E-10  0.17130000000E+03  0.17130000000E+03 0.  1.
       11    1    1    2    0    0  0.23301771111E-03  0.45848705733E-03  0.12011166049E+00  0.12011384897E+00  0.51109989000E-03 0.  1.
     -623    1    1    2    0    0 -0.15363929606E-04  0.10869514205E-04  0.33501718693E-05  0.17130000000E+03  0.17130000000E+03 0.  1.
      622    1    1    2    0    0 -0.21765378189E-03 -0.46935657127E-03  0.38798848580E+01  0.38798860523E+01  0.30000000000E-02 0.  1.
</event>
<event>
 5   0  0.3294100E+10  0.9118800E+02  0.7818608E-02  0.1180000E+00
       11   -1    0    0    0    0  0.00000000000E+00  0.00000000000E+00  0.39999999673E+01  0.40000000000E+01  0.51109989000E-03 0.  1.
     -623   -1    0    0    0    0  0.00000000000E+00  0.00000000000E+00  0.12525980253E-10  0.17130000000E+03  0.17130000000E+03 0.  1.
       11    1    1    2    0    0 -0.50910932818E-03  0.13634217042E-02  0.84256680193E+00  0.84256821389E+00  0.51109989000E-03 0.  1.
     -623    1    1    2    0    0 -0.14429289111E-03 -0.50053963100E-04  0.31453540519E-05  0.17130000000E+03  0.17130000000E+03 0.  1.
      622    1    1    2    0    0  0.65340221928E-03 -0.13133677411E-02  0.31574300201E+01  0.31574317860E+01  0.30000000000E-02 0.  1.
</event>
<event>
 5   0  0.3294100E+10  0.9118800E+02  0.7818608E-02  0.1180000E+00
       11   -1    0    0    0    0  0.00000000000E+00  0.00000000000E+00  0.39999999673E+01  0.40000000000E+01  0.51109989000E-03 0. -1.
     -623   -1    0    0    0    0  0.00000000000E+00  0.00000000000E+00  0.12525980253E-10  0.17130000000E+03  0.17130000000E+03 0. -1.
       11    1    1    2    0    0 -0.59587497876E-03  0.34882671990E-03  0.70100482717E-01  0.70105746161E-01  0.51109989000E-03 0.  1.
     -623    1    1    2    0    0 -0.58034469552E-03  0.45785722952E-03  0.66362829618E-05  0.17130000000E+03  0.17130000000E+03 0. -1.
      622    1    1    2    0    0  0.11762196743E-02 -0.80668394942E-03  0.39298928484E+01  0.39298942522E+01  0.30000000000E-02 0. -1.
</event>
<event>
 5   0  0.3294100E+10  0.9118800E+02  0.7818608E-02  0.1180000E+00
       11   -1    0    0    0    0  0.00000000000E+00  0.00000000000E+00  0.39999999673E+01  0.40000000000E+01  0.51109989000E-03 0.  1.
     -623   -1    0    0    0    0  0.00000000000E+00  0.00000000000E+00  0.12525980253E-10  0.17130000000E+03  0.17130000000E+03 0. -1.
       11    1    1    2    0    0  0.20451565181E-02  0.10259833937E-02  0.19057761920E+00  0.19059203936E+00  0.51109989000E-03 0.  1.
     -623    1    1    2    0    0  0.81943246242E-03 -0.91483732314E-03  0.16651891958E-04  0.17130000000E+03  0.17130000000E+03 0. -1.
      622    1    1    2    0    0 -0.28645889785E-02 -0.11114607280E-03  0.38094056864E+01  0.38094079463E+01  0.30000000000E-02 0.  1.
</event>
<event>
 5   0  0.3294100E+10  0.9118800E+02  0.7818608E-02  0.1180000E+00
       11   -1    0    0    0    0  0.00000000000E+00  0.00000000000E+00  0.39999999673E+01  0.40000000000E+01  0.51109989000E-03 0. -1.
     -623   -1    0    0    0    0  0.00000000000E+00  0.00000000000E+00  0.12525980253E-10  0.17130000000E+03  0.17130000000E+03 0. -1.
       11    1    1    2    0    0  0.17399142972E-02  0.14571855502E-02  0.18646948436E+00  0.18648399533E+00  0.51109989000E-03 0. -1.
     -623    1    1    2    0    0 -0.31767836902E-02  0.46081121284E-03  0.16441435054E-04  0.17130000003E+03  0.17130000000E+03 0. -1.
      622    1    1    2    0    0  0.14368694244E-02 -0.19179967676E-02  0.38135140812E+01  0.38135160142E+01  0.30000000000E-02 0. -1.
</event>
<event>
 5   0  0.3294100E+10  0.9118800E+02  0.7818608E-02  0.1180000E+00
       11   -1    0    0    0    0  0.00000000000E+00  0.00000000000E+00  0.39999999673E+01  0.40000000000E+01  0.51109989000E-03 0. -1.
     -623   -1    0    0    0    0  0.00000000000E+00  0.00000000000E+00  0.12525980253E-10  0.17130000000E+03  0.17130000000E+03 0.  1.
       11    1    1    2    0    0 -0.28834807255E-04 -0.12747673572E-03  0.18660323370E-01  0.18667779010E-01  0.51109989000E-03 0. -1.
     -623    1    1    2    0    0  0.34853040483E-04  0.54103591266E-04  0.85539669681E-05  0.17130000000E+03  0.17130000000E+03 0.  1.
      622    1    1    2    0    0 -0.60182336806E-05  0.73373143748E-04  0.39813311420E+01  0.39813322729E+01  0.30000000000E-02 0. -1.
</event>
<event>
 5   0  0.3294100E+10  0.9118800E+02  0.7818608E-02  0.1180000E+00
       11   -1    0    0    0    0  0.00000000000E+00  0.00000000000E+00  0.39999999673E+01  0.40000000000E+01  0.51109989000E-03 0. -1.
     -623   -1    0    0    0    0  0.00000000000E+00  0.00000000000E+00  0.12525980253E-10  0.17130000000E+03  0.17130000000E+03 0. -1.
       11    1    1    2    0    0 -0.22707645820E-03  0.81377150116E-03  0.10287662511E+00  0.10288136373E+00  0.51109989000E-03 0. -1.
     -623    1    1    2    0    0 -0.11564618356E-03 -0.94521486003E-03  0.58806223091E-05  0.17130000000E+03  0.17130000000E+03 0. -1.
      622    1    1    2    0    0  0.34272264286E-03  0.13144336786E-03  0.38971174997E+01  0.38971186716E+01  0.30000000000E-02 0. -1.
</event>
<event>
 5   0  0.3294100E+10  0.9118800E+02  0.7818608E-02  0.1180000E+00
       11   -1    0    0    0    0  0.00000000000E+00  0.00000000000E+00  0.39999999673E+01  0.40000000000E+01  0.51109989000E-03 0.  1.
     -623   -1    0    0    0    0  0.00000000000E+00  0.00000000000E+00  0.12525980253E-10  0.17130000000E+03  0.17130000000E+03 0.  1.
       11    1    1    2    0    0 -0.15812304044E-02  0.32336673267E-02  0.75133025840E+00  0.75133905483E+00  0.51109989000E-03 0.  1.
     -623    1    1    2    0    0 -0.59779872284E-03 -0.23436497630E-03  0.12265505275E-04  0.17130000000E+03  0.17130000000E+03 0.  1.
      622    1    1    2    0    0  0.21790291272E-02 -0.29993023504E-02  0.32486574434E+01  0.32486609440E+01  0.30000000000E-02 0.  1.
</event>
<event>
 5   0  0.3294100E+10  0.9118800E+02  0.7818608E-02  0.1180000E+00
       11   -1    0    0    0    0  0.00000000000E+00  0.00000000000E+00  0.39999999673E+01  0.40000000000E+01  0.51109989000E-03 0.  1.
     -623   -1    0    0    0    0  0.00000000000E+00  0.00000000000E+00  0.12525980253E-10  0.17130000000E+03  0.17130000000E+03 0.  1.
       11    1    1    2    0    0  0.10797628754E-02  0.23383705776E-03  0.11843636860E+00  0.11844262407E+00  0.51109989000E-03 0.  1.
     -623    1    1    2    0    0  0.81377222482E-03 -0.23100166814E-03  0.78461127839E-05  0.17130000000E+03  0.17130000000E+03 0.  1.
      622    1    1    2    0    0 -0.18935351002E-02 -0.28353896201E-05  0.38815557526E+01  0.38815573738E+01  0.30000000000E-02 0.  1.
</event>
<event>
 5   0  0.3294100E+10  0.9118800E+02  0.7818608E-02  0.1180000E+00
       11   -1    0    0    0    0  0.00000000000E+00  0.00000000000E+00  0.39999999673E+01  0.40000000000E+01  0.51109989000E-03 0.  1.
     -623   -1    0    0    0    0  0.00000000000E+00  0.00000000000E+00  0.12525980253E-10  0.17130000000E+03  0.17130000000E+03 0. -1.
       11    1    1    2    0    0 -0.20321507213E-03  0.91340030416E-03  0.42560719993E+00  0.42560853546E+00  0.51109989000E-03 0.  1.
     -623    1    1    2    0    0  0.13764091748E-03 -0.73596165709E-04  0.26611689283E-05  0.17130000000E+03  0.17130000000E+03 0. -1.
      622    1    1    2    0    0  0.65574150839E-04 -0.83980413641E-03  0.35743902170E+01  0.35743915752E+01  0.30000000000E-02 0.  1.
</event>
<event>
 5   0  0.3294100E+10  0.9118800E+02  0.7818608E-02  0.1180000E+00
       11   -1    0    0    0    0  0.00000000000E+00  0.00000000000E+00  0.39999999673E+01  0.40000000000E+01  0.51109989000E-03 0.  1.
     -623   -1    0    0    0    0  0.00000000000E+00  0.00000000000E+00  0.12525980253E-10  0.17130000000E+03  0.17130000000E+03 0.  1.
       11    1    1    2    0    0  0.14278391662E-02  0.88994230196E-03  0.10911783693E+01  0.10911797861E+01  0.51109989000E-03 0.  1.
     -623    1    1    2    0    0 -0.77529056432E-03 -0.54290192096E-03  0.30276804828E-05  0.17130000000E+03  0.17130000000E+03 0.  1.
      622    1    1    2    0    0 -0.65254860189E-03 -0.34704038100E-03  0.29088185703E+01  0.29088202113E+01  0.30000000000E-02 0.  0.
</event>
<event>
 5   0  0.3294100E+10  0.9118800E+02  0.7818608E-02  0.1180000E+00
       11   -1    0    0    0    0  0.00000000000E+00  0.00000000000E+00  0.39999999673E+01  0.40000000000E+01  0.51109989000E-03 0.  1.
     -623   -1    0    0    0    0  0.00000000000E+00  0.00000000000E+00  0.12525980253E-10  0.17130000000E+03  0.17130000000E+03 0.  1.
       11    1    1    2    0    0  0.27986448083E-02 -0.28813763875E-02  0.82042156143E+00  0.82043155378E+00  0.51109989000E-03 0.  1.
     -623    1    1    2    0    0 -0.32986195395E-04  0.17205813941E-03  0.13732204610E-04  0.17130000000E+03  0.17130000000E+03 0.  1.
      622    1    1    2    0    0 -0.27656586129E-02  0.27093182480E-02  0.31795646757E+01  0.31795684481E+01  0.30000000000E-02 0.  1.
</event>
<event>
 5   0  0.3294100E+10  0.9118800E+02  0.7818608E-02  0.1180000E+00
       11   -1    0    0    0    0  0.00000000000E+00  0.00000000000E+00  0.39999999673E+01  0.40000000000E+01  0.51109989000E-03 0.  1.
     -623   -1    0    0    0    0  0.00000000000E+00  0.00000000000E+00  0.12525980253E-10  0.17130000000E+03  0.17130000000E+03 0. -1.
       11    1    1    2    0    0 -0.96348618891E-03  0.36026581310E-03  0.14450446913E+00  0.14450903403E+00  0.51109989000E-03 0.  1.
     -623    1    1    2    0    0  0.29805095089E-03 -0.62373532486E-03  0.57672573144E-05  0.17130000000E+03  0.17130000000E+03 0. -1.
      622    1    1    2    0    0  0.66543523377E-03  0.26346952067E-03  0.38554897881E+01  0.38554910216E+01  0.30000000000E-02 0.  1.
</event>
<event>
 5   0  0.3294100E+10  0.9118800E+02  0.7818608E-02  0.1180000E+00
       11   -1    0    0    0    0  0.00000000000E+00  0.00000000000E+00  0.39999999673E+01  0.40000000000E+01  0.51109989000E-03 0.  1.
     -623   -1    0    0    0    0  0.00000000000E+00  0.00000000000E+00  0.12525980253E-10  0.17130000000E+03  0.17130000000E+03 0. -1.
       11    1    1    2    0    0  0.77391838983E-04 -0.13403255992E-03  0.50835154702E-01  0.50837959547E-01  0.51109989000E-03 0.  1.
     -623    1    1    2    0    0 -0.11741626319E-04  0.93598960340E-04  0.39124659628E-05  0.17130000000E+03  0.17130000000E+03 0. -1.
      622    1    1    2    0    0 -0.65650212750E-04  0.40433600269E-04  0.39491608706E+01  0.39491620109E+01  0.30000000000E-02 0.  1.
</event>
<event>
 5   0  0.3294100E+10  0.9118800E+02  0.7818608E-02  0.1180000E+00
       11   -1    0    0    0    0  0.00000000000E+00  0.00000000000E+00  0.39999999673E+01  0.40000000000E+01  0.51109989000E-03 0. -1.
     -623   -1    0    0    0    0  0.00000000000E+00  0.00000000000E+00  0.12525980253E-10  0.17130000000E+03  0.17130000000E+03 0.  1.
       11    1    1    2    0    0  0.45013585184E-02  0.40821245155E-03  0.80938206525E+00  0.80939484656E+00  0.51109989000E-03 0. -1.
     -623    1    1    2    0    0 -0.94825551505E-03  0.98011116668E-03  0.16444934267E-04  0.17130000001E+03  0.17130000000E+03 0.  1.
      622    1    1    2    0    0 -0.35531030022E-02 -0.13883236194E-02  0.31906014617E+01  0.31906051526E+01  0.30000000000E-02 0. -1.
</event>
<event>
 5   0  0.3294100E+10  0.9118800E+02  0.7818608E-02  0.1180000E+00
       11   -1    0    0    0    0  0.00000000000E+00  0.00000000000E+00  0.39999999673E+01  0.40000000000E+01  0.51109989000E-03 0.  1.
     -623   -1    0    0    0    0  0.00000000000E+00  0.00000000000E+00  0.12525980253E-10  0.17130000000E+03  0.17130000000E+03 0. -1.
       11    1    1    2    0    0  0.29229506832E-02 -0.74661674716E-03  0.35705603858E+00  0.35706914875E+00  0.51109989000E-03 0.  1.
     -623    1    1    2    0    0 -0.11957827850E-02  0.13486129081E-03  0.14777827495E-04  0.17130000000E+03  0.17130000000E+03 0. -1.
      622    1    1    2    0    0 -0.17271678930E-02  0.61175545577E-03  0.36429291684E+01  0.36429308645E+01  0.30000000000E-02 0.  1.
</event>
<event>
 5   0  0.3294100E+10  0.9118800E+02  0.7818608E-02  0.1180000E+00
       11   -1    0    0    0    0  0.00000000000E+00  0.00000000000E+00  0.39999999673E+01  0.40000000000E+01  0.51109989000E-03 0.  1.
     -623   -1    0    0    0    0  0.00000000000E+00  0.00000000000E+00  0.12525980253E-10  0.17130000000E+03  0.17130000000E+03 0. -1.
       11    1    1    2    0    0 -0.53702476757E-03 -0.53282586557E-03  0.10368697689E+00  0.10369099622E+00  0.51109989000E-03 0.  1.
     -623    1    1    2    0    0  0.32560027929E-03  0.79759869232E-03  0.51585357368E-05  0.17130000000E+03  0.17130000000E+03 0. -1.
      622    1    1    2    0    0  0.21142448169E-03 -0.26477284288E-03  0.38963079129E+01  0.38963090825E+01  0.30000000000E-02 0.  1.
</event>
<event>
 5   0  0.3294100E+10  0.9118800E+02  0.7818608E-02  0.1180000E+00
       11   -1    0    0    0    0  0.00000000000E+00  0.00000000000E+00  0.39999999673E+01  0.40000000000E+01  0.51109989000E-03 0.  1.
     -623   -1    0    0    0    0  0.00000000000E+00  0.00000000000E+00  0.12525980253E-10  0.17130000000E+03  0.17130000000E+03 0.  1.
       11    1    1    2    0    0  0.25318849383E-02 -0.47491039139E-03  0.87693739920E+00  0.87694133174E+00  0.51109989000E-03 0.  1.
     -623    1    1    2    0    0 -0.24100648019E-02  0.14578767162E-02  0.55210241090E-05  0.17130000002E+03  0.17130000000E+03 0.  1.
      622    1    1    2    0    0 -0.12182007890E-03 -0.98296635955E-03  0.31230571424E+01  0.31230587404E+01  0.30000000000E-02 0.  1.
</event>
<event>
 5   0  0.3294100E+10  0.9118800E+02  0.7818608E-02  0.1180000E+00
       11   -1    0    0    0    0  0.00000000000E+00  0.00000000000E+00  0.39999999673E+01  0.40000000000E+01  0.51109989000E-03 0. -1.
     -623   -1    0    0    0    0  0.00000000000E+00  0.00000000000E+00  0.12525980253E-10  0.17130000000E+03  0.17130000000E+03 0. -1.
       11    1    1    2    0    0  0.95487060807E-03 -0.12491541883E-03  0.21184386310E+00  0.21184666845E+00  0.51109989000E-03 0. -1.
     -623    1    1    2    0    0 -0.10382507290E-02 -0.66628226031E-03  0.40486167756E-05  0.17130000000E+03  0.17130000000E+03 0. -1.
      622    1    1    2    0    0  0.83380120935E-04  0.79119767914E-03  0.37881520556E+01  0.37881533271E+01  0.30000000000E-02 0. -1.
</event>
<event>
 5   0  0.3294100E+10  0.9118800E+02  0.7818608E-02  0.1180000E+00
       11   -1    0    0    0    0  0.00000000000E+00  0.00000000000E+00  0.39999999673E+01  0.40000000000E+01  0.51109989000E-03 0. -1.
     -623   -1    0    0    0    0  0.00000000000E+00  0.00000000000E+00  0.12525980253E-10  0.17130000000E+03  0.17130000000E+03 0.  1.
       11    1    1    2    0    0  0.16427571595E-02  0.25169179176E-02  0.10803136967E+01  0.10803179986E+01  0.51109989000E-03 0. -1.
     -623    1    1    2    0    0 -0.59187857881E-04 -0.57895938641E-04  0.72754802116E-05  0.17130000000E+03  0.17130000000E+03 0.  1.
      622    1    1    2    0    0 -0.15835693020E-02 -0.24590219794E-02  0.29196789705E+01  0.29196819767E+01  0.30000000000E-02 0.  0.
</event>
<event>
 5   0  0.3294100E+10  0.9118800E+02  0.7818608E-02  0.1180000E+00
       11   -1    0    0    0    0  0.00000000000E+00  0.00000000000E+00  0.39999999673E+01  0.40000000000E+01  0.51109989000E-03 0.  1.
     -623   -1    0    0    0    0  0.00000000000E+00  0.00000000000E+00  0.12525980253E-10  0.17130000000E+03  0.17130000000E+03 0. -1.
       11    1    1    2    0    0 -0.38119160539E-03  0.53886426116E-03  0.11509557281E+01  0.11509560308E+01  0.51109989000E-03 0.  1.
     -623    1    1    2    0    0  0.13356526550E-03 -0.43853064303E-03  0.18627296163E-05  0.17130000000E+03  0.17130000000E+03 0. -1.
      622    1    1    2    0    0  0.24762634713E-03 -0.10033364192E-03  0.28490421596E+01  0.28490437516E+01  0.30000000000E-02 0. -1.
</event>
<event>
 5   0  0.3294100E+10  0.9118800E+02  0.7818608E-02  0.1180000E+00
       11   -1    0    0    0    0  0.00000000000E+00  0.00000000000E+00  0.39999999673E+01  0.40000000000E+01  0.51109989000E-03 0.  1.
     -623   -1    0    0    0    0  0.00000000000E+00  0.00000000000E+00  0.12525980253E-10  0.17130000000E+03  0.17130000000E+03 0. -1.
       11    1    1    2    0    0  0.63526979010E-03 -0.10864372252E-03  0.44552711559E+00  0.44552787491E+00  0.51109989000E-03 0.  1.
     -623    1    1    2    0    0 -0.96486387553E-04 -0.10003834421E-04  0.20355308710E-05  0.17130000000E+03  0.17130000000E+03 0. -1.
      622    1    1    2    0    0 -0.53878340154E-03  0.11864755705E-03  0.35544708577E+01  0.35544721666E+01  0.30000000000E-02 0.  1.
</event>
<event>
 5   0  0.3294100E+10  0.9118800E+02  0.7818608E-02  0.1180000E+00
       11   -1    0    0    0    0  0.00000000000E+00  0.00000000000E+00  0.39999999673E+01  0.40000000000E+01  0.51109989000E-03 0.  1.
     -623   -1    0    0    0    0  0.00000000000E+00  0.00000000000E+00  0.12525980253E-10  0.17130000000E+03  0.17130000000E+03 0. -1.
       11    1    1    2    0    0 -0.17044039831E-02 -0.66779038556E-03  0.71331868401E+00  0.71332121594E+00  0.51109989000E-03 0.  1.
     -623    1    1    2    0    0 -0.17424976007E-02 -0.54301721258E-03  0.59086809512E-05  0.17130000001E+03  0.17130000000E+03 0. -1.
      622    1    1    2    0    0  0.34469016049E-02  0.12108076047E-02  0.32866754233E+01  0.32866788229E+01  0.30000000000E-02 0.  0.
</event>
<event>
 5   0  0.3294100E+10  0.9118800E+02  0.7818608E-02  0.1180000E+00
       11   -1    0    0    0    0  0.00000000000E+00  0.00000000000E+00  0.39999999673E+01  0.40000000000E+01  0.51109989000E-03 0.  1.
     -623   -1    0    0    0    0  0.00000000000E+00  0.00000000000E+00  0.12525980253E-10  0.17130000000E+03  0.17130000000E+03 0.  1.
       11    1    1    2    0    0  0.79874751785E-03  0.27313380699E-02  0.85135062668E+00  0.85135553618E+00  0.51109989000E-03 0.  1.
     -623    1    1    2    0    0  0.47306202604E-04  0.33087782165E-04  0.76332680679E-05  0.17130000000E+03  0.17130000000E+03 0.  1.
      622    1    1    2    0    0 -0.84605372076E-03 -0.27644258522E-02  0.31486417336E+01  0.31486444900E+01  0.30000000000E-02 0.  1.
</event>
<event>
 5   0  0.3294100E+10  0.9118800E+02  0.7818608E-02  0.1180000E+00
       11   -1    0    0    0    0  0.00000000000E+00  0.00000000000E+00  0.39999999673E+01  0.40000000000E+01  0.51109989000E-03 0.  1.
     -623   -1    0    0    0    0  0.00000000000E+00  0.00000000000E+00  0.12525980253E-10  0.17130000000E+03  0.17130000000E+03 0.  1.
       11    1    1    2    0    0  0.15400956660E-04  0.57109042535E-04  0.71112069905E-01  0.71113931181E-01  0.51109989000E-03 0.  1.
     -623    1    1    2    0    0 -0.98553729583E-04 -0.11086674239E-03  0.29753100357E-05  0.17130000000E+03  0.17130000000E+03 0.  1.
      622    1    1    2    0    0  0.83152773083E-04  0.53757700031E-04  0.39288849286E+01  0.39288860752E+01  0.30000000000E-02 0.  1.
</event>
<event>
 5   0  0.3294100E+10  0.9118800E+02  0.7818608E-02  0.1180000E+00
       11   -1    0    0    0    0  0.00000000000E+00  0.00000000000E+00  0.39999999673E+01  0.40000000000E+01  0.51109989000E-03 0. -1.
     -623   -1    0    0    0    0  0.00000000000E+00  0.00000000000E+00  0.12525980253E-10  0.17130000000E+03  0.17130000000E+03 0. -1.
       11    1    1    2    0    0  0.34084878664E-02 -0.93286051260E-02  0.39006492576E+00  0.39019168134E+00  0.51109989000E-03 0. -1.
     -623    1    1    2    0    0 -0.10498509523E-03  0.21067665653E-03  0.14099677017E-03  0.17130000000E+03  0.17130000000E+03 0. -1.
      622    1    1    2    0    0 -0.33035027711E-02  0.91179284695E-02  0.36097940448E+01  0.36098083184E+01  0.30000000000E-02 0. -1.
</event>
<event>
 5   0  0.3294100E+10  0.9118800E+02  0.7818608E-02  0.1180000E+00
       11   -1    0    0    0    0  0.00000000000E+00  0.00000000000E+00  0.39999999673E+01  0.40000000000E+01  0.51109989000E-03 0.  1.
     -623   -1    0    0    0    0  0.00000000000E+00  0.00000000000E+00  0.12525980253E-10  0.17130000000E+03  0.17130000000E+03 0. -1.
       11    1    1    2    0    0  0.10870921638E-02 -0.64232235847E-03  0.23998785152E+00  0.23999171745E+00  0.51109989000E-03 0.  1.
     -623    1    1    2    0    0  0.25236595026E-04  0.21931879431E-03  0.52185677171E-05  0.17130000000E+03  0.17130000000E+03 0. -1.
      622    1    1    2    0    0 -0.11123287588E-02  0.42300356417E-03  0.37600068973E+01  0.37600082824E+01  0.30000000000E-02 0.  1.
</event>
<event>
 5   0  0.3294100E+10  0.9118800E+02  0.7818608E-02  0.1180000E+00
       11   -1    0    0    0    0  0.00000000000E+00  0.00000000000E+00  0.39999999673E+01  0.40000000000E+01  0.51109989000E-03 0. -1.
     -623   -1    0    0    0    0  0.00000000000E+00  0.00000000000E+00  0.12525980253E-10  0.17130000000E+03  0.17130000000E+03 0.  1.
       11    1    1    2    0    0  0.42094336019E-02 -0.23378793443E-02  0.10528850505E+01  0.10528961847E+01  0.51109989000E-03 0. -1.
     -623    1    1    2    0    0 -0.46166980689E-02  0.80119506874E-03  0.13121361505E-04  0.17130000006E+03  0.17130000000E+03 0.  1.
      622    1    1    2    0    0  0.40726448764E-03  0.15366842720E-02  0.29471018134E+01  0.29471037691E+01  0.30000000000E-02 0.  0.
</event>
<event>
 5   0  0.3294100E+10  0.9118800E+02  0.7818608E-02  0.1180000E+00
       11   -1    0    0    0    0  0.00000000000E+00  0.00000000000E+00  0.39999999673E+01  0.40000000000E+01  0.51109989000E-03 0. -1.
     -623   -1    0    0    0    0  0.00000000000E+00  0.00000000000E+00  0.12525980253E-10  0.17130000000E+03  0.17130000000E+03 0. -1.
       11    1    1    2    0    0 -0.69647028744E-04 -0.32486684653E-03  0.23251370190E+00  0.23251450102E+00  0.51109989000E-03 0. -1.
     -623    1    1    2    0    0 -0.88200653404E-04  0.22055420986E-03  0.19658239148E-05  0.17130000000E+03  0.17130000000E+03 0. -1.
      622    1    1    2    0    0  0.15784768134E-03  0.10431263869E-03  0.37674842629E+01  0.37674854621E+01  0.30000000000E-02 0. -1.
</event>
<event>
 5   0  0.3294100E+10  0.9118800E+02  0.7818608E-02  0.1180000E+00
       11   -1    0    0    0    0  0.00000000000E+00  0.00000000000E+00  0.39999999673E+01  0.40000000000E+01  0.51109989000E-03 0.  1.
     -623   -1    0    0    0    0  0.00000000000E+00  0.00000000000E+00  0.12525980253E-10  0.17130000000E+03  0.17130000000E+03 0. -1.
       11    1    1    2    0    0 -0.98807838005E-03  0.73567439566E-03  0.10233782022E+00  0.10234651036E+00  0.51109989000E-03 0.  1.
     -623    1    1    2    0    0  0.22418603363E-03 -0.10051951966E-02  0.98993138353E-05  0.17130000000E+03  0.17130000000E+03 0. -1.
      622    1    1    2    0    0  0.76389234642E-03  0.26952080094E-03  0.38976522478E+01  0.38976534865E+01  0.30000000000E-02 0.  1.
</event>
<event>
 5   0  0.3294100E+10  0.9118800E+02  0.7818608E-02  0.1180000E+00
       11   -1    0    0    0    0  0.00000000000E+00  0.00000000000E+00  0.39999999673E+01  0.40000000000E+01  0.51109989000E-03 0. -1.
     -623   -1    0    0    0    0  0.00000000000E+00  0.00000000000E+00  0.12525980253E-10  0.17130000000E+03  0.17130000000E+03 0.  1.
       11    1    1    2    0    0  0.28814999673E-02  0.23579153086E-02  0.40244594444E+00  0.40246349179E+00  0.51109989000E-03 0. -1.
     -623    1    1    2    0    0  0.34864034249E-04 -0.35208308625E-04  0.20697476288E-04  0.17130000000E+03  0.17130000000E+03 0.  1.
      622    1    1    2    0    0 -0.29163640016E-02 -0.23227069999E-02  0.35975333301E+01  0.35975365128E+01  0.30000000000E-02 0. -1.
</event>
<event>
 5   0  0.3294100E+10  0.9118800E+02  0.7818608E-02  0.1180000E+00
       11   -1    0    0    0    0  0.00000000000E+00  0.00000000000E+00  0.39999999673E+01  0.40000000000E+01  0.51109989000E-03 0.  1.
     -623   -1    0    0    0    0  0.00000000000E+00  0.00000000000E+00  0.12525980253E-10  0.17130000000E+03  0.17130000000E+03 0.  1.
       11    1    1    2    0    0 -0.19169205969E-03  0.67329313825E-03  0.92337124995E+00  0.92337165677E+00  0.51109989000E-03 0.  1.
     -623    1    1    2    0    0  0.98427915004E-04  0.35665852524E-04  0.19199502921E-05  0.17130000000E+03  0.17130000000E+03 0.  1.
      622    1    1    2    0    0  0.93264143003E-04 -0.70895899139E-03  0.30766268658E+01  0.30766284115E+01  0.30000000000E-02 0.  1.
</event>
<event>
 5   0  0.3294100E+10  0.9118800E+02  0.7818608E-02  0.1180000E+00
       11   -1    0    0    0    0  0.00000000000E+00  0.00000000000E+00  0.39999999673E+01  0.40000000000E+01  0.51109989000E-03 0.  1.
     -623   -1    0    0    0    0  0.00000000000E+00  0.00000000000E+00  0.12525980253E-10  0.17130000000E+03  0.17130000000E+03 0. -1.
       11    1    1    2    0    0 -0.17335463413E-03 -0.29391031258E-03  0.69258698955E+00  0.69258726220E+00  0.51109989000E-03 0.  1.
     -623    1    1    2    0    0  0.17611434522E-03 -0.11225108581E-04  0.16147508139E-05  0.17130000000E+03  0.17130000000E+03 0. -1.
      622    1    1    2    0    0 -0.27597228945E-05  0.30513542191E-03  0.33074116311E+01  0.33074130058E+01  0.30000000000E-02 0.  1.
</event>
<event>
 5   0  0.3294100E+10  0.9118800E+02  0.7818608E-02  0.1180000E+00
       11   -1    0    0    0    0  0.00000000000E+00  0.00000000000E+00  0.39999999673E+01  0.40000000000E+01  0.51109989000E-03 0.  1.
     -623   -1    0    0    0    0  0.00000000000E+00  0.00000000000E+00  0.12525980253E-10  0.17130000000E+03  0.17130000000E+03 0.  1.
       11    1    1    2    0    0  0.20334126837E-03 -0.37068084559E-03  0.42947780171E+00  0.42947831393E+00  0.51109989000E-03 0.  1.
     -623    1    1    2    0    0 -0.20846722685E-02 -0.74082204202E-03  0.24228335693E-05  0.17130000001E+03  0.17130000000E+03 0.  1.
      622    1    1    2    0    0  0.18813310001E-02  0.11115028876E-02  0.35705197428E+01  0.35705216718E+01  0.30000000000E-02 0.  1.
</event>
<event>
 5   0  0.3294100E+10  0.9118800E+02  0.7818608E-02  0.1180000E+00
       11   -1    0    0    0    0  0.00000000000E+00  0.00000000000E+00  0.39999999673E+01  0.40000000000E+01  0.51109989000E-03 0. -1.
     -623   -1    0    0    0    0  0.00000000000E+00  0.00000000000E+00  0.12525980253E-10  0.17130000000E+03  0.17130000000E+03 0. -1.
       11    1    1    2    0    0  0.11594665026E-02  0.22871369126E-02  0.33350249692E+00  0.33351274643E+00  0.51109989000E-03 0. -1.
     -623    1    1    2    0    0 -0.78902852256E-03  0.17197597264E-02  0.13662822765E-04  0.17130000001E+03  0.17130000000E+03 0. -1.
      622    1    1    2    0    0 -0.37043798007E-03 -0.40068966390E-02  0.36664838076E+01  0.36664872431E+01  0.30000000000E-02 0. -1.
</event>
<event>
 5   0  0.3294100E+10  0.9118800E+02  0.7818608E-02  0.1180000E+00
       11   -1    0    0    0    0  0.00000000000E+00  0.00000000000E+00  0.39999999673E+01  0.40000000000E+01  0.51109989000E-03 0.  1.
     -623   -1    0    0    0    0  0.00000000000E+00  0.00000000000E+00  0.12525980253E-10  0.17130000000E+03  0.17130000000E+03 0. -1.
       11    1    1    2    0    0  0.97940193418E-03  0.10300616651E-02  0.14988528267E-01  0.15064443498E-01  0.51109989000E-03 0.  1.
     -623    1    1    2    0    0  0.18344877263E-03 -0.51734020053E-03  0.77215391620E-04  0.17130000000E+03  0.17130000000E+03 0. -1.
      622    1    1    2    0    0 -0.11628507071E-02 -0.51272146389E-03  0.39849342291E+01  0.39849355610E+01  0.30000000000E-02 0.  1.
</event>
<event>
 5   0  0.3294100E+10  0.9118800E+02  0.7818608E-02  0.1180000E+00
       11   -1    0    0    0    0  0.00000000000E+00  0.00000000000E+00  0.39999999673E+01  0.40000000000E+01  0.51109989000E-03 0.  1.
     -623   -1    0    0    0    0  0.00000000000E+00  0.00000000000E+00  0.12525980253E-10  0.17130000000E+03  0.17130000000E+03 0. -1.
       11    1    1    2    0    0 -0.57715860616E-02  0.15365662275E-03  0.47426258909E+00  0.47429800700E+00  0.51109989000E-03 0.  1.
     -623    1    1    2    0    0  0.50917312933E-02  0.59214147732E-03  0.36882745790E-04  0.17130000008E+03  0.17130000000E+03 0. -1.
      622    1    1    2    0    0  0.67985476400E-03 -0.74579810057E-03  0.35257004989E+01  0.35257019197E+01  0.30000000000E-02 0.  0.
</event>
<event>
 5   0  0.3294100E+10  0.9118800E+02  0.7818608E-02  0.1180000E+00
       11   -1    0    0    0    0  0.00000000000E+00  0.00000000000E+00  0.39999999673E+01  0.40000000000E+01  0.51109989000E-03 0. -1.
     -623   -1    0    0    0    0  0.00000000000E+00  0.00000000000E+00  0.12525980253E-10  0.17130000000E+03  0.17130000000E+03 0.  1.
       11    1    1    2    0    0 -0.12996723422E-02 -0.13623388802E-02  0.81776878523E+00  0.81777111250E+00  0.51109989000E-03 0. -1.
     -623    1    1    2    0    0  0.46352049890E-03  0.13749051838E-02  0.38247512473E-05  0.17130000001E+03  0.17130000000E+03 0.  1.
      622    1    1    2    0    0  0.83615184327E-03 -0.12566303654E-04  0.31822273574E+01  0.31822288814E+01  0.30000000000E-02 0. -1.
</event>
<event>
 5   0  0.3294100E+10  0.9118800E+02  0.7818608E-02  0.1180000E+00
       11   -1    0    0    0    0  0.00000000000E+00  0.00000000000E+00  0.39999999673E+01  0.40000000000E+01  0.51109989000E-03 0.  1.
     -623   -1    0    0    0    0  0.00000000000E+00  0.00000000000E+00  0.12525980253E-10  0.17130000000E+03  0.17130000000E+03 0.  1.
       11    1    1    2    0    0 -0.65621629856E-02  0.11673356126E-02  0.72371218244E+00  0.72374305447E+00  0.51109989000E-03 0.  1.
     -623    1    1    2    0    0  0.10309563949E-02 -0.64209131656E-03  0.36928410388E-04  0.17130000000E+03  0.17130000000E+03 0.  1.
      622    1    1    2    0    0  0.55312065909E-02 -0.52524429616E-03  0.32762508559E+01  0.32762569406E+01  0.30000000000E-02 0.  1.
</event>
<event>
 5   0  0.3294100E+10  0.9118800E+02  0.7818608E-02  0.1180000E+00
       11   -1    0    0    0    0  0.00000000000E+00  0.00000000000E+00  0.39999999673E+01  0.40000000000E+01  0.51109989000E-03 0. -1.
     -623   -1    0    0    0    0  0.00000000000E+00  0.00000000000E+00  0.12525980253E-10  0.17130000000E+03  0.17130000000E+03 0. -1.
       11    1    1    2    0    0  0.10323375057E-03  0.56046831325E-03  0.92390847087E+00  0.92390878800E+00  0.51109989000E-03 0. -1.
     -623    1    1    2    0    0  0.33016618306E-04 -0.71994413704E-03  0.17560562737E-05  0.17130000000E+03  0.17130000000E+03 0. -1.
      622    1    1    2    0    0 -0.13625036888E-03  0.15947582379E-03  0.30760897404E+01  0.30760912105E+01  0.30000000000E-02 0. -1.
</event>
<event>
 5   0  0.3294100E+10  0.9118800E+02  0.7818608E-02  0.1180000E+00
       11   -1    0    0    0    0  0.00000000000E+00  0.00000000000E+00  0.39999999673E+01  0.40000000000E+01  0.51109989000E-03 0.  1.
     -623   -1    0    0    0    0  0.00000000000E+00  0.00000000000E+00  0.12525980253E-10  0.17130000000E+03  0.17130000000E+03 0.  1.
       11    1    1    2    0    0  0.11444228378E-02 -0.66669268403E-03  0.25108754440E+00  0.25109155772E+00  0.51109989000E-03 0. -1.
     -623    1    1    2    0    0 -0.11746156958E-03  0.17737882355E-03  0.53537564262E-05  0.17130000000E+03  0.17130000000E+03 0.  1.
      622    1    1    2    0    0 -0.10269612670E-02  0.48931385867E-03  0.37489071099E+01  0.37489084829E+01  0.30000000000E-02 0.  1.
</event>
<event>
 5   0  0.3294100E+10  0.9118800E+02  0.7818608E-02  0.1180000E+00
       11   -1    0    0    0    0  0.00000000000E+00  0.00000000000E+00  0.39999999673E+01  0.40000000000E+01  0.51109989000E-03 0. -1.
     -623   -1    0    0    0    0  0.00000000000E+00  0.00000000000E+00  0.12525980253E-10  0.17130000000E+03  0.17130000000E+03 0. -1.
       11    1    1    2    0    0 -0.11192967899E-03 -0.11494633723E-02  0.56358333998E+00  0.56358475504E+00  0.51109989000E-03 0. -1.
     -623    1    1    2    0    0 -0.56716187895E-03  0.62497009394E-03  0.28011353259E-05  0.17130000000E+03  0.17130000000E+03 0. -1.
      622    1    1    2    0    0  0.67909156995E-03  0.52449326510E-03  0.34364139109E+01  0.34364153276E+01  0.30000000000E-02 0. -1.
</event>
<event>
 5   0  0.3294100E+10  0.9118800E+02  0.7818608E-02  0.1180000E+00
       11   -1    0    0    0    0  0.00000000000E+00  0.00000000000E+00  0.39999999673E+01  0.40000000000E+01  0.51109989000E-03 0.  1.
     -623   -1    0    0    0    0  0.00000000000E+00  0.00000000000E+00  0.12525980253E-10  0.17130000000E+03  0.17130000000E+03 0.  1.
       11    1    1    2    0    0  0.69752331516E-03  0.48766823439E-03  0.14705097734E+00  0.14705432846E+00  0.51109989000E-03 0.  1.
     -623    1    1    2    0    0 -0.41541028432E-03 -0.50884637065E-03  0.44980634386E-05  0.17130000000E+03  0.17130000000E+03 0.  1.
      622    1    1    2    0    0 -0.28211302289E-03  0.21178145983E-04  0.38529445684E+01  0.38529457467E+01  0.30000000000E-02 0.  1.
</event>
<event>
 5   0  0.3294100E+10  0.9118800E+02  0.7818608E-02  0.1180000E+00
       11   -1    0    0    0    0  0.00000000000E+00  0.00000000000E+00  0.39999999673E+01  0.40000000000E+01  0.51109989000E-03 0.  1.
     -623   -1    0    0    0    0  0.00000000000E+00  0.00000000000E+00  0.12525980253E-10  0.17130000000E+03  0.17130000000E+03 0. -1.
       11    1    1    2    0    0 -0.27817085499E-02  0.17266206563E-03  0.96033647524E+00  0.96034065550E+00  0.51109989000E-03 0.  1.
     -623    1    1    2    0    0  0.58383449407E-02  0.24499796183E-04  0.72707978882E-05  0.17130000010E+03  0.17130000000E+03 0. -1.
      622    1    1    2    0    0 -0.30566364040E-02 -0.19716186187E-03  0.30396562303E+01  0.30396592540E+01  0.30000000000E-02 0.  1.
</event>
<event>
 5   0  0.3294100E+10  0.9118800E+02  0.7818608E-02  0.1180000E+00
       11   -1    0    0    0    0  0.00000000000E+00  0.00000000000E+00  0.39999999673E+01  0.40000000000E+01  0.51109989000E-03 0. -1.
     -623   -1    0    0    0    0  0.00000000000E+00  0.00000000000E+00  0.12525980253E-10  0.17130000000E+03  0.17130000000E+03 0. -1.
       11    1    1    2    0    0  0.19302651900E-03  0.21401177790E-02  0.93802189507E+00  0.93802449553E+00  0.51109989000E-03 0. -1.
     -623    1    1    2    0    0 -0.88550938012E-04 -0.34256072072E-04  0.47634179419E-05  0.17130000000E+03  0.17130000000E+03 0. -1.
      622    1    1    2    0    0 -0.10447558099E-03 -0.21058617070E-02  0.30619733089E+01  0.30619755044E+01  0.30000000000E-02 0. -1.
</event>
<event>
 5   0  0.3294100E+10  0.9118800E+02  0.7818608E-02  0.1180000E+00
       11   -1    0    0    0    0  0.00000000000E+00  0.00000000000E+00  0.39999999673E+01  0.40000000000E+01  0.51109989000E-03 0. -1.
     -623   -1    0    0    0    0  0.00000000000E+00  0.00000000000E+00  0.12525980253E-10  0.17130000000E+03  0.17130000000E+03 0.  1.
       11    1    1    2    0    0  0.90869985013E-02 -0.67781198401E-03  0.16690045221E+00  0.16714979850E+00  0.51109989000E-03 0. -1.
     -623    1    1    2    0    0 -0.20526937118E-03 -0.51446643388E-02  0.26527844533E-03  0.17130000008E+03  0.17130000000E+03 0.  1.
      622    1    1    2    0    0 -0.88817291301E-02  0.58224763228E-02  0.38328342367E+01  0.38328501239E+01  0.30000000000E-02 0. -1.
</event>
<event>
 5   0  0.3294100E+10  0.9118800E+02  0.7818608E-02  0.1180000E+00
       11   -1    0    0    0    0  0.00000000000E+00  0.00000000000E+00  0.39999999673E+01  0.40000000000E+01  0.51109989000E-03 0.  1.
     -623   -1    0    0    0    0  0.00000000000E+00  0.00000000000E+00  0.12525980253E-10  0.17130000000E+03  0.17130000000E+03 0. -1.
       11    1    1    2    0    0 -0.14171922037E-01 -0.46005505845E-02  0.54624342932E+00  0.54644684438E+00  0.51109989000E-03 0.  1.
     -623    1    1    2    0    0  0.94827820898E-03 -0.13654911903E-02  0.23516364354E-03  0.17130000001E+03  0.17130000000E+03 0. -1.
      622    1    1    2    0    0  0.13223643829E-01  0.59660417747E-02  0.34535213740E+01  0.34535531470E+01  0.30000000000E-02 0.  1.
</event>
<event>
 5   0  0.3294100E+10  0.9118800E+02  0.7818608E-02  0.1180000E+00
       11   -1    0    0    0    0  0.00000000000E+00  0.00000000000E+00  0.39999999673E+01  0.40000000000E+01  0.51109989000E-03 0. -1.
     -623   -1    0    0    0    0  0.00000000000E+00  0.00000000000E+00  0.12525980253E-10  0.17130000000E+03  0.17130000000E+03 0. -1.
       11    1    1    2    0    0 -0.25000981687E-03  0.78429318000E-04  0.16641954528E-01  0.16651862649E-01  0.51109989000E-03 0. -1.
     -623    1    1    2    0    0 -0.67540142751E-05 -0.25891401846E-03  0.11017744269E-04  0.17130000000E+03  0.17130000000E+03 0. -1.
      622    1    1    2    0    0  0.25676383113E-03  0.18048469981E-03  0.39833469850E+01  0.39833481270E+01  0.30000000000E-02 0. -1.
</event>
<event>
 5   0  0.3294100E+10  0.9118800E+02  0.7818608E-02  0.1180000E+00
       11   -1    0    0    0    0  0.00000000000E+00  0.00000000000E+00  0.39999999673E+01  0.40000000000E+01  0.51109989000E-03 0.  1.
     -623   -1    0    0    0    0  0.00000000000E+00  0.00000000000E+00  0.12525980253E-10  0.17130000000E+03  0.17130000000E+03 0.  1.
       11    1    1    2    0    0 -0.21625985127E-02  0.87471281483E-03  0.28991517964E+00  0.28992501541E+00  0.51109989000E-03 0.  1.
     -623    1    1    2    0    0  0.24293390985E-04  0.75871692473E-05  0.11737166389E-04  0.17130000000E+03  0.17130000000E+03 0.  1.
      622    1    1    2    0    0  0.21383051218E-02 -0.88229998408E-03  0.37100730506E+01  0.37100749846E+01  0.30000000000E-02 0.  1.
</event>
<event>
 5   0  0.3294100E+10  0.9118800E+02  0.7818608E-02  0.1180000E+00
       11   -1    0    0    0    0  0.00000000000E+00  0.00000000000E+00  0.39999999673E+01  0.40000000000E+01  0.51109989000E-03 0. -1.
     -623   -1    0    0    0    0  0.00000000000E+00  0.00000000000E+00  0.12525980253E-10  0.17130000000E+03  0.17130000000E+03 0.  1.
       11    1    1    2    0    0 -0.69766850629E-03  0.10243106273E-02  0.58662776197E+00  0.58662929375E+00  0.51109989000E-03 0. -1.
     -623    1    1    2    0    0 -0.24981215741E-04 -0.44527298924E-04  0.30346134907E-05  0.17130000000E+03  0.17130000000E+03 0.  1.
      622    1    1    2    0    0  0.72264972232E-03 -0.97978332791E-03  0.34133692167E+01  0.34133707521E+01  0.30000000000E-02 0. -1.
</event>
<event>
 5   0  0.3294100E+10  0.9118800E+02  0.7818608E-02  0.1180000E+00
       11   -1    0    0    0    0  0.00000000000E+00  0.00000000000E+00  0.39999999673E+01  0.40000000000E+01  0.51109989000E-03 0. -1.
     -623   -1    0    0    0    0  0.00000000000E+00  0.00000000000E+00  0.12525980253E-10  0.17130000000E+03  0.17130000000E+03 0.  1.
       11    1    1    2    0    0  0.93334423870E-03  0.30464118518E-03  0.67497294067E+00  0.67497384824E+00  0.51109989000E-03 0. -1.
     -623    1    1    2    0    0 -0.38377528021E-03  0.19628055287E-04  0.22899540122E-05  0.17130000000E+03  0.17130000000E+03 0.  1.
      622    1    1    2    0    0 -0.54956895849E-03 -0.32426924047E-03  0.33250247367E+01  0.33250261513E+01  0.30000000000E-02 0.  0.
</event>
<event>
 5   0  0.3294100E+10  0.9118800E+02  0.7818608E-02  0.1180000E+00
       11   -1    0    0    0    0  0.00000000000E+00  0.00000000000E+00  0.39999999673E+01  0.40000000000E+01  0.51109989000E-03 0. -1.
     -623   -1    0    0    0    0  0.00000000000E+00  0.00000000000E+00  0.12525980253E-10  0.17130000000E+03  0.17130000000E+03 0. -1.
       11    1    1    2    0    0 -0.12024866108E-02  0.12758244815E-02  0.37844265448E-01  0.37888300976E-01  0.51109989000E-03 0. -1.
     -623    1    1    2    0    0 -0.21627372825E-03  0.21372510384E-03  0.45672935705E-04  0.17130000000E+03  0.17130000000E+03 0. -1.
      622    1    1    2    0    0  0.14187603390E-02 -0.14895495854E-02  0.39621100290E+01  0.39621116987E+01  0.30000000000E-02 0. -1.
</event>
<event>
 5   0  0.3294100E+10  0.9118800E+02  0.7818608E-02  0.1180000E+00
       11   -1    0    0    0    0  0.00000000000E+00  0.00000000000E+00  0.39999999673E+01  0.40000000000E+01  0.51109989000E-03 0.  1.
     -623   -1    0    0    0    0  0.00000000000E+00  0.00000000000E+00  0.12525980253E-10  0.17130000000E+03  0.17130000000E+03 0.  1.
       11    1    1    2    0    0 -0.74335495263E-03  0.31315233665E-03  0.45547416252E+00  0.45547516352E+00  0.51109989000E-03 0. -1.
     -623    1    1    2    0    0  0.31655577896E-03 -0.99846569909E-04  0.22703634475E-05  0.17130000000E+03  0.17130000000E+03 0.  1.
      622    1    1    2    0    0  0.42679917285E-03 -0.21330576649E-03  0.35445235448E+01  0.35445248465E+01  0.30000000000E-02 0.  1.
</event>
<event>
 5   0  0.3294100E+10  0.9118800E+02  0.7818608E-02  0.1180000E+00
       11   -1    0    0    0    0  0.00000000000E+00  0.00000000000E+00  0.39999999673E+01  0.40000000000E+01  0.51109989000E-03 0.  1.
     -623   -1    0    0    0    0  0.00000000000E+00  0.00000000000E+00  0.12525980253E-10  0.17130000000E+03  0.17130000000E+03 0.  1.
       11    1    1    2    0    0  0.77799478940E-03 -0.26052928846E-03  0.86458046064E+00  0.86458100100E+00  0.51109989000E-03 0.  1.
     -623    1    1    2    0    0  0.53750877771E-04 -0.39315003678E-03  0.21218577793E-05  0.17130000000E+03  0.17130000000E+03 0.  1.
      622    1    1    2    0    0 -0.83174566717E-03  0.65367932523E-03  0.31354173849E+01  0.31354189985E+01  0.30000000000E-02 0.  1.
</event>
<event>
 5   0  0.3294100E+10  0.9118800E+02  0.7818608E-02  0.1180000E+00
       11   -1    0    0    0    0  0.00000000000E+00  0.00000000000E+00  0.39999999673E+01  0.40000000000E+01  0.51109989000E-03 0.  1.
     -623   -1    0    0    0    0  0.00000000000E+00  0.00000000000E+00  0.12525980253E-10  0.17130000000E+03  0.17130000000E+03 0. -1.
       11    1    1    2    0    0 -0.59106338108E-03 -0.10001220032E-02  0.10743774866E-01  0.10818480550E-01  0.51109989000E-03 0.  1.
     -623    1    1    2    0    0 -0.56192638270E-04  0.45671028584E-04  0.75967817597E-04  0.17130000000E+03  0.17130000000E+03 0. -1.
      622    1    1    2    0    0  0.64725601938E-03  0.95445097456E-03  0.39891802271E+01  0.39891815218E+01  0.30000000000E-02 0.  1.
</event>
<event>
 5   0  0.3294100E+10  0.9118800E+02  0.7818608E-02  0.1180000E+00
       11   -1    0    0    0    0  0.00000000000E+00  0.00000000000E+00  0.39999999673E+01  0.40000000000E+01  0.51109989000E-03 0.  1.
     -623   -1    0    0    0    0  0.00000000000E+00  0.00000000000E+00  0.12525980253E-10  0.17130000000E+03  0.17130000000E+03 0. -1.
       11    1    1    2    0    0 -0.66288491291E-03  0.50891536808E-03  0.16574178298E+00  0.16574467792E+00  0.51109989000E-03 0.  1.
     -623    1    1    2    0    0 -0.12460161916E-03  0.15340767848E-02  0.46679911718E-05  0.17130000001E+03  0.17130000000E+03 0. -1.
      622    1    1    2    0    0  0.78748653207E-03 -0.20429921529E-02  0.38342535164E+01  0.38342553152E+01  0.30000000000E-02 0.  1.
</event>
<event>
 5   0  0.3294100E+10  0.9118800E+02  0.7818608E-02  0.1180000E+00
       11   -1    0    0    0    0  0.00000000000E+00  0.00000000000E+00  0.39999999673E+01  0.40000000000E+01  0.51109989000E-03 0.  1.
     -623   -1    0    0    0    0  0.00000000000E+00  0.00000000000E+00  0.12525980253E-10  0.17130000000E+03  0.17130000000E+03 0. -1.
       11    1    1    2    0    0  0.29394861342E-03 -0.33294698639E-04  0.26364436613E+00  0.26364502751E+00  0.51109989000E-03 0.  1.
     -623    1    1    2    0    0  0.54947795791E-04 -0.22156037276E-03  0.18582535026E-05  0.17130000000E+03  0.17130000000E+03 0. -1.
      622    1    1    2    0    0 -0.34889641346E-03  0.25485508850E-03  0.37363540517E+01  0.37363552811E+01  0.30000000000E-02 0.  1.
</event>
<event>
 5   0  0.3294100E+10  0.9118800E+02  0.7818608E-02  0.1180000E+00
       11   -1    0    0    0    0  0.00000000000E+00  0.00000000000E+00  0.39999999673E+01  0.40000000000E+01  0.51109989000E-03 0.  1.
     -623   -1    0    0    0    0  0.00000000000E+00  0.00000000000E+00  0.12525980253E-10  0.17130000000E+03  0.17130000000E+03 0. -1.
       11    1    1    2    0    0 -0.19031295460E-03  0.11681059985E-04  0.56157024374E-01  0.56159673834E-01  0.51109989000E-03 0.  1.
     -623    1    1    2    0    0  0.20535790072E-03 -0.11948949857E-03  0.37595064910E-05  0.17130000000E+03  0.17130000000E+03 0. -1.
      622    1    1    2    0    0 -0.15044950872E-04  0.10780844135E-03  0.39438392760E+01  0.39438404186E+01  0.30000000000E-02 0.  1.
</event>
<event>
 5   0  0.3294100E+10  0.9118800E+02  0.7818608E-02  0.1180000E+00
       11   -1    0    0    0    0  0.00000000000E+00  0.00000000000E+00  0.39999999673E+01  0.40000000000E+01  0.51109989000E-03 0. -1.
     -623   -1    0    0    0    0  0.00000000000E+00  0.00000000000E+00  0.12525980253E-10  0.17130000000E+03  0.17130000000E+03 0.  1.
       11    1    1    2    0    0  0.25240090571E-03  0.18780094904E-04  0.14837593780E+00  0.14837703394E+00  0.51109989000E-03 0. -1.
     -623    1    1    2    0    0 -0.10046356123E-03 -0.69932661044E-04  0.22352163747E-05  0.17130000000E+03  0.17130000000E+03 0.  1.
      622    1    1    2    0    0 -0.15193734821E-03  0.51152563551E-04  0.38516216462E+01  0.38516228179E+01  0.30000000000E-02 0. -1.
</event>
<event>
 5   0  0.3294100E+10  0.9118800E+02  0.7818608E-02  0.1180000E+00
       11   -1    0    0    0    0  0.00000000000E+00  0.00000000000E+00  0.39999999673E+01  0.40000000000E+01  0.51109989000E-03 0. -1.
     -623   -1    0    0    0    0  0.00000000000E+00  0.00000000000E+00  0.12525980253E-10  0.17130000000E+03  0.17130000000E+03 0.  1.
       11    1    1    2    0    0  0.19265128326E-03 -0.25996509941E-04  0.47197389501E+00  0.47197421178E+00  0.51109989000E-03 0. -1.
     -623    1    1    2    0    0 -0.19590409122E-04 -0.31852448275E-03  0.15809933100E-05  0.17130000000E+03  0.17130000000E+03 0.  1.
      622    1    1    2    0    0 -0.17306087301E-03  0.34452101101E-03  0.35280247214E+01  0.35280260180E+01  0.30000000000E-02 0. -1.
</event>
<event>
 5   0  0.3294100E+10  0.9118800E+02  0.7818608E-02  0.1180000E+00
       11   -1    0    0    0    0  0.00000000000E+00  0.00000000000E+00  0.39999999673E+01  0.40000000000E+01  0.51109989000E-03 0.  1.
     -623   -1    0    0    0    0  0.00000000000E+00  0.00000000000E+00  0.12525980253E-10  0.17130000000E+03  0.17130000000E+03 0.  1.
       11    1    1    2    0    0 -0.61900125741E-03 -0.98609089629E-03  0.93893750215E+00  0.93893836310E+00  0.51109989000E-03 0.  1.
     -623    1    1    2    0    0 -0.80577748852E-04  0.18328277981E-04  0.25313321550E-05  0.17130000000E+03  0.17130000000E+03 0.  1.
      622    1    1    2    0    0  0.69957900640E-03  0.96776261827E-03  0.30610599409E+01  0.30610616439E+01  0.30000000000E-02 0.  1.
</event>
<event>
 5   0  0.3294100E+10  0.9118800E+02  0.7818608E-02  0.1180000E+00
       11   -1    0    0    0    0  0.00000000000E+00  0.00000000000E+00  0.39999999673E+01  0.40000000000E+01  0.51109989000E-03 0. -1.
     -623   -1    0    0    0    0  0.00000000000E+00  0.00000000000E+00  0.12525980253E-10  0.17130000000E+03  0.17130000000E+03 0. -1.
       11    1    1    2    0    0  0.12721414312E-02  0.13809943795E-02  0.38062540679E+00  0.38063038109E+00  0.51109989000E-03 0. -1.
     -623    1    1    2    0    0 -0.32270502147E-05 -0.20010368595E-02  0.64721977546E-05  0.17130000001E+03  0.17130000000E+03 0. -1.
      622    1    1    2    0    0 -0.12689143810E-02  0.62004247996E-03  0.36193680884E+01  0.36193696072E+01  0.30000000000E-02 0. -1.
</event>
<event>
 5   0  0.3294100E+10  0.9118800E+02  0.7818608E-02  0.1180000E+00
       11   -1    0    0    0    0  0.00000000000E+00  0.00000000000E+00  0.39999999673E+01  0.40000000000E+01  0.51109989000E-03 0.  1.
     -623   -1    0    0    0    0  0.00000000000E+00  0.00000000000E+00  0.12525980253E-10  0.17130000000E+03  0.17130000000E+03 0.  1.
       11    1    1    2    0    0 -0.28740026267E-02  0.45641645741E-02  0.75931554971E+00  0.75933487786E+00  0.51109989000E-03 0.  1.
     -623    1    1    2    0    0  0.32459886886E-02 -0.63203578423E-03  0.23122958960E-04  0.17130000003E+03  0.17130000000E+03 0.  1.
      622    1    1    2    0    0 -0.37198605011E-03 -0.39321287922E-02  0.32406612801E+01  0.32406650756E+01  0.30000000000E-02 0.  1.
</event>
<event>
 5   0  0.3294100E+10  0.9118800E+02  0.7818608E-02  0.1180000E+00
       11   -1    0    0    0    0  0.00000000000E+00  0.00000000000E+00  0.39999999673E+01  0.40000000000E+01  0.51109989000E-03 0. -1.
     -623   -1    0    0    0    0  0.00000000000E+00  0.00000000000E+00  0.12525980253E-10  0.17130000000E+03  0.17130000000E+03 0. -1.
       11    1    1    2    0    0  0.30277098112E-03  0.11690948390E-02  0.79829970152E-01  0.79840740287E-01  0.51109989000E-03 0.  1.
     -623    1    1    2    0    0 -0.24604922764E-03 -0.84125459276E-03  0.11901769108E-04  0.17130000000E+03  0.17130000000E+03 0. -1.
      622    1    1    2    0    0 -0.56721753476E-04 -0.32784024620E-03  0.39201580954E+01  0.39201592575E+01  0.30000000000E-02 0. -1.
</event>
<event>
 5   0  0.3294100E+10  0.9118800E+02  0.7818608E-02  0.1180000E+00
       11   -1    0    0    0    0  0.00000000000E+00  0.00000000000E+00  0.39999999673E+01  0.40000000000E+01  0.51109989000E-03 0.  1.
     -623   -1    0    0    0    0  0.00000000000E+00  0.00000000000E+00  0.12525980253E-10  0.17130000000E+03  0.17130000000E+03 0.  1.
       11    1    1    2    0    0  0.43419934575E-03  0.31819197340E-03  0.72125292646E+00  0.72125330843E+00  0.51109989000E-03 0.  1.
     -623    1    1    2    0    0  0.58606633883E-03  0.29609566278E-03  0.19393526354E-05  0.17130000000E+03  0.17130000000E+03 0.  1.
      622    1    1    2    0    0 -0.10202657251E-02 -0.61428765663E-03  0.32787453778E+01  0.32787469666E+01  0.30000000000E-02 0.  0.
</event>
<event>
 5   0  0.3294100E+10  0.9118800E+02  0.7818608E-02  0.1180000E+00
       11   -1    0    0    0    0  0.00000000000E+00  0.00000000000E+00  0.39999999673E+01  0.40000000000E+01  0.51109989000E-03 0. -1.
     -623   -1    0    0    0    0  0.00000000000E+00  0.00000000000E+00  0.12525980253E-10  0.17130000000E+03  0.17130000000E+03 0. -1.
       11    1    1    2    0    0  0.11681493390E-02  0.37848962551E-04  0.75863617232E+00  0.75863724478E+00  0.51109989000E-03 0. -1.
     -623    1    1    2    0    0  0.20409310310E-03 -0.67496300398E-04  0.27188752423E-05  0.17130000000E+03  0.17130000000E+03 0. -1.
      622    1    1    2    0    0 -0.13722424421E-02  0.29647337847E-04  0.32413610762E+01  0.32413627551E+01  0.30000000000E-02 0.  0.
</event>
<event>
 5   0  0.3294100E+10  0.9118800E+02  0.7818608E-02  0.1180000E+00
       11   -1    0    0    0    0  0.00000000000E+00  0.00000000000E+00  0.39999999673E+01  0.40000000000E+01  0.51109989000E-03 0.  1.
     -623   -1    0    0    0    0  0.00000000000E+00  0.00000000000E+00  0.12525980253E-10  0.17130000000E+03  0.17130000000E+03 0. -1.
       11    1    1    2    0    0 -0.85081212445E-03  0.30571813557E-03  0.23085151886E+00  0.23085385492E+00  0.51109989000E-03 0.  1.
     -623    1    1    2    0    0  0.23341693355E-02  0.70019461329E-03  0.39407699188E-05  0.17130000002E+03  0.17130000000E+03 0. -1.
      622    1    1    2    0    0 -0.14833572273E-02 -0.10059127537E-02  0.37691445355E+01  0.37691461555E+01  0.30000000000E-02 0.  1.
</event>
<event>
 5   0  0.3294100E+10  0.9118800E+02  0.7818608E-02  0.1180000E+00
       11   -1    0    0    0    0  0.00000000000E+00  0.00000000000E+00  0.39999999673E+01  0.40000000000E+01  0.51109989000E-03 0.  1.
     -623   -1    0    0    0    0  0.00000000000E+00  0.00000000000E+00  0.12525980253E-10  0.17130000000E+03  0.17130000000E+03 0. -1.
       11    1    1    2    0    0  0.34050376499E-02 -0.66478307021E-03  0.12279783755E+00  0.12284789924E+00  0.51109989000E-03 0.  1.
     -623    1    1    2    0    0 -0.68627385022E-04 -0.12006732118E-03  0.52704737786E-04  0.17130000000E+03  0.17130000000E+03 0. -1.
      622    1    1    2    0    0 -0.33364102648E-02  0.78485039140E-03  0.38771494251E+01  0.38771521007E+01  0.30000000000E-02 0.  1.
</event>
<event>
 5   0  0.3294100E+10  0.9118800E+02  0.7818608E-02  0.1180000E+00
       11   -1    0    0    0    0  0.00000000000E+00  0.00000000000E+00  0.39999999673E+01  0.40000000000E+01  0.51109989000E-03 0. -1.
     -623   -1    0    0    0    0  0.00000000000E+00  0.00000000000E+00  0.12525980253E-10  0.17130000000E+03  0.17130000000E+03 0.  1.
       11    1    1    2    0    0  0.67614209593E-03 -0.49758948643E-05  0.88494731738E+00  0.88494772329E+00  0.51109989000E-03 0. -1.
     -623    1    1    2    0    0  0.13959200645E-03 -0.63529620131E-04  0.19254963477E-05  0.17130000000E+03  0.17130000000E+03 0.  1.
      622    1    1    2    0    0 -0.81573410239E-03  0.68505514995E-04  0.31150507245E+01  0.31150522766E+01  0.30000000000E-02 0. -1.
</event>
<event>
 5   0  0.3294100E+10  0.9118800E+02  0.7818608E-02  0.1180000E+00
       11   -1    0    0    0    0  0.00000000000E+00  0.00000000000E+00  0.39999999673E+01  0.40000000000E+01  0.51109989000E-03 0.  1.
     -623   -1    0    0    0    0  0.00000000000E+00  0.00000000000E+00  0.12525980253E-10  0.17130000000E+03  0.17130000000E+03 0. -1.
       11    1    1    2    0    0 -0.95082999115E-03 -0.64711939999E-03  0.12331788512E+00  0.12332430763E+00  0.51109989000E-03 0. -1.
     -623    1    1    2    0    0  0.52860069540E-04 -0.23600372134E-03  0.77554238205E-05  0.17130000000E+03  0.17130000000E+03 0. -1.
      622    1    1    2    0    0  0.89796992161E-03  0.88312312133E-03  0.38766743268E+01  0.38766756922E+01  0.30000000000E-02 0.  1.
</event>
<event>
 5   0  0.3294100E+10  0.9118800E+02  0.7818608E-02  0.1180000E+00
       11   -1    0    0    0    0  0.00000000000E+00  0.00000000000E+00  0.39999999673E+01  0.40000000000E+01  0.51109989000E-03 0.  1.
     -623   -1    0    0    0    0  0.00000000000E+00  0.00000000000E+00  0.12525980253E-10  0.17130000000E+03  0.17130000000E+03 0.  1.
       11    1    1    2    0    0 -0.52494240073E-03 -0.30464234067E-02  0.10158619886E+01  0.10158668207E+01  0.51109989000E-03 0.  1.
     -623    1    1    2    0    0 -0.80785514667E-04 -0.36675728132E-04  0.79615934432E-05  0.17130000000E+03  0.17130000000E+03 0.  1.
      622    1    1    2    0    0  0.60572791632E-03  0.30830991353E-02  0.29841300631E+01  0.29841332253E+01  0.30000000000E-02 0.  1.
</event>
<event>
 5   0  0.3294100E+10  0.9118800E+02  0.7818608E-02  0.1180000E+00
       11   -1    0    0    0    0  0.00000000000E+00  0.00000000000E+00  0.39999999673E+01  0.40000000000E+01  0.51109989000E-03 0.  1.
     -623   -1    0    0    0    0  0.00000000000E+00  0.00000000000E+00  0.12525980253E-10  0.17130000000E+03  0.17130000000E+03 0.  1.
       11    1    1    2    0    0 -0.29115705336E-02 -0.38240020921E-02  0.22612809359E+00  0.22617974305E+00  0.51109989000E-03 0.  1.
     -623    1    1    2    0    0  0.17030905286E-04  0.99616376122E-04  0.55757151758E-04  0.17130000000E+03  0.17130000000E+03 0.  1.
      622    1    1    2    0    0  0.28945396284E-02  0.37243857159E-02  0.37738161166E+01  0.37738202569E+01  0.30000000000E-02 0.  1.
</event>
<event>
 5   0  0.3294100E+10  0.9118800E+02  0.7818608E-02  0.1180000E+00
       11   -1    0    0    0    0  0.00000000000E+00  0.00000000000E+00  0.39999999673E+01  0.40000000000E+01  0.51109989000E-03 0.  1.
     -623   -1    0    0    0    0  0.00000000000E+00  0.00000000000E+00  0.12525980253E-10  0.17130000000E+03  0.17130000000E+03 0.  1.
       11    1    1    2    0    0 -0.35555936717E-03 -0.60197747195E-04  0.40687598585E+00  0.40687646667E+00  0.51109989000E-03 0.  1.
     -623    1    1    2    0    0  0.71124511917E-04  0.92564729624E-04  0.17120171543E-05  0.17130000000E+03  0.17130000000E+03 0.  1.
      622    1    1    2    0    0  0.28443485781E-03 -0.32366979091E-04  0.35931221252E+01  0.35931233890E+01  0.30000000000E-02 0.  1.
</event>
<event>
 5   0  0.3294100E+10  0.9118800E+02  0.7818608E-02  0.1180000E+00
       11   -1    0    0    0    0  0.00000000000E+00  0.00000000000E+00  0.39999999673E+01  0.40000000000E+01  0.51109989000E-03 0.  1.
     -623   -1    0    0    0    0  0.00000000000E+00  0.00000000000E+00  0.12525980253E-10  0.17130000000E+03  0.17130000000E+03 0.  1.
       11    1    1    2    0    0  0.51033711188E-02  0.16609737676E-02  0.10379974406E+01  0.10380114407E+01  0.51109989000E-03 0.  1.
     -623    1    1    2    0    0 -0.49589389423E-03  0.29538122963E-03  0.19717367036E-04  0.17130000000E+03  0.17130000000E+03 0.  1.
      622    1    1    2    0    0 -0.46074772217E-02 -0.19563549989E-02  0.29619828326E+01  0.29619885815E+01  0.30000000000E-02 0.  1.
</event>
<event>
 5   0  0.3294100E+10  0.9118800E+02  0.7818608E-02  0.1180000E+00
       11   -1    0    0    0    0  0.00000000000E+00  0.00000000000E+00  0.39999999673E+01  0.40000000000E+01  0.51109989000E-03 0.  1.
     -623   -1    0    0    0    0  0.00000000000E+00  0.00000000000E+00  0.12525980253E-10  0.17130000000E+03  0.17130000000E+03 0.  1.
       11    1    1    2    0    0 -0.16991681254E-04  0.12098909412E-02  0.27261223840E+00  0.27261540285E+00  0.51109989000E-03 0.  1.
     -623    1    1    2    0    0 -0.19989616403E-03 -0.11916685704E-02  0.43497084938E-05  0.17130000000E+03  0.17130000000E+03 0.  1.
      622    1    1    2    0    0  0.21688784529E-03 -0.18222370815E-04  0.37273833793E+01  0.37273845929E+01  0.30000000000E-02 0.  1.
</event>
<event>
 5   0  0.3294100E+10  0.9118800E+02  0.7818608E-02  0.1180000E+00
       11   -1    0    0    0    0  0.00000000000E+00  0.00000000000E+00  0.39999999673E+01  0.40000000000E+01  0.51109989000E-03 0. -1.
     -623   -1    0    0    0    0  0.00000000000E+00  0.00000000000E+00  0.12525980253E-10  0.17130000000E+03  0.17130000000E+03 0.  1.
       11    1    1    2    0    0  0.97098389606E-05  0.15053723556E-02  0.10067940280E+01  0.10067952832E+01  0.51109989000E-03 0. -1.
     -623    1    1    2    0    0 -0.61017993861E-04  0.31788499260E-05  0.31065682817E-05  0.17130000000E+03  0.17130000000E+03 0.  1.
      622    1    1    2    0    0  0.51308154901E-04 -0.15085512056E-02  0.29932028328E+01  0.29932047168E+01  0.30000000000E-02 0. -1.
</event>
<event>
 5   0  0.3294100E+10  0.9118800E+02  0.7818608E-02  0.1180000E+00
       11   -1    0    0    0    0  0.00000000000E+00  0.00000000000E+00  0.39999999673E+01  0.40000000000E+01  0.51109989000E-03 0.  1.
     -623   -1    0    0    0    0  0.00000000000E+00  0.00000000000E+00  0.12525980253E-10  0.17130000000E+03  0.17130000000E+03 0. -1.
       11    1    1    2    0    0 -0.47043455037E-03  0.10866309968E-02  0.73198237095E+00  0.73198350710E+00  0.51109989000E-03 0.  1.
     -623    1    1    2    0    0  0.11579806594E-03 -0.77875865045E-05  0.26778579691E-05  0.17130000000E+03  0.17130000000E+03 0. -1.
      622    1    1    2    0    0  0.35463648236E-03 -0.10788434102E-02  0.32680149903E+01  0.32680165646E+01  0.30000000000E-02 0.  1.
</event>
<event>
 5   0  0.3294100E+10  0.9118800E+02  0.7818608E-02  0.1180000E+00
       11   -1    0    0    0    0  0.00000000000E+00  0.00000000000E+00  0.39999999673E+01  0.40000000000E+01  0.51109989000E-03 0.  1.
     -623   -1    0    0    0    0  0.00000000000E+00  0.00000000000E+00  0.12525980253E-10  0.17130000000E+03  0.17130000000E+03 0. -1.
       11    1    1    2    0    0 -0.50599853254E-03 -0.11710944762E-02  0.11987019066E+00  0.11987806858E+00  0.51109989000E-03 0. -1.
     -623    1    1    2    0    0  0.10696739082E-04  0.67072480874E-04  0.91937279052E-05  0.17130000000E+03  0.17130000000E+03 0. -1.
      622    1    1    2    0    0  0.49530179346E-03  0.11040219953E-02  0.38801205830E+01  0.38801219314E+01  0.30000000000E-02 0.  1.
</event>
<event>
 5   0  0.3294100E+10  0.9118800E+02  0.7818608E-02  0.1180000E+00
       11   -1    0    0    0    0  0.00000000000E+00  0.00000000000E+00  0.39999999673E+01  0.40000000000E+01  0.51109989000E-03 0.  1.
     -623   -1    0    0    0    0  0.00000000000E+00  0.00000000000E+00  0.12525980253E-10  0.17130000000E+03  0.17130000000E+03 0.  1.
       11    1    1    2    0    0 -0.14640967612E-02 -0.15462552932E-02  0.10990956479E+01  0.10990978295E+01  0.51109989000E-03 0.  1.
     -623    1    1    2    0    0  0.11415901407E-02  0.55114449505E-03  0.38935572002E-05  0.17130000000E+03  0.17130000000E+03 0.  1.
      622    1    1    2    0    0  0.32250662056E-03  0.99511079815E-03  0.29009004259E+01  0.29009021658E+01  0.30000000000E-02 0.  1.
</event>
<event>
 5   0  0.3294100E+10  0.9118800E+02  0.7818608E-02  0.1180000E+00
       11   -1    0    0    0    0  0.00000000000E+00  0.00000000000E+00  0.39999999673E+01  0.40000000000E+01  0.51109989000E-03 0.  1.
     -623   -1    0    0    0    0  0.00000000000E+00  0.00000000000E+00  0.12525980253E-10  0.17130000000E+03  0.17130000000E+03 0.  1.
       11    1    1    2    0    0 -0.15884568381E-02 -0.12681479226E-02  0.43755888722E+00  0.43756390665E+00  0.51109989000E-03 0.  1.
     -623    1    1    2    0    0 -0.24575398153E-04  0.61537895677E-03  0.66760649138E-05  0.17130000000E+03  0.17130000000E+03 0.  1.
      622    1    1    2    0    0  0.16130322363E-02  0.65276896583E-03  0.35624344041E+01  0.35624360922E+01  0.30000000000E-02 0.  1.
</event>
<event>
 5   0  0.3294100E+10  0.9118800E+02  0.7818608E-02  0.1180000E+00
       11   -1    0    0    0    0  0.00000000000E+00  0.00000000000E+00  0.39999999673E+01  0.40000000000E+01  0.51109989000E-03 0. -1.
     -623   -1    0    0    0    0  0.00000000000E+00  0.00000000000E+00  0.12525980253E-10  0.17130000000E+03  0.17130000000E+03 0. -1.
       11    1    1    2    0    0  0.20355197157E-03  0.39823421221E-03  0.64406941325E+00  0.64406977133E+00  0.51109989000E-03 0. -1.
     -623    1    1    2    0    0 -0.54710545230E-03 -0.50009128030E-03  0.16870760642E-05  0.17130000000E+03  0.17130000000E+03 0. -1.
      622    1    1    2    0    0  0.34355348072E-03  0.10185706809E-03  0.33559288670E+01  0.33559302271E+01  0.30000000000E-02 0. -1.
</event>
<event>
 5   0  0.3294100E+10  0.9118800E+02  0.7818608E-02  0.1180000E+00
       11   -1    0    0    0    0  0.00000000000E+00  0.00000000000E+00  0.39999999673E+01  0.40000000000E+01  0.51109989000E-03 0.  1.
     -623   -1    0    0    0    0  0.00000000000E+00  0.00000000000E+00  0.12525980253E-10  0.17130000000E+03  0.17130000000E+03 0.  1.
       11    1    1    2    0    0  0.10947431117E-03 -0.14786712223E-02  0.12541442339E+00  0.12542422920E+00  0.51109989000E-03 0.  1.
     -623    1    1    2    0    0  0.31319767721E-04 -0.58972030201E-05  0.11221560397E-04  0.17130000000E+03  0.17130000000E+03 0.  1.
      622    1    1    2    0    0 -0.14079407922E-03  0.14845684254E-02  0.38745743641E+01  0.38745758125E+01  0.30000000000E-02 0.  1.
</event>
<event>
 5   0  0.3294100E+10  0.9118800E+02  0.7818608E-02  0.1180000E+00
       11   -1    0    0    0    0  0.00000000000E+00  0.00000000000E+00  0.39999999673E+01  0.40000000000E+01  0.51109989000E-03 0. -1.
     -623   -1    0    0    0    0  0.00000000000E+00  0.00000000000E+00  0.12525980253E-10  0.17130000000E+03  0.17130000000E+03 0.  1.
       11    1    1    2    0    0 -0.15202394498E-02 -0.62694244607E-03  0.10113651287E+01  0.10113665947E+01  0.51109989000E-03 0. -1.
     -623    1    1    2    0    0  0.38054572222E-03 -0.35171549743E-03  0.33174323879E-05  0.17130000000E+03  0.17130000000E+03 0.  1.
      622    1    1    2    0    0  0.11396937276E-02  0.97865794350E-03  0.29886315212E+01  0.29886334045E+01  0.30000000000E-02 0. -1.
</event>
<event>
 5   0  0.3294100E+10  0.9118800E+02  0.7818608E-02  0.1180000E+00
       11   -1    0    0    0    0  0.00000000000E+00  0.00000000000E+00  0.39999999673E+01  0.40000000000E+01  0.51109989000E-03 0.  1.
     -623   -1    0    0    0    0  0.00000000000E+00  0.00000000000E+00  0.12525980253E-10  0.17130000000E+03  0.17130000000E+03 0.  1.
       11    1    1    2    0    0 -0.10129369226E-01  0.15020781613E-02  0.25678459112E+00  0.25698919787E+00  0.51109989000E-03 0.  1.
     -623    1    1    2    0    0  0.13164399834E-01 -0.11122699447E-02  0.20753670185E-03  0.17130000051E+03  0.17130000000E+03 0.  1.
      622    1    1    2    0    0 -0.30350306085E-02 -0.38980821658E-03  0.37430078395E+01  0.37430102926E+01  0.30000000000E-02 0.  1.
</event>
<event>
 5   0  0.3294100E+10  0.9118800E+02  0.7818608E-02  0.1180000E+00
       11   -1    0    0    0    0  0.00000000000E+00  0.00000000000E+00  0.39999999673E+01  0.40000000000E+01  0.51109989000E-03 0.  1.
     -623   -1    0    0    0    0  0.00000000000E+00  0.00000000000E+00  0.12525980253E-10  0.17130000000E+03  0.17130000000E+03 0.  1.
       11    1    1    2    0    0  0.11225565528E-03 -0.20399307712E-03  0.20266203683E+00  0.20266281507E+00  0.51109989000E-03 0.  1.
     -623    1    1    2    0    0  0.31731976885E-03 -0.12533330294E-03  0.19695532205E-05  0.17130000000E+03  0.17130000000E+03 0.  1.
      622    1    1    2    0    0 -0.42957543346E-03  0.32932638375E-03  0.37973360786E+01  0.37973373022E+01  0.30000000000E-02 0.  1.
</event>
<event>
 5   0  0.3294100E+10  0.9118800E+02  0.7818608E-02  0.1180000E+00
       11   -1    0    0    0    0  0.00000000000E+00  0.00000000000E+00  0.39999999673E+01  0.40000000000E+01  0.51109989000E-03 0. -1.
     -623   -1    0    0    0    0  0.00000000000E+00  0.00000000000E+00  0.12525980253E-10  0.17130000000E+03  0.17130000000E+03 0. -1.
       11    1    1    2    0    0 -0.40141758448E-03 -0.30074653418E-03  0.56706110308E+00  0.56706155524E+00  0.51109989000E-03 0. -1.
     -623    1    1    2    0    0  0.59359796811E-03  0.25620001810E-03  0.17372412007E-05  0.17130000000E+03  0.17130000000E+03 0. -1.
      622    1    1    2    0    0 -0.19218040069E-03  0.44546508719E-04  0.34329372420E+01  0.34329385585E+01  0.30000000000E-02 0. -1.
</event>
<event>
 5   0  0.3294100E+10  0.9118800E+02  0.7818608E-02  0.1180000E+00
       11   -1    0    0    0    0  0.00000000000E+00  0.00000000000E+00  0.39999999673E+01  0.40000000000E+01  0.51109989000E-03 0.  1.
     -623   -1    0    0    0    0  0.00000000000E+00  0.00000000000E+00  0.12525980253E-10  0.17130000000E+03  0.17130000000E+03 0.  1.
       11    1    1    2    0    0  0.33766272281E-02 -0.34866540017E-02  0.11891943778E+01  0.11892043928E+01  0.51109989000E-03 0.  1.
     -623    1    1    2    0    0 -0.22523010368E-02  0.55536279918E-03  0.13352352027E-04  0.17130000002E+03  0.17130000000E+03 0.  1.
      622    1    1    2    0    0 -0.11243261913E-02  0.29312912025E-02  0.28107922372E+01  0.28107955915E+01  0.30000000000E-02 0.  1.
</event>
<event>
 5   0  0.3294100E+10  0.9118800E+02  0.7818608E-02  0.1180000E+00
       11   -1    0    0    0    0  0.00000000000E+00  0.00000000000E+00  0.39999999673E+01  0.40000000000E+01  0.51109989000E-03 0. -1.
     -623   -1    0    0    0    0  0.00000000000E+00  0.00000000000E+00  0.12525980253E-10  0.17130000000E+03  0.17130000000E+03 0.  1.
       11    1    1    2    0    0  0.61195217811E-03  0.16336999066E-02  0.24780910901E+00  0.24781577672E+00  0.51109989000E-03 0. -1.
     -623    1    1    2    0    0  0.20296913326E-03 -0.38306533911E-04  0.82621637310E-05  0.17130000000E+03  0.17130000000E+03 0.  1.
      622    1    1    2    0    0 -0.81492131136E-03 -0.15953933727E-02  0.37521825962E+01  0.37521842232E+01  0.30000000000E-02 0. -1.
</event>
<event>
 5   0  0.3294100E+10  0.9118800E+02  0.7818608E-02  0.1180000E+00
       11   -1    0    0    0    0  0.00000000000E+00  0.00000000000E+00  0.39999999673E+01  0.40000000000E+01  0.51109989000E-03 0.  1.
     -623   -1    0    0    0    0  0.00000000000E+00  0.00000000000E+00  0.12525980253E-10  0.17130000000E+03  0.17130000000E+03 0.  1.
       11    1    1    2    0    0  0.29221128699E-03 -0.52932856667E-03  0.35929551792E-01  0.35938273324E-01  0.51109989000E-03 0.  1.
     -623    1    1    2    0    0  0.35546743680E-03  0.75113407784E-03  0.98852249564E-05  0.17130000000E+03  0.17130000000E+03 0.  1.
      622    1    1    2    0    0 -0.64767872379E-03 -0.22180551117E-03  0.39640605303E+01  0.39640617247E+01  0.30000000000E-02 0.  1.
</event>
<event>
 5   0  0.3294100E+10  0.9118800E+02  0.7818608E-02  0.1180000E+00
       11   -1    0    0    0    0  0.00000000000E+00  0.00000000000E+00  0.39999999673E+01  0.40000000000E+01  0.51109989000E-03 0. -1.
     -623   -1    0    0    0    0  0.00000000000E+00  0.00000000000E+00  0.12525980253E-10  0.17130000000E+03  0.17130000000E+03 0. -1.
       11    1    1    2    0    0  0.45214607529E-03  0.23330783296E-03  0.43449049350E-01  0.43455034014E-01  0.51109989000E-03 0. -1.
     -623    1    1    2    0    0 -0.15226143105E-03 -0.41460034901E-03  0.71054676090E-05  0.17130000000E+03  0.17130000000E+03 0. -1.
      622    1    1    2    0    0 -0.29988464434E-03  0.18129251578E-03  0.39565438099E+01  0.39565449628E+01  0.30000000000E-02 0. -1.
</event>
<event>
 5   0  0.3294100E+10  0.9118800E+02  0.7818608E-02  0.1180000E+00
       11   -1    0    0    0    0  0.00000000000E+00  0.00000000000E+00  0.39999999673E+01  0.40000000000E+01  0.51109989000E-03 0.  1.
     -623   -1    0    0    0    0  0.00000000000E+00  0.00000000000E+00  0.12525980253E-10  0.17130000000E+03  0.17130000000E+03 0.  1.
       11    1    1    2    0    0 -0.11340673949E-02  0.96056648357E-03  0.10363895647E+01  0.10363907563E+01  0.51109989000E-03 0.  1.
     -623    1    1    2    0    0  0.19084249751E-02  0.89645776388E-04  0.29753248039E-05  0.17130000001E+03  0.17130000000E+03 0.  1.
      622    1    1    2    0    0 -0.77435758026E-03 -0.10502122600E-02  0.29636074274E+01  0.29636092330E+01  0.30000000000E-02 0.  1.
</event>
<event>
 5   0  0.3294100E+10  0.9118800E+02  0.7818608E-02  0.1180000E+00
       11   -1    0    0    0    0  0.00000000000E+00  0.00000000000E+00  0.39999999673E+01  0.40000000000E+01  0.51109989000E-03 0.  1.
     -623   -1    0    0    0    0  0.00000000000E+00  0.00000000000E+00  0.12525980253E-10  0.17130000000E+03  0.17130000000E+03 0.  1.
       11    1    1    2    0    0  0.86383337052E-03  0.21862622655E-02  0.49234759810E+00  0.49235347519E+00  0.51109989000E-03 0.  1.
     -623    1    1    2    0    0 -0.33425417665E-04  0.12757400382E-04  0.79149631307E-05  0.17130000000E+03  0.17130000000E+03 0.  1.
      622    1    1    2    0    0 -0.83040795286E-03 -0.21990196659E-02  0.35076444543E+01  0.35076465248E+01  0.30000000000E-02 0.  1.
</event>
<event>
 5   0  0.3294100E+10  0.9118800E+02  0.7818608E-02  0.1180000E+00
       11   -1    0    0    0    0  0.00000000000E+00  0.00000000000E+00  0.39999999673E+01  0.40000000000E+01  0.51109989000E-03 0.  1.
     -623   -1    0    0    0    0  0.00000000000E+00  0.00000000000E+00  0.12525980253E-10  0.17130000000E+03  0.17130000000E+03 0.  1.
       11    1    1    2    0    0  0.35061281952E-03  0.21903066537E-03  0.26743173929E+00  0.26743254721E+00  0.51109989000E-03 0.  1.
     -623    1    1    2    0    0 -0.17976577516E-03 -0.79904846087E-04  0.19874989512E-05  0.17130000000E+03  0.17130000000E+03 0.  1.
      622    1    1    2    0    0 -0.17084703517E-03 -0.13912581520E-03  0.37325664451E+01  0.37325676572E+01  0.30000000000E-02 0.  1.
</event>
<event>
 5   0  0.3294100E+10  0.9118800E+02  0.7818608E-02  0.1180000E+00
       11   -1    0    0    0    0  0.00000000000E+00  0.00000000000E+00  0.39999999673E+01  0.40000000000E+01  0.51109989000E-03 0.  1.
     -623   -1    0    0    0    0  0.00000000000E+00  0.00000000000E+00  0.12525980253E-10  0.17130000000E+03  0.17130000000E+03 0.  1.
       11    1    1    2    0    0 -0.21334842475E-02  0.64736091398E-03  0.54218712435E+00  0.54219194928E+00  0.51109989000E-03 0.  1.
     -623    1    1    2    0    0 -0.18273059468E-04 -0.58455739602E-04  0.68133616997E-05  0.17130000000E+03  0.17130000000E+03 0.  1.
      622    1    1    2    0    0  0.21517573070E-02 -0.58890517422E-03  0.34578060410E+01  0.34578080620E+01  0.30000000000E-02 0.  1.
</event>
<event>
 5   0  0.3294100E+10  0.9118800E+02  0.7818608E-02  0.1180000E+00
       11   -1    0    0    0    0  0.00000000000E+00  0.00000000000E+00  0.39999999673E+01  0.40000000000E+01  0.51109989000E-03 0. -1.
     -623   -1    0    0    0    0  0.00000000000E+00  0.00000000000E+00  0.12525980253E-10  0.17130000000E+03  0.17130000000E+03 0. -1.
       11    1    1    2    0    0 -0.11288231735E-02 -0.26878815783E-02  0.46697421576E+00  0.46698359538E+00  0.51109989000E-03 0. -1.
     -623    1    1    2    0    0  0.36082213217E-04  0.54375164234E-04  0.11771191293E-04  0.17130000000E+03  0.17130000000E+03 0. -1.
      622    1    1    2    0    0  0.10927409603E-02  0.26335064142E-02  0.35330139727E+01  0.35330163969E+01  0.30000000000E-02 0. -1.
</event>
<event>
 5   0  0.3294100E+10  0.9118800E+02  0.7818608E-02  0.1180000E+00
       11   -1    0    0    0    0  0.00000000000E+00  0.00000000000E+00  0.39999999673E+01  0.40000000000E+01  0.51109989000E-03 0.  1.
     -623   -1    0    0    0    0  0.00000000000E+00  0.00000000000E+00  0.12525980253E-10  0.17130000000E+03  0.17130000000E+03 0.  1.
       11    1    1    2    0    0 -0.52874020909E-03 -0.13793976552E-02  0.38807644262E-01  0.38839114052E-01  0.51109989000E-03 0.  1.
     -623    1    1    2    0    0  0.10703560423E-03  0.18310505151E-03  0.32776406193E-04  0.17130000000E+03  0.17130000000E+03 0.  1.
      622    1    1    2    0    0  0.42170460481E-03  0.11962926036E-02  0.39611595486E+01  0.39611608877E+01  0.30000000000E-02 0.  1.
</event>
<event>
 5   0  0.3294100E+10  0.9118800E+02  0.7818608E-02  0.1180000E+00
       11   -1    0    0    0    0  0.00000000000E+00  0.00000000000E+00  0.39999999673E+01  0.40000000000E+01  0.51109989000E-03 0. -1.
     -623   -1    0    0    0    0  0.00000000000E+00  0.00000000000E+00  0.12525980253E-10  0.17130000000E+03  0.17130000000E+03 0.  1.
       11    1    1    2    0    0  0.71516438196E-03  0.64034675973E-03  0.29312669816E+00  0.29312871559E+00  0.51109989000E-03 0. -1.
     -623    1    1    2    0    0 -0.88156365445E-03 -0.66444570768E-03  0.32061183792E-05  0.17130000000E+03  0.17130000000E+03 0.  1.
      622    1    1    2    0    0  0.16639929059E-03  0.24098961587E-04  0.37068701452E+01  0.37068713630E+01  0.30000000000E-02 0. -1.
</event>
<event>
 5   0  0.3294100E+10  0.9118800E+02  0.7818608E-02  0.1180000E+00
       11   -1    0    0    0    0  0.00000000000E+00  0.00000000000E+00  0.39999999673E+01  0.40000000000E+01  0.51109989000E-03 0. -1.
     -623   -1    0    0    0    0  0.00000000000E+00  0.00000000000E+00  0.12525980253E-10  0.17130000000E+03  0.17130000000E+03 0. -1.
       11    1    1    2    0    0  0.17666243868E-02  0.75029125719E-03  0.70791776453E+00  0.70792055095E+00  0.51109989000E-03 0. -1.
     -623    1    1    2    0    0  0.11645791788E-02 -0.17917161157E-03  0.54792343041E-05  0.17130000000E+03  0.17130000000E+03 0. -1.
      622    1    1    2    0    0 -0.29312035657E-02 -0.57111964561E-03  0.32920767236E+01  0.32920794450E+01  0.30000000000E-02 0.  0.
</event>
<event>
 5   0  0.3294100E+10  0.9118800E+02  0.7818608E-02  0.1180000E+00
       11   -1    0    0    0    0  0.00000000000E+00  0.00000000000E+00  0.39999999673E+01  0.40000000000E+01  0.51109989000E-03 0. -1.
     -623   -1    0    0    0    0  0.00000000000E+00  0.00000000000E+00  0.12525980253E-10  0.17130000000E+03  0.17130000000E+03 0. -1.
       11    1    1    2    0    0 -0.11882968654E-02  0.22397499203E-02  0.22803035136E+00  0.22804501944E+00  0.51109989000E-03 0. -1.
     -623    1    1    2    0    0 -0.12962962030E-03  0.11383616562E-03  0.16793071958E-04  0.17130000000E+03  0.17130000000E+03 0. -1.
      622    1    1    2    0    0  0.13179264857E-02 -0.23535860859E-02  0.37719528229E+01  0.37719549805E+01  0.30000000000E-02 0. -1.
</event>
<event>
 5   0  0.3294100E+10  0.9118800E+02  0.7818608E-02  0.1180000E+00
       11   -1    0    0    0    0  0.00000000000E+00  0.00000000000E+00  0.39999999673E+01  0.40000000000E+01  0.51109989000E-03 0. -1.
     -623   -1    0    0    0    0  0.00000000000E+00  0.00000000000E+00  0.12525980253E-10  0.17130000000E+03  0.17130000000E+03 0. -1.
       11    1    1    2    0    0  0.64416720897E-04 -0.42414124215E-03  0.20344776770E+00  0.20344886201E+00  0.51109989000E-03 0. -1.
     -623    1    1    2    0    0 -0.31776622665E-03  0.34643829472E-03  0.22568433504E-05  0.17130000000E+03  0.17130000000E+03 0. -1.
      622    1    1    2    0    0  0.25334949958E-03  0.77702954160E-04  0.37965498651E+01  0.37965510596E+01  0.30000000000E-02 0. -1.
</event>
<event>
 5   0  0.3294100E+10  0.9118800E+02  0.7818608E-02  0.1180000E+00
       11   -1    0    0    0    0  0.00000000000E+00  0.00000000000E+00  0.39999999673E+01  0.40000000000E+01  0.51109989000E-03 0.  1.
     -623   -1    0    0    0    0  0.00000000000E+00  0.00000000000E+00  0.12525980253E-10  0.17130000000E+03  0.17130000000E+03 0.  1.
       11    1    1    2    0    0 -0.49669729791E-03  0.82090974347E-03  0.30112625076E+00  0.30112821310E+00  0.51109989000E-03 0.  1.
     -623    1    1    2    0    0  0.32904701285E-04  0.30288690199E-04  0.32733038928E-05  0.17130000000E+03  0.17130000000E+03 0.  1.
      622    1    1    2    0    0  0.46379259662E-03 -0.85119843366E-03  0.36988704433E+01  0.36988717869E+01  0.30000000000E-02 0.  1.
</event>
<event>
 5   0  0.3294100E+10  0.9118800E+02  0.7818608E-02  0.1180000E+00
       11   -1    0    0    0    0  0.00000000000E+00  0.00000000000E+00  0.39999999673E+01  0.40000000000E+01  0.51109989000E-03 0.  1.
     -623   -1    0    0    0    0  0.00000000000E+00  0.00000000000E+00  0.12525980253E-10  0.17130000000E+03  0.17130000000E+03 0.  1.
       11    1    1    2    0    0  0.18514707682E-02  0.60439201418E-03  0.34395990449E-01  0.34454877948E-01  0.51109989000E-03 0.  1.
     -623    1    1    2    0    0 -0.15448371878E-04  0.37028312571E-03  0.60534859709E-04  0.17130000000E+03  0.17130000000E+03 0.  1.
      622    1    1    2    0    0 -0.18360223963E-02 -0.97467513989E-03  0.39655434421E+01  0.39655451216E+01  0.30000000000E-02 0.  1.
</event>
<event>
 5   0  0.3294100E+10  0.9118800E+02  0.7818608E-02  0.1180000E+00
       11   -1    0    0    0    0  0.00000000000E+00  0.00000000000E+00  0.39999999673E+01  0.40000000000E+01  0.51109989000E-03 0.  1.
     -623   -1    0    0    0    0  0.00000000000E+00  0.00000000000E+00  0.12525980253E-10  0.17130000000E+03  0.17130000000E+03 0. -1.
       11    1    1    2    0    0 -0.27360132799E-03 -0.45545803900E-03  0.10582564567E+01  0.10582567135E+01  0.51109989000E-03 0.  1.
     -623    1    1    2    0    0 -0.48726897455E-04  0.10982397135E-02  0.18452770250E-05  0.17130000000E+03  0.17130000000E+03 0. -1.
      622    1    1    2    0    0  0.32232822544E-03 -0.64278167453E-03  0.29417416654E+01  0.29417432830E+01  0.30000000000E-02 0.  1.
</event>
<event>
 5   0  0.3294100E+10  0.9118800E+02  0.7818608E-02  0.1180000E+00
       11   -1    0    0    0    0  0.00000000000E+00  0.00000000000E+00  0.39999999673E+01  0.40000000000E+01  0.51109989000E-03 0.  1.
     -623   -1    0    0    0    0  0.00000000000E+00  0.00000000000E+00  0.12525980253E-10  0.17130000000E+03  0.17130000000E+03 0.  1.
       11    1    1    2    0    0 -0.27792387046E-03  0.12896394665E-02  0.49942951859E-01  0.49962987052E-01  0.51109989000E-03 0. -1.
     -623    1    1    2    0    0 -0.94979736665E-05  0.16247800574E-03  0.21419232840E-04  0.17130000000E+03  0.17130000000E+03 0.  1.
      622    1    1    2    0    0  0.28742184414E-03 -0.14521174725E-02  0.39500356025E+01  0.39500370191E+01  0.30000000000E-02 0.  1.
</event>
<event>
 5   0  0.3294100E+10  0.9118800E+02  0.7818608E-02  0.1180000E+00
       11   -1    0    0    0    0  0.00000000000E+00  0.00000000000E+00  0.39999999673E+01  0.40000000000E+01  0.51109989000E-03 0.  1.
     -623   -1    0    0    0    0  0.00000000000E+00  0.00000000000E+00  0.12525980253E-10  0.17130000000E+03  0.17130000000E+03 0.  1.
       11    1    1    2    0    0  0.70243750225E-03  0.12721378646E-02  0.25042178370E+00  0.25042652161E+00  0.51109989000E-03 0.  1.
     -623    1    1    2    0    0 -0.42829045618E-04  0.25588816767E-04  0.61880074012E-05  0.17130000000E+03  0.17130000000E+03 0.  1.
      622    1    1    2    0    0 -0.65960845646E-03 -0.12977266815E-02  0.37495720114E+01  0.37495734942E+01  0.30000000000E-02 0.  1.
</event>
<event>
 5   0  0.3294100E+10  0.9118800E+02  0.7818608E-02  0.1180000E+00
       11   -1    0    0    0    0  0.00000000000E+00  0.00000000000E+00  0.39999999673E+01  0.40000000000E+01  0.51109989000E-03 0. -1.
     -623   -1    0    0    0    0  0.00000000000E+00  0.00000000000E+00  0.12525980253E-10  0.17130000000E+03  0.17130000000E+03 0.  1.
       11    1    1    2    0    0  0.56227883413E-03 -0.87643154296E-03  0.25441992896E+00  0.25442257323E+00  0.51109989000E-03 0. -1.
     -623    1    1    2    0    0 -0.14712411605E-04 -0.13064002723E-04  0.39586826421E-05  0.17130000000E+03  0.17130000000E+03 0.  1.
      622    1    1    2    0    0 -0.54756642242E-03  0.88949554579E-03  0.37455761103E+01  0.37455774574E+01  0.30000000000E-02 0. -1.
</event>
<event>
 5   0  0.3294100E+10  0.9118800E+02  0.7818608E-02  0.1180000E+00
       11   -1    0    0    0    0  0.00000000000E+00  0.00000000000E+00  0.39999999673E+01  0.40000000000E+01  0.51109989000E-03 0.  1.
     -623   -1    0    0    0    0  0.00000000000E+00  0.00000000000E+00  0.12525980253E-10  0.17130000000E+03  0.17130000000E+03 0. -1.
       11    1    1    2    0    0 -0.59657025511E-03  0.10579611881E-02  0.28649598146E+00  0.28649901186E+00  0.51109989000E-03 0.  1.
     -623    1    1    2    0    0 -0.47084001644E-03 -0.12437677346E-02  0.43727686969E-05  0.17130000001E+03  0.17130000000E+03 0. -1.
      622    1    1    2    0    0  0.10674102784E-02  0.18580656458E-03  0.37134996713E+01  0.37135010411E+01  0.30000000000E-02 0.  1.
</event>
<event>
 5   0  0.3294100E+10  0.9118800E+02  0.7818608E-02  0.1180000E+00
       11   -1    0    0    0    0  0.00000000000E+00  0.00000000000E+00  0.39999999673E+01  0.40000000000E+01  0.51109989000E-03 0. -1.
     -623   -1    0    0    0    0  0.00000000000E+00  0.00000000000E+00  0.12525980253E-10  0.17130000000E+03  0.17130000000E+03 0.  1.
       11    1    1    2    0    0  0.48868151626E-02 -0.34398487481E-02  0.56444998657E+00  0.56448185275E+00  0.51109989000E-03 0. -1.
     -623    1    1    2    0    0 -0.11427359370E-03  0.23492256584E-03  0.37953449869E-04  0.17130000000E+03  0.17130000000E+03 0.  1.
      622    1    1    2    0    0 -0.47725415689E-02  0.32049261823E-02  0.34355120273E+01  0.34355181470E+01  0.30000000000E-02 0. -1.
</event>
<event>
 5   0  0.3294100E+10  0.9118800E+02  0.7818608E-02  0.1180000E+00
       11   -1    0    0    0    0  0.00000000000E+00  0.00000000000E+00  0.39999999673E+01  0.40000000000E+01  0.51109989000E-03 0.  1.
     -623   -1    0    0    0    0  0.00000000000E+00  0.00000000000E+00  0.12525980253E-10  0.17130000000E+03  0.17130000000E+03 0.  1.
       11    1    1    2    0    0 -0.35992480241E-03 -0.72835926409E-04  0.76457168284E+00  0.76457194186E+00  0.51109989000E-03 0.  1.
     -623    1    1    2    0    0 -0.17391400308E-03  0.18751468449E-03  0.16634927875E-05  0.17130000000E+03  0.17130000000E+03 0.  1.
      622    1    1    2    0    0  0.53383881874E-03 -0.11467877237E-03  0.32354269257E+01  0.32354283626E+01  0.30000000000E-02 0.  0.
</event>
<event>
 5   0  0.3294100E+10  0.9118800E+02  0.7818608E-02  0.1180000E+00
       11   -1    0    0    0    0  0.00000000000E+00  0.00000000000E+00  0.39999999673E+01  0.40000000000E+01  0.51109989000E-03 0. -1.
     -623   -1    0    0    0    0  0.00000000000E+00  0.00000000000E+00  0.12525980253E-10  0.17130000000E+03  0.17130000000E+03 0.  1.
       11    1    1    2    0    0 -0.37690963721E-03 -0.14647672197E-02  0.10365318232E+00  0.10366547656E+00  0.51109989000E-03 0. -1.
     -623    1    1    2    0    0 -0.89593180271E-06 -0.53392284800E-04  0.13730623421E-04  0.17130000000E+03  0.17130000000E+03 0.  1.
      622    1    1    2    0    0  0.37780556901E-03  0.15181595045E-02  0.38963330544E+01  0.38963345234E+01  0.30000000000E-02 0. -1.
</event>
<event>
 5   0  0.3294100E+10  0.9118800E+02  0.7818608E-02  0.1180000E+00
       11   -1    0    0    0    0  0.00000000000E+00  0.00000000000E+00  0.39999999673E+01  0.40000000000E+01  0.51109989000E-03 0. -1.
     -623   -1    0    0    0    0  0.00000000000E+00  0.00000000000E+00  0.12525980253E-10  0.17130000000E+03  0.17130000000E+03 0. -1.
       11    1    1    2    0    0 -0.72213550256E-03 -0.62399578150E-02  0.88571054339E+00  0.88573296565E+00  0.51109989000E-03 0. -1.
     -623    1    1    2    0    0  0.24745936065E-03  0.50115857821E-03  0.29159255812E-04  0.17130000000E+03  0.17130000000E+03 0. -1.
      622    1    1    2    0    0  0.47467614214E-03  0.57387992372E-02  0.31142602608E+01  0.31142670296E+01  0.30000000000E-02 0.  1.
</event>
<event>
 5   0  0.3294100E+10  0.9118800E+02  0.7818608E-02  0.1180000E+00
       11   -1    0    0    0    0  0.00000000000E+00  0.00000000000E+00  0.39999999673E+01  0.40000000000E+01  0.51109989000E-03 0.  1.
     -623   -1    0    0    0    0  0.00000000000E+00  0.00000000000E+00  0.12525980253E-10  0.17130000000E+03  0.17130000000E+03 0. -1.
       11    1    1    2    0    0 -0.18358861816E-02  0.31850956959E-02  0.83600753266E+00  0.83601577210E+00  0.51109989000E-03 0.  1.
     -623    1    1    2    0    0 -0.21926043855E-03  0.12265981491E-03  0.12025727578E-04  0.17130000000E+03  0.17130000000E+03 0. -1.
      622    1    1    2    0    0  0.20551466201E-02 -0.33077555108E-02  0.31639804090E+01  0.31639842277E+01  0.30000000000E-02 0.  1.
</event>
<event>
 5   0  0.3294100E+10  0.9118800E+02  0.7818608E-02  0.1180000E+00
       11   -1    0    0    0    0  0.00000000000E+00  0.00000000000E+00  0.39999999673E+01  0.40000000000E+01  0.51109989000E-03 0.  1.
     -623   -1    0    0    0    0  0.00000000000E+00  0.00000000000E+00  0.12525980253E-10  0.17130000000E+03  0.17130000000E+03 0. -1.
       11    1    1    2    0    0  0.58095980833E-03  0.67245909799E-03  0.24273845639E+00  0.24274062113E+00  0.51109989000E-03 0.  1.
     -623    1    1    2    0    0  0.24274040971E-04 -0.61277135797E-04  0.34282528212E-05  0.17130000000E+03  0.17130000000E+03 0. -1.
      622    1    1    2    0    0 -0.60523384930E-03 -0.61118196219E-03  0.37572580827E+01  0.37572593789E+01  0.30000000000E-02 0.  1.
</event>
<event>
 5   0  0.3294100E+10  0.9118800E+02  0.7818608E-02  0.1180000E+00
       11   -1    0    0    0    0  0.00000000000E+00  0.00000000000E+00  0.39999999673E+01  0.40000000000E+01  0.51109989000E-03 0. -1.
     -623   -1    0    0    0    0  0.00000000000E+00  0.00000000000E+00  0.12525980253E-10  0.17130000000E+03  0.17130000000E+03 0.  1.
       11    1    1    2    0    0 -0.65240292202E-03 -0.48344850181E-03  0.31728892340E+00  0.31729037408E+00  0.51109989000E-03 0. -1.
     -623    1    1    2    0    0  0.27108697516E-03 -0.12703700892E-03  0.27105752425E-05  0.17130000000E+03  0.17130000000E+03 0.  1.
      622    1    1    2    0    0  0.38131594310E-03  0.61048551250E-03  0.36827083889E+01  0.36827096812E+01  0.30000000000E-02 0. -1.
</event>
<event>
 5   0  0.3294100E+10  0.9118800E+02  0.7818608E-02  0.1180000E+00
       11   -1    0    0    0    0  0.00000000000E+00  0.00000000000E+00  0.39999999673E+01  0.40000000000E+01  0.51109989000E-03 0.  1.
     -623   -1    0    0    0    0  0.00000000000E+00  0.00000000000E+00  0.12525980253E-10  0.17130000000E+03  0.17130000000E+03 0.  1.
       11    1    1    2    0    0  0.12411542176E-02 -0.23238636626E-02  0.39332035328E-01  0.39423483225E-01  0.51109989000E-03 0.  1.
     -623    1    1    2    0    0 -0.62741804475E-04  0.53778602940E-03  0.93130374156E-04  0.17130000000E+03  0.17130000000E+03 0.  1.
      622    1    1    2    0    0 -0.11784124132E-02  0.17860776332E-02  0.39605748017E+01  0.39605765159E+01  0.30000000000E-02 0.  1.
</event>
<event>
 5   0  0.3294100E+10  0.9118800E+02  0.7818608E-02  0.1180000E+00
       11   -1    0    0    0    0  0.00000000000E+00  0.00000000000E+00  0.39999999673E+01  0.40000000000E+01  0.51109989000E-03 0. -1.
     -623   -1    0    0    0    0  0.00000000000E+00  0.00000000000E+00  0.12525980253E-10  0.17130000000E+03  0.17130000000E+03 0.  1.
       11    1    1    2    0    0 -0.14090572521E-02  0.55989565521E-03  0.40858589608E+00  0.40858902900E+00  0.51109989000E-03 0. -1.
     -623    1    1    2    0    0  0.18977017426E-03 -0.14811647073E-02  0.46849207687E-05  0.17130000001E+03  0.17130000000E+03 0.  1.
      622    1    1    2    0    0  0.12192870737E-02  0.92126908444E-03  0.35914094738E+01  0.35914110519E+01  0.30000000000E-02 0. -1.
</event>
<event>
 5   0  0.3294100E+10  0.9118800E+02  0.7818608E-02  0.1180000E+00
       11   -1    0    0    0    0  0.00000000000E+00  0.00000000000E+00  0.39999999673E+01  0.40000000000E+01  0.51109989000E-03 0.  1.
     -623   -1    0    0    0    0  0.00000000000E+00  0.00000000000E+00  0.12525980253E-10  0.17130000000E+03  0.17130000000E+03 0. -1.
       11    1    1    2    0    0 -0.12455608328E-02  0.93561942921E-04  0.57738574638E+00  0.57738732366E+00  0.51109989000E-03 0. -1.
     -623    1    1    2    0    0 -0.45964710415E-03 -0.11172677565E-03  0.32849081322E-05  0.17130000000E+03  0.17130000000E+03 0. -1.
      622    1    1    2    0    0  0.17052079287E-02  0.18164830729E-04  0.34226108644E+01  0.34226126040E+01  0.30000000000E-02 0.  1.
</event>
<event>
 5   0  0.3294100E+10  0.9118800E+02  0.7818608E-02  0.1180000E+00
       11   -1    0    0    0    0  0.00000000000E+00  0.00000000000E+00  0.39999999673E+01  0.40000000000E+01  0.51109989000E-03 0. -1.
     -623   -1    0    0    0    0  0.00000000000E+00  0.00000000000E+00  0.12525980253E-10  0.17130000000E+03  0.17130000000E+03 0. -1.
       11    1    1    2    0    0 -0.33034204886E-02 -0.41449477232E-03  0.10929302061E+01  0.10929353966E+01  0.51109989000E-03 0. -1.
     -623    1    1    2    0    0  0.13443796255E-01  0.51359540024E-02  0.28830278048E-04  0.17130000060E+03  0.17130000000E+03 0. -1.
      622    1    1    2    0    0 -0.10140376205E-01 -0.47214593978E-02  0.29070410616E+01  0.29070641295E+01  0.30000000000E-02 0.  0.
</event>
<event>
 5   0  0.3294100E+10  0.9118800E+02  0.7818608E-02  0.1180000E+00
       11   -1    0    0    0    0  0.00000000000E+00  0.00000000000E+00  0.39999999673E+01  0.40000000000E+01  0.51109989000E-03 0.  1.
     -623   -1    0    0    0    0  0.00000000000E+00  0.00000000000E+00  0.12525980253E-10  0.17130000000E+03  0.17130000000E+03 0.  1.
       11    1    1    2    0    0  0.23458105264E-02 -0.11791026212E-02  0.46526774334E+00  0.46527543168E+00  0.51109989000E-03 0.  1.
     -623    1    1    2    0    0 -0.46561034157E-03 -0.30323134602E-03  0.97405635238E-05  0.17130000000E+03  0.17130000000E+03 0.  1.
      622    1    1    2    0    0 -0.18802001848E-02  0.14823339672E-02  0.35347224835E+01  0.35347245674E+01  0.30000000000E-02 0.  1.
</event>
<event>
 5   0  0.3294100E+10  0.9118800E+02  0.7818608E-02  0.1180000E+00
       11   -1    0    0    0    0  0.00000000000E+00  0.00000000000E+00  0.39999999673E+01  0.40000000000E+01  0.51109989000E-03 0. -1.
     -623   -1    0    0    0    0  0.00000000000E+00  0.00000000000E+00  0.12525980253E-10  0.17130000000E+03  0.17130000000E+03 0. -1.
       11    1    1    2    0    0  0.19910673398E-03 -0.15986744898E-03  0.39128518983E+00  0.39128560694E+00  0.51109989000E-03 0. -1.
     -623    1    1    2    0    0 -0.26350938335E-02 -0.72884280482E-03  0.25848877385E-05  0.17130000002E+03  0.17130000000E+03 0. -1.
      622    1    1    2    0    0  0.24359870995E-02  0.88871025380E-03  0.36087121926E+01  0.36087143712E+01  0.30000000000E-02 0.  0.
</event>
<event>
 5   0  0.3294100E+10  0.9118800E+02  0.7818608E-02  0.1180000E+00
       11   -1    0    0    0    0  0.00000000000E+00  0.00000000000E+00  0.39999999673E+01  0.40000000000E+01  0.51109989000E-03 0.  1.
     -623   -1    0    0    0    0  0.00000000000E+00  0.00000000000E+00  0.12525980253E-10  0.17130000000E+03  0.17130000000E+03 0.  1.
       11    1    1    2    0    0  0.47618284100E-03 -0.16219399879E-03  0.76272722071E+00  0.76272755785E+00  0.51109989000E-03 0.  1.
     -623    1    1    2    0    0 -0.10345336864E-03  0.56383923370E-03  0.17418841574E-05  0.17130000000E+03  0.17130000000E+03 0.  1.
      622    1    1    2    0    0 -0.37272947354E-03 -0.40164522852E-03  0.32372709595E+01  0.32372723959E+01  0.30000000000E-02 0.  1.
</event>
<event>
 5   0  0.3294100E+10  0.9118800E+02  0.7818608E-02  0.1180000E+00
       11   -1    0    0    0    0  0.00000000000E+00  0.00000000000E+00  0.39999999673E+01  0.40000000000E+01  0.51109989000E-03 0. -1.
     -623   -1    0    0    0    0  0.00000000000E+00  0.00000000000E+00  0.12525980253E-10  0.17130000000E+03  0.17130000000E+03 0. -1.
       11    1    1    2    0    0  0.49461890307E-03 -0.14992372259E-02  0.64779362786E+00  0.64779575321E+00  0.51109989000E-03 0. -1.
     -623    1    1    2    0    0  0.31740738778E-04 -0.30104868090E-04  0.38253002903E-05  0.17130000000E+03  0.17130000000E+03 0. -1.
      622    1    1    2    0    0 -0.52635964234E-03  0.15293420945E-02  0.33522025765E+01  0.33522043091E+01  0.30000000000E-02 0. -1.
</event>
<event>
 5   0  0.3294100E+10  0.9118800E+02  0.7818608E-02  0.1180000E+00
       11   -1    0    0    0    0  0.00000000000E+00  0.00000000000E+00  0.39999999673E+01  0.40000000000E+01  0.51109989000E-03 0.  1.
     -623   -1    0    0    0    0  0.00000000000E+00  0.00000000000E+00  0.12525980253E-10  0.17130000000E+03  0.17130000000E+03 0.  1.
       11    1    1    2    0    0 -0.59663003867E-03  0.21597980292E-03  0.46636859771E+00  0.46636930941E+00  0.51109989000E-03 0.  1.
     -623    1    1    2    0    0  0.32645260094E-05  0.10721873947E-03  0.20171762771E-05  0.17130000000E+03  0.17130000000E+03 0.  1.
      622    1    1    2    0    0  0.59336551266E-03 -0.32319854239E-03  0.35336293525E+01  0.35336306906E+01  0.30000000000E-02 0.  1.
</event>
<event>
 5   0  0.3294100E+10  0.9118800E+02  0.7818608E-02  0.1180000E+00
       11   -1    0    0    0    0  0.00000000000E+00  0.00000000000E+00  0.39999999673E+01  0.40000000000E+01  0.51109989000E-03 0. -1.
     -623   -1    0    0    0    0  0.00000000000E+00  0.00000000000E+00  0.12525980253E-10  0.17130000000E+03  0.17130000000E+03 0.  1.
       11    1    1    2    0    0  0.25791468939E-03  0.32108976359E-02  0.52244702083E-01  0.52346408660E-01  0.51109989000E-03 0. -1.
     -623    1    1    2    0    0 -0.77115407194E-03 -0.31691842358E-02  0.10287852200E-03  0.17130000003E+03  0.17130000000E+03 0.  1.
      622    1    1    2    0    0  0.51323938256E-03 -0.41713400062E-04  0.39476523868E+01  0.39476535603E+01  0.30000000000E-02 0. -1.
</event>
<event>
 5   0  0.3294100E+10  0.9118800E+02  0.7818608E-02  0.1180000E+00
       11   -1    0    0    0    0  0.00000000000E+00  0.00000000000E+00  0.39999999673E+01  0.40000000000E+01  0.51109989000E-03 0. -1.
     -623   -1    0    0    0    0  0.00000000000E+00  0.00000000000E+00  0.12525980253E-10  0.17130000000E+03  0.17130000000E+03 0.  1.
       11    1    1    2    0    0 -0.49889412018E-03 -0.17094605281E-02  0.43222261267E+00  0.43222658326E+00  0.51109989000E-03 0. -1.
     -623    1    1    2    0    0 -0.59207668758E-04  0.37560407220E-04  0.56346434567E-05  0.17130000000E+03  0.17130000000E+03 0.  1.
      622    1    1    2    0    0  0.55810178948E-03  0.16719001205E-02  0.35677717569E+01  0.35677734536E+01  0.30000000000E-02 0. -1.
</event>
<event>
 5   0  0.3294100E+10  0.9118800E+02  0.7818608E-02  0.1180000E+00
       11   -1    0    0    0    0  0.00000000000E+00  0.00000000000E+00  0.39999999673E+01  0.40000000000E+01  0.51109989000E-03 0. -1.
     -623   -1    0    0    0    0  0.00000000000E+00  0.00000000000E+00  0.12525980253E-10  0.17130000000E+03  0.17130000000E+03 0.  1.
       11    1    1    2    0    0  0.66191625039E-03  0.31592872152E-03  0.55179279810E+00  0.55179352225E+00  0.51109989000E-03 0.  1.
     -623    1    1    2    0    0  0.82829222799E-04 -0.39105164111E-05  0.20911007010E-05  0.17130000000E+03  0.17130000000E+03 0.  1.
      622    1    1    2    0    0 -0.74474547319E-03 -0.31201820511E-03  0.34482050782E+01  0.34482064777E+01  0.30000000000E-02 0. -1.
</event>
<event>
 5   0  0.3294100E+10  0.9118800E+02  0.7818608E-02  0.1180000E+00
       11   -1    0    0    0    0  0.00000000000E+00  0.00000000000E+00  0.39999999673E+01  0.40000000000E+01  0.51109989000E-03 0.  1.
     -623   -1    0    0    0    0  0.00000000000E+00  0.00000000000E+00  0.12525980253E-10  0.17130000000E+03  0.17130000000E+03 0.  1.
       11    1    1    2    0    0  0.23630018947E-02  0.13540996769E-02  0.64303609771E-01  0.64363287782E-01  0.51109989000E-03 0.  1.
     -623    1    1    2    0    0 -0.98522577611E-03 -0.39315054448E-03  0.61150544213E-04  0.17130000000E+03  0.17130000000E+03 0.  1.
      622    1    1    2    0    0 -0.13777761186E-02 -0.96094913243E-03  0.39356352070E+01  0.39356367089E+01  0.30000000000E-02 0.  1.
</event>
<event>
 5   0  0.3294100E+10  0.9118800E+02  0.7818608E-02  0.1180000E+00
       11   -1    0    0    0    0  0.00000000000E+00  0.00000000000E+00  0.39999999673E+01  0.40000000000E+01  0.51109989000E-03 0.  1.
     -623   -1    0    0    0    0  0.00000000000E+00  0.00000000000E+00  0.12525980253E-10  0.17130000000E+03  0.17130000000E+03 0. -1.
       11    1    1    2    0    0  0.22003117381E-03 -0.26194560437E-03  0.10832511629E+00  0.10832686218E+00  0.51109989000E-03 0.  1.
     -623    1    1    2    0    0 -0.40086572705E-03 -0.12052201206E-03  0.28930802745E-05  0.17130000000E+03  0.17130000000E+03 0. -1.
      622    1    1    2    0    0  0.18083456397E-03  0.38246761966E-03  0.38916720651E+01  0.38916732444E+01  0.30000000000E-02 0.  1.
</event>
<event>
 5   0  0.3294100E+10  0.9118800E+02  0.7818608E-02  0.1180000E+00
       11   -1    0    0    0    0  0.00000000000E+00  0.00000000000E+00  0.39999999673E+01  0.40000000000E+01  0.51109989000E-03 0.  1.
     -623   -1    0    0    0    0  0.00000000000E+00  0.00000000000E+00  0.12525980253E-10  0.17130000000E+03  0.17130000000E+03 0.  1.
       11    1    1    2    0    0 -0.15074538677E-04 -0.60674522457E-03  0.70567219786E+00  0.70567264395E+00  0.51109989000E-03 0.  1.
     -623    1    1    2    0    0 -0.75859157962E-03  0.32654934315E-03  0.18841907146E-05  0.17130000000E+03  0.17130000000E+03 0.  1.
      622    1    1    2    0    0  0.77366614111E-03  0.28019587160E-03  0.32943260056E+01  0.32943274744E+01  0.30000000000E-02 0.  1.
</event>
<event>
 5   0  0.3294100E+10  0.9118800E+02  0.7818608E-02  0.1180000E+00
       11   -1    0    0    0    0  0.00000000000E+00  0.00000000000E+00  0.39999999673E+01  0.40000000000E+01  0.51109989000E-03 0.  1.
     -623   -1    0    0    0    0  0.00000000000E+00  0.00000000000E+00  0.12525980253E-10  0.17130000000E+03  0.17130000000E+03 0. -1.
       11    1    1    2    0    0 -0.16284630601E-02 -0.18732148160E-02  0.78212529040E+00  0.78212939590E+00  0.51109989000E-03 0.  1.
     -623    1    1    2    0    0  0.16687350652E-04 -0.91912171966E-04  0.64750256836E-05  0.17130000000E+03  0.17130000000E+03 0. -1.
      622    1    1    2    0    0  0.16117757094E-02  0.19651269879E-02  0.32178682019E+01  0.32178706041E+01  0.30000000000E-02 0.  1.
</event>
<event>
 5   0  0.3294100E+10  0.9118800E+02  0.7818608E-02  0.1180000E+00
       11   -1    0    0    0    0  0.00000000000E+00  0.00000000000E+00  0.39999999673E+01  0.40000000000E+01  0.51109989000E-03 0.  1.
     -623   -1    0    0    0    0  0.00000000000E+00  0.00000000000E+00  0.12525980253E-10  0.17130000000E+03  0.17130000000E+03 0. -1.
       11    1    1    2    0    0 -0.43160919971E-03  0.54357895131E-03  0.10044017576E+01  0.10044021274E+01  0.51109989000E-03 0.  1.
     -623    1    1    2    0    0  0.15805088094E-02  0.38684524644E-03  0.22119705685E-05  0.17130000001E+03  0.17130000000E+03 0. -1.
      622    1    1    2    0    0 -0.11488995926E-02 -0.93042419356E-03  0.29955959544E+01  0.29955978215E+01  0.30000000000E-02 0.  0.
</event>
<event>
 5   0  0.3294100E+10  0.9118800E+02  0.7818608E-02  0.1180000E+00
       11   -1    0    0    0    0  0.00000000000E+00  0.00000000000E+00  0.39999999673E+01  0.40000000000E+01  0.51109989000E-03 0.  1.
     -623   -1    0    0    0    0  0.00000000000E+00  0.00000000000E+00  0.12525980253E-10  0.17130000000E+03  0.17130000000E+03 0. -1.
       11    1    1    2    0    0 -0.22676557603E-04  0.10312538508E-02  0.78236546789E-01  0.78245015658E-01  0.51109989000E-03 0.  1.
     -623    1    1    2    0    0 -0.61001620767E-04  0.48817455369E-05  0.97214527850E-05  0.17130000000E+03  0.17130000000E+03 0. -1.
      622    1    1    2    0    0  0.83678178979E-04 -0.10361355963E-02  0.39217537391E+01  0.39217550243E+01  0.30000000000E-02 0.  1.
</event>
<event>
 5   0  0.3294100E+10  0.9118800E+02  0.7818608E-02  0.1180000E+00
       11   -1    0    0    0    0  0.00000000000E+00  0.00000000000E+00  0.39999999673E+01  0.40000000000E+01  0.51109989000E-03 0. -1.
     -623   -1    0    0    0    0  0.00000000000E+00  0.00000000000E+00  0.12525980253E-10  0.17130000000E+03  0.17130000000E+03 0.  1.
       11    1    1    2    0    0  0.36253051663E-03 -0.20291856142E-03  0.10960261050E+01  0.10960263030E+01  0.51109989000E-03 0. -1.
     -623    1    1    2    0    0  0.11543975522E-03 -0.10472719411E-03  0.17705722901E-05  0.17130000000E+03  0.17130000000E+03 0.  1.
      622    1    1    2    0    0 -0.47797026972E-03  0.30764575359E-03  0.29039720178E+01  0.29039736231E+01  0.30000000000E-02 0. -1.
</event>
<event>
 5   0  0.3294100E+10  0.9118800E+02  0.7818608E-02  0.1180000E+00
       11   -1    0    0    0    0  0.00000000000E+00  0.00000000000E+00  0.39999999673E+01  0.40000000000E+01  0.51109989000E-03 0. -1.
     -623   -1    0    0    0    0  0.00000000000E+00  0.00000000000E+00  0.12525980253E-10  0.17130000000E+03  0.17130000000E+03 0.  1.
       11    1    1    2    0    0  0.86589114589E-02  0.31188043372E-01  0.10836408008E+01  0.10841242167E+01  0.51109989000E-03 0. -1.
     -623    1    1    2    0    0  0.10291459377E-01 -0.20925444555E-01  0.56615530941E-03  0.17130000159E+03  0.17130000000E+03 0.  1.
      622    1    1    2    0    0 -0.18950370836E-01 -0.10262598816E-01  0.29157930114E+01  0.29158741953E+01  0.30000000000E-02 0. -1.
</event>
<event>
 5   0  0.3294100E+10  0.9118800E+02  0.7818608E-02  0.1180000E+00
       11   -1    0    0    0    0  0.00000000000E+00  0.00000000000E+00  0.39999999673E+01  0.40000000000E+01  0.51109989000E-03 0. -1.
     -623   -1    0    0    0    0  0.00000000000E+00  0.00000000000E+00  0.12525980253E-10  0.17130000000E+03  0.17130000000E+03 0. -1.
       11    1    1    2    0    0  0.60569158307E-04  0.10145022281E-02  0.55209006970E+00  0.55209124170E+00  0.51109989000E-03 0. -1.
     -623    1    1    2    0    0 -0.20340692888E-03 -0.73957125811E-05  0.25946681421E-05  0.17130000000E+03  0.17130000000E+03 0. -1.
      622    1    1    2    0    0  0.14283776749E-03 -0.10071065157E-02  0.34479072423E+01  0.34479086975E+01  0.30000000000E-02 0. -1.
</event>
<event>
 5   0  0.3294100E+10  0.9118800E+02  0.7818608E-02  0.1180000E+00
       11   -1    0    0    0    0  0.00000000000E+00  0.00000000000E+00  0.39999999673E+01  0.40000000000E+01  0.51109989000E-03 0.  1.
     -623   -1    0    0    0    0  0.00000000000E+00  0.00000000000E+00  0.12525980253E-10  0.17130000000E+03  0.17130000000E+03 0. -1.
       11    1    1    2    0    0  0.79373463665E-03 -0.57430849930E-03  0.63097413473E+00  0.63097510234E+00  0.51109989000E-03 0.  1.
     -623    1    1    2    0    0  0.11319902255E-03  0.71546415810E-04  0.24303001886E-05  0.17130000000E+03  0.17130000000E+03 0. -1.
      622    1    1    2    0    0 -0.90693365920E-03  0.50276208349E-03  0.33690234023E+01  0.33690248976E+01  0.30000000000E-02 0.  1.
</event>
<event>
 5   0  0.3294100E+10  0.9118800E+02  0.7818608E-02  0.1180000E+00
       11   -1    0    0    0    0  0.00000000000E+00  0.00000000000E+00  0.39999999673E+01  0.40000000000E+01  0.51109989000E-03 0.  1.
     -623   -1    0    0    0    0  0.00000000000E+00  0.00000000000E+00  0.12525980253E-10  0.17130000000E+03  0.17130000000E+03 0. -1.
       11    1    1    2    0    0  0.13625757304E-02 -0.47238640116E-03  0.12433153587E+00  0.12434094979E+00  0.51109989000E-03 0. -1.
     -623    1    1    2    0    0  0.50385575612E-04 -0.34734386311E-03  0.10886993250E-04  0.17130000000E+03  0.17130000000E+03 0. -1.
      622    1    1    2    0    0 -0.14129613062E-02  0.81973026595E-03  0.38756575638E+01  0.38756590692E+01  0.30000000000E-02 0.  1.
</event>
<event>
 5   0  0.3294100E+10  0.9118800E+02  0.7818608E-02  0.1180000E+00
       11   -1    0    0    0    0  0.00000000000E+00  0.00000000000E+00  0.39999999673E+01  0.40000000000E+01  0.51109989000E-03 0. -1.
     -623   -1    0    0    0    0  0.00000000000E+00  0.00000000000E+00  0.12525980253E-10  0.17130000000E+03  0.17130000000E+03 0. -1.
       11    1    1    2    0    0  0.94266815693E-04  0.10406549318E-02  0.13039422221E+00  0.13039941050E+00  0.51109989000E-03 0. -1.
     -623    1    1    2    0    0  0.38445685498E-04  0.26554927843E-04  0.64680039475E-05  0.17130000000E+03  0.17130000000E+03 0. -1.
      622    1    1    2    0    0 -0.13271250139E-03 -0.10672098597E-02  0.38695992982E+01  0.38696006106E+01  0.30000000000E-02 0. -1.
</event>
<event>
 5   0  0.3294100E+10  0.9118800E+02  0.7818608E-02  0.1180000E+00
       11   -1    0    0    0    0  0.00000000000E+00  0.00000000000E+00  0.39999999673E+01  0.40000000000E+01  0.51109989000E-03 0. -1.
     -623   -1    0    0    0    0  0.00000000000E+00  0.00000000000E+00  0.12525980253E-10  0.17130000000E+03  0.17130000000E+03 0.  1.
       11    1    1    2    0    0  0.17584420469E-02 -0.64439905638E-03  0.91138753916E+00  0.91138960666E+00  0.51109989000E-03 0. -1.
     -623    1    1    2    0    0 -0.70642167656E-04 -0.33942475166E-04  0.40274922299E-05  0.17130000000E+03  0.17130000000E+03 0.  1.
      622    1    1    2    0    0 -0.16877998785E-02  0.67834153193E-03  0.30886084455E+01  0.30886104381E+01  0.30000000000E-02 0. -1.
</event>
<event>
 5   0  0.3294100E+10  0.9118800E+02  0.7818608E-02  0.1180000E+00
       11   -1    0    0    0    0  0.00000000000E+00  0.00000000000E+00  0.39999999673E+01  0.40000000000E+01  0.51109989000E-03 0.  1.
     -623   -1    0    0    0    0  0.00000000000E+00  0.00000000000E+00  0.12525980253E-10  0.17130000000E+03  0.17130000000E+03 0.  1.
       11    1    1    2    0    0 -0.15781403284E-02 -0.29723112195E-02  0.11465835574E+00  0.11470887029E+00  0.51109989000E-03 0.  1.
     -623    1    1    2    0    0 -0.94904091957E-03  0.27442901065E-03  0.53401561953E-04  0.17130000000E+03  0.17130000000E+03 0.  1.
      622    1    1    2    0    0  0.25271812480E-02  0.26978822088E-02  0.38852882101E+01  0.38852911269E+01  0.30000000000E-02 0.  1.
</event>
<event>
 5   0  0.3294100E+10  0.9118800E+02  0.7818608E-02  0.1180000E+00
       11   -1    0    0    0    0  0.00000000000E+00  0.00000000000E+00  0.39999999673E+01  0.40000000000E+01  0.51109989000E-03 0. -1.
     -623   -1    0    0    0    0  0.00000000000E+00  0.00000000000E+00  0.12525980253E-10  0.17130000000E+03  0.17130000000E+03 0.  1.
       11    1    1    2    0    0 -0.13332120232E-01 -0.20219643573E-02  0.10326002034E+01  0.10326883727E+01  0.51109989000E-03 0. -1.
     -623    1    1    2    0    0  0.11982604262E-01  0.85423105606E-03  0.90611054910E-04  0.17130000042E+03  0.17130000000E+03 0.  1.
      622    1    1    2    0    0  0.13495159705E-02  0.11677333012E-02  0.29673091529E+01  0.29673112061E+01  0.30000000000E-02 0. -1.
</event>
<event>
 5   0  0.3294100E+10  0.9118800E+02  0.7818608E-02  0.1180000E+00
       11   -1    0    0    0    0  0.00000000000E+00  0.00000000000E+00  0.39999999673E+01  0.40000000000E+01  0.51109989000E-03 0.  1.
     -623   -1    0    0    0    0  0.00000000000E+00  0.00000000000E+00  0.12525980253E-10  0.17130000000E+03  0.17130000000E+03 0.  1.
       11    1    1    2    0    0 -0.10177392430E-02 -0.11824032708E-02  0.85613661724E+00  0.85613819123E+00  0.51109989000E-03 0.  1.
     -623    1    1    2    0    0 -0.59572352147E-05  0.33025203196E-04  0.33494778138E-05  0.17130000000E+03  0.17130000000E+03 0.  1.
      622    1    1    2    0    0  0.10236964783E-02  0.11493780676E-02  0.31438600006E+01  0.31438618088E+01  0.30000000000E-02 0.  0.
</event>
<event>
 5   0  0.3294100E+10  0.9118800E+02  0.7818608E-02  0.1180000E+00
       11   -1    0    0    0    0  0.00000000000E+00  0.00000000000E+00  0.39999999673E+01  0.40000000000E+01  0.51109989000E-03 0.  1.
     -623   -1    0    0    0    0  0.00000000000E+00  0.00000000000E+00  0.12525980253E-10  0.17130000000E+03  0.17130000000E+03 0.  1.
       11    1    1    2    0    0 -0.12328487098E-02 -0.74389768924E-04  0.65836793474E+00  0.65836929164E+00  0.51109989000E-03 0.  1.
     -623    1    1    2    0    0  0.15501692659E-03  0.38696615984E-03  0.28598540696E-05  0.17130000000E+03  0.17130000000E+03 0.  1.
      622    1    1    2    0    0  0.10778317810E-02 -0.31257639654E-03  0.33416292309E+01  0.33416307660E+01  0.30000000000E-02 0.  1.
</event>
<event>
 5   0  0.3294100E+10  0.9118800E+02  0.7818608E-02  0.1180000E+00
       11   -1    0    0    0    0  0.00000000000E+00  0.00000000000E+00  0.39999999673E+01  0.40000000000E+01  0.51109989000E-03 0. -1.
     -623   -1    0    0    0    0  0.00000000000E+00  0.00000000000E+00  0.12525980253E-10  0.17130000000E+03  0.17130000000E+03 0.  1.
       11    1    1    2    0    0 -0.27188302117E-03 -0.11665973468E-02  0.54395749221E+00  0.54395905124E+00  0.51109989000E-03 0. -1.
     -623    1    1    2    0    0 -0.12552368390E-03  0.70587964606E-04  0.30251536622E-05  0.17130000000E+03  0.17130000000E+03 0.  1.
      622    1    1    2    0    0  0.39740670833E-03  0.10960093803E-02  0.34560395542E+01  0.34560410529E+01  0.30000000000E-02 0. -1.
</event>
<event>
 5   0  0.3294100E+10  0.9118800E+02  0.7818608E-02  0.1180000E+00
       11   -1    0    0    0    0  0.00000000000E+00  0.00000000000E+00  0.39999999673E+01  0.40000000000E+01  0.51109989000E-03 0. -1.
     -623   -1    0    0    0    0  0.00000000000E+00  0.00000000000E+00  0.12525980253E-10  0.17130000000E+03  0.17130000000E+03 0.  1.
       11    1    1    2    0    0  0.46562979757E-03  0.18626140101E-03  0.27736240193E-01  0.27745481570E-01  0.51109989000E-03 0. -1.
     -623    1    1    2    0    0  0.12298651856E-03 -0.17136823107E-03  0.10385364279E-04  0.17130000000E+03  0.17130000000E+03 0.  1.
      622    1    1    2    0    0 -0.58861631718E-03 -0.14893168466E-04  0.39722533760E+01  0.39722545525E+01  0.30000000000E-02 0. -1.
</event>
<event>
 5   0  0.3294100E+10  0.9118800E+02  0.7818608E-02  0.1180000E+00
       11   -1    0    0    0    0  0.00000000000E+00  0.00000000000E+00  0.39999999673E+01  0.40000000000E+01  0.51109989000E-03 0.  1.
     -623   -1    0    0    0    0  0.00000000000E+00  0.00000000000E+00  0.12525980253E-10  0.17130000000E+03  0.17130000000E+03 0. -1.
       11    1    1    2    0    0  0.25302513845E-03  0.90506651058E-04  0.86187738715E+00  0.86187758059E+00  0.51109989000E-03 0.  1.
     -623    1    1    2    0    0 -0.57551543255E-04 -0.29991970207E-04  0.16014571376E-05  0.17130000000E+03  0.17130000000E+03 0. -1.
      622    1    1    2    0    0 -0.19547359519E-03 -0.60514680851E-04  0.31381209787E+01  0.31381224194E+01  0.30000000000E-02 0.  1.
</event>
<event>
 5   0  0.3294100E+10  0.9118800E+02  0.7818608E-02  0.1180000E+00
       11   -1    0    0    0    0  0.00000000000E+00  0.00000000000E+00  0.39999999673E+01  0.40000000000E+01  0.51109989000E-03 0.  1.
     -623   -1    0    0    0    0  0.00000000000E+00  0.00000000000E+00  0.12525980253E-10  0.17130000000E+03  0.17130000000E+03 0.  1.
       11    1    1    2    0    0 -0.38233154351E-03  0.87707605315E-03  0.18731400552E+00  0.18731714638E+00  0.51109989000E-03 0. -1.
     -623    1    1    2    0    0 -0.31244916631E-04  0.74305296405E-05  0.44135212689E-05  0.17130000000E+03  0.17130000000E+03 0.  1.
      622    1    1    2    0    0  0.41357646006E-03 -0.88450658277E-03  0.38126815380E+01  0.38126828433E+01  0.30000000000E-02 0.  1.
</event>
<event>
 5   0  0.3294100E+10  0.9118800E+02  0.7818608E-02  0.1180000E+00
       11   -1    0    0    0    0  0.00000000000E+00  0.00000000000E+00  0.39999999673E+01  0.40000000000E+01  0.51109989000E-03 0. -1.
     -623   -1    0    0    0    0  0.00000000000E+00  0.00000000000E+00  0.12525980253E-10  0.17130000000E+03  0.17130000000E+03 0.  1.
       11    1    1    2    0    0  0.12089560694E-03 -0.15444101328E-03  0.19028079653E+00  0.19028158402E+00  0.51109989000E-03 0. -1.
     -623    1    1    2    0    0 -0.12793122155E-03  0.22144967473E-03  0.19368310924E-05  0.17130000000E+03  0.17130000000E+03 0.  1.
      622    1    1    2    0    0  0.70356185656E-05 -0.67008668284E-04  0.38097173575E+01  0.38097185393E+01  0.30000000000E-02 0. -1.
</event>
<event>
 5   0  0.3294100E+10  0.9118800E+02  0.7818608E-02  0.1180000E+00
       11   -1    0    0    0    0  0.00000000000E+00  0.00000000000E+00  0.39999999673E+01  0.40000000000E+01  0.51109989000E-03 0.  1.
     -623   -1    0    0    0    0  0.00000000000E+00  0.00000000000E+00  0.12525980253E-10  0.17130000000E+03  0.17130000000E+03 0. -1.
       11    1    1    2    0    0  0.41543415874E-02  0.20750292762E-02  0.10918865854E+01  0.10918965798E+01  0.51109989000E-03 0.  1.
     -623    1    1    2    0    0 -0.83905295129E-04  0.23564084710E-03  0.15275967690E-04  0.17130000000E+03  0.17130000000E+03 0. -1.
      622    1    1    2    0    0 -0.40704362919E-02 -0.23106701244E-02  0.29080981245E+01  0.29081034385E+01  0.30000000000E-02 0.  1.
</event>
<event>
 5   0  0.3294100E+10  0.9118800E+02  0.7818608E-02  0.1180000E+00
       11   -1    0    0    0    0  0.00000000000E+00  0.00000000000E+00  0.39999999673E+01  0.40000000000E+01  0.51109989000E-03 0. -1.
     -623   -1    0    0    0    0  0.00000000000E+00  0.00000000000E+00  0.12525980253E-10  0.17130000000E+03  0.17130000000E+03 0. -1.
       11    1    1    2    0    0  0.12029394307E-03 -0.84403665822E-04  0.39677849081E+00  0.39677884720E+00  0.51109989000E-03 0. -1.
     -623    1    1    2    0    0  0.80705646383E-04  0.11393368733E-03  0.15784182552E-05  0.17130000000E+03  0.17130000000E+03 0. -1.
      622    1    1    2    0    0 -0.20099958946E-03 -0.29530021506E-04  0.36032198981E+01  0.36032211527E+01  0.30000000000E-02 0. -1.
</event>
<event>
 5   0  0.3294100E+10  0.9118800E+02  0.7818608E-02  0.1180000E+00
       11   -1    0    0    0    0  0.00000000000E+00  0.00000000000E+00  0.39999999673E+01  0.40000000000E+01  0.51109989000E-03 0. -1.
     -623   -1    0    0    0    0  0.00000000000E+00  0.00000000000E+00  0.12525980253E-10  0.17130000000E+03  0.17130000000E+03 0. -1.
       11    1    1    2    0    0 -0.17702918044E-03 -0.14632977483E-02  0.29955392954E+00  0.29955799190E+00  0.51109989000E-03 0. -1.
     -623    1    1    2    0    0 -0.16024591257E-03 -0.13842923092E-04  0.55560498882E-05  0.17130000000E+03  0.17130000000E+03 0. -1.
      622    1    1    2    0    0  0.33727509301E-03  0.14771406713E-02  0.37004404818E+01  0.37004420080E+01  0.30000000000E-02 0. -1.
</event>
<event>
 5   0  0.3294100E+10  0.9118800E+02  0.7818608E-02  0.1180000E+00
       11   -1    0    0    0    0  0.00000000000E+00  0.00000000000E+00  0.39999999673E+01  0.40000000000E+01  0.51109989000E-03 0.  1.
     -623   -1    0    0    0    0  0.00000000000E+00  0.00000000000E+00  0.12525980253E-10  0.17130000000E+03  0.17130000000E+03 0.  1.
       11    1    1    2    0    0 -0.77275881223E-03  0.51520762783E-03  0.73337615212E+00  0.73337691831E+00  0.51109989000E-03 0.  1.
     -623    1    1    2    0    0 -0.60453126396E-04 -0.62616775358E-04  0.22487615432E-05  0.17130000000E+03  0.17130000000E+03 0.  1.
      622    1    1    2    0    0  0.83321193862E-03 -0.45259085247E-03  0.32666215665E+01  0.32666230817E+01  0.30000000000E-02 0.  1.
</event>
<event>
 5   0  0.3294100E+10  0.9118800E+02  0.7818608E-02  0.1180000E+00
       11   -1    0    0    0    0  0.00000000000E+00  0.00000000000E+00  0.39999999673E+01  0.40000000000E+01  0.51109989000E-03 0.  1.
     -623   -1    0    0    0    0  0.00000000000E+00  0.00000000000E+00  0.12525980253E-10  0.17130000000E+03  0.17130000000E+03 0. -1.
       11    1    1    2    0    0  0.64851384936E-03 -0.13253173516E-02  0.19486074696E+00  0.19486700326E+00  0.51109989000E-03 0.  1.
     -623    1    1    2    0    0 -0.12587926977E-04 -0.17259294864E-04  0.76962732352E-05  0.17130000000E+03  0.17130000000E+03 0. -1.
      622    1    1    2    0    0 -0.63592592238E-03  0.13425766465E-02  0.38051315241E+01  0.38051329967E+01  0.30000000000E-02 0.  1.
</event>
<event>
 5   0  0.3294100E+10  0.9118800E+02  0.7818608E-02  0.1180000E+00
       11   -1    0    0    0    0  0.00000000000E+00  0.00000000000E+00  0.39999999673E+01  0.40000000000E+01  0.51109989000E-03 0.  1.
     -623   -1    0    0    0    0  0.00000000000E+00  0.00000000000E+00  0.12525980253E-10  0.17130000000E+03  0.17130000000E+03 0.  1.
       11    1    1    2    0    0 -0.14684378668E-02  0.25461411958E-02  0.72800967680E+00  0.72801578958E+00  0.51109989000E-03 0.  1.
     -623    1    1    2    0    0 -0.25209197017E-03 -0.86124664264E-03  0.83439802436E-05  0.17130000000E+03  0.17130000000E+03 0.  1.
      622    1    1    2    0    0  0.17205298415E-02 -0.16848945373E-02  0.32719820200E+01  0.32719842815E+01  0.30000000000E-02 0.  1.
</event>
<event>
 5   0  0.3294100E+10  0.9118800E+02  0.7818608E-02  0.1180000E+00
       11   -1    0    0    0    0  0.00000000000E+00  0.00000000000E+00  0.39999999673E+01  0.40000000000E+01  0.51109989000E-03 0. -1.
     -623   -1    0    0    0    0  0.00000000000E+00  0.00000000000E+00  0.12525980253E-10  0.17130000000E+03  0.17130000000E+03 0.  1.
       11    1    1    2    0    0 -0.20488128519E-02 -0.26301805823E-02  0.10756072692E+01  0.10756125577E+01  0.51109989000E-03 0. -1.
     -623    1    1    2    0    0 -0.14624357508E-02 -0.19885510861E-03  0.10277333982E-04  0.17130000001E+03  0.17130000000E+03 0.  1.
      622    1    1    2    0    0  0.35112486080E-02  0.28290356916E-02  0.29243824352E+01  0.29243874504E+01  0.30000000000E-02 0. -1.
</event>
<event>
 5   0  0.3294100E+10  0.9118800E+02  0.7818608E-02  0.1180000E+00
       11   -1    0    0    0    0  0.00000000000E+00  0.00000000000E+00  0.39999999673E+01  0.40000000000E+01  0.51109989000E-03 0.  1.
     -623   -1    0    0    0    0  0.00000000000E+00  0.00000000000E+00  0.12525980253E-10  0.17130000000E+03  0.17130000000E+03 0. -1.
       11    1    1    2    0    0  0.23239072276E-03 -0.33068611668E-03  0.61572855351E-01  0.61576303055E-01  0.51109989000E-03 0.  1.
     -623    1    1    2    0    0 -0.33276805160E-03 -0.15297432801E-03  0.45890219713E-05  0.17130000000E+03  0.17130000000E+03 0. -1.
      622    1    1    2    0    0  0.10037733362E-03  0.48366044689E-03  0.39384225803E+01  0.39384237539E+01  0.30000000000E-02 0.  1.
</event>
<event>
 5   0  0.3294100E+10  0.9118800E+02  0.7818608E-02  0.1180000E+00
       11   -1    0    0    0    0  0.00000000000E+00  0.00000000000E+00  0.39999999673E+01  0.40000000000E+01  0.51109989000E-03 0. -1.
     -623   -1    0    0    0    0  0.00000000000E+00  0.00000000000E+00  0.12525980253E-10  0.17130000000E+03  0.17130000000E+03 0. -1.
       11    1    1    2    0    0 -0.26481958849E-05 -0.84163942848E-03  0.11930089139E+01  0.11930093202E+01  0.51109989000E-03 0. -1.
     -623    1    1    2    0    0  0.35420834370E-03  0.70683192672E-03  0.20039396129E-05  0.17130000000E+03  0.17130000000E+03 0. -1.
      622    1    1    2    0    0 -0.35156016051E-03  0.13480747643E-03  0.28069891929E+01  0.28069908213E+01  0.30000000000E-02 0. -1.
</event>
<event>
 5   0  0.3294100E+10  0.9118800E+02  0.7818608E-02  0.1180000E+00
       11   -1    0    0    0    0  0.00000000000E+00  0.00000000000E+00  0.39999999673E+01  0.40000000000E+01  0.51109989000E-03 0. -1.
     -623   -1    0    0    0    0  0.00000000000E+00  0.00000000000E+00  0.12525980253E-10  0.17130000000E+03  0.17130000000E+03 0.  1.
       11    1    1    2    0    0  0.22321168874E-03 -0.60965029978E-04  0.52114336572E-01  0.52117356415E-01  0.51109989000E-03 0. -1.
     -623    1    1    2    0    0 -0.32762035688E-04  0.76282350798E-04  0.41316976267E-05  0.17130000000E+03  0.17130000000E+03 0.  1.
      622    1    1    2    0    0 -0.19044965304E-03 -0.15317320837E-04  0.39478815000E+01  0.39478826445E+01  0.30000000000E-02 0. -1.
</event>
<event>
 5   0  0.3294100E+10  0.9118800E+02  0.7818608E-02  0.1180000E+00
       11   -1    0    0    0    0  0.00000000000E+00  0.00000000000E+00  0.39999999673E+01  0.40000000000E+01  0.51109989000E-03 0. -1.
     -623   -1    0    0    0    0  0.00000000000E+00  0.00000000000E+00  0.12525980253E-10  0.17130000000E+03  0.17130000000E+03 0.  1.
       11    1    1    2    0    0  0.96370934023E-03 -0.18836280395E-04  0.33483838123E+00  0.33484015867E+00  0.51109989000E-03 0. -1.
     -623    1    1    2    0    0 -0.43042185143E-05  0.33705639312E-04  0.30981797430E-05  0.17130000000E+03  0.17130000000E+03 0.  1.
      622    1    1    2    0    0 -0.95940512161E-03 -0.14869359770E-04  0.36651585892E+01  0.36651599426E+01  0.30000000000E-02 0. -1.
</event>
<event>
 5   0  0.3294100E+10  0.9118800E+02  0.7818608E-02  0.1180000E+00
       11   -1    0    0    0    0  0.00000000000E+00  0.00000000000E+00  0.39999999673E+01  0.40000000000E+01  0.51109989000E-03 0.  1.
     -623   -1    0    0    0    0  0.00000000000E+00  0.00000000000E+00  0.12525980253E-10  0.17130000000E+03  0.17130000000E+03 0.  1.
       11    1    1    2    0    0  0.52275718293E-03 -0.54963745132E-04  0.16760057583E+00  0.16760217939E+00  0.51109989000E-03 0.  1.
     -623    1    1    2    0    0  0.52568283431E-03  0.14304364693E-03  0.28904149740E-05  0.17130000000E+03  0.17130000000E+03 0.  1.
      622    1    1    2    0    0 -0.10484400126E-02 -0.88079900529E-04  0.38323964658E+01  0.38323977844E+01  0.30000000000E-02 0.  0.
</event>
<event>
 5   0  0.3294100E+10  0.9118800E+02  0.7818608E-02  0.1180000E+00
       11   -1    0    0    0    0  0.00000000000E+00  0.00000000000E+00  0.39999999673E+01  0.40000000000E+01  0.51109989000E-03 0.  1.
     -623   -1    0    0    0    0  0.00000000000E+00  0.00000000000E+00  0.12525980253E-10  0.17130000000E+03  0.17130000000E+03 0.  1.
       11    1    1    2    0    0  0.14349513426E-03 -0.71489915610E-04  0.64619774761E-02  0.64841403000E-02  0.51109989000E-03 0.  1.
     -623    1    1    2    0    0 -0.66212148365E-03 -0.52216660094E-03  0.23336889051E-04  0.17130000000E+03  0.17130000000E+03 0.  1.
      622    1    1    2    0    0  0.51862634939E-03  0.59365651655E-03  0.39935146530E+01  0.39935158576E+01  0.30000000000E-02 0.  1.
</event>
<event>
 5   0  0.3294100E+10  0.9118800E+02  0.7818608E-02  0.1180000E+00
       11   -1    0    0    0    0  0.00000000000E+00  0.00000000000E+00  0.39999999673E+01  0.40000000000E+01  0.51109989000E-03 0.  1.
     -623   -1    0    0    0    0  0.00000000000E+00  0.00000000000E+00  0.12525980253E-10  0.17130000000E+03  0.17130000000E+03 0. -1.
       11    1    1    2    0    0  0.76039790928E-03 -0.13320977260E-02  0.40505394263E+00  0.40505716924E+00  0.51109989000E-03 0.  1.
     -623    1    1    2    0    0  0.45726505608E-04  0.14569370402E-04  0.47775509491E-05  0.17130000000E+03  0.17130000000E+03 0. -1.
      622    1    1    2    0    0 -0.80612441530E-03  0.13175283554E-02  0.35949412835E+01  0.35949428671E+01  0.30000000000E-02 0.  1.
</event>
<event>
 5   0  0.3294100E+10  0.9118800E+02  0.7818608E-02  0.1180000E+00
       11   -1    0    0    0    0  0.00000000000E+00  0.00000000000E+00  0.39999999673E+01  0.40000000000E+01  0.51109989000E-03 0. -1.
     -623   -1    0    0    0    0  0.00000000000E+00  0.00000000000E+00  0.12525980253E-10  0.17130000000E+03  0.17130000000E+03 0.  1.
       11    1    1    2    0    0  0.23404946770E-02  0.26161492996E-02  0.65652192269E+00  0.65653150598E+00  0.51109989000E-03 0. -1.
     -623    1    1    2    0    0 -0.24580584287E-03 -0.23335103658E-03  0.12402137441E-04  0.17130000000E+03  0.17130000000E+03 0.  1.
      622    1    1    2    0    0 -0.20946888342E-02 -0.23827982630E-02  0.33434656425E+01  0.33434684937E+01  0.30000000000E-02 0. -1.
</event>
<event>
 5   0  0.3294100E+10  0.9118800E+02  0.7818608E-02  0.1180000E+00
       11   -1    0    0    0    0  0.00000000000E+00  0.00000000000E+00  0.39999999673E+01  0.40000000000E+01  0.51109989000E-03 0. -1.
     -623   -1    0    0    0    0  0.00000000000E+00  0.00000000000E+00  0.12525980253E-10  0.17130000000E+03  0.17130000000E+03 0.  1.
       11    1    1    2    0    0  0.65403842438E-03 -0.67996428701E-03  0.72537256178E+00  0.72537335540E+00  0.51109989000E-03 0. -1.
     -623    1    1    2    0    0  0.16315345802E-03  0.35329966148E-03  0.22538842841E-05  0.17130000000E+03  0.17130000000E+03 0.  1.
      622    1    1    2    0    0 -0.81719188081E-03  0.32666462898E-03  0.32746251126E+01  0.32746266050E+01  0.30000000000E-02 0. -1.
</event>
<event>
 5   0  0.3294100E+10  0.9118800E+02  0.7818608E-02  0.1180000E+00
       11   -1    0    0    0    0  0.00000000000E+00  0.00000000000E+00  0.39999999673E+01  0.40000000000E+01  0.51109989000E-03 0.  1.
     -623   -1    0    0    0    0  0.00000000000E+00  0.00000000000E+00  0.12525980253E-10  0.17130000000E+03  0.17130000000E+03 0. -1.
       11    1    1    2    0    0 -0.41667123829E-03  0.36764055387E-02  0.72718265345E+00  0.72719224575E+00  0.51109989000E-03 0.  1.
     -623    1    1    2    0    0  0.61981624919E-04 -0.35133320549E-04  0.12979467987E-04  0.17130000000E+03  0.17130000000E+03 0. -1.
      622    1    1    2    0    0  0.35468961337E-03 -0.36412722182E-02  0.32728043344E+01  0.32728077542E+01  0.30000000000E-02 0.  1.
</event>
<event>
 5   0  0.3294100E+10  0.9118800E+02  0.7818608E-02  0.1180000E+00
       11   -1    0    0    0    0  0.00000000000E+00  0.00000000000E+00  0.39999999673E+01  0.40000000000E+01  0.51109989000E-03 0. -1.
     -623   -1    0    0    0    0  0.00000000000E+00  0.00000000000E+00  0.12525980253E-10  0.17130000000E+03  0.17130000000E+03 0. -1.
       11    1    1    2    0    0  0.25110625937E-04  0.29209263632E-03  0.29767422478E+00  0.29767480792E+00  0.51109989000E-03 0. -1.
     -623    1    1    2    0    0  0.68162758661E-04 -0.40175237434E-03  0.17692358347E-05  0.17130000000E+03  0.17130000000E+03 0. -1.
      622    1    1    2    0    0 -0.93273387414E-04  0.10965975462E-03  0.37023241386E+01  0.37023253569E+01  0.30000000000E-02 0. -1.
</event>
<event>
 5   0  0.3294100E+10  0.9118800E+02  0.7818608E-02  0.1180000E+00
       11   -1    0    0    0    0  0.00000000000E+00  0.00000000000E+00  0.39999999673E+01  0.40000000000E+01  0.51109989000E-03 0.  1.
     -623   -1    0    0    0    0  0.00000000000E+00  0.00000000000E+00  0.12525980253E-10  0.17130000000E+03  0.17130000000E+03 0. -1.
       11    1    1    2    0    0 -0.25767625862E-02  0.63264204709E-03  0.68762957358E+00  0.68763488250E+00  0.51109989000E-03 0.  1.
     -623    1    1    2    0    0  0.83854169039E-04  0.64554615666E-04  0.76463187328E-05  0.17130000000E+03  0.17130000000E+03 0. -1.
      622    1    1    2    0    0  0.24929084171E-02 -0.69719666276E-03  0.33123627475E+01  0.33123651175E+01  0.30000000000E-02 0.  1.
</event>
<event>
 5   0  0.3294100E+10  0.9118800E+02  0.7818608E-02  0.1180000E+00
       11   -1    0    0    0    0  0.00000000000E+00  0.00000000000E+00  0.39999999673E+01  0.40000000000E+01  0.51109989000E-03 0. -1.
     -623   -1    0    0    0    0  0.00000000000E+00  0.00000000000E+00  0.12525980253E-10  0.17130000000E+03  0.17130000000E+03 0. -1.
       11    1    1    2    0    0  0.87858956562E-04  0.73261263002E-04  0.60484130469E+00  0.60484153145E+00  0.51109989000E-03 0. -1.
     -623    1    1    2    0    0 -0.13638858964E-04 -0.18537349503E-04  0.15207907667E-05  0.17130000000E+03  0.17130000000E+03 0. -1.
      622    1    1    2    0    0 -0.74220097597E-04 -0.54723913499E-04  0.33951571419E+01  0.33951584685E+01  0.30000000000E-02 0. -1.
</event>
<event>
 5   0  0.3294100E+10  0.9118800E+02  0.7818608E-02  0.1180000E+00
       11   -1    0    0    0    0  0.00000000000E+00  0.00000000000E+00  0.39999999673E+01  0.40000000000E+01  0.51109989000E-03 0.  1.
     -623   -1    0    0    0    0  0.00000000000E+00  0.00000000000E+00  0.12525980253E-10  0.17130000000E+03  0.17130000000E+03 0. -1.
       11    1    1    2    0    0 -0.46441583133E-03  0.96828827832E-03  0.51800733546E+00  0.51800870077E+00  0.51109989000E-03 0.  1.
     -623    1    1    2    0    0 -0.73424509323E-03 -0.57290933228E-03  0.28563345027E-05  0.17130000000E+03  0.17130000000E+03 0. -1.
      622    1    1    2    0    0  0.11986609326E-02 -0.39537893980E-03  0.34819898191E+01  0.34819913403E+01  0.30000000000E-02 0.  1.
</event>
<event>
 5   0  0.3294100E+10  0.9118800E+02  0.7818608E-02  0.1180000E+00
       11   -1    0    0    0    0  0.00000000000E+00  0.00000000000E+00  0.39999999673E+01  0.40000000000E+01  0.51109989000E-03 0.  1.
     -623   -1    0    0    0    0  0.00000000000E+00  0.00000000000E+00  0.12525980253E-10  0.17130000000E+03  0.17130000000E+03 0. -1.
       11    1    1    2    0    0 -0.14095212981E-02  0.23126961079E-03  0.97205046505E-01  0.97216883950E-01  0.51109989000E-03 0.  1.
     -623    1    1    2    0    0  0.73786752664E-04  0.25194129110E-03  0.13216522957E-04  0.17130000000E+03  0.17130000000E+03 0. -1.
      622    1    1    2    0    0  0.13357345446E-02 -0.48321090473E-03  0.39027817494E+01  0.39027831610E+01  0.30000000000E-02 0.  1.
</event>
<event>
 5   0  0.3294100E+10  0.9118800E+02  0.7818608E-02  0.1180000E+00
       11   -1    0    0    0    0  0.00000000000E+00  0.00000000000E+00  0.39999999673E+01  0.40000000000E+01  0.51109989000E-03 0.  1.
     -623   -1    0    0    0    0  0.00000000000E+00  0.00000000000E+00  0.12525980253E-10  0.17130000000E+03  0.17130000000E+03 0. -1.
       11    1    1    2    0    0 -0.47211525917E-02 -0.22777579763E-02  0.31216816925E+00  0.31221259516E+00  0.51109989000E-03 0.  1.
     -623    1    1    2    0    0  0.10640797349E-02  0.20690941666E-03  0.48011694908E-04  0.17130000000E+03  0.17130000000E+03 0. -1.
      622    1    1    2    0    0  0.36570728568E-02  0.20708485597E-02  0.36877837864E+01  0.36877874014E+01  0.30000000000E-02 0.  1.
</event>
<event>
 5   0  0.3294100E+10  0.9118800E+02  0.7818608E-02  0.1180000E+00
       11   -1    0    0    0    0  0.00000000000E+00  0.00000000000E+00  0.39999999673E+01  0.40000000000E+01  0.51109989000E-03 0. -1.
     -623   -1    0    0    0    0  0.00000000000E+00  0.00000000000E+00  0.12525980253E-10  0.17130000000E+03  0.17130000000E+03 0.  1.
       11    1    1    2    0    0 -0.46019370882E-03  0.49906499520E-03  0.61692451018E+00  0.61692509539E+00  0.51109989000E-03 0. -1.
     -623    1    1    2    0    0  0.20244096454E-03 -0.22946193289E-03  0.19035607739E-05  0.17130000000E+03  0.17130000000E+03 0.  1.
      622    1    1    2    0    0  0.25775274340E-03 -0.26960306132E-03  0.33830735710E+01  0.33830749217E+01  0.30000000000E-02 0. -1.
</event>
<event>
 5   0  0.3294100E+10  0.9118800E+02  0.7818608E-02  0.1180000E+00
       11   -1    0    0    0    0  0.00000000000E+00  0.00000000000E+00  0.39999999673E+01  0.40000000000E+01  0.51109989000E-03 0. -1.
     -623   -1    0    0    0    0  0.00000000000E+00  0.00000000000E+00  0.12525980253E-10  0.17130000000E+03  0.17130000000E+03 0. -1.
       11    1    1    2    0    0 -0.10950910825E-02  0.12800434857E-02  0.52582850891E+00  0.52583145564E+00  0.51109989000E-03 0. -1.
     -623    1    1    2    0    0  0.44761529190E-04  0.14494825627E-04  0.46093254169E-05  0.17130000000E+03  0.17130000000E+03 0. -1.
      622    1    1    2    0    0  0.10503295533E-02 -0.12945383113E-02  0.34741668491E+01  0.34741685444E+01  0.30000000000E-02 0. -1.
</event>
<event>
 5   0  0.3294100E+10  0.9118800E+02  0.7818608E-02  0.1180000E+00
       11   -1    0    0    0    0  0.00000000000E+00  0.00000000000E+00  0.39999999673E+01  0.40000000000E+01  0.51109989000E-03 0. -1.
     -623   -1    0    0    0    0  0.00000000000E+00  0.00000000000E+00  0.12525980253E-10  0.17130000000E+03  0.17130000000E+03 0. -1.
       11    1    1    2    0    0 -0.64719887028E-03  0.25934107107E-04  0.63383386545E+00  0.63383440247E+00  0.51109989000E-03 0. -1.
     -623    1    1    2    0    0  0.32897364074E-03  0.41424942901E-03  0.18858514039E-05  0.17130000000E+03  0.17130000000E+03 0. -1.
      622    1    1    2    0    0  0.31822523503E-03 -0.44018352920E-03  0.33661641493E+01  0.33661655300E+01  0.30000000000E-02 0. -1.
</event>
<event>
 5   0  0.3294100E+10  0.9118800E+02  0.7818608E-02  0.1180000E+00
       11   -1    0    0    0    0  0.00000000000E+00  0.00000000000E+00  0.39999999673E+01  0.40000000000E+01  0.51109989000E-03 0.  1.
     -623   -1    0    0    0    0  0.00000000000E+00  0.00000000000E+00  0.12525980253E-10  0.17130000000E+03  0.17130000000E+03 0.  1.
       11    1    1    2    0    0  0.21321702169E-02 -0.48193343804E-02  0.20362572553E+00  0.20369454940E+00  0.51109989000E-03 0.  1.
     -623    1    1    2    0    0 -0.18584324914E-01 -0.58261987258E-02  0.12165977645E-03  0.17130000111E+03  0.17130000000E+03 0.  1.
      622    1    1    2    0    0  0.16452154710E-01  0.10645533110E-01  0.37962525849E+01  0.37963043462E+01  0.30000000000E-02 0.  1.
</event>
<event>
 5   0  0.3294100E+10  0.9118800E+02  0.7818608E-02  0.1180000E+00
       11   -1    0    0    0    0  0.00000000000E+00  0.00000000000E+00  0.39999999673E+01  0.40000000000E+01  0.51109989000E-03 0.  1.
     -623   -1    0    0    0    0  0.00000000000E+00  0.00000000000E+00  0.12525980253E-10  0.17130000000E+03  0.17130000000E+03 0. -1.
       11    1    1    2    0    0  0.22909650471E-03 -0.26915495276E-03  0.53489797179E+00  0.53489833274E+00  0.51109989000E-03 0.  1.
     -623    1    1    2    0    0  0.73556192822E-05 -0.30108356680E-04  0.16479745248E-05  0.17130000000E+03  0.17130000000E+03 0. -1.
      622    1    1    2    0    0 -0.23645212399E-03  0.29926330944E-03  0.34651003476E+01  0.34651016673E+01  0.30000000000E-02 0.  1.
</event>
<event>
 5   0  0.3294100E+10  0.9118800E+02  0.7818608E-02  0.1180000E+00
       11   -1    0    0    0    0  0.00000000000E+00  0.00000000000E+00  0.39999999673E+01  0.40000000000E+01  0.51109989000E-03 0.  1.
     -623   -1    0    0    0    0  0.00000000000E+00  0.00000000000E+00  0.12525980253E-10  0.17130000000E+03  0.17130000000E+03 0.  1.
       11    1    1    2    0    0 -0.22277371172E-03  0.31461056889E-03  0.23156688798E+00  0.23156777288E+00  0.51109989000E-03 0.  1.
     -623    1    1    2    0    0 -0.11424966959E-03 -0.85785399506E-04  0.20684747448E-05  0.17130000000E+03  0.17130000000E+03 0.  1.
      622    1    1    2    0    0  0.33702338780E-03 -0.22882516452E-03  0.37684312381E+01  0.37684324543E+01  0.30000000000E-02 0.  1.
</event>
<event>
 5   0  0.3294100E+10  0.9118800E+02  0.7818608E-02  0.1180000E+00
       11   -1    0    0    0    0  0.00000000000E+00  0.00000000000E+00  0.39999999673E+01  0.40000000000E+01  0.51109989000E-03 0.  1.
     -623   -1    0    0    0    0  0.00000000000E+00  0.00000000000E+00  0.12525980253E-10  0.17130000000E+03  0.17130000000E+03 0.  1.
       11    1    1    2    0    0 -0.47509334438E-03  0.37830974699E-03  0.86289783711E-02  0.86654095562E-02  0.51109989000E-03 0. -1.
     -623    1    1    2    0    0 -0.39801264367E-04  0.34155804409E-04  0.37580523417E-04  0.17130000000E+03  0.17130000000E+03 0.  1.
      622    1    1    2    0    0  0.51489460875E-03 -0.41246555141E-03  0.39913334090E+01  0.39913345910E+01  0.30000000000E-02 0.  1.
</event>
<event>
 5   0  0.3294100E+10  0.9118800E+02  0.7818608E-02  0.1180000E+00
       11   -1    0    0    0    0  0.00000000000E+00  0.00000000000E+00  0.39999999673E+01  0.40000000000E+01  0.51109989000E-03 0. -1.
     -623   -1    0    0    0    0  0.00000000000E+00  0.00000000000E+00  0.12525980253E-10  0.17130000000E+03  0.17130000000E+03 0. -1.
       11    1    1    2    0    0  0.86146311291E-03  0.29099436822E-03  0.74178364765E+00  0.74178438103E+00  0.51109989000E-03 0. -1.
     -623    1    1    2    0    0 -0.11803300845E-04  0.18982698606E-04  0.22073962058E-05  0.17130000000E+03  0.17130000000E+03 0. -1.
      622    1    1    2    0    0 -0.84965981257E-03 -0.30997706602E-03  0.32582139420E+01  0.32582154487E+01  0.30000000000E-02 0. -1.
</event>
<event>
 5   0  0.3294100E+10  0.9118800E+02  0.7818608E-02  0.1180000E+00
       11   -1    0    0    0    0  0.00000000000E+00  0.00000000000E+00  0.39999999673E+01  0.40000000000E+01  0.51109989000E-03 0.  1.
     -623   -1    0    0    0    0  0.00000000000E+00  0.00000000000E+00  0.12525980253E-10  0.17130000000E+03  0.17130000000E+03 0. -1.
       11    1    1    2    0    0  0.10293653170E-03 -0.25868075590E-03  0.14080924995E+00  0.14081045276E+00  0.51109989000E-03 0.  1.
     -623    1    1    2    0    0  0.46091294547E-04 -0.16211035355E-04  0.23488919991E-05  0.17130000000E+03  0.17130000000E+03 0. -1.
      622    1    1    2    0    0 -0.14902782544E-03  0.27489179097E-03  0.38591882985E+01  0.38591894772E+01  0.30000000000E-02 0.  1.
</event>
<event>
 5   0  0.3294100E+10  0.9118800E+02  0.7818608E-02  0.1180000E+00
       11   -1    0    0    0    0  0.00000000000E+00  0.00000000000E+00  0.39999999673E+01  0.40000000000E+01  0.51109989000E-03 0.  1.
     -623   -1    0    0    0    0  0.00000000000E+00  0.00000000000E+00  0.12525980253E-10  0.17130000000E+03  0.17130000000E+03 0. -1.
       11    1    1    2    0    0  0.23245155601E-03 -0.90366785448E-03  0.25023579055E+00  0.25023805215E+00  0.51109989000E-03 0.  1.
     -623    1    1    2    0    0  0.83835132874E-04 -0.25310491503E-04  0.35574692663E-05  0.17130000000E+03  0.17130000000E+03 0. -1.
      622    1    1    2    0    0 -0.31628668888E-03  0.92897834599E-03  0.37497606193E+01  0.37497619478E+01  0.30000000000E-02 0.  1.
</event>
<event>
 5   0  0.3294100E+10  0.9118800E+02  0.7818608E-02  0.1180000E+00
       11   -1    0    0    0    0  0.00000000000E+00  0.00000000000E+00  0.39999999673E+01  0.40000000000E+01  0.51109989000E-03 0.  1.
     -623   -1    0    0    0    0  0.00000000000E+00  0.00000000000E+00  0.12525980253E-10  0.17130000000E+03  0.17130000000E+03 0.  1.
       11    1    1    2    0    0  0.37453606521E-03  0.36960042763E-03  0.42678656059E+00  0.42678719100E+00  0.51109989000E-03 0.  1.
     -623    1    1    2    0    0 -0.98240071168E-04  0.28654035910E-04  0.18900515646E-05  0.17130000000E+03  0.17130000000E+03 0.  1.
      622    1    1    2    0    0 -0.27629599429E-03 -0.39825446347E-03  0.35732115066E+01  0.35732127989E+01  0.30000000000E-02 0.  1.
</event>
<event>
 5   0  0.3294100E+10  0.9118800E+02  0.7818608E-02  0.1180000E+00
       11   -1    0    0    0    0  0.00000000000E+00  0.00000000000E+00  0.39999999673E+01  0.40000000000E+01  0.51109989000E-03 0.  1.
     -623   -1    0    0    0    0  0.00000000000E+00  0.00000000000E+00  0.12525980253E-10  0.17130000000E+03  0.17130000000E+03 0.  1.
       11    1    1    2    0    0 -0.56308146872E-03 -0.52444459602E-03  0.12312194588E+00  0.12312541120E+00  0.51109989000E-03 0.  1.
     -623    1    1    2    0    0  0.17819694713E-04  0.14076311717E-03  0.46507978171E-05  0.17130000000E+03  0.17130000000E+03 0.  1.
      622    1    1    2    0    0  0.54526177358E-03  0.38368147551E-03  0.38768734658E+01  0.38768746839E+01  0.30000000000E-02 0.  1.
</event>
<event>
 5   0  0.3294100E+10  0.9118800E+02  0.7818608E-02  0.1180000E+00
       11   -1    0    0    0    0  0.00000000000E+00  0.00000000000E+00  0.39999999673E+01  0.40000000000E+01  0.51109989000E-03 0. -1.
     -623   -1    0    0    0    0  0.00000000000E+00  0.00000000000E+00  0.12525980253E-10  0.17130000000E+03  0.17130000000E+03 0. -1.
       11    1    1    2    0    0 -0.59120973162E-03 -0.96352014278E-03  0.81175380105E-02  0.82117931332E-02  0.51109989000E-03 0. -1.
     -623    1    1    2    0    0 -0.46840659031E-03  0.94320725826E-03  0.95493749654E-04  0.17130000000E+03  0.17130000000E+03 0. -1.
      622    1    1    2    0    0  0.10596163215E-02  0.20312885398E-04  0.39917869319E+01  0.39917881999E+01  0.30000000000E-02 0. -1.
</event>
<event>
 5   0  0.3294100E+10  0.9118800E+02  0.7818608E-02  0.1180000E+00
       11   -1    0    0    0    0  0.00000000000E+00  0.00000000000E+00  0.39999999673E+01  0.40000000000E+01  0.51109989000E-03 0. -1.
     -623   -1    0    0    0    0  0.00000000000E+00  0.00000000000E+00  0.12525980253E-10  0.17130000000E+03  0.17130000000E+03 0.  1.
       11    1    1    2    0    0 -0.38096684930E-03 -0.89721471021E-04  0.46740888296E+00  0.46740932626E+00  0.51109989000E-03 0. -1.
     -623    1    1    2    0    0  0.11061019278E-02  0.26731611222E-02  0.27280240484E-05  0.17130000002E+03  0.17130000000E+03 0.  1.
      622    1    1    2    0    0 -0.72513507850E-03 -0.25834396512E-02  0.35325883564E+01  0.35325906493E+01  0.30000000000E-02 0. -1.
</event>
<event>
 5   0  0.3294100E+10  0.9118800E+02  0.7818608E-02  0.1180000E+00
       11   -1    0    0    0    0  0.00000000000E+00  0.00000000000E+00  0.39999999673E+01  0.40000000000E+01  0.51109989000E-03 0.  1.
     -623   -1    0    0    0    0  0.00000000000E+00  0.00000000000E+00  0.12525980253E-10  0.17130000000E+03  0.17130000000E+03 0. -1.
       11    1    1    2    0    0 -0.27043434869E-02  0.11147570394E-01  0.10000310452E+01  0.10000969625E+01  0.51109989000E-03 0.  1.
     -623    1    1    2    0    0  0.31146821722E-03  0.12069893179E-03  0.89502481898E-04  0.17130000000E+03  0.17130000000E+03 0. -1.
      622    1    1    2    0    0  0.23928752699E-02 -0.11268269326E-01  0.29998794171E+01  0.29999030346E+01  0.30000000000E-02 0.  1.
</event>
<event>
 5   0  0.3294100E+10  0.9118800E+02  0.7818608E-02  0.1180000E+00
       11   -1    0    0    0    0  0.00000000000E+00  0.00000000000E+00  0.39999999673E+01  0.40000000000E+01  0.51109989000E-03 0. -1.
     -623   -1    0    0    0    0  0.00000000000E+00  0.00000000000E+00  0.12525980253E-10  0.17130000000E+03  0.17130000000E+03 0. -1.
       11    1    1    2    0    0  0.36304972226E-03 -0.93726914127E-03  0.50230297417E+00  0.50230423984E+00  0.51109989000E-03 0.  1.
     -623    1    1    2    0    0  0.30491251571E-04 -0.14187821306E-03  0.27082681191E-05  0.17130000000E+03  0.17130000000E+03 0. -1.
      622    1    1    2    0    0 -0.39354097362E-03  0.10791473534E-02  0.34976942578E+01  0.34976957330E+01  0.30000000000E-02 0. -1.
</event>
<event>
 5   0  0.3294100E+10  0.9118800E+02  0.7818608E-02  0.1180000E+00
       11   -1    0    0    0    0  0.00000000000E+00  0.00000000000E+00  0.39999999673E+01  0.40000000000E+01  0.51109989000E-03 0.  1.
     -623   -1    0    0    0    0  0.00000000000E+00  0.00000000000E+00  0.12525980253E-10  0.17130000000E+03  0.17130000000E+03 0. -1.
       11    1    1    2    0    0  0.32351290452E-02 -0.12321414961E-02  0.30983395762E+00  0.30985371831E+00  0.51109989000E-03 0.  1.
     -623    1    1    2    0    0 -0.89677508609E-04 -0.17458435138E-03  0.22556334102E-04  0.17130000000E+03  0.17130000000E+03 0. -1.
      622    1    1    2    0    0 -0.31454515366E-02  0.14067258474E-02  0.36901434534E+01  0.36901462816E+01  0.30000000000E-02 0.  1.
</event>
<event>
 5   0  0.3294100E+10  0.9118800E+02  0.7818608E-02  0.1180000E+00
       11   -1    0    0    0    0  0.00000000000E+00  0.00000000000E+00  0.39999999673E+01  0.40000000000E+01  0.51109989000E-03 0.  1.
     -623   -1    0    0    0    0  0.00000000000E+00  0.00000000000E+00  0.12525980253E-10  0.17130000000E+03  0.17130000000E+03 0. -1.
       11    1    1    2    0    0  0.99558422346E-03  0.29128241198E-02  0.28496360498E+00  0.28498068902E+00  0.51109989000E-03 0.  1.
     -623    1    1    2    0    0 -0.12227197879E-02 -0.68800391080E-03  0.18941584797E-04  0.17130000001E+03  0.17130000000E+03 0. -1.
      622    1    1    2    0    0  0.22713556442E-03 -0.22248202090E-02  0.37150174208E+01  0.37150193052E+01  0.30000000000E-02 0.  1.
</event>
<event>
 5   0  0.3294100E+10  0.9118800E+02  0.7818608E-02  0.1180000E+00
       11   -1    0    0    0    0  0.00000000000E+00  0.00000000000E+00  0.39999999673E+01  0.40000000000E+01  0.51109989000E-03 0.  1.
     -623   -1    0    0    0    0  0.00000000000E+00  0.00000000000E+00  0.12525980253E-10  0.17130000000E+03  0.17130000000E+03 0.  1.
       11    1    1    2    0    0  0.75795333806E-03 -0.20037165088E-02  0.41072159648E+00  0.41072750140E+00  0.51109989000E-03 0.  1.
     -623    1    1    2    0    0 -0.17642937718E-04 -0.24533113135E-04  0.77754404484E-05  0.17130000000E+03  0.17130000000E+03 0.  1.
      622    1    1    2    0    0 -0.74031040034E-03  0.20282496219E-02  0.35892705966E+01  0.35892724997E+01  0.30000000000E-02 0.  1.
</event>
<event>
 5   0  0.3294100E+10  0.9118800E+02  0.7818608E-02  0.1180000E+00
       11   -1    0    0    0    0  0.00000000000E+00  0.00000000000E+00  0.39999999673E+01  0.40000000000E+01  0.51109989000E-03 0. -1.
     -623   -1    0    0    0    0  0.00000000000E+00  0.00000000000E+00  0.12525980253E-10  0.17130000000E+03  0.17130000000E+03 0.  1.
       11    1    1    2    0    0 -0.16331187297E-02 -0.12482219010E-02  0.52078917980E-02  0.56221429828E-02  0.51109989000E-03 0. -1.
     -623    1    1    2    0    0  0.15750413514E-02 -0.16504785347E-03  0.41560339307E-03  0.17130000001E+03  0.17130000000E+03 0.  1.
      622    1    1    2    0    0  0.58077378355E-04  0.14132697545E-02  0.39943764722E+01  0.39943778492E+01  0.30000000000E-02 0. -1.
</event>
<event>
 5   0  0.3294100E+10  0.9118800E+02  0.7818608E-02  0.1180000E+00
       11   -1    0    0    0    0  0.00000000000E+00  0.00000000000E+00  0.39999999673E+01  0.40000000000E+01  0.51109989000E-03 0.  1.
     -623   -1    0    0    0    0  0.00000000000E+00  0.00000000000E+00  0.12525980253E-10  0.17130000000E+03  0.17130000000E+03 0.  1.
       11    1    1    2    0    0  0.19452434289E-03 -0.82257382937E-03  0.72057083614E-01  0.72063853557E-01  0.51109989000E-03 0.  1.
     -623    1    1    2    0    0  0.69031718908E-03  0.52230150472E-03  0.79962709782E-05  0.17130000000E+03  0.17130000000E+03 0.  1.
      622    1    1    2    0    0 -0.88484153633E-03  0.30027232134E-03  0.39279349128E+01  0.39279361696E+01  0.30000000000E-02 0.  1.
</event>
<event>
 5   0  0.3294100E+10  0.9118800E+02  0.7818608E-02  0.1180000E+00
       11   -1    0    0    0    0  0.00000000000E+00  0.00000000000E+00  0.39999999673E+01  0.40000000000E+01  0.51109989000E-03 0.  1.
     -623   -1    0    0    0    0  0.00000000000E+00  0.00000000000E+00  0.12525980253E-10  0.17130000000E+03  0.17130000000E+03 0. -1.
       11    1    1    2    0    0 -0.67747503844E-03  0.38738388942E-02  0.75006127871E+00  0.75007176233E+00  0.51109989000E-03 0.  1.
     -623    1    1    2    0    0 -0.90880443445E-03 -0.18583333501E-02  0.12860222415E-04  0.17130000001E+03  0.17130000000E+03 0. -1.
      622    1    1    2    0    0  0.15862794729E-02 -0.20155055442E-02  0.32499258284E+01  0.32499282252E+01  0.30000000000E-02 0.  1.
</event>
<event>
 5   0  0.3294100E+10  0.9118800E+02  0.7818608E-02  0.1180000E+00
       11   -1    0    0    0    0  0.00000000000E+00  0.00000000000E+00  0.39999999673E+01  0.40000000000E+01  0.51109989000E-03 0. -1.
     -623   -1    0    0    0    0  0.00000000000E+00  0.00000000000E+00  0.12525980253E-10  0.17130000000E+03  0.17130000000E+03 0.  1.
       11    1    1    2    0    0  0.35255545173E-03 -0.30284526484E-02  0.24697516124E+00  0.24699450867E+00  0.51109989000E-03 0. -1.
     -623    1    1    2    0    0 -0.14196514892E-04 -0.12316856816E-02  0.22951409485E-04  0.17130000000E+03  0.17130000000E+03 0.  1.
      622    1    1    2    0    0 -0.33835893684E-03  0.42601383300E-02  0.37530018547E+01  0.37530054869E+01  0.30000000000E-02 0. -1.
</event>
<event>
 5   0  0.3294100E+10  0.9118800E+02  0.7818608E-02  0.1180000E+00
       11   -1    0    0    0    0  0.00000000000E+00  0.00000000000E+00  0.39999999673E+01  0.40000000000E+01  0.51109989000E-03 0. -1.
     -623   -1    0    0    0    0  0.00000000000E+00  0.00000000000E+00  0.12525980253E-10  0.17130000000E+03  0.17130000000E+03 0.  1.
       11    1    1    2    0    0  0.43632302262E-03  0.87819515950E-03  0.95688938347E+00  0.95689002242E+00  0.51109989000E-03 0. -1.
     -623    1    1    2    0    0 -0.12311572682E-03  0.13777448181E-07  0.22279533911E-05  0.17130000000E+03  0.17130000000E+03 0.  1.
      622    1    1    2    0    0 -0.31320729221E-03 -0.87820893695E-03  0.30431084726E+01  0.30431100942E+01  0.30000000000E-02 0. -1.
</event>
<event>
 5   0  0.3294100E+10  0.9118800E+02  0.7818608E-02  0.1180000E+00
       11   -1    0    0    0    0  0.00000000000E+00  0.00000000000E+00  0.39999999673E+01  0.40000000000E+01  0.51109989000E-03 0.  1.
     -623   -1    0    0    0    0  0.00000000000E+00  0.00000000000E+00  0.12525980253E-10  0.17130000000E+03  0.17130000000E+03 0. -1.
       11    1    1    2    0    0  0.15617303636E-03 -0.32001035869E-04  0.34694231220E-03  0.63797033562E-03  0.51109989000E-03 0. -1.
     -623    1    1    2    0    0  0.54129345878E-03  0.62209612176E-03  0.29222714768E-03  0.17130000000E+03  0.17130000000E+03 0. -1.
      622    1    1    2    0    0 -0.69746649509E-03 -0.59009508584E-03  0.39993607976E+01  0.39993620271E+01  0.30000000000E-02 0.  1.
</event>
<event>
 5   0  0.3294100E+10  0.9118800E+02  0.7818608E-02  0.1180000E+00
       11   -1    0    0    0    0  0.00000000000E+00  0.00000000000E+00  0.39999999673E+01  0.40000000000E+01  0.51109989000E-03 0.  1.
     -623   -1    0    0    0    0  0.00000000000E+00  0.00000000000E+00  0.12525980253E-10  0.17130000000E+03  0.17130000000E+03 0.  1.
       11    1    1    2    0    0 -0.74356367110E-03 -0.16726306624E-03  0.42496733849E+00  0.42496832925E+00  0.51109989000E-03 0.  1.
     -623    1    1    2    0    0  0.84530818180E-04 -0.29097024162E-04  0.22830135369E-05  0.17130000000E+03  0.17130000000E+03 0.  1.
      622    1    1    2    0    0  0.65903285292E-03  0.19636009041E-03  0.35750303459E+01  0.35750316707E+01  0.30000000000E-02 0.  1.
</event>
<event>
 5   0  0.3294100E+10  0.9118800E+02  0.7818608E-02  0.1180000E+00
       11   -1    0    0    0    0  0.00000000000E+00  0.00000000000E+00  0.39999999673E+01  0.40000000000E+01  0.51109989000E-03 0.  1.
     -623   -1    0    0    0    0  0.00000000000E+00  0.00000000000E+00  0.12525980253E-10  0.17130000000E+03  0.17130000000E+03 0. -1.
       11    1    1    2    0    0 -0.10195182448E-02 -0.47391538675E-03  0.35581141737E+00  0.35581356069E+00  0.51109989000E-03 0.  1.
     -623    1    1    2    0    0 -0.94433875440E-04  0.64331151520E-04  0.35388267103E-05  0.17130000000E+03  0.17130000000E+03 0. -1.
      622    1    1    2    0    0  0.11139521203E-02  0.40958423523E-03  0.36441850112E+01  0.36441864393E+01  0.30000000000E-02 0.  1.
</event>
<event>
 5   0  0.3294100E+10  0.9118800E+02  0.7818608E-02  0.1180000E+00
       11   -1    0    0    0    0  0.00000000000E+00  0.00000000000E+00  0.39999999673E+01  0.40000000000E+01  0.51109989000E-03 0. -1.
     -623   -1    0    0    0    0  0.00000000000E+00  0.00000000000E+00  0.12525980253E-10  0.17130000000E+03  0.17130000000E+03 0. -1.
       11    1    1    2    0    0  0.31890923837E-03 -0.53736122000E-03  0.29007226836E+00  0.29007339167E+00  0.51109989000E-03 0. -1.
     -623    1    1    2    0    0 -0.82199138165E-03 -0.94862547615E-04  0.23936078217E-05  0.17130000000E+03  0.17130000000E+03 0. -1.
      622    1    1    2    0    0  0.50308214328E-03  0.63222376761E-03  0.37099253054E+01  0.37099266063E+01  0.30000000000E-02 0. -1.
</event>
<event>
 5   0  0.3294100E+10  0.9118800E+02  0.7818608E-02  0.1180000E+00
       11   -1    0    0    0    0  0.00000000000E+00  0.00000000000E+00  0.39999999673E+01  0.40000000000E+01  0.51109989000E-03 0. -1.
     -623   -1    0    0    0    0  0.00000000000E+00  0.00000000000E+00  0.12525980253E-10  0.17130000000E+03  0.17130000000E+03 0. -1.
       11    1    1    2    0    0 -0.85523723713E-03 -0.47769531040E-03  0.67770703800E+00  0.67770793872E+00  0.51109989000E-03 0. -1.
     -623    1    1    2    0    0 -0.51764572475E-04  0.99914103938E-04  0.23678885483E-05  0.17130000000E+03  0.17130000000E+03 0. -1.
      622    1    1    2    0    0  0.90700181071E-03  0.37778120433E-03  0.33222906468E+01  0.33222921466E+01  0.30000000000E-02 0. -1.
</event>
<event>
 5   0  0.3294100E+10  0.9118800E+02  0.7818608E-02  0.1180000E+00
       11   -1    0    0    0    0  0.00000000000E+00  0.00000000000E+00  0.39999999673E+01  0.40000000000E+01  0.51109989000E-03 0.  1.
     -623   -1    0    0    0    0  0.00000000000E+00  0.00000000000E+00  0.12525980253E-10  0.17130000000E+03  0.17130000000E+03 0.  1.
       11    1    1    2    0    0  0.85956562143E-04  0.83074568649E-04  0.17745259214E+00  0.17745336844E+00  0.51109989000E-03 0.  1.
     -623    1    1    2    0    0  0.21726282381E-04  0.54970478176E-04  0.19249039109E-05  0.17130000000E+03  0.17130000000E+03 0.  1.
      622    1    1    2    0    0 -0.10768284477E-03 -0.13804504745E-03  0.38225454954E+01  0.38225466766E+01  0.30000000000E-02 0.  1.
</event>
<event>
 5   0  0.3294100E+10  0.9118800E+02  0.7818608E-02  0.1180000E+00
       11   -1    0    0    0    0  0.00000000000E+00  0.00000000000E+00  0.39999999673E+01  0.40000000000E+01  0.51109989000E-03 0.  1.
     -623   -1    0    0    0    0  0.00000000000E+00  0.00000000000E+00  0.12525980253E-10  0.17130000000E+03  0.17130000000E+03 0.  1.
       11    1    1    2    0    0  0.56955576153E-03  0.27981593767E-03  0.93244466605E-01  0.93248026608E-01  0.51109989000E-03 0. -1.
     -623    1    1    2    0    0  0.40918291731E-04  0.26059235854E-04  0.47388926303E-05  0.17130000000E+03  0.17130000000E+03 0.  1.
      622    1    1    2    0    0 -0.61047405398E-03 -0.30587517398E-03  0.39067508318E+01  0.39067520434E+01  0.30000000000E-02 0.  1.
</event>
<event>
 5   0  0.3294100E+10  0.9118800E+02  0.7818608E-02  0.1180000E+00
       11   -1    0    0    0    0  0.00000000000E+00  0.00000000000E+00  0.39999999673E+01  0.40000000000E+01  0.51109989000E-03 0. -1.
     -623   -1    0    0    0    0  0.00000000000E+00  0.00000000000E+00  0.12525980253E-10  0.17130000000E+03  0.17130000000E+03 0. -1.
       11    1    1    2    0    0 -0.72786076992E-03  0.90629602390E-03  0.48021155480E+00  0.48021323361E+00  0.51109989000E-03 0. -1.
     -623    1    1    2    0    0 -0.13524261635E-04 -0.48145519873E-04  0.31073610942E-05  0.17130000000E+03  0.17130000000E+03 0. -1.
      622    1    1    2    0    0  0.74138503156E-03 -0.85815050403E-03  0.35197853052E+01  0.35197867664E+01  0.30000000000E-02 0. -1.
</event>
<event>
 5   0  0.3294100E+10  0.9118800E+02  0.7818608E-02  0.1180000E+00
       11   -1    0    0    0    0  0.00000000000E+00  0.00000000000E+00  0.39999999673E+01  0.40000000000E+01  0.51109989000E-03 0. -1.
     -623   -1    0    0    0    0  0.00000000000E+00  0.00000000000E+00  0.12525980253E-10  0.17130000000E+03  0.17130000000E+03 0.  1.
       11    1    1    2    0    0  0.16193269580E-02  0.18422795596E-02  0.15810757286E+00  0.15812742340E+00  0.51109989000E-03 0. -1.
     -623    1    1    2    0    0  0.22708433933E-03 -0.34150415154E-03  0.21726524073E-04  0.17130000000E+03  0.17130000000E+03 0.  1.
      622    1    1    2    0    0 -0.18464112982E-02 -0.15007754067E-02  0.38418706842E+01  0.38418725923E+01  0.30000000000E-02 0. -1.
</event>
<event>
 5   0  0.3294100E+10  0.9118800E+02  0.7818608E-02  0.1180000E+00
       11   -1    0    0    0    0  0.00000000000E+00  0.00000000000E+00  0.39999999673E+01  0.40000000000E+01  0.51109989000E-03 0. -1.
     -623   -1    0    0    0    0  0.00000000000E+00  0.00000000000E+00  0.12525980253E-10  0.17130000000E+03  0.17130000000E+03 0. -1.
       11    1    1    2    0    0 -0.34082334912E-03 -0.95700830028E-03  0.89680462994E-01  0.89687673008E-01  0.51109989000E-03 0. -1.
     -623    1    1    2    0    0  0.88468407556E-04 -0.15675109597E-06  0.84534905391E-05  0.17130000000E+03  0.17130000000E+03 0. -1.
      622    1    1    2    0    0  0.25235494156E-03  0.95716505138E-03  0.39103110509E+01  0.39103123270E+01  0.30000000000E-02 0. -1.
</event>
<event>
 5   0  0.3294100E+10  0.9118800E+02  0.7818608E-02  0.1180000E+00
       11   -1    0    0    0    0  0.00000000000E+00  0.00000000000E+00  0.39999999673E+01  0.40000000000E+01  0.51109989000E-03 0. -1.
     -623   -1    0    0    0    0  0.00000000000E+00  0.00000000000E+00  0.12525980253E-10  0.17130000000E+03  0.17130000000E+03 0.  1.
       11    1    1    2    0    0 -0.37522236780E-03 -0.51968036081E-03  0.40150566100E+00  0.40150649796E+00  0.51109989000E-03 0. -1.
     -623    1    1    2    0    0  0.75622242683E-04 -0.11716689546E-05  0.21050184404E-05  0.17130000000E+03  0.17130000000E+03 0.  1.
      622    1    1    2    0    0  0.29960012339E-03  0.52085202979E-03  0.35984922925E+01  0.35984935932E+01  0.30000000000E-02 0. -1.
</event>
<event>
 5   0  0.3294100E+10  0.9118800E+02  0.7818608E-02  0.1180000E+00
       11   -1    0    0    0    0  0.00000000000E+00  0.00000000000E+00  0.39999999673E+01  0.40000000000E+01  0.51109989000E-03 0. -1.
     -623   -1    0    0    0    0  0.00000000000E+00  0.00000000000E+00  0.12525980253E-10  0.17130000000E+03  0.17130000000E+03 0. -1.
       11    1    1    2    0    0  0.13527286433E-02 -0.16947463445E-02  0.30399516938E+00  0.30400333266E+00  0.51109989000E-03 0. -1.
     -623    1    1    2    0    0 -0.16282244500E-02  0.37111141434E-03  0.96035979062E-05  0.17130000001E+03  0.17130000000E+03 0. -1.
      622    1    1    2    0    0  0.27549582104E-03  0.13236349269E-02  0.36959952296E+01  0.36959966944E+01  0.30000000000E-02 0. -1.
</event>
<event>
 5   0  0.3294100E+10  0.9118800E+02  0.7818608E-02  0.1180000E+00
       11   -1    0    0    0    0  0.00000000000E+00  0.00000000000E+00  0.39999999673E+01  0.40000000000E+01  0.51109989000E-03 0.  1.
     -623   -1    0    0    0    0  0.00000000000E+00  0.00000000000E+00  0.12525980253E-10  0.17130000000E+03  0.17130000000E+03 0.  1.
       11    1    1    2    0    0 -0.71539649954E-03  0.18205817796E-03  0.89261740452E+00  0.89261785609E+00  0.51109989000E-03 0.  1.
     -623    1    1    2    0    0  0.15636382966E-02  0.15971817824E-02  0.25068361991E-05  0.17130000001E+03  0.17130000000E+03 0.  1.
      622    1    1    2    0    0 -0.84824183146E-03 -0.17792399955E-02  0.31073801441E+01  0.31073822174E+01  0.30000000000E-02 0.  0.
</event>
<event>
 5   0  0.3294100E+10  0.9118800E+02  0.7818608E-02  0.1180000E+00
       11   -1    0    0    0    0  0.00000000000E+00  0.00000000000E+00  0.39999999673E+01  0.40000000000E+01  0.51109989000E-03 0.  1.
     -623   -1    0    0    0    0  0.00000000000E+00  0.00000000000E+00  0.12525980253E-10  0.17130000000E+03  0.17130000000E+03 0. -1.
       11    1    1    2    0    0  0.21836360587E-02  0.23519573545E-02  0.19115456705E+00  0.19118218980E+00  0.51109989000E-03 0.  1.
     -623    1    1    2    0    0 -0.33471857848E-04 -0.37540197362E-04  0.30081671112E-04  0.17130000000E+03  0.17130000000E+03 0. -1.
      622    1    1    2    0    0 -0.21501642008E-02 -0.23144171571E-02  0.38088153186E+01  0.38088178102E+01  0.30000000000E-02 0.  1.
</event>
<event>
 5   0  0.3294100E+10  0.9118800E+02  0.7818608E-02  0.1180000E+00
       11   -1    0    0    0    0  0.00000000000E+00  0.00000000000E+00  0.39999999673E+01  0.40000000000E+01  0.51109989000E-03 0.  1.
     -623   -1    0    0    0    0  0.00000000000E+00  0.00000000000E+00  0.12525980253E-10  0.17130000000E+03  0.17130000000E+03 0.  1.
       11    1    1    2    0    0 -0.16166048603E-02  0.87669188579E-03  0.43084436323E+00  0.43084859122E+00  0.51109989000E-03 0.  1.
     -623    1    1    2    0    0 -0.71730272428E-04 -0.59292891847E-05  0.59617013801E-05  0.17130000000E+03  0.17130000000E+03 0.  1.
      622    1    1    2    0    0  0.16883351327E-02 -0.87076259660E-03  0.35691496424E+01  0.35691514088E+01  0.30000000000E-02 0.  1.
</event>
<event>
 5   0  0.3294100E+10  0.9118800E+02  0.7818608E-02  0.1180000E+00
       11   -1    0    0    0    0  0.00000000000E+00  0.00000000000E+00  0.39999999673E+01  0.40000000000E+01  0.51109989000E-03 0. -1.
     -623   -1    0    0    0    0  0.00000000000E+00  0.00000000000E+00  0.12525980253E-10  0.17130000000E+03  0.17130000000E+03 0. -1.
       11    1    1    2    0    0 -0.83196929806E-03 -0.39700014874E-03  0.35527021550E+00  0.35527177909E+00  0.51109989000E-03 0. -1.
     -623    1    1    2    0    0 -0.59882760585E-03  0.18248245639E-03  0.30539168048E-05  0.17130000000E+03  0.17130000000E+03 0. -1.
      622    1    1    2    0    0  0.14307969039E-02  0.21451769235E-03  0.36447266979E+01  0.36447282198E+01  0.30000000000E-02 0. -1.
</event>
<event>
 5   0  0.3294100E+10  0.9118800E+02  0.7818608E-02  0.1180000E+00
       11   -1    0    0    0    0  0.00000000000E+00  0.00000000000E+00  0.39999999673E+01  0.40000000000E+01  0.51109989000E-03 0.  1.
     -623   -1    0    0    0    0  0.00000000000E+00  0.00000000000E+00  0.12525980253E-10  0.17130000000E+03  0.17130000000E+03 0. -1.
       11    1    1    2    0    0  0.39109247904E-02  0.50636906560E-02  0.93334061753E+00  0.93336268720E+00  0.51109989000E-03 0.  1.
     -623    1    1    2    0    0 -0.23385530850E-04  0.46525901282E-04  0.30226355411E-04  0.17130000000E+03  0.17130000000E+03 0. -1.
      622    1    1    2    0    0 -0.38875392595E-02 -0.51102165573E-02  0.30666291235E+01  0.30666373128E+01  0.30000000000E-02 0.  1.
</event>
<event>
 5   0  0.3294100E+10  0.9118800E+02  0.7818608E-02  0.1180000E+00
       11   -1    0    0    0    0  0.00000000000E+00  0.00000000000E+00  0.39999999673E+01  0.40000000000E+01  0.51109989000E-03 0.  1.
     -623   -1    0    0    0    0  0.00000000000E+00  0.00000000000E+00  0.12525980253E-10  0.17130000000E+03  0.17130000000E+03 0. -1.
       11    1    1    2    0    0  0.36511674419E-02 -0.14033808844E-02  0.10324297164E+01  0.10324372528E+01  0.51109989000E-03 0.  1.
     -623    1    1    2    0    0 -0.10426584085E-02 -0.19062040372E-02  0.12025929230E-04  0.17130000001E+03  0.17130000000E+03 0. -1.
      622    1    1    2    0    0 -0.26085090335E-02  0.33095849217E-02  0.29675582251E+01  0.29675627334E+01  0.30000000000E-02 0.  1.
</event>
<event>
 5   0  0.3294100E+10  0.9118800E+02  0.7818608E-02  0.1180000E+00
       11   -1    0    0    0    0  0.00000000000E+00  0.00000000000E+00  0.39999999673E+01  0.40000000000E+01  0.51109989000E-03 0. -1.
     -623   -1    0    0    0    0  0.00000000000E+00  0.00000000000E+00  0.12525980253E-10  0.17130000000E+03  0.17130000000E+03 0.  1.
       11    1    1    2    0    0 -0.44078554093E-02  0.35592110169E-02  0.10763562688E+00  0.10778583659E+00  0.51109989000E-03 0. -1.
     -623    1    1    2    0    0 -0.12161255462E-02 -0.28047797419E-03  0.15678195361E-03  0.17130000000E+03  0.17130000000E+03 0.  1.
      622    1    1    2    0    0  0.56239809546E-02 -0.32787330429E-02  0.38922075557E+01  0.38922141560E+01  0.30000000000E-02 0. -1.
</event>
<event>
 5   0  0.3294100E+10  0.9118800E+02  0.7818608E-02  0.1180000E+00
       11   -1    0    0    0    0  0.00000000000E+00  0.00000000000E+00  0.39999999673E+01  0.40000000000E+01  0.51109989000E-03 0. -1.
     -623   -1    0    0    0    0  0.00000000000E+00  0.00000000000E+00  0.12525980253E-10  0.17130000000E+03  0.17130000000E+03 0.  1.
       11    1    1    2    0    0 -0.31393463340E-02  0.18854458315E-02  0.81681648231E+00  0.81682485112E+00  0.51109989000E-03 0. -1.
     -623    1    1    2    0    0 -0.37309901582E-02  0.55182469930E-02  0.25903692488E-04  0.17130000013E+03  0.17130000000E+03 0.  1.
      622    1    1    2    0    0  0.68703365143E-02 -0.74036928571E-02  0.31831576050E+01  0.31831750430E+01  0.30000000000E-02 0. -1.
</event>
<event>
 5   0  0.3294100E+10  0.9118800E+02  0.7818608E-02  0.1180000E+00
       11   -1    0    0    0    0  0.00000000000E+00  0.00000000000E+00  0.39999999673E+01  0.40000000000E+01  0.51109989000E-03 0. -1.
     -623   -1    0    0    0    0  0.00000000000E+00  0.00000000000E+00  0.12525980253E-10  0.17130000000E+03  0.17130000000E+03 0. -1.
       11    1    1    2    0    0  0.18221792071E-02 -0.13396309620E-02  0.18683706291E+00  0.18685144968E+00  0.51109989000E-03 0. -1.
     -623    1    1    2    0    0 -0.10559270007E-03  0.61127901812E-05  0.16153851238E-04  0.17130000000E+03  0.17130000000E+03 0. -1.
      622    1    1    2    0    0 -0.17165865068E-02  0.13335181718E-02  0.38131467603E+01  0.38131485600E+01  0.30000000000E-02 0. -1.
</event>
<event>
 5   0  0.3294100E+10  0.9118800E+02  0.7818608E-02  0.1180000E+00
       11   -1    0    0    0    0  0.00000000000E+00  0.00000000000E+00  0.39999999673E+01  0.40000000000E+01  0.51109989000E-03 0. -1.
     -623   -1    0    0    0    0  0.00000000000E+00  0.00000000000E+00  0.12525980253E-10  0.17130000000E+03  0.17130000000E+03 0.  1.
       11    1    1    2    0    0 -0.56875534559E-04  0.60655288995E-03  0.36103712865E+00  0.36103800441E+00  0.51109989000E-03 0. -1.
     -623    1    1    2    0    0 -0.12760394633E-04  0.26482594430E-04  0.21354654476E-05  0.17130000000E+03  0.17130000000E+03 0.  1.
      622    1    1    2    0    0  0.69635929192E-04 -0.63303548438E-03  0.36389607032E+01  0.36389619956E+01  0.30000000000E-02 0. -1.
</event>
<event>
 5   0  0.3294100E+10  0.9118800E+02  0.7818608E-02  0.1180000E+00
       11   -1    0    0    0    0  0.00000000000E+00  0.00000000000E+00  0.39999999673E+01  0.40000000000E+01  0.51109989000E-03 0. -1.
     -623   -1    0    0    0    0  0.00000000000E+00  0.00000000000E+00  0.12525980253E-10  0.17130000000E+03  0.17130000000E+03 0.  1.
       11    1    1    2    0    0 -0.51131893989E-02 -0.51033404828E-02  0.10949958973E+01  0.10950198469E+01  0.51109989000E-03 0. -1.
     -623    1    1    2    0    0  0.97275447018E-04  0.17258813585E-03  0.33981146230E-04  0.17130000000E+03  0.17130000000E+03 0.  1.
      622    1    1    2    0    0  0.50159139519E-02  0.49307523469E-02  0.29049700889E+01  0.29049801530E+01  0.30000000000E-02 0. -1.
</event>
<event>
 5   0  0.3294100E+10  0.9118800E+02  0.7818608E-02  0.1180000E+00
       11   -1    0    0    0    0  0.00000000000E+00  0.00000000000E+00  0.39999999673E+01  0.40000000000E+01  0.51109989000E-03 0. -1.
     -623   -1    0    0    0    0  0.00000000000E+00  0.00000000000E+00  0.12525980253E-10  0.17130000000E+03  0.17130000000E+03 0.  1.
       11    1    1    2    0    0 -0.61590341393E-03 -0.79166544091E-03  0.98375957430E-01  0.98382398297E-01  0.51109989000E-03 0. -1.
     -623    1    1    2    0    0 -0.55698376768E-03  0.12038569747E-02  0.77647975520E-05  0.17130000001E+03  0.17130000000E+03 0.  1.
      622    1    1    2    0    0  0.11728871827E-02 -0.41219153613E-03  0.39016162529E+01  0.39016176043E+01  0.30000000000E-02 0. -1.
</event>
<event>
 5   0  0.3294100E+10  0.9118800E+02  0.7818608E-02  0.1180000E+00
       11   -1    0    0    0    0  0.00000000000E+00  0.00000000000E+00  0.39999999673E+01  0.40000000000E+01  0.51109989000E-03 0. -1.
     -623   -1    0    0    0    0  0.00000000000E+00  0.00000000000E+00  0.12525980253E-10  0.17130000000E+03  0.17130000000E+03 0.  1.
       11    1    1    2    0    0  0.60406611731E-03 -0.94310233917E-03  0.83740857213E-01  0.83749905823E-01  0.51109989000E-03 0. -1.
     -623    1    1    2    0    0 -0.15202650925E-02  0.14947148609E-02  0.10324315682E-04  0.17130000001E+03  0.17130000000E+03 0.  1.
      622    1    1    2    0    0  0.91619897516E-03 -0.55161252177E-03  0.39162487858E+01  0.39162500809E+01  0.30000000000E-02 0. -1.
</event>
<event>
 5   0  0.3294100E+10  0.9118800E+02  0.7818608E-02  0.1180000E+00
       11   -1    0    0    0    0  0.00000000000E+00  0.00000000000E+00  0.39999999673E+01  0.40000000000E+01  0.51109989000E-03 0. -1.
     -623   -1    0    0    0    0  0.00000000000E+00  0.00000000000E+00  0.12525980253E-10  0.17130000000E+03  0.17130000000E+03 0.  1.
       11    1    1    2    0    0 -0.23333594494E-03  0.26666985300E-02  0.11284268152E+01  0.11284301060E+01  0.51109989000E-03 0. -1.
     -623    1    1    2    0    0  0.85319259589E-03 -0.35829770494E-02  0.50779684595E-05  0.17130000004E+03  0.17130000000E+03 0.  1.
      622    1    1    2    0    0 -0.61985665869E-03  0.91627855188E-03  0.28715681105E+01  0.28715698906E+01  0.30000000000E-02 0. -1.
</event>
<event>
 5   0  0.3294100E+10  0.9118800E+02  0.7818608E-02  0.1180000E+00
       11   -1    0    0    0    0  0.00000000000E+00  0.00000000000E+00  0.39999999673E+01  0.40000000000E+01  0.51109989000E-03 0. -1.
     -623   -1    0    0    0    0  0.00000000000E+00  0.00000000000E+00  0.12525980253E-10  0.17130000000E+03  0.17130000000E+03 0.  1.
       11    1    1    2    0    0 -0.62509448298E-03 -0.23156172395E-03  0.10027218225E+01  0.10027221743E+01  0.51109989000E-03 0. -1.
     -623    1    1    2    0    0  0.83446670974E-03 -0.11476918691E-02  0.21510932782E-05  0.17130000001E+03  0.17130000000E+03 0.  1.
      622    1    1    2    0    0 -0.20937222676E-03  0.13792535931E-02  0.29972759938E+01  0.29972778198E+01  0.30000000000E-02 0. -1.
</event>
<event>
 5   0  0.3294100E+10  0.9118800E+02  0.7818608E-02  0.1180000E+00
       11   -1    0    0    0    0  0.00000000000E+00  0.00000000000E+00  0.39999999673E+01  0.40000000000E+01  0.51109989000E-03 0.  1.
     -623   -1    0    0    0    0  0.00000000000E+00  0.00000000000E+00  0.12525980253E-10  0.17130000000E+03  0.17130000000E+03 0.  1.
       11    1    1    2    0    0 -0.16342732212E-02  0.40597813444E-03  0.30007353054E+00  0.30007869071E+00  0.51109989000E-03 0.  1.
     -623    1    1    2    0    0  0.39239201315E-03 -0.10700765107E-02  0.66155837066E-05  0.17130000000E+03  0.17130000000E+03 0.  1.
      622    1    1    2    0    0  0.12418812081E-02  0.66409837622E-03  0.36999198212E+01  0.36999213055E+01  0.30000000000E-02 0.  1.
</event>
<event>
 5   0  0.3294100E+10  0.9118800E+02  0.7818608E-02  0.1180000E+00
       11   -1    0    0    0    0  0.00000000000E+00  0.00000000000E+00  0.39999999673E+01  0.40000000000E+01  0.51109989000E-03 0.  1.
     -623   -1    0    0    0    0  0.00000000000E+00  0.00000000000E+00  0.12525980253E-10  0.17130000000E+03  0.17130000000E+03 0. -1.
       11    1    1    2    0    0 -0.32525341721E-03 -0.58846974592E-04  0.84580357748E-02  0.84799083142E-02  0.51109989000E-03 0. -1.
     -623    1    1    2    0    0 -0.97756523366E-04 -0.48690983798E-03  0.23027736064E-04  0.17130000000E+03  0.17130000000E+03 0. -1.
      622    1    1    2    0    0  0.42300994054E-03  0.54575681239E-03  0.39915189024E+01  0.39915200895E+01  0.30000000000E-02 0.  1.
</event>
<event>
 5   0  0.3294100E+10  0.9118800E+02  0.7818608E-02  0.1180000E+00
       11   -1    0    0    0    0  0.00000000000E+00  0.00000000000E+00  0.39999999673E+01  0.40000000000E+01  0.51109989000E-03 0. -1.
     -623   -1    0    0    0    0  0.00000000000E+00  0.00000000000E+00  0.12525980253E-10  0.17130000000E+03  0.17130000000E+03 0.  1.
       11    1    1    2    0    0 -0.53268086048E-03  0.29823824749E-02  0.13185022367E+00  0.13188601541E+00  0.51109989000E-03 0. -1.
     -623    1    1    2    0    0  0.16550745403E-03 -0.45127014506E-03  0.37768677414E-04  0.17130000000E+03  0.17130000000E+03 0.  1.
      622    1    1    2    0    0  0.36717340635E-03 -0.25311123296E-02  0.38681119775E+01  0.38681139864E+01  0.30000000000E-02 0. -1.
</event>
<event>
 5   0  0.3294100E+10  0.9118800E+02  0.7818608E-02  0.1180000E+00
       11   -1    0    0    0    0  0.00000000000E+00  0.00000000000E+00  0.39999999673E+01  0.40000000000E+01  0.51109989000E-03 0.  1.
     -623   -1    0    0    0    0  0.00000000000E+00  0.00000000000E+00  0.12525980253E-10  0.17130000000E+03  0.17130000000E+03 0.  1.
       11    1    1    2    0    0 -0.11323192493E-02  0.18115558908E-03  0.17363593500E+00  0.17364047372E+00  0.51109989000E-03 0.  1.
     -623    1    1    2    0    0  0.19000993418E-02  0.26085763093E-03  0.57954206745E-05  0.17130000001E+03  0.17130000000E+03 0.  1.
      622    1    1    2    0    0 -0.76778008885E-03 -0.44201321951E-03  0.38263582292E+01  0.38263595078E+01  0.30000000000E-02 0.  1.
</event>
<event>
 5   0  0.3294100E+10  0.9118800E+02  0.7818608E-02  0.1180000E+00
       11   -1    0    0    0    0  0.00000000000E+00  0.00000000000E+00  0.39999999673E+01  0.40000000000E+01  0.51109989000E-03 0.  1.
     -623   -1    0    0    0    0  0.00000000000E+00  0.00000000000E+00  0.12525980253E-10  0.17130000000E+03  0.17130000000E+03 0. -1.
       11    1    1    2    0    0 -0.11300931350E-03  0.37079188884E-03  0.49937812245E+00  0.49937853444E+00  0.51109989000E-03 0.  1.
     -623    1    1    2    0    0 -0.63171188844E-04 -0.20173945289E-03  0.16734849275E-05  0.17130000000E+03  0.17130000000E+03 0. -1.
      622    1    1    2    0    0  0.17618050519E-03 -0.16905242687E-03  0.35006203512E+01  0.35006216452E+01  0.30000000000E-02 0.  1.
</event>
<event>
 5   0  0.3294100E+10  0.9118800E+02  0.7818608E-02  0.1180000E+00
       11   -1    0    0    0    0  0.00000000000E+00  0.00000000000E+00  0.39999999673E+01  0.40000000000E+01  0.51109989000E-03 0. -1.
     -623   -1    0    0    0    0  0.00000000000E+00  0.00000000000E+00  0.12525980253E-10  0.17130000000E+03  0.17130000000E+03 0.  1.
       11    1    1    2    0    0 -0.16031185641E-02  0.82516984893E-04  0.24987876628E+00  0.24988444502E+00  0.51109989000E-03 0. -1.
     -623    1    1    2    0    0  0.19316144081E-02 -0.41374677204E-02  0.91135841225E-05  0.17130000006E+03  0.17130000000E+03 0.  1.
      622    1    1    2    0    0 -0.32849584190E-03  0.40549507311E-02  0.37501120832E+01  0.37501154899E+01  0.30000000000E-02 0. -1.
</event>
<event>
 5   0  0.3294100E+10  0.9118800E+02  0.7818608E-02  0.1180000E+00
       11   -1    0    0    0    0  0.00000000000E+00  0.00000000000E+00  0.39999999673E+01  0.40000000000E+01  0.51109989000E-03 0.  1.
     -623   -1    0    0    0    0  0.00000000000E+00  0.00000000000E+00  0.12525980253E-10  0.17130000000E+03  0.17130000000E+03 0. -1.
       11    1    1    2    0    0  0.93392642532E-03  0.26742690903E-03  0.18547691331E+00  0.18548016155E+00  0.51109989000E-03 0.  1.
     -623    1    1    2    0    0 -0.16611346753E-02 -0.35800518883E-03  0.44741283345E-05  0.17130000001E+03  0.17130000000E+03 0. -1.
      622    1    1    2    0    0  0.72720823095E-03  0.90578275693E-04  0.38145185340E+01  0.38145197841E+01  0.30000000000E-02 0.  1.
</event>
<event>
 5   0  0.3294100E+10  0.9118800E+02  0.7818608E-02  0.1180000E+00
       11   -1    0    0    0    0  0.00000000000E+00  0.00000000000E+00  0.39999999673E+01  0.40000000000E+01  0.51109989000E-03 0. -1.
     -623   -1    0    0    0    0  0.00000000000E+00  0.00000000000E+00  0.12525980253E-10  0.17130000000E+03  0.17130000000E+03 0.  1.
       11    1    1    2    0    0 -0.13607500994E-02 -0.17995392430E-02  0.44646624328E+00  0.44647223608E+00  0.51109989000E-03 0. -1.
     -623    1    1    2    0    0 -0.68983374758E-04  0.13376351146E-03  0.79046290602E-05  0.17130000000E+03  0.17130000000E+03 0.  1.
      622    1    1    2    0    0  0.14297334747E-02  0.16657757304E-02  0.35535258508E+01  0.35535277952E+01  0.30000000000E-02 0. -1.
</event>
<event>
 5   0  0.3294100E+10  0.9118800E+02  0.7818608E-02  0.1180000E+00
       11   -1    0    0    0    0  0.00000000000E+00  0.00000000000E+00  0.39999999673E+01  0.40000000000E+01  0.51109989000E-03 0. -1.
     -623   -1    0    0    0    0  0.00000000000E+00  0.00000000000E+00  0.12525980253E-10  0.17130000000E+03  0.17130000000E+03 0. -1.
       11    1    1    2    0    0 -0.63694160905E-03  0.23795181271E-03  0.17106423866E-01  0.17127558970E-01  0.51109989000E-03 0. -1.
     -623    1    1    2    0    0  0.18116063842E-04  0.13900661587E-03  0.22298272921E-04  0.17130000000E+03  0.17130000000E+03 0. -1.
      622    1    1    2    0    0  0.61882554518E-03 -0.37695842873E-03  0.39828712497E+01  0.39828724455E+01  0.30000000000E-02 0. -1.
</event>
<event>
 5   0  0.3294100E+10  0.9118800E+02  0.7818608E-02  0.1180000E+00
       11   -1    0    0    0    0  0.00000000000E+00  0.00000000000E+00  0.39999999673E+01  0.40000000000E+01  0.51109989000E-03 0. -1.
     -623   -1    0    0    0    0  0.00000000000E+00  0.00000000000E+00  0.12525980253E-10  0.17130000000E+03  0.17130000000E+03 0.  1.
       11    1    1    2    0    0 -0.78285760433E-03 -0.38511952791E-03  0.28022560809E+00  0.28022743233E+00  0.51109989000E-03 0. -1.
     -623    1    1    2    0    0 -0.17154815850E-03  0.17802310088E-03  0.31297377951E-05  0.17130000000E+03  0.17130000000E+03 0.  1.
      622    1    1    2    0    0  0.95440576283E-03  0.20709642703E-03  0.37197712295E+01  0.37197725675E+01  0.30000000000E-02 0. -1.
</event>
<event>
 5   0  0.3294100E+10  0.9118800E+02  0.7818608E-02  0.1180000E+00
       11   -1    0    0    0    0  0.00000000000E+00  0.00000000000E+00  0.39999999673E+01  0.40000000000E+01  0.51109989000E-03 0.  1.
     -623   -1    0    0    0    0  0.00000000000E+00  0.00000000000E+00  0.12525980253E-10  0.17130000000E+03  0.17130000000E+03 0. -1.
       11    1    1    2    0    0 -0.11925349957E-03 -0.34480869843E-03  0.17111486885E+00  0.17111602111E+00  0.51109989000E-03 0.  1.
     -623    1    1    2    0    0 -0.23136481219E-04  0.27032686269E-03  0.22984798975E-05  0.17130000000E+03  0.17130000000E+03 0. -1.
      622    1    1    2    0    0  0.14238998152E-03  0.74481827244E-04  0.38288829256E+01  0.38288841043E+01  0.30000000000E-02 0.  1.
</event>
<event>
 5   0  0.3294100E+10  0.9118800E+02  0.7818608E-02  0.1180000E+00
       11   -1    0    0    0    0  0.00000000000E+00  0.00000000000E+00  0.39999999673E+01  0.40000000000E+01  0.51109989000E-03 0.  1.
     -623   -1    0    0    0    0  0.00000000000E+00  0.00000000000E+00  0.12525980253E-10  0.17130000000E+03  0.17130000000E+03 0. -1.
       11    1    1    2    0    0  0.16925552528E-03 -0.68623064692E-05  0.38575350983E-01  0.38579108610E-01  0.51109989000E-03 0. -1.
     -623    1    1    2    0    0  0.11306545491E-02  0.27643369355E-03  0.50873466324E-05  0.17130000000E+03  0.17130000000E+03 0. -1.
      622    1    1    2    0    0 -0.12999101010E-02 -0.26957139360E-03  0.39614196233E+01  0.39614209817E+01  0.30000000000E-02 0.  1.
</event>
<event>
 5   0  0.3294100E+10  0.9118800E+02  0.7818608E-02  0.1180000E+00
       11   -1    0    0    0    0  0.00000000000E+00  0.00000000000E+00  0.39999999673E+01  0.40000000000E+01  0.51109989000E-03 0.  1.
     -623   -1    0    0    0    0  0.00000000000E+00  0.00000000000E+00  0.12525980253E-10  0.17130000000E+03  0.17130000000E+03 0.  1.
       11    1    1    2    0    0  0.62303269097E-03 -0.20034023839E-03  0.20698679756E+00  0.20698846319E+00  0.51109989000E-03 0.  1.
     -623    1    1    2    0    0 -0.24340176237E-03  0.37661778766E-03  0.28430621422E-05  0.17130000000E+03  0.17130000000E+03 0.  1.
      622    1    1    2    0    0 -0.37963092001E-03 -0.17627756257E-03  0.37930104679E+01  0.37930116774E+01  0.30000000000E-02 0.  1.
</event>
<event>
 5   0  0.3294100E+10  0.9118800E+02  0.7818608E-02  0.1180000E+00
       11   -1    0    0    0    0  0.00000000000E+00  0.00000000000E+00  0.39999999673E+01  0.40000000000E+01  0.51109989000E-03 0. -1.
     -623   -1    0    0    0    0  0.00000000000E+00  0.00000000000E+00  0.12525980253E-10  0.17130000000E+03  0.17130000000E+03 0.  1.
       11    1    1    2    0    0  0.21742785870E-03  0.31254526395E-02  0.84256846778E+00  0.84257444766E+00  0.51109989000E-03 0. -1.
     -623    1    1    2    0    0 -0.67979820324E-03 -0.43888281259E-02  0.77166340153E-05  0.17130000006E+03  0.17130000000E+03 0.  1.
      622    1    1    2    0    0  0.46237036026E-03  0.12633755879E-02  0.31574238754E+01  0.31574255872E+01  0.30000000000E-02 0. -1.
</event>
<event>
 5   0  0.3294100E+10  0.9118800E+02  0.7818608E-02  0.1180000E+00
       11   -1    0    0    0    0  0.00000000000E+00  0.00000000000E+00  0.39999999673E+01  0.40000000000E+01  0.51109989000E-03 0.  1.
     -623   -1    0    0    0    0  0.00000000000E+00  0.00000000000E+00  0.12525980253E-10  0.17130000000E+03  0.17130000000E+03 0.  1.
       11    1    1    2    0    0  0.31054619074E-03 -0.24010954794E-03  0.14008000122E-01  0.14022816480E-01  0.51109989000E-03 0. -1.
     -623    1    1    2    0    0  0.20195566045E-04 -0.28279019410E-04  0.15935438275E-04  0.17130000000E+03  0.17130000000E+03 0.  1.
      622    1    1    2    0    0 -0.33074175675E-03  0.26838856731E-03  0.39859760257E+01  0.39859771774E+01  0.30000000000E-02 0.  1.
</event>
<event>
 5   0  0.3294100E+10  0.9118800E+02  0.7818608E-02  0.1180000E+00
       11   -1    0    0    0    0  0.00000000000E+00  0.00000000000E+00  0.39999999673E+01  0.40000000000E+01  0.51109989000E-03 0.  1.
     -623   -1    0    0    0    0  0.00000000000E+00  0.00000000000E+00  0.12525980253E-10  0.17130000000E+03  0.17130000000E+03 0.  1.
       11    1    1    2    0    0 -0.32061011471E-03 -0.24443638502E-04  0.64248669204E-01  0.64251506643E-01  0.51109989000E-03 0.  1.
     -623    1    1    2    0    0 -0.40936543644E-04 -0.30181944336E-04  0.39651577275E-05  0.17130000000E+03  0.17130000000E+03 0.  1.
      622    1    1    2    0    0  0.36154665983E-03  0.54625583928E-04  0.39357474775E+01  0.39357486378E+01  0.30000000000E-02 0.  1.
</event>
<event>
 5   0  0.3294100E+10  0.9118800E+02  0.7818608E-02  0.1180000E+00
       11   -1    0    0    0    0  0.00000000000E+00  0.00000000000E+00  0.39999999673E+01  0.40000000000E+01  0.51109989000E-03 0. -1.
     -623   -1    0    0    0    0  0.00000000000E+00  0.00000000000E+00  0.12525980253E-10  0.17130000000E+03  0.17130000000E+03 0. -1.
       11    1    1    2    0    0  0.50033740412E-02  0.68941940445E-02  0.45025308550E+00  0.45033394929E+00  0.51109989000E-03 0. -1.
     -623    1    1    2    0    0  0.18657240406E-03 -0.15372410369E-02  0.89942214493E-04  0.17130000001E+03  0.17130000000E+03 0. -1.
      622    1    1    2    0    0 -0.51899464453E-02 -0.53569530072E-02  0.35496569404E+01  0.35496660445E+01  0.30000000000E-02 0. -1.
</event>
<event>
 5   0  0.3294100E+10  0.9118800E+02  0.7818608E-02  0.1180000E+00
       11   -1    0    0    0    0  0.00000000000E+00  0.00000000000E+00  0.39999999673E+01  0.40000000000E+01  0.51109989000E-03 0. -1.
     -623   -1    0    0    0    0  0.00000000000E+00  0.00000000000E+00  0.12525980253E-10  0.17130000000E+03  0.17130000000E+03 0.  1.
       11    1    1    2    0    0  0.92220046049E-03  0.13213748315E-03  0.95500671061E+00  0.95500730178E+00  0.51109989000E-03 0. -1.
     -623    1    1    2    0    0 -0.17787907973E-03 -0.11996233134E-04  0.21297965027E-05  0.17130000000E+03  0.17130000000E+03 0.  1.
      622    1    1    2    0    0 -0.74432138076E-03 -0.12014125001E-03  0.30449911270E+01  0.30449926981E+01  0.30000000000E-02 0.  0.
</event>
<event>
 5   0  0.3294100E+10  0.9118800E+02  0.7818608E-02  0.1180000E+00
       11   -1    0    0    0    0  0.00000000000E+00  0.00000000000E+00  0.39999999673E+01  0.40000000000E+01  0.51109989000E-03 0. -1.
     -623   -1    0    0    0    0  0.00000000000E+00  0.00000000000E+00  0.12525980253E-10  0.17130000000E+03  0.17130000000E+03 0.  1.
       11    1    1    2    0    0  0.18350076654E-02 -0.35095768891E-02  0.40434244046E+00  0.40436215792E+00  0.51109989000E-03 0. -1.
     -623    1    1    2    0    0  0.27826639461E-04  0.34956267673E-04  0.23097737408E-04  0.17130000000E+03  0.17130000000E+03 0.  1.
      622    1    1    2    0    0 -0.18628343049E-02  0.34746206214E-02  0.35956344292E+01  0.35956378421E+01  0.30000000000E-02 0. -1.
</event>
<event>
 5   0  0.3294100E+10  0.9118800E+02  0.7818608E-02  0.1180000E+00
       11   -1    0    0    0    0  0.00000000000E+00  0.00000000000E+00  0.39999999673E+01  0.40000000000E+01  0.51109989000E-03 0.  1.
     -623   -1    0    0    0    0  0.00000000000E+00  0.00000000000E+00  0.12525980253E-10  0.17130000000E+03  0.17130000000E+03 0.  1.
       11    1    1    2    0    0  0.68543128288E-04  0.11794798353E-03  0.21353728250E+00  0.21353793773E+00  0.51109989000E-03 0.  1.
     -623    1    1    2    0    0  0.16565624600E-02  0.10117028935E-03  0.22183869359E-05  0.17130000001E+03  0.17130000000E+03 0.  1.
      622    1    1    2    0    0 -0.17251055883E-02 -0.21911827288E-03  0.37864604665E+01  0.37864620542E+01  0.30000000000E-02 0.  0.
</event>
<event>
 5   0  0.3294100E+10  0.9118800E+02  0.7818608E-02  0.1180000E+00
       11   -1    0    0    0    0  0.00000000000E+00  0.00000000000E+00  0.39999999673E+01  0.40000000000E+01  0.51109989000E-03 0.  1.
     -623   -1    0    0    0    0  0.00000000000E+00  0.00000000000E+00  0.12525980253E-10  0.17130000000E+03  0.17130000000E+03 0. -1.
       11    1    1    2    0    0 -0.89471004036E-04 -0.90807701274E-03  0.11070173433E+01  0.11070178373E+01  0.51109989000E-03 0.  1.
     -623    1    1    2    0    0 -0.11882640641E-03  0.12050921825E-02  0.20439184518E-05  0.17130000000E+03  0.17130000000E+03 0. -1.
      622    1    1    2    0    0  0.20829741045E-03 -0.29701516971E-03  0.28929805802E+01  0.28929821584E+01  0.30000000000E-02 0.  1.
</event>
<event>
 5   0  0.3294100E+10  0.9118800E+02  0.7818608E-02  0.1180000E+00
       11   -1    0    0    0    0  0.00000000000E+00  0.00000000000E+00  0.39999999673E+01  0.40000000000E+01  0.51109989000E-03 0.  1.
     -623   -1    0    0    0    0  0.00000000000E+00  0.00000000000E+00  0.12525980253E-10  0.17130000000E+03  0.17130000000E+03 0. -1.
       11    1    1    2    0    0  0.57868752464E-02  0.14717969231E-02  0.49669504250E+00  0.49673119549E+00  0.51109989000E-03 0.  1.
     -623    1    1    2    0    0 -0.29514424438E-02 -0.18176895849E-02  0.38604473604E-04  0.17130000004E+03  0.17130000000E+03 0. -1.
      622    1    1    2    0    0 -0.28354328026E-02  0.34589266182E-03  0.35032663204E+01  0.35032687694E+01  0.30000000000E-02 0.  1.
</event>
<event>
 5   0  0.3294100E+10  0.9118800E+02  0.7818608E-02  0.1180000E+00
       11   -1    0    0    0    0  0.00000000000E+00  0.00000000000E+00  0.39999999673E+01  0.40000000000E+01  0.51109989000E-03 0. -1.
     -623   -1    0    0    0    0  0.00000000000E+00  0.00000000000E+00  0.12525980253E-10  0.17130000000E+03  0.17130000000E+03 0. -1.
       11    1    1    2    0    0  0.13558773332E-02 -0.28342405900E-02  0.13155889800E+00  0.13159740191E+00  0.51109989000E-03 0. -1.
     -623    1    1    2    0    0 -0.18992769943E-03 -0.62084822615E-04  0.40894631085E-04  0.17130000000E+03  0.17130000000E+03 0. -1.
      622    1    1    2    0    0 -0.11659496338E-02  0.28963254126E-02  0.38684001747E+01  0.38684025980E+01  0.30000000000E-02 0. -1.
</event>
<event>
 5   0  0.3294100E+10  0.9118800E+02  0.7818608E-02  0.1180000E+00
       11   -1    0    0    0    0  0.00000000000E+00  0.00000000000E+00  0.39999999673E+01  0.40000000000E+01  0.51109989000E-03 0.  1.
     -623   -1    0    0    0    0  0.00000000000E+00  0.00000000000E+00  0.12525980253E-10  0.17130000000E+03  0.17130000000E+03 0. -1.
       11    1    1    2    0    0 -0.22407844901E-02 -0.12592008101E-02  0.79192920434E+00  0.79193354053E+00  0.51109989000E-03 0.  1.
     -623    1    1    2    0    0 -0.77714397925E-03  0.16994609538E-02  0.71661945107E-05  0.17130000001E+03  0.17130000000E+03 0. -1.
      622    1    1    2    0    0  0.30179284694E-02 -0.44026014375E-03  0.32080635968E+01  0.32080664493E+01  0.30000000000E-02 0.  1.
</event>
<event>
 5   0  0.3294100E+10  0.9118800E+02  0.7818608E-02  0.1180000E+00
       11   -1    0    0    0    0  0.00000000000E+00  0.00000000000E+00  0.39999999673E+01  0.40000000000E+01  0.51109989000E-03 0.  1.
     -623   -1    0    0    0    0  0.00000000000E+00  0.00000000000E+00  0.12525980253E-10  0.17130000000E+03  0.17130000000E+03 0. -1.
       11    1    1    2    0    0 -0.28658001425E-02  0.31202858233E-02  0.12291739577E+00  0.12299144848E+00  0.51109989000E-03 0.  1.
     -623    1    1    2    0    0  0.13440361394E-02  0.21304807968E-02  0.79053605634E-04  0.17130000002E+03  0.17130000000E+03 0. -1.
      622    1    1    2    0    0  0.15217640008E-02 -0.52507666237E-02  0.38770035247E+01  0.38770085397E+01  0.30000000000E-02 0.  1.
</event>
<event>
 5   0  0.3294100E+10  0.9118800E+02  0.7818608E-02  0.1180000E+00
       11   -1    0    0    0    0  0.00000000000E+00  0.00000000000E+00  0.39999999673E+01  0.40000000000E+01  0.51109989000E-03 0. -1.
     -623   -1    0    0    0    0  0.00000000000E+00  0.00000000000E+00  0.12525980253E-10  0.17130000000E+03  0.17130000000E+03 0.  1.
       11    1    1    2    0    0 -0.22455156893E-02  0.15069445982E-02  0.75810039161E-01  0.75859979459E-01  0.51109989000E-03 0. -1.
     -623    1    1    2    0    0  0.52717719241E-03 -0.18099501094E-03  0.51655557390E-04  0.17130000000E+03  0.17130000000E+03 0.  1.
      622    1    1    2    0    0  0.17183384959E-02 -0.13259495869E-02  0.39241382800E+01  0.39241400270E+01  0.30000000000E-02 0. -1.
</event>
<event>
 5   0  0.3294100E+10  0.9118800E+02  0.7818608E-02  0.1180000E+00
       11   -1    0    0    0    0  0.00000000000E+00  0.00000000000E+00  0.39999999673E+01  0.40000000000E+01  0.51109989000E-03 0. -1.
     -623   -1    0    0    0    0  0.00000000000E+00  0.00000000000E+00  0.12525980253E-10  0.17130000000E+03  0.17130000000E+03 0. -1.
       11    1    1    2    0    0 -0.40269068598E-03 -0.43233933076E-03  0.72095743280E+00  0.72095785605E+00  0.51109989000E-03 0. -1.
     -623    1    1    2    0    0  0.40837441069E-03  0.47336451018E-03  0.17643710692E-05  0.17130000000E+03  0.17130000000E+03 0. -1.
      622    1    1    2    0    0 -0.56837365470E-05 -0.41025193137E-04  0.32790408861E+01  0.32790422587E+01  0.30000000000E-02 0. -1.
</event>
<event>
 5   0  0.3294100E+10  0.9118800E+02  0.7818608E-02  0.1180000E+00
       11   -1    0    0    0    0  0.00000000000E+00  0.00000000000E+00  0.39999999673E+01  0.40000000000E+01  0.51109989000E-03 0.  1.
     -623   -1    0    0    0    0  0.00000000000E+00  0.00000000000E+00  0.12525980253E-10  0.17130000000E+03  0.17130000000E+03 0. -1.
       11    1    1    2    0    0  0.19651097022E-02 -0.26480772129E-03  0.89142319789E+00  0.89142554975E+00  0.51109989000E-03 0.  1.
     -623    1    1    2    0    0 -0.90846426418E-03  0.15058331379E-02  0.42031611480E-05  0.17130000001E+03  0.17130000000E+03 0. -1.
      622    1    1    2    0    0 -0.10566454163E-02 -0.12410254526E-02  0.31085726618E+01  0.31085745368E+01  0.30000000000E-02 0.  1.
</event>
<event>
 5   0  0.3294100E+10  0.9118800E+02  0.7818608E-02  0.1180000E+00
       11   -1    0    0    0    0  0.00000000000E+00  0.00000000000E+00  0.39999999673E+01  0.40000000000E+01  0.51109989000E-03 0.  1.
     -623   -1    0    0    0    0  0.00000000000E+00  0.00000000000E+00  0.12525980253E-10  0.17130000000E+03  0.17130000000E+03 0. -1.
       11    1    1    2    0    0  0.19073457523E-02 -0.10073695650E-02  0.89636689478E+00  0.89636963583E+00  0.51109989000E-03 0.  1.
     -623    1    1    2    0    0  0.37072490760E-03  0.12061481766E-03  0.51215042562E-05  0.17130000000E+03  0.17130000000E+03 0. -1.
      622    1    1    2    0    0 -0.22780706599E-02  0.88675474737E-03  0.31036279511E+01  0.31036303637E+01  0.30000000000E-02 0.  1.
</event>
<event>
 5   0  0.3294100E+10  0.9118800E+02  0.7818608E-02  0.1180000E+00
       11   -1    0    0    0    0  0.00000000000E+00  0.00000000000E+00  0.39999999673E+01  0.40000000000E+01  0.51109989000E-03 0.  1.
     -623   -1    0    0    0    0  0.00000000000E+00  0.00000000000E+00  0.12525980253E-10  0.17130000000E+03  0.17130000000E+03 0. -1.
       11    1    1    2    0    0  0.13590462531E-03 -0.16328883137E-02  0.11768199561E+00  0.11769451180E+00  0.51109989000E-03 0.  1.
     -623    1    1    2    0    0  0.25022858163E-03  0.12943254201E-02  0.13681685468E-04  0.17130000001E+03  0.17130000000E+03 0. -1.
      622    1    1    2    0    0 -0.38613320693E-03  0.33856289364E-03  0.38823042901E+01  0.38823054831E+01  0.30000000000E-02 0.  1.
</event>
<event>
 5   0  0.3294100E+10  0.9118800E+02  0.7818608E-02  0.1180000E+00
       11   -1    0    0    0    0  0.00000000000E+00  0.00000000000E+00  0.39999999673E+01  0.40000000000E+01  0.51109989000E-03 0.  1.
     -623   -1    0    0    0    0  0.00000000000E+00  0.00000000000E+00  0.12525980253E-10  0.17130000000E+03  0.17130000000E+03 0. -1.
       11    1    1    2    0    0 -0.57302386481E-03 -0.12053552981E-02  0.32092305635E-01  0.32124111483E-01  0.51109989000E-03 0.  1.
     -623    1    1    2    0    0  0.16355702336E-02  0.80827483512E-03  0.33079171368E-04  0.17130000001E+03  0.17130000000E+03 0. -1.
      622    1    1    2    0    0 -0.10625463688E-02  0.39708046295E-03  0.39678745826E+01  0.39678758788E+01  0.30000000000E-02 0.  1.
</event>
<event>
 5   0  0.3294100E+10  0.9118800E+02  0.7818608E-02  0.1180000E+00
       11   -1    0    0    0    0  0.00000000000E+00  0.00000000000E+00  0.39999999673E+01  0.40000000000E+01  0.51109989000E-03 0.  1.
     -623   -1    0    0    0    0  0.00000000000E+00  0.00000000000E+00  0.12525980253E-10  0.17130000000E+03  0.17130000000E+03 0.  1.
       11    1    1    2    0    0  0.17168544563E-02 -0.14050085585E-02  0.28748578391E+00  0.28749479789E+00  0.51109989000E-03 0.  1.
     -623    1    1    2    0    0 -0.74798180107E-04  0.38274470562E-04  0.10808197591E-04  0.17130000000E+03  0.17130000000E+03 0.  1.
      622    1    1    2    0    0 -0.16420562762E-02  0.13667340880E-02  0.37125033753E+01  0.37125052021E+01  0.30000000000E-02 0.  1.
</event>
<event>
 5   0  0.3294100E+10  0.9118800E+02  0.7818608E-02  0.1180000E+00
       11   -1    0    0    0    0  0.00000000000E+00  0.00000000000E+00  0.39999999673E+01  0.40000000000E+01  0.51109989000E-03 0.  1.
     -623   -1    0    0    0    0  0.00000000000E+00  0.00000000000E+00  0.12525980253E-10  0.17130000000E+03  0.17130000000E+03 0. -1.
       11    1    1    2    0    0 -0.10001452829E-03  0.35914156206E-03  0.28440409448E+00  0.28440479807E+00  0.51109989000E-03 0.  1.
     -623    1    1    2    0    0 -0.34568903839E-03 -0.51750964648E-03  0.19132998919E-05  0.17130000000E+03  0.17130000000E+03 0. -1.
      622    1    1    2    0    0  0.44570357986E-03  0.15836810416E-03  0.37155941121E+01  0.37155953533E+01  0.30000000000E-02 0.  1.
</event>
<event>
 5   0  0.3294100E+10  0.9118800E+02  0.7818608E-02  0.1180000E+00
       11   -1    0    0    0    0  0.00000000000E+00  0.00000000000E+00  0.39999999673E+01  0.40000000000E+01  0.51109989000E-03 0. -1.
     -623   -1    0    0    0    0  0.00000000000E+00  0.00000000000E+00  0.12525980253E-10  0.17130000000E+03  0.17130000000E+03 0.  1.
       11    1    1    2    0    0  0.33804601148E-02 -0.37048342745E-02  0.62796848562E-01  0.62998878712E-01  0.51109989000E-03 0.  1.
     -623    1    1    2    0    0 -0.27669952358E-02  0.37780093809E-02  0.20325311687E-03  0.17130000006E+03  0.17130000000E+03 0.  1.
      622    1    1    2    0    0 -0.61346487897E-03 -0.73175106454E-04  0.39369998657E+01  0.39370010572E+01  0.30000000000E-02 0. -1.
</event>
<event>
 5   0  0.3294100E+10  0.9118800E+02  0.7818608E-02  0.1180000E+00
       11   -1    0    0    0    0  0.00000000000E+00  0.00000000000E+00  0.39999999673E+01  0.40000000000E+01  0.51109989000E-03 0. -1.
     -623   -1    0    0    0    0  0.00000000000E+00  0.00000000000E+00  0.12525980253E-10  0.17130000000E+03  0.17130000000E+03 0. -1.
       11    1    1    2    0    0  0.42870430887E-03  0.14332317309E-02  0.77084283407E+00  0.77084445512E+00  0.51109989000E-03 0. -1.
     -623    1    1    2    0    0 -0.61321590206E-03 -0.30531654352E-02  0.34218758871E-05  0.17130000003E+03  0.17130000000E+03 0. -1.
      622    1    1    2    0    0  0.18451160927E-03  0.16199337843E-02  0.32291538163E+01  0.32291556214E+01  0.30000000000E-02 0. -1.
</event>
<event>
 5   0  0.3294100E+10  0.9118800E+02  0.7818608E-02  0.1180000E+00
       11   -1    0    0    0    0  0.00000000000E+00  0.00000000000E+00  0.39999999673E+01  0.40000000000E+01  0.51109989000E-03 0. -1.
     -623   -1    0    0    0    0  0.00000000000E+00  0.00000000000E+00  0.12525980253E-10  0.17130000000E+03  0.17130000000E+03 0.  1.
       11    1    1    2    0    0  0.11256071033E-02 -0.17619804064E-02  0.52140392603E+00  0.52140836862E+00  0.51109989000E-03 0. -1.
     -623    1    1    2    0    0 -0.26309939719E-04 -0.10371102376E-04  0.63287892704E-05  0.17130000000E+03  0.17130000000E+03 0.  1.
      622    1    1    2    0    0 -0.10992971634E-02  0.17723515089E-02  0.34785897436E+01  0.34785916624E+01  0.30000000000E-02 0. -1.
</event>
<event>
 5   0  0.3294100E+10  0.9118800E+02  0.7818608E-02  0.1180000E+00
       11   -1    0    0    0    0  0.00000000000E+00  0.00000000000E+00  0.39999999673E+01  0.40000000000E+01  0.51109989000E-03 0.  1.
     -623   -1    0    0    0    0  0.00000000000E+00  0.00000000000E+00  0.12525980253E-10  0.17130000000E+03  0.17130000000E+03 0. -1.
       11    1    1    2    0    0 -0.38762482136E-03 -0.17086777447E-03  0.23998489886E-01  0.24007669373E-01  0.51109989000E-03 0. -1.
     -623    1    1    2    0    0  0.60672560296E-04  0.60985272126E-04  0.10293622699E-04  0.17130000000E+03  0.17130000000E+03 0. -1.
      622    1    1    2    0    0  0.32695226056E-03  0.10988250185E-03  0.39759912165E+01  0.39759923633E+01  0.30000000000E-02 0.  1.
</event>
<event>
 5   0  0.3294100E+10  0.9118800E+02  0.7818608E-02  0.1180000E+00
       11   -1    0    0    0    0  0.00000000000E+00  0.00000000000E+00  0.39999999673E+01  0.40000000000E+01  0.51109989000E-03 0. -1.
     -623   -1    0    0    0    0  0.00000000000E+00  0.00000000000E+00  0.12525980253E-10  0.17130000000E+03  0.17130000000E+03 0.  1.
       11    1    1    2    0    0 -0.30650930412E-03 -0.32234861484E-03  0.29496121971E-01  0.29503902980E-01  0.51109989000E-03 0. -1.
     -623    1    1    2    0    0 -0.91425295559E-05 -0.11316305093E-03  0.89181977367E-05  0.17130000000E+03  0.17130000000E+03 0.  1.
      622    1    1    2    0    0  0.31565183376E-03  0.43551166678E-03  0.39704949631E+01  0.39704961328E+01  0.30000000000E-02 0. -1.
</event>
<event>
 5   0  0.3294100E+10  0.9118800E+02  0.7818608E-02  0.1180000E+00
       11   -1    0    0    0    0  0.00000000000E+00  0.00000000000E+00  0.39999999673E+01  0.40000000000E+01  0.51109989000E-03 0. -1.
     -623   -1    0    0    0    0  0.00000000000E+00  0.00000000000E+00  0.12525980253E-10  0.17130000000E+03  0.17130000000E+03 0.  1.
       11    1    1    2    0    0 -0.66512430359E-03 -0.14317594039E-03  0.29372059595E-01  0.29384383568E-01  0.51109989000E-03 0.  1.
     -623    1    1    2    0    0  0.37188224472E-03 -0.23854213675E-03  0.13454405110E-04  0.17130000000E+03  0.17130000000E+03 0.  1.
      622    1    1    2    0    0  0.29324205950E-03  0.38171807673E-03  0.39706144466E+01  0.39706156091E+01  0.30000000000E-02 0. -1.
</event>
<event>
 5   0  0.3294100E+10  0.9118800E+02  0.7818608E-02  0.1180000E+00
       11   -1    0    0    0    0  0.00000000000E+00  0.00000000000E+00  0.39999999673E+01  0.40000000000E+01  0.51109989000E-03 0.  1.
     -623   -1    0    0    0    0  0.00000000000E+00  0.00000000000E+00  0.12525980253E-10  0.17130000000E+03  0.17130000000E+03 0. -1.
       11    1    1    2    0    0 -0.25080473881E-02  0.26043555340E-02  0.10092697552E+01  0.10092763611E+01  0.51109989000E-03 0.  1.
     -623    1    1    2    0    0  0.14694086317E-02 -0.11440689336E-02  0.86248372475E-05  0.17130000001E+03  0.17130000000E+03 0. -1.
      622    1    1    2    0    0  0.10386387456E-02 -0.14602865920E-02  0.29907216168E+01  0.29907236583E+01  0.30000000000E-02 0.  0.
</event>
<event>
 5   0  0.3294100E+10  0.9118800E+02  0.7818608E-02  0.1180000E+00
       11   -1    0    0    0    0  0.00000000000E+00  0.00000000000E+00  0.39999999673E+01  0.40000000000E+01  0.51109989000E-03 0. -1.
     -623   -1    0    0    0    0  0.00000000000E+00  0.00000000000E+00  0.12525980253E-10  0.17130000000E+03  0.17130000000E+03 0.  1.
       11    1    1    2    0    0 -0.11315179551E-02  0.21816170379E-03  0.35416616319E+00  0.35416840669E+00  0.51109989000E-03 0.  1.
     -623    1    1    2    0    0 -0.21545129929E-03  0.12581718560E-02  0.39976385322E-05  0.17130000000E+03  0.17130000000E+03 0.  1.
      622    1    1    2    0    0  0.13469692617E-02 -0.14763336025E-02  0.36458299425E+01  0.36458317245E+01  0.30000000000E-02 0. -1.
</event>
<event>
 5   0  0.3294100E+10  0.9118800E+02  0.7818608E-02  0.1180000E+00
       11   -1    0    0    0    0  0.00000000000E+00  0.00000000000E+00  0.39999999673E+01  0.40000000000E+01  0.51109989000E-03 0.  1.
     -623   -1    0    0    0    0  0.00000000000E+00  0.00000000000E+00  0.12525980253E-10  0.17130000000E+03  0.17130000000E+03 0. -1.
       11    1    1    2    0    0 -0.33818442383E-03 -0.22372912515E-03  0.23884548527E+00  0.23884637632E+00  0.51109989000E-03 0.  1.
     -623    1    1    2    0    0 -0.26143446449E-03  0.21847216593E-02  0.26279875738E-05  0.17130000001E+03  0.17130000000E+03 0. -1.
      622    1    1    2    0    0  0.59961888832E-03 -0.19609925342E-02  0.37611518541E+01  0.37611536096E+01  0.30000000000E-02 0.  1.
</event>
<event>
 5   0  0.3294100E+10  0.9118800E+02  0.7818608E-02  0.1180000E+00
       11   -1    0    0    0    0  0.00000000000E+00  0.00000000000E+00  0.39999999673E+01  0.40000000000E+01  0.51109989000E-03 0.  1.
     -623   -1    0    0    0    0  0.00000000000E+00  0.00000000000E+00  0.12525980253E-10  0.17130000000E+03  0.17130000000E+03 0. -1.
       11    1    1    2    0    0  0.13675153797E-02  0.53352459682E-02  0.11565919516E+01  0.11566051784E+01  0.51109989000E-03 0.  1.
     -623    1    1    2    0    0 -0.15109823162E-02  0.14241272855E-03  0.20063334658E-04  0.17130000001E+03  0.17130000000E+03 0. -1.
      622    1    1    2    0    0  0.14346693645E-03 -0.54776586968E-02  0.28433879524E+01  0.28433948148E+01  0.30000000000E-02 0.  1.
</event>
<event>
 5   0  0.3294100E+10  0.9118800E+02  0.7818608E-02  0.1180000E+00
       11   -1    0    0    0    0  0.00000000000E+00  0.00000000000E+00  0.39999999673E+01  0.40000000000E+01  0.51109989000E-03 0.  1.
     -623   -1    0    0    0    0  0.00000000000E+00  0.00000000000E+00  0.12525980253E-10  0.17130000000E+03  0.17130000000E+03 0. -1.
       11    1    1    2    0    0 -0.72013163243E-04 -0.24418850311E-03  0.59738183730E+00  0.59738211019E+00  0.51109989000E-03 0.  1.
     -623    1    1    2    0    0 -0.18143848814E-03 -0.26528402898E-03  0.16106419904E-05  0.17130000000E+03  0.17130000000E+03 0. -1.
      622    1    1    2    0    0  0.25345165376E-03  0.50947253557E-03  0.34026165719E+01  0.34026179420E+01  0.30000000000E-02 0.  0.
</event>
<event>
 5   0  0.3294100E+10  0.9118800E+02  0.7818608E-02  0.1180000E+00
       11   -1    0    0    0    0  0.00000000000E+00  0.00000000000E+00  0.39999999673E+01  0.40000000000E+01  0.51109989000E-03 0. -1.
     -623   -1    0    0    0    0  0.00000000000E+00  0.00000000000E+00  0.12525980253E-10  0.17130000000E+03  0.17130000000E+03 0.  1.
       11    1    1    2    0    0  0.71123280778E-03  0.76108680149E-03  0.96749924079E+00  0.96749993657E+00  0.51109989000E-03 0. -1.
     -623    1    1    2    0    0 -0.83255749855E-03 -0.13115323775E-04  0.22437562794E-05  0.17130000000E+03  0.17130000000E+03 0.  1.
      622    1    1    2    0    0  0.12132469077E-03 -0.74797147772E-03  0.30324984828E+01  0.30325000614E+01  0.30000000000E-02 0. -1.
</event>
<event>
 5   0  0.3294100E+10  0.9118800E+02  0.7818608E-02  0.1180000E+00
       11   -1    0    0    0    0  0.00000000000E+00  0.00000000000E+00  0.39999999673E+01  0.40000000000E+01  0.51109989000E-03 0.  1.
     -623   -1    0    0    0    0  0.00000000000E+00  0.00000000000E+00  0.12525980253E-10  0.17130000000E+03  0.17130000000E+03 0.  1.
       11    1    1    2    0    0  0.67150179336E-03 -0.73556475992E-03  0.23455701353E-01  0.23482400202E-01  0.51109989000E-03 0. -1.
     -623    1    1    2    0    0 -0.21069354564E-04  0.12539885585E-03  0.27897909252E-04  0.17130000000E+03  0.17130000000E+03 0.  1.
      622    1    1    2    0    0 -0.65043243871E-03  0.61016590352E-03  0.39765163857E+01  0.39765176173E+01  0.30000000000E-02 0.  1.
</event>
<event>
 5   0  0.3294100E+10  0.9118800E+02  0.7818608E-02  0.1180000E+00
       11   -1    0    0    0    0  0.00000000000E+00  0.00000000000E+00  0.39999999673E+01  0.40000000000E+01  0.51109989000E-03 0. -1.
     -623   -1    0    0    0    0  0.00000000000E+00  0.00000000000E+00  0.12525980253E-10  0.17130000000E+03  0.17130000000E+03 0.  1.
       11    1    1    2    0    0  0.27582140517E-03  0.16626700627E-02  0.80232316762E+00  0.80232510061E+00  0.51109989000E-03 0. -1.
     -623    1    1    2    0    0 -0.42091089700E-03  0.15612645118E-03  0.38287588722E-05  0.17130000000E+03  0.17130000000E+03 0.  1.
      622    1    1    2    0    0  0.14508949969E-03 -0.18187965168E-02  0.31976730456E+01  0.31976749735E+01  0.30000000000E-02 0. -1.
</event>
<event>
 5   0  0.3294100E+10  0.9118800E+02  0.7818608E-02  0.1180000E+00
       11   -1    0    0    0    0  0.00000000000E+00  0.00000000000E+00  0.39999999673E+01  0.40000000000E+01  0.51109989000E-03 0. -1.
     -623   -1    0    0    0    0  0.00000000000E+00  0.00000000000E+00  0.12525980253E-10  0.17130000000E+03  0.17130000000E+03 0.  1.
       11    1    1    2    0    0  0.43425922535E-03  0.34502229421E-03  0.23901716825E-01  0.23913613523E-01  0.51109989000E-03 0. -1.
     -623    1    1    2    0    0 -0.13161997642E-04  0.40726802492E-04  0.13036841156E-04  0.17130000000E+03  0.17130000000E+03 0.  1.
      622    1    1    2    0    0 -0.42109722774E-03 -0.38574909660E-03  0.39760852039E+01  0.39760863766E+01  0.30000000000E-02 0. -1.
</event>
<event>
 5   0  0.3294100E+10  0.9118800E+02  0.7818608E-02  0.1180000E+00
       11   -1    0    0    0    0  0.00000000000E+00  0.00000000000E+00  0.39999999673E+01  0.40000000000E+01  0.51109989000E-03 0. -1.
     -623   -1    0    0    0    0  0.00000000000E+00  0.00000000000E+00  0.12525980253E-10  0.17130000000E+03  0.17130000000E+03 0.  1.
       11    1    1    2    0    0 -0.18209713964E-02 -0.31058745219E-03  0.68259096784E+00  0.68259365877E+00  0.51109989000E-03 0. -1.
     -623    1    1    2    0    0  0.23120193427E-02  0.13751763844E-02  0.42430603231E-05  0.17130000002E+03  0.17130000000E+03 0.  1.
      622    1    1    2    0    0 -0.49104794635E-03 -0.10645889322E-02  0.33174047565E+01  0.33174063201E+01  0.30000000000E-02 0. -1.
</event>
<event>
 5   0  0.3294100E+10  0.9118800E+02  0.7818608E-02  0.1180000E+00
       11   -1    0    0    0    0  0.00000000000E+00  0.00000000000E+00  0.39999999673E+01  0.40000000000E+01  0.51109989000E-03 0. -1.
     -623   -1    0    0    0    0  0.00000000000E+00  0.00000000000E+00  0.12525980253E-10  0.17130000000E+03  0.17130000000E+03 0.  1.
       11    1    1    2    0    0 -0.12112871494E-02 -0.30435236348E-02  0.49763066803E+00  0.49764171172E+00  0.51109989000E-03 0. -1.
     -623    1    1    2    0    0 -0.18874125603E-02  0.61714387313E-02  0.15184999336E-04  0.17130000012E+03  0.17130000000E+03 0.  1.
      622    1    1    2    0    0  0.30986997050E-02 -0.31279150810E-02  0.35023541043E+01  0.35023581567E+01  0.30000000000E-02 0. -1.
</event>
<event>
 5   0  0.3294100E+10  0.9118800E+02  0.7818608E-02  0.1180000E+00
       11   -1    0    0    0    0  0.00000000000E+00  0.00000000000E+00  0.39999999673E+01  0.40000000000E+01  0.51109989000E-03 0. -1.
     -623   -1    0    0    0    0  0.00000000000E+00  0.00000000000E+00  0.12525980253E-10  0.17130000000E+03  0.17130000000E+03 0.  1.
       11    1    1    2    0    0  0.94061099564E-03 -0.13258672598E-02  0.45179439130E+00  0.45179760502E+00  0.51109989000E-03 0. -1.
     -623    1    1    2    0    0  0.17565033942E-03 -0.15757016631E-03  0.49351817779E-05  0.17130000000E+03  0.17130000000E+03 0.  1.
      622    1    1    2    0    0 -0.11162613382E-02  0.14834374290E-02  0.35482007134E+01  0.35482024673E+01  0.30000000000E-02 0. -1.
</event>
<event>
 5   0  0.3294100E+10  0.9118800E+02  0.7818608E-02  0.1180000E+00
       11   -1    0    0    0    0  0.00000000000E+00  0.00000000000E+00  0.39999999673E+01  0.40000000000E+01  0.51109989000E-03 0. -1.
     -623   -1    0    0    0    0  0.00000000000E+00  0.00000000000E+00  0.12525980253E-10  0.17130000000E+03  0.17130000000E+03 0.  1.
       11    1    1    2    0    0 -0.55778905860E-02  0.46216080097E-02  0.10855505529E+01  0.10855748414E+01  0.51109989000E-03 0. -1.
     -623    1    1    2    0    0  0.74631637192E-03 -0.20419300945E-02  0.30960309084E-04  0.17130000001E+03  0.17130000000E+03 0.  1.
      622    1    1    2    0    0  0.48315742141E-02 -0.25796779152E-02  0.29144184542E+01  0.29144251448E+01  0.30000000000E-02 0.  1.
</event>
<event>
 5   0  0.3294100E+10  0.9118800E+02  0.7818608E-02  0.1180000E+00
       11   -1    0    0    0    0  0.00000000000E+00  0.00000000000E+00  0.39999999673E+01  0.40000000000E+01  0.51109989000E-03 0. -1.
     -623   -1    0    0    0    0  0.00000000000E+00  0.00000000000E+00  0.12525980253E-10  0.17130000000E+03  0.17130000000E+03 0.  1.
       11    1    1    2    0    0  0.99580589323E-04  0.37384231870E-03  0.98490797106E-02  0.98699173561E-02  0.51109989000E-03 0. -1.
     -623    1    1    2    0    0 -0.57706100234E-03  0.23683267932E-04  0.21982134477E-04  0.17130000000E+03  0.17130000000E+03 0.  1.
      622    1    1    2    0    0  0.47748041345E-03 -0.39752558664E-03  0.39901289085E+01  0.39901300847E+01  0.30000000000E-02 0. -1.
</event>
<event>
 5   0  0.3294100E+10  0.9118800E+02  0.7818608E-02  0.1180000E+00
       11   -1    0    0    0    0  0.00000000000E+00  0.00000000000E+00  0.39999999673E+01  0.40000000000E+01  0.51109989000E-03 0. -1.
     -623   -1    0    0    0    0  0.00000000000E+00  0.00000000000E+00  0.12525980253E-10  0.17130000000E+03  0.17130000000E+03 0.  1.
       11    1    1    2    0    0  0.76967200572E-03 -0.61054907339E-03  0.63052424399E+00  0.63052521651E+00  0.51109989000E-03 0. -1.
     -623    1    1    2    0    0 -0.71265976747E-03 -0.10556500275E-03  0.23534888656E-05  0.17130000000E+03  0.17130000000E+03 0.  1.
      622    1    1    2    0    0 -0.57012208009E-04  0.71611408062E-03  0.33694735396E+01  0.33694749517E+01  0.30000000000E-02 0. -1.
</event>
<event>
 5   0  0.3294100E+10  0.9118800E+02  0.7818608E-02  0.1180000E+00
       11   -1    0    0    0    0  0.00000000000E+00  0.00000000000E+00  0.39999999673E+01  0.40000000000E+01  0.51109989000E-03 0. -1.
     -623   -1    0    0    0    0  0.00000000000E+00  0.00000000000E+00  0.12525980253E-10  0.17130000000E+03  0.17130000000E+03 0.  1.
       11    1    1    2    0    0 -0.13780653590E-02  0.54101095552E-02  0.70992790227E+00  0.70995003767E+00  0.51109989000E-03 0. -1.
     -623    1    1    2    0    0  0.10029151671E-03  0.52971334346E-04  0.28254380197E-04  0.17130000000E+03  0.17130000000E+03 0.  1.
      622    1    1    2    0    0  0.12777738423E-02 -0.54630808895E-02  0.32900438107E+01  0.32900499623E+01  0.30000000000E-02 0. -1.
</event>
<event>
 5   0  0.3294100E+10  0.9118800E+02  0.7818608E-02  0.1180000E+00
       11   -1    0    0    0    0  0.00000000000E+00  0.00000000000E+00  0.39999999673E+01  0.40000000000E+01  0.51109989000E-03 0. -1.
     -623   -1    0    0    0    0  0.00000000000E+00  0.00000000000E+00  0.12525980253E-10  0.17130000000E+03  0.17130000000E+03 0.  1.
       11    1    1    2    0    0 -0.19762505826E-02 -0.27922870095E-02  0.11433989355E+01  0.11434041671E+01  0.51109989000E-03 0. -1.
     -623    1    1    2    0    0  0.59984140726E-04 -0.11078819823E-04  0.87925826495E-05  0.17130000000E+03  0.17130000000E+03 0.  1.
      622    1    1    2    0    0  0.19162664419E-02  0.28033658294E-02  0.28565922393E+01  0.28565958329E+01  0.30000000000E-02 0. -1.
</event>
<event>
 5   0  0.3294100E+10  0.9118800E+02  0.7818608E-02  0.1180000E+00
       11   -1    0    0    0    0  0.00000000000E+00  0.00000000000E+00  0.39999999673E+01  0.40000000000E+01  0.51109989000E-03 0. -1.
     -623   -1    0    0    0    0  0.00000000000E+00  0.00000000000E+00  0.12525980253E-10  0.17130000000E+03  0.17130000000E+03 0.  1.
       11    1    1    2    0    0  0.34154143000E-02  0.19635248573E-02  0.21519921763E+00  0.21523588217E+00  0.51109989000E-03 0. -1.
     -623    1    1    2    0    0  0.36717931417E-04  0.34519840139E-05  0.39906389420E-04  0.17130000000E+03  0.17130000000E+03 0.  1.
      622    1    1    2    0    0 -0.34521322314E-02 -0.19669768413E-02  0.37847608468E+01  0.37847641213E+01  0.30000000000E-02 0. -1.
</event>
<event>
 5   0  0.3294100E+10  0.9118800E+02  0.7818608E-02  0.1180000E+00
       11   -1    0    0    0    0  0.00000000000E+00  0.00000000000E+00  0.39999999673E+01  0.40000000000E+01  0.51109989000E-03 0. -1.
     -623   -1    0    0    0    0  0.00000000000E+00  0.00000000000E+00  0.12525980253E-10  0.17130000000E+03  0.17130000000E+03 0. -1.
       11    1    1    2    0    0 -0.18764950016E-02 -0.63613446542E-03  0.58108314792E+00  0.58108675077E+00  0.51109989000E-03 0. -1.
     -623    1    1    2    0    0  0.17865283771E-02 -0.46568942623E-03  0.50750930565E-05  0.17130000001E+03  0.17130000000E+03 0. -1.
      622    1    1    2    0    0  0.89966624507E-04  0.11018238917E-02  0.34189117443E+01  0.34189132393E+01  0.30000000000E-02 0. -1.
</event>
<event>
 5   0  0.3294100E+10  0.9118800E+02  0.7818608E-02  0.1180000E+00
       11   -1    0    0    0    0  0.00000000000E+00  0.00000000000E+00  0.39999999673E+01  0.40000000000E+01  0.51109989000E-03 0. -1.
     -623   -1    0    0    0    0  0.00000000000E+00  0.00000000000E+00  0.12525980253E-10  0.17130000000E+03  0.17130000000E+03 0.  1.
       11    1    1    2    0    0 -0.78234399933E-03 -0.36320335395E-02  0.50434813781E+00  0.50436208131E+00  0.51109989000E-03 0. -1.
     -623    1    1    2    0    0 -0.69232269267E-04 -0.13564423220E-03  0.17332420046E-04  0.17130000000E+03  0.17130000000E+03 0.  1.
      622    1    1    2    0    0  0.85157626860E-03  0.37676777717E-02  0.34956344971E+01  0.34956379186E+01  0.30000000000E-02 0. -1.
</event>
<event>
 5   0  0.3294100E+10  0.9118800E+02  0.7818608E-02  0.1180000E+00
       11   -1    0    0    0    0  0.00000000000E+00  0.00000000000E+00  0.39999999673E+01  0.40000000000E+01  0.51109989000E-03 0.  1.
     -623   -1    0    0    0    0  0.00000000000E+00  0.00000000000E+00  0.12525980253E-10  0.17130000000E+03  0.17130000000E+03 0. -1.
       11    1    1    2    0    0  0.45289653225E-02  0.36046418501E-03  0.25152617543E-01  0.25564758041E-01  0.51109989000E-03 0.  1.
     -623    1    1    2    0    0 -0.40631327607E-02 -0.14118068864E-02  0.41346095195E-03  0.17130000005E+03  0.17130000000E+03 0. -1.
      622    1    1    2    0    0 -0.46583256162E-03  0.10513427014E-02  0.39744338891E+01  0.39744351876E+01  0.30000000000E-02 0.  1.
</event>
<event>
 5   0  0.3294100E+10  0.9118800E+02  0.7818608E-02  0.1180000E+00
       11   -1    0    0    0    0  0.00000000000E+00  0.00000000000E+00  0.39999999673E+01  0.40000000000E+01  0.51109989000E-03 0. -1.
     -623   -1    0    0    0    0  0.00000000000E+00  0.00000000000E+00  0.12525980253E-10  0.17130000000E+03  0.17130000000E+03 0. -1.
       11    1    1    2    0    0 -0.25148922353E-02 -0.40848547512E-04  0.49050114635E+00  0.49050786146E+00  0.51109989000E-03 0. -1.
     -623    1    1    2    0    0  0.13388778599E-02 -0.35730313454E-03  0.81899269344E-05  0.17130000001E+03  0.17130000000E+03 0. -1.
      622    1    1    2    0    0  0.11760143853E-02  0.39815167942E-03  0.35094906016E+01  0.35094921034E+01  0.30000000000E-02 0. -1.
</event>
<event>
 5   0  0.3294100E+10  0.9118800E+02  0.7818608E-02  0.1180000E+00
       11   -1    0    0    0    0  0.00000000000E+00  0.00000000000E+00  0.39999999673E+01  0.40000000000E+01  0.51109989000E-03 0. -1.
     -623   -1    0    0    0    0  0.00000000000E+00  0.00000000000E+00  0.12525980253E-10  0.17130000000E+03  0.17130000000E+03 0.  1.
       11    1    1    2    0    0  0.26514122784E-02 -0.11057972273E-01  0.15019348953E+00  0.15062421538E+00  0.51109989000E-03 0. -1.
     -623    1    1    2    0    0 -0.37226139046E-03  0.25415397737E-03  0.44769939057E-03  0.17130000000E+03  0.17130000000E+03 0.  1.
      622    1    1    2    0    0 -0.22791508880E-02  0.10803818296E-01  0.38493587782E+01  0.38493757832E+01  0.30000000000E-02 0. -1.
</event>
<event>
 5   0  0.3294100E+10  0.9118800E+02  0.7818608E-02  0.1180000E+00
       11   -1    0    0    0    0  0.00000000000E+00  0.00000000000E+00  0.39999999673E+01  0.40000000000E+01  0.51109989000E-03 0. -1.
     -623   -1    0    0    0    0  0.00000000000E+00  0.00000000000E+00  0.12525980253E-10  0.17130000000E+03  0.17130000000E+03 0. -1.
       11    1    1    2    0    0  0.80148986762E-03  0.53253537591E-03  0.36581930944E+00  0.36582093210E+00  0.51109989000E-03 0. -1.
     -623    1    1    2    0    0  0.89299527061E-04 -0.54252226146E-03  0.29383311411E-05  0.17130000000E+03  0.17130000000E+03 0. -1.
      622    1    1    2    0    0 -0.89078939468E-03  0.99868855539E-05  0.36341777196E+01  0.36341790670E+01  0.30000000000E-02 0. -1.
</event>
<event>
 5   0  0.3294100E+10  0.9118800E+02  0.7818608E-02  0.1180000E+00
       11   -1    0    0    0    0  0.00000000000E+00  0.00000000000E+00  0.39999999673E+01  0.40000000000E+01  0.51109989000E-03 0. -1.
     -623   -1    0    0    0    0  0.00000000000E+00  0.00000000000E+00  0.12525980253E-10  0.17130000000E+03  0.17130000000E+03 0.  1.
       11    1    1    2    0    0 -0.19804041755E-03  0.58646486819E-03  0.29280058871E+00  0.29280168909E+00  0.51109989000E-03 0. -1.
     -623    1    1    2    0    0  0.73381397664E-03 -0.45262243674E-04  0.23613908451E-05  0.17130000000E+03  0.17130000000E+03 0.  1.
      622    1    1    2    0    0 -0.53577358078E-03 -0.54120262318E-03  0.37071971355E+01  0.37071984276E+01  0.30000000000E-02 0. -1.
</event>
<event>
 5   0  0.3294100E+10  0.9118800E+02  0.7818608E-02  0.1180000E+00
       11   -1    0    0    0    0  0.00000000000E+00  0.00000000000E+00  0.39999999673E+01  0.40000000000E+01  0.51109989000E-03 0. -1.
     -623   -1    0    0    0    0  0.00000000000E+00  0.00000000000E+00  0.12525980253E-10  0.17130000000E+03  0.17130000000E+03 0.  1.
       11    1    1    2    0    0  0.14354461340E-02  0.24583916645E-02  0.47710358772E+00  0.47711235451E+00  0.51109989000E-03 0. -1.
     -623    1    1    2    0    0  0.36897755552E-04 -0.49869357242E-04  0.11142531825E-04  0.17130000000E+03  0.17130000000E+03 0.  1.
      622    1    1    2    0    0 -0.14723438900E-02 -0.24085223067E-02  0.35228852844E+01  0.35228876927E+01  0.30000000000E-02 0. -1.
</event>
<event>
 5   0  0.3294100E+10  0.9118800E+02  0.7818608E-02  0.1180000E+00
       11   -1    0    0    0    0  0.00000000000E+00  0.00000000000E+00  0.39999999673E+01  0.40000000000E+01  0.51109989000E-03 0. -1.
     -623   -1    0    0    0    0  0.00000000000E+00  0.00000000000E+00  0.12525980253E-10  0.17130000000E+03  0.17130000000E+03 0.  1.
       11    1    1    2    0    0  0.81411839125E-03  0.74562261011E-03  0.28189139230E+00  0.28189401735E+00  0.51109989000E-03 0.  1.
     -623    1    1    2    0    0  0.41660432368E-04  0.18964057527E-04  0.39798096392E-05  0.17130000000E+03  0.17130000000E+03 0.  1.
      622    1    1    2    0    0 -0.85577882335E-03 -0.76458666751E-03  0.37181045701E+01  0.37181059575E+01  0.30000000000E-02 0. -1.
</event>
<event>
 5   0  0.3294100E+10  0.9118800E+02  0.7818608E-02  0.1180000E+00
       11   -1    0    0    0    0  0.00000000000E+00  0.00000000000E+00  0.39999999673E+01  0.40000000000E+01  0.51109989000E-03 0.  1.
     -623   -1    0    0    0    0  0.00000000000E+00  0.00000000000E+00  0.12525980253E-10  0.17130000000E+03  0.17130000000E+03 0. -1.
       11    1    1    2    0    0 -0.51700672777E-03  0.85826347091E-03  0.83207302564E-01  0.83214904511E-01  0.51109989000E-03 0.  1.
     -623    1    1    2    0    0  0.53264106380E-04  0.41014386547E-04  0.88489108774E-05  0.17130000000E+03  0.17130000000E+03 0. -1.
      622    1    1    2    0    0  0.46374262139E-03 -0.89927785745E-03  0.39167838159E+01  0.39167850955E+01  0.30000000000E-02 0.  1.
</event>
<event>
 5   0  0.3294100E+10  0.9118800E+02  0.7818608E-02  0.1180000E+00
       11   -1    0    0    0    0  0.00000000000E+00  0.00000000000E+00  0.39999999673E+01  0.40000000000E+01  0.51109989000E-03 0. -1.
     -623   -1    0    0    0    0  0.00000000000E+00  0.00000000000E+00  0.12525980253E-10  0.17130000000E+03  0.17130000000E+03 0. -1.
       11    1    1    2    0    0 -0.28730186121E-02 -0.68660686519E-03  0.55595224450E+00  0.55596032687E+00  0.51109989000E-03 0. -1.
     -623    1    1    2    0    0  0.28133395107E-02 -0.13365189635E-02  0.99793884987E-05  0.17130000003E+03  0.17130000000E+03 0. -1.
      622    1    1    2    0    0  0.59679101439E-04  0.20231258286E-02  0.34440377435E+01  0.34440396448E+01  0.30000000000E-02 0. -1.
</event>
<event>
 5   0  0.3294100E+10  0.9118800E+02  0.7818608E-02  0.1180000E+00
       11   -1    0    0    0    0  0.00000000000E+00  0.00000000000E+00  0.39999999673E+01  0.40000000000E+01  0.51109989000E-03 0.  1.
     -623   -1    0    0    0    0  0.00000000000E+00  0.00000000000E+00  0.12525980253E-10  0.17130000000E+03  0.17130000000E+03 0.  1.
       11    1    1    2    0    0 -0.15822873893E-02 -0.95723363637E-03  0.33832748599E+00  0.33833292617E+00  0.51109989000E-03 0.  1.
     -623    1    1    2    0    0  0.69242946957E-03 -0.29322116575E-03  0.69597774943E-05  0.17130000000E+03  0.17130000000E+03 0.  1.
      622    1    1    2    0    0  0.88985790847E-03  0.12504548069E-02  0.36616655865E+01  0.36616671371E+01  0.30000000000E-02 0.  1.
</event>
<event>
 5   0  0.3294100E+10  0.9118800E+02  0.7818608E-02  0.1180000E+00
       11   -1    0    0    0    0  0.00000000000E+00  0.00000000000E+00  0.39999999673E+01  0.40000000000E+01  0.51109989000E-03 0. -1.
     -623   -1    0    0    0    0  0.00000000000E+00  0.00000000000E+00  0.12525980253E-10  0.17130000000E+03  0.17130000000E+03 0.  1.
       11    1    1    2    0    0 -0.67675154782E-03 -0.31742929192E-03  0.64818612580E+00  0.64818675831E+00  0.51109989000E-03 0. -1.
     -623    1    1    2    0    0  0.80381836305E-05  0.46984165378E-04  0.20200564186E-05  0.17130000000E+03  0.17130000000E+03 0.  1.
      622    1    1    2    0    0  0.66871336419E-03  0.27044512654E-03  0.33518118215E+01  0.33518132417E+01  0.30000000000E-02 0. -1.
</event>
<event>
 5   0  0.3294100E+10  0.9118800E+02  0.7818608E-02  0.1180000E+00
       11   -1    0    0    0    0  0.00000000000E+00  0.00000000000E+00  0.39999999673E+01  0.40000000000E+01  0.51109989000E-03 0. -1.
     -623   -1    0    0    0    0  0.00000000000E+00  0.00000000000E+00  0.12525980253E-10  0.17130000000E+03  0.17130000000E+03 0.  1.
       11    1    1    2    0    0 -0.14396307954E-03  0.50992779753E-03  0.36949887404E+00  0.36949960743E+00  0.51109989000E-03 0. -1.
     -623    1    1    2    0    0 -0.52121289723E-03 -0.60404006540E-04  0.20298193166E-05  0.17130000000E+03  0.17130000000E+03 0.  1.
      622    1    1    2    0    0  0.66517598605E-03 -0.44952378992E-03  0.36304991347E+01  0.36305004630E+01  0.30000000000E-02 0. -1.
</event>
<event>
 5   0  0.3294100E+10  0.9118800E+02  0.7818608E-02  0.1180000E+00
       11   -1    0    0    0    0  0.00000000000E+00  0.00000000000E+00  0.39999999673E+01  0.40000000000E+01  0.51109989000E-03 0.  1.
     -623   -1    0    0    0    0  0.00000000000E+00  0.00000000000E+00  0.12525980253E-10  0.17130000000E+03  0.17130000000E+03 0. -1.
       11    1    1    2    0    0 -0.33945681064E-02 -0.20692341321E-02  0.60042205283E+00  0.60043543164E+00  0.51109989000E-03 0.  1.
     -623    1    1    2    0    0  0.26190608032E-02  0.32354423026E-02  0.15008933596E-04  0.17130000005E+03  0.17130000000E+03 0. -1.
      622    1    1    2    0    0  0.77550728113E-03 -0.11662081977E-02  0.33995629393E+01  0.33995645515E+01  0.30000000000E-02 0.  1.
</event>
<event>
 5   0  0.3294100E+10  0.9118800E+02  0.7818608E-02  0.1180000E+00
       11   -1    0    0    0    0  0.00000000000E+00  0.00000000000E+00  0.39999999673E+01  0.40000000000E+01  0.51109989000E-03 0. -1.
     -623   -1    0    0    0    0  0.00000000000E+00  0.00000000000E+00  0.12525980253E-10  0.17130000000E+03  0.17130000000E+03 0.  1.
       11    1    1    2    0    0  0.89814940585E-03 -0.15449259007E-02  0.23921954231E+00  0.23922676295E+00  0.51109989000E-03 0. -1.
     -623    1    1    2    0    0  0.36241413994E-03  0.43233344397E-03  0.87613294268E-05  0.17130000000E+03  0.17130000000E+03 0.  1.
      622    1    1    2    0    0 -0.12605635458E-02  0.11125924567E-02  0.37607716637E+01  0.37607732361E+01  0.30000000000E-02 0. -1.
</event>
<event>
 5   0  0.3294100E+10  0.9118800E+02  0.7818608E-02  0.1180000E+00
       11   -1    0    0    0    0  0.00000000000E+00  0.00000000000E+00  0.39999999673E+01  0.40000000000E+01  0.51109989000E-03 0. -1.
     -623   -1    0    0    0    0  0.00000000000E+00  0.00000000000E+00  0.12525980253E-10  0.17130000000E+03  0.17130000000E+03 0. -1.
       11    1    1    2    0    0 -0.65600474268E-04 -0.11953704993E-03  0.16991875419E+00  0.16991957757E+00  0.51109989000E-03 0. -1.
     -623    1    1    2    0    0  0.47605421028E-04  0.29572824195E-04  0.19667567841E-05  0.17130000000E+03  0.17130000000E+03 0. -1.
      622    1    1    2    0    0  0.17995052991E-04  0.89964225575E-04  0.38300792674E+01  0.38300804434E+01  0.30000000000E-02 0. -1.
</event>
<event>
 5   0  0.3294100E+10  0.9118800E+02  0.7818608E-02  0.1180000E+00
       11   -1    0    0    0    0  0.00000000000E+00  0.00000000000E+00  0.39999999673E+01  0.40000000000E+01  0.51109989000E-03 0.  1.
     -623   -1    0    0    0    0  0.00000000000E+00  0.00000000000E+00  0.12525980253E-10  0.17130000000E+03  0.17130000000E+03 0.  1.
       11    1    1    2    0    0 -0.75448147488E-04  0.51609375672E-03  0.91431366570E+00  0.91431395732E+00  0.51109989000E-03 0.  1.
     -623    1    1    2    0    0 -0.14563803694E-03  0.12754211601E-03  0.17924858811E-05  0.17130000000E+03  0.17130000000E+03 0.  1.
      622    1    1    2    0    0  0.22108618963E-03 -0.64363587730E-03  0.30856846521E+01  0.30856861855E+01  0.30000000000E-02 0.  1.
</event>
<event>
 5   0  0.3294100E+10  0.9118800E+02  0.7818608E-02  0.1180000E+00
       11   -1    0    0    0    0  0.00000000000E+00  0.00000000000E+00  0.39999999673E+01  0.40000000000E+01  0.51109989000E-03 0. -1.
     -623   -1    0    0    0    0  0.00000000000E+00  0.00000000000E+00  0.12525980253E-10  0.17130000000E+03  0.17130000000E+03 0.  1.
       11    1    1    2    0    0  0.12995527199E-02  0.30778155091E-03  0.53882803670E-01  0.53901774726E-01  0.51109989000E-03 0. -1.
     -623    1    1    2    0    0 -0.98773147311E-04 -0.99601920327E-04  0.20267028279E-04  0.17130000000E+03  0.17130000000E+03 0.  1.
      622    1    1    2    0    0 -0.12007795726E-02 -0.20817963058E-03  0.39460968967E+01  0.39460982252E+01  0.30000000000E-02 0. -1.
</event>
<event>
 5   0  0.3294100E+10  0.9118800E+02  0.7818608E-02  0.1180000E+00
       11   -1    0    0    0    0  0.00000000000E+00  0.00000000000E+00  0.39999999673E+01  0.40000000000E+01  0.51109989000E-03 0.  1.
     -623   -1    0    0    0    0  0.00000000000E+00  0.00000000000E+00  0.12525980253E-10  0.17130000000E+03  0.17130000000E+03 0.  1.
       11    1    1    2    0    0  0.45559914819E-03 -0.62587046505E-03  0.25345429078E+00  0.25345598834E+00  0.51109989000E-03 0.  1.
     -623    1    1    2    0    0 -0.11072428409E-02 -0.22286722454E-03  0.30225512155E-05  0.17130000000E+03  0.17130000000E+03 0.  1.
      622    1    1    2    0    0  0.65164371499E-03  0.84873769408E-03  0.37465427346E+01  0.37465440885E+01  0.30000000000E-02 0.  1.
</event>
<event>
 5   0  0.3294100E+10  0.9118800E+02  0.7818608E-02  0.1180000E+00
       11   -1    0    0    0    0  0.00000000000E+00  0.00000000000E+00  0.39999999673E+01  0.40000000000E+01  0.51109989000E-03 0.  1.
     -623   -1    0    0    0    0  0.00000000000E+00  0.00000000000E+00  0.12525980253E-10  0.17130000000E+03  0.17130000000E+03 0. -1.
       11    1    1    2    0    0  0.74765000713E-03  0.33442067731E-03  0.70236396477E+00  0.70236462827E+00  0.51109989000E-03 0.  1.
     -623    1    1    2    0    0  0.44549183344E-04  0.49072793672E-04  0.21129445988E-05  0.17130000000E+03  0.17130000000E+03 0. -1.
      622    1    1    2    0    0 -0.79219918990E-03 -0.38349347035E-03  0.32976338381E+01  0.32976353202E+01  0.30000000000E-02 0.  1.
</event>
<event>
 5   0  0.3294100E+10  0.9118800E+02  0.7818608E-02  0.1180000E+00
       11   -1    0    0    0    0  0.00000000000E+00  0.00000000000E+00  0.39999999673E+01  0.40000000000E+01  0.51109989000E-03 0. -1.
     -623   -1    0    0    0    0  0.00000000000E+00  0.00000000000E+00  0.12525980253E-10  0.17130000000E+03  0.17130000000E+03 0. -1.
       11    1    1    2    0    0  0.49777581526E-03  0.36619629580E-02  0.10467971540E+01  0.10468038023E+01  0.51109989000E-03 0. -1.
     -623    1    1    2    0    0  0.82087256484E-03 -0.50617672520E-02  0.88423779250E-05  0.17130000008E+03  0.17130000000E+03 0. -1.
      622    1    1    2    0    0 -0.13186483801E-02  0.13998042940E-02  0.29531939710E+01  0.29531961209E+01  0.30000000000E-02 0. -1.
</event>
<event>
 5   0  0.3294100E+10  0.9118800E+02  0.7818608E-02  0.1180000E+00
       11   -1    0    0    0    0  0.00000000000E+00  0.00000000000E+00  0.39999999673E+01  0.40000000000E+01  0.51109989000E-03 0. -1.
     -623   -1    0    0    0    0  0.00000000000E+00  0.00000000000E+00  0.12525980253E-10  0.17130000000E+03  0.17130000000E+03 0.  1.
       11    1    1    2    0    0 -0.25170321637E-03 -0.32414985353E-03  0.68506156672E+00  0.68506188031E+00  0.51109989000E-03 0. -1.
     -623    1    1    2    0    0 -0.47501977225E-04  0.91561799022E-04  0.16601306103E-05  0.17130000000E+03  0.17130000000E+03 0.  1.
      622    1    1    2    0    0  0.29920519556E-03  0.23258805071E-03  0.33149369062E+01  0.33149382854E+01  0.30000000000E-02 0. -1.
</event>
<event>
 5   0  0.3294100E+10  0.9118800E+02  0.7818608E-02  0.1180000E+00
       11   -1    0    0    0    0  0.00000000000E+00  0.00000000000E+00  0.39999999673E+01  0.40000000000E+01  0.51109989000E-03 0. -1.
     -623   -1    0    0    0    0  0.00000000000E+00  0.00000000000E+00  0.12525980253E-10  0.17130000000E+03  0.17130000000E+03 0.  1.
       11    1    1    2    0    0 -0.23477088863E-02 -0.71656443640E-03  0.19792129518E+00  0.19793717566E+00  0.51109989000E-03 0.  1.
     -623    1    1    2    0    0  0.20297362246E-02  0.26523337151E-03  0.17083728643E-04  0.17130000001E+03  0.17130000000E+03 0.  1.
      622    1    1    2    0    0  0.31797266169E-03  0.45133106489E-03  0.38020615885E+01  0.38020628121E+01  0.30000000000E-02 0. -1.
</event>
<event>
 5   0  0.3294100E+10  0.9118800E+02  0.7818608E-02  0.1180000E+00
       11   -1    0    0    0    0  0.00000000000E+00  0.00000000000E+00  0.39999999673E+01  0.40000000000E+01  0.51109989000E-03 0.  1.
     -623   -1    0    0    0    0  0.00000000000E+00  0.00000000000E+00  0.12525980253E-10  0.17130000000E+03  0.17130000000E+03 0.  1.
       11    1    1    2    0    0 -0.43748978028E-03 -0.97308663390E-03  0.11054745934E+00  0.11055378910E+00  0.51109989000E-03 0.  1.
     -623    1    1    2    0    0  0.63522970795E-03  0.46382275785E-03  0.74942704549E-05  0.17130000000E+03  0.17130000000E+03 0.  1.
      622    1    1    2    0    0 -0.19773993207E-03  0.50926387284E-03  0.38894450414E+01  0.38894462368E+01  0.30000000000E-02 0.  0.
</event>
<event>
 5   0  0.3294100E+10  0.9118800E+02  0.7818608E-02  0.1180000E+00
       11   -1    0    0    0    0  0.00000000000E+00  0.00000000000E+00  0.39999999673E+01  0.40000000000E+01  0.51109989000E-03 0.  1.
     -623   -1    0    0    0    0  0.00000000000E+00  0.00000000000E+00  0.12525980253E-10  0.17130000000E+03  0.17130000000E+03 0. -1.
       11    1    1    2    0    0  0.33934481511E-03  0.70967730363E-03  0.29598023795E+00  0.29598172457E+00  0.51109989000E-03 0. -1.
     -623    1    1    2    0    0  0.59786379455E-03  0.66938098301E-04  0.28699133705E-05  0.17130000000E+03  0.17130000000E+03 0. -1.
      622    1    1    2    0    0 -0.93720860467E-03 -0.77661540137E-03  0.37040168260E+01  0.37040182409E+01  0.30000000000E-02 0.  1.
</event>
<event>
 5   0  0.3294100E+10  0.9118800E+02  0.7818608E-02  0.1180000E+00
       11   -1    0    0    0    0  0.00000000000E+00  0.00000000000E+00  0.39999999673E+01  0.40000000000E+01  0.51109989000E-03 0. -1.
     -623   -1    0    0    0    0  0.00000000000E+00  0.00000000000E+00  0.12525980253E-10  0.17130000000E+03  0.17130000000E+03 0.  1.
       11    1    1    2    0    0  0.10039329152E-02  0.15314056693E-02  0.11873702282E+01  0.11873717502E+01  0.51109989000E-03 0. -1.
     -623    1    1    2    0    0  0.19446840829E-03  0.49611125265E-03  0.40761819498E-05  0.17130000000E+03  0.17130000000E+03 0.  1.
      622    1    1    2    0    0 -0.11984013235E-02 -0.20275169220E-02  0.28126256629E+01  0.28126282490E+01  0.30000000000E-02 0.  0.
</event>
<event>
 5   0  0.3294100E+10  0.9118800E+02  0.7818608E-02  0.1180000E+00
       11   -1    0    0    0    0  0.00000000000E+00  0.00000000000E+00  0.39999999673E+01  0.40000000000E+01  0.51109989000E-03 0.  1.
     -623   -1    0    0    0    0  0.00000000000E+00  0.00000000000E+00  0.12525980253E-10  0.17130000000E+03  0.17130000000E+03 0.  1.
       11    1    1    2    0    0  0.51109001784E-03 -0.10082846730E-02  0.15401355790E+00  0.15401855437E+00  0.51109989000E-03 0. -1.
     -623    1    1    2    0    0 -0.39885212014E-04 -0.68217681925E-04  0.63134276762E-05  0.17130000000E+03  0.17130000000E+03 0.  1.
      622    1    1    2    0    0 -0.47120480582E-03  0.10765023550E-02  0.38459800966E+01  0.38459814462E+01  0.30000000000E-02 0.  1.
</event>
<event>
 5   0  0.3294100E+10  0.9118800E+02  0.7818608E-02  0.1180000E+00
       11   -1    0    0    0    0  0.00000000000E+00  0.00000000000E+00  0.39999999673E+01  0.40000000000E+01  0.51109989000E-03 0.  1.
     -623   -1    0    0    0    0  0.00000000000E+00  0.00000000000E+00  0.12525980253E-10  0.17130000000E+03  0.17130000000E+03 0. -1.
       11    1    1    2    0    0  0.19977874239E-03 -0.15492776069E-03  0.39361218730E+00  0.39361260031E+00  0.51109989000E-03 0. -1.
     -623    1    1    2    0    0  0.62044786976E-03  0.45583971118E-03  0.17357200042E-05  0.17130000000E+03  0.17130000000E+03 0. -1.
      622    1    1    2    0    0 -0.82022661215E-03 -0.30091195049E-03  0.36063860443E+01  0.36063873980E+01  0.30000000000E-02 0.  1.
</event>
<event>
 5   0  0.3294100E+10  0.9118800E+02  0.7818608E-02  0.1180000E+00
       11   -1    0    0    0    0  0.00000000000E+00  0.00000000000E+00  0.39999999673E+01  0.40000000000E+01  0.51109989000E-03 0. -1.
     -623   -1    0    0    0    0  0.00000000000E+00  0.00000000000E+00  0.12525980253E-10  0.17130000000E+03  0.17130000000E+03 0.  1.
       11    1    1    2    0    0  0.65830175245E-02 -0.25613207874E-02  0.10440712830E+01  0.10440953030E+01  0.51109989000E-03 0. -1.
     -623    1    1    2    0    0  0.12569659177E-03 -0.10909238714E-03  0.34329100993E-04  0.17130000000E+03  0.17130000000E+03 0.  1.
      622    1    1    2    0    0 -0.67087141165E-02  0.26704131748E-02  0.29558943649E+01  0.29559047066E+01  0.30000000000E-02 0. -1.
</event>
<event>
 5   0  0.3294100E+10  0.9118800E+02  0.7818608E-02  0.1180000E+00
       11   -1    0    0    0    0  0.00000000000E+00  0.00000000000E+00  0.39999999673E+01  0.40000000000E+01  0.51109989000E-03 0.  1.
     -623   -1    0    0    0    0  0.00000000000E+00  0.00000000000E+00  0.12525980253E-10  0.17130000000E+03  0.17130000000E+03 0. -1.
       11    1    1    2    0    0 -0.97972336137E-05  0.14161023580E-03  0.25931630056E+00  0.25931684308E+00  0.51109989000E-03 0.  1.
     -623    1    1    2    0    0  0.24190547788E-04  0.17464083682E-04  0.17162885624E-05  0.17130000000E+03  0.17130000000E+03 0. -1.
      622    1    1    2    0    0 -0.14393314986E-04 -0.15907432007E-03  0.37406820847E+01  0.37406832911E+01  0.30000000000E-02 0.  1.
</event>
<event>
 5   0  0.3294100E+10  0.9118800E+02  0.7818608E-02  0.1180000E+00
       11   -1    0    0    0    0  0.00000000000E+00  0.00000000000E+00  0.39999999673E+01  0.40000000000E+01  0.51109989000E-03 0. -1.
     -623   -1    0    0    0    0  0.00000000000E+00  0.00000000000E+00  0.12525980253E-10  0.17130000000E+03  0.17130000000E+03 0.  1.
       11    1    1    2    0    0 -0.24230016035E-02  0.93159826991E-03  0.44870500257E+00  0.44871280276E+00  0.51109989000E-03 0. -1.
     -623    1    1    2    0    0  0.98945071817E-03  0.27894028981E-03  0.95334492625E-05  0.17130000000E+03  0.17130000000E+03 0.  1.
      622    1    1    2    0    0  0.14335508798E-02 -0.12105385613E-02  0.35512854539E+01  0.35512872167E+01  0.30000000000E-02 0. -1.
</event>
<event>
 5   0  0.3294100E+10  0.9118800E+02  0.7818608E-02  0.1180000E+00
       11   -1    0    0    0    0  0.00000000000E+00  0.00000000000E+00  0.39999999673E+01  0.40000000000E+01  0.51109989000E-03 0.  1.
     -623   -1    0    0    0    0  0.00000000000E+00  0.00000000000E+00  0.12525980253E-10  0.17130000000E+03  0.17130000000E+03 0. -1.
       11    1    1    2    0    0  0.24936055141E-05 -0.17483749093E-02  0.11796071316E+01  0.11796085380E+01  0.51109989000E-03 0.  1.
     -623    1    1    2    0    0 -0.19878560846E-03  0.11541753589E-02  0.30427291224E-05  0.17130000000E+03  0.17130000000E+03 0. -1.
      622    1    1    2    0    0  0.19629200436E-03  0.59419954219E-03  0.28203898215E+01  0.28203914865E+01  0.30000000000E-02 0.  1.
</event>
<event>
 5   0  0.3294100E+10  0.9118800E+02  0.7818608E-02  0.1180000E+00
       11   -1    0    0    0    0  0.00000000000E+00  0.00000000000E+00  0.39999999673E+01  0.40000000000E+01  0.51109989000E-03 0. -1.
     -623   -1    0    0    0    0  0.00000000000E+00  0.00000000000E+00  0.12525980253E-10  0.17130000000E+03  0.17130000000E+03 0. -1.
       11    1    1    2    0    0 -0.10329260655E-02 -0.17621523987E-03  0.17291552957E+00  0.17291945979E+00  0.51109989000E-03 0. -1.
     -623    1    1    2    0    0  0.41893951888E-04 -0.34094708585E-04  0.52075171260E-05  0.17130000000E+03  0.17130000000E+03 0. -1.
      622    1    1    2    0    0  0.99103211360E-03  0.21030994845E-03  0.38270792303E+01  0.38270805402E+01  0.30000000000E-02 0. -1.
</event>
<event>
 5   0  0.3294100E+10  0.9118800E+02  0.7818608E-02  0.1180000E+00
       11   -1    0    0    0    0  0.00000000000E+00  0.00000000000E+00  0.39999999673E+01  0.40000000000E+01  0.51109989000E-03 0. -1.
     -623   -1    0    0    0    0  0.00000000000E+00  0.00000000000E+00  0.12525980253E-10  0.17130000000E+03  0.17130000000E+03 0.  1.
       11    1    1    2    0    0  0.10325353465E-02 -0.58583306135E-03  0.21851532308E-01  0.21889723936E-01  0.51109989000E-03 0.  1.
     -623    1    1    2    0    0  0.65276372132E-04 -0.89811000804E-04  0.39499072821E-04  0.17130000000E+03  0.17130000000E+03 0.  1.
      622    1    1    2    0    0 -0.10978117187E-02  0.67564406216E-03  0.39781089360E+01  0.39781102760E+01  0.30000000000E-02 0. -1.
</event>
<event>
 5   0  0.3294100E+10  0.9118800E+02  0.7818608E-02  0.1180000E+00
       11   -1    0    0    0    0  0.00000000000E+00  0.00000000000E+00  0.39999999673E+01  0.40000000000E+01  0.51109989000E-03 0. -1.
     -623   -1    0    0    0    0  0.00000000000E+00  0.00000000000E+00  0.12525980253E-10  0.17130000000E+03  0.17130000000E+03 0.  1.
       11    1    1    2    0    0 -0.10221043154E-01  0.35567500894E-02  0.11234445183E+01  0.11234967588E+01  0.51109989000E-03 0. -1.
     -623    1    1    2    0    0  0.95083616494E-02  0.58970864023E-03  0.57114046366E-04  0.17130000026E+03  0.17130000000E+03 0.  1.
      622    1    1    2    0    0  0.71268150444E-03 -0.41464587296E-02  0.28764983350E+01  0.28765029763E+01  0.30000000000E-02 0. -1.
</event>
<event>
 5   0  0.3294100E+10  0.9118800E+02  0.7818608E-02  0.1180000E+00
       11   -1    0    0    0    0  0.00000000000E+00  0.00000000000E+00  0.39999999673E+01  0.40000000000E+01  0.51109989000E-03 0.  1.
     -623   -1    0    0    0    0  0.00000000000E+00  0.00000000000E+00  0.12525980253E-10  0.17130000000E+03  0.17130000000E+03 0. -1.
       11    1    1    2    0    0 -0.14454754288E-02 -0.10942329210E-02  0.11493771182E+01  0.11493786617E+01  0.51109989000E-03 0.  1.
     -623    1    1    2    0    0  0.32614460205E-02  0.98354975829E-03  0.37038396354E-05  0.17130000003E+03  0.17130000000E+03 0. -1.
      622    1    1    2    0    0 -0.18159705917E-02  0.11068316269E-03  0.28506191453E+01  0.28506213045E+01  0.30000000000E-02 0.  1.
</event>
<event>
 5   0  0.3294100E+10  0.9118800E+02  0.7818608E-02  0.1180000E+00
       11   -1    0    0    0    0  0.00000000000E+00  0.00000000000E+00  0.39999999673E+01  0.40000000000E+01  0.51109989000E-03 0.  1.
     -623   -1    0    0    0    0  0.00000000000E+00  0.00000000000E+00  0.12525980253E-10  0.17130000000E+03  0.17130000000E+03 0.  1.
       11    1    1    2    0    0 -0.14548816425E-03  0.14867112698E-03  0.80864578478E+00  0.80864597306E+00  0.51109989000E-03 0.  1.
     -623    1    1    2    0    0 -0.14405679673E-03  0.25065156991E-03  0.16040543458E-05  0.17130000000E+03  0.17130000000E+03 0.  1.
      622    1    1    2    0    0  0.28954496097E-03 -0.39932269688E-03  0.31913525785E+01  0.31913540267E+01  0.30000000000E-02 0.  1.
</event>
<event>
 5   0  0.3294100E+10  0.9118800E+02  0.7818608E-02  0.1180000E+00
       11   -1    0    0    0    0  0.00000000000E+00  0.00000000000E+00  0.39999999673E+01  0.40000000000E+01  0.51109989000E-03 0.  1.
     -623   -1    0    0    0    0  0.00000000000E+00  0.00000000000E+00  0.12525980253E-10  0.17130000000E+03  0.17130000000E+03 0. -1.
       11    1    1    2    0    0  0.30301211665E-04 -0.33152778192E-03  0.41523564267E-02  0.41969174194E-02  0.51109989000E-03 0.  1.
     -623    1    1    2    0    0  0.21974713761E-03  0.73796348746E-04  0.45670832924E-04  0.17130000000E+03  0.17130000000E+03 0. -1.
      622    1    1    2    0    0 -0.25004834948E-03  0.25773143310E-03  0.39958019440E+01  0.39958030863E+01  0.30000000000E-02 0.  1.
</event>
<event>
 5   0  0.3294100E+10  0.9118800E+02  0.7818608E-02  0.1180000E+00
       11   -1    0    0    0    0  0.00000000000E+00  0.00000000000E+00  0.39999999673E+01  0.40000000000E+01  0.51109989000E-03 0.  1.
     -623   -1    0    0    0    0  0.00000000000E+00  0.00000000000E+00  0.12525980253E-10  0.17130000000E+03  0.17130000000E+03 0.  1.
       11    1    1    2    0    0  0.79287365001E-03 -0.96748171247E-03  0.14577994147E+00  0.14578620383E+00  0.51109989000E-03 0. -1.
     -623    1    1    2    0    0 -0.49897795952E-07 -0.60209389308E-04  0.76158410978E-05  0.17130000000E+03  0.17130000000E+03 0.  1.
      622    1    1    2    0    0 -0.79282375222E-03  0.10276911013E-02  0.38542123763E+01  0.38542137624E+01  0.30000000000E-02 0.  1.
</event>
<event>
 5   0  0.3294100E+10  0.9118800E+02  0.7818608E-02  0.1180000E+00
       11   -1    0    0    0    0  0.00000000000E+00  0.00000000000E+00  0.39999999673E+01  0.40000000000E+01  0.51109989000E-03 0. -1.
     -623   -1    0    0    0    0  0.00000000000E+00  0.00000000000E+00  0.12525980253E-10  0.17130000000E+03  0.17130000000E+03 0. -1.
       11    1    1    2    0    0  0.64534747541E-03  0.36766988069E-03  0.37000893909E-01  0.37011876846E-01  0.51109989000E-03 0. -1.
     -623    1    1    2    0    0  0.68555565416E-04 -0.59980843012E-04  0.12162075225E-04  0.17130000000E+03  0.17130000000E+03 0. -1.
      622    1    1    2    0    0 -0.71390304151E-03 -0.30768903707E-03  0.39629869516E+01  0.39629881634E+01  0.30000000000E-02 0. -1.
</event>
<event>
 5   0  0.3294100E+10  0.9118800E+02  0.7818608E-02  0.1180000E+00
       11   -1    0    0    0    0  0.00000000000E+00  0.00000000000E+00  0.39999999673E+01  0.40000000000E+01  0.51109989000E-03 0.  1.
     -623   -1    0    0    0    0  0.00000000000E+00  0.00000000000E+00  0.12525980253E-10  0.17130000000E+03  0.17130000000E+03 0. -1.
       11    1    1    2    0    0  0.22528324352E-02  0.34215455009E-02  0.22715950240E+00  0.22719701358E+00  0.51109989000E-03 0.  1.
     -623    1    1    2    0    0  0.55667721224E-04 -0.50319713268E-04  0.40883770660E-04  0.17130000000E+03  0.17130000000E+03 0. -1.
      622    1    1    2    0    0 -0.23085001564E-02 -0.33712257876E-02  0.37727995812E+01  0.37728029864E+01  0.30000000000E-02 0.  1.
</event>
<event>
 5   0  0.3294100E+10  0.9118800E+02  0.7818608E-02  0.1180000E+00
       11   -1    0    0    0    0  0.00000000000E+00  0.00000000000E+00  0.39999999673E+01  0.40000000000E+01  0.51109989000E-03 0.  1.
     -623   -1    0    0    0    0  0.00000000000E+00  0.00000000000E+00  0.12525980253E-10  0.17130000000E+03  0.17130000000E+03 0. -1.
       11    1    1    2    0    0 -0.53392637592E-02  0.54786684129E-02  0.67193631339E-01  0.67629644829E-01  0.51109989000E-03 0.  1.
     -623    1    1    2    0    0  0.38561562160E-02  0.24913484614E-02  0.44554369106E-03  0.17130000006E+03  0.17130000000E+03 0. -1.
      622    1    1    2    0    0  0.14831075432E-02 -0.79700168743E-02  0.39323607923E+01  0.39323702931E+01  0.30000000000E-02 0.  1.
</event>
<event>
 5   0  0.3294100E+10  0.9118800E+02  0.7818608E-02  0.1180000E+00
       11   -1    0    0    0    0  0.00000000000E+00  0.00000000000E+00  0.39999999673E+01  0.40000000000E+01  0.51109989000E-03 0.  1.
     -623   -1    0    0    0    0  0.00000000000E+00  0.00000000000E+00  0.12525980253E-10  0.17130000000E+03  0.17130000000E+03 0.  1.
       11    1    1    2    0    0 -0.57429531249E-03 -0.70444032540E-03  0.22007738159E+00  0.22007985179E+00  0.51109989000E-03 0.  1.
     -623    1    1    2    0    0 -0.45537164098E-03  0.32163623516E-03  0.37885909911E-05  0.17130000000E+03  0.17130000000E+03 0.  1.
      622    1    1    2    0    0  0.10296669467E-02  0.38280409502E-03  0.37799187378E+01  0.37799200880E+01  0.30000000000E-02 0.  1.
</event>
<event>
 5   0  0.3294100E+10  0.9118800E+02  0.7818608E-02  0.1180000E+00
       11   -1    0    0    0    0  0.00000000000E+00  0.00000000000E+00  0.39999999673E+01  0.40000000000E+01  0.51109989000E-03 0. -1.
     -623   -1    0    0    0    0  0.00000000000E+00  0.00000000000E+00  0.12525980253E-10  0.17130000000E+03  0.17130000000E+03 0. -1.
       11    1    1    2    0    0  0.55767965425E-03  0.64719422366E-03  0.38598853607E+00  0.38598981991E+00  0.51109989000E-03 0. -1.
     -623    1    1    2    0    0 -0.37444454297E-03  0.23724907273E-03  0.26097877606E-05  0.17130000000E+03  0.17130000000E+03 0. -1.
      622    1    1    2    0    0 -0.18323511541E-03 -0.88444329377E-03  0.36140087774E+01  0.36140101354E+01  0.30000000000E-02 0. -1.
</event>
<event>
 5   0  0.3294100E+10  0.9118800E+02  0.7818608E-02  0.1180000E+00
       11   -1    0    0    0    0  0.00000000000E+00  0.00000000000E+00  0.39999999673E+01  0.40000000000E+01  0.51109989000E-03 0.  1.
     -623   -1    0    0    0    0  0.00000000000E+00  0.00000000000E+00  0.12525980253E-10  0.17130000000E+03  0.17130000000E+03 0.  1.
       11    1    1    2    0    0 -0.29648710970E-03 -0.12747253526E-02  0.42562343423E+00  0.42562575323E+00  0.51109989000E-03 0.  1.
     -623    1    1    2    0    0 -0.21945470471E-04  0.11946908262E-04  0.37825734847E-05  0.17130000000E+03  0.17130000000E+03 0.  1.
      622    1    1    2    0    0  0.31843258018E-03  0.12627784444E-02  0.35743727506E+01  0.35743742468E+01  0.30000000000E-02 0.  1.
</event>
<event>
 5   0  0.3294100E+10  0.9118800E+02  0.7818608E-02  0.1180000E+00
       11   -1    0    0    0    0  0.00000000000E+00  0.00000000000E+00  0.39999999673E+01  0.40000000000E+01  0.51109989000E-03 0.  1.
     -623   -1    0    0    0    0  0.00000000000E+00  0.00000000000E+00  0.12525980253E-10  0.17130000000E+03  0.17130000000E+03 0. -1.
       11    1    1    2    0    0  0.25591117956E-02  0.25813996276E-03  0.99026936349E+00  0.99027283573E+00  0.51109989000E-03 0.  1.
     -623    1    1    2    0    0  0.49759190288E-03  0.11277154024E-02  0.68104571493E-05  0.17130000000E+03  0.17130000000E+03 0. -1.
      622    1    1    2    0    0 -0.30567036985E-02 -0.13858553652E-02  0.30097237934E+01  0.30097271598E+01  0.30000000000E-02 0.  0.
</event>
<event>
 5   0  0.3294100E+10  0.9118800E+02  0.7818608E-02  0.1180000E+00
       11   -1    0    0    0    0  0.00000000000E+00  0.00000000000E+00  0.39999999673E+01  0.40000000000E+01  0.51109989000E-03 0.  1.
     -623   -1    0    0    0    0  0.00000000000E+00  0.00000000000E+00  0.12525980253E-10  0.17130000000E+03  0.17130000000E+03 0.  1.
       11    1    1    2    0    0 -0.51015553159E-03 -0.80298637559E-03  0.44098546061E+00  0.44098678296E+00  0.51109989000E-03 0.  1.
     -623    1    1    2    0    0  0.39517522000E-03 -0.20150307142E-03  0.26982818349E-05  0.17130000000E+03  0.17130000000E+03 0.  1.
      622    1    1    2    0    0  0.11498031157E-03  0.10044894470E-02  0.35590118086E+01  0.35590132166E+01  0.30000000000E-02 0.  1.
</event>
<event>
 5   0  0.3294100E+10  0.9118800E+02  0.7818608E-02  0.1180000E+00
       11   -1    0    0    0    0  0.00000000000E+00  0.00000000000E+00  0.39999999673E+01  0.40000000000E+01  0.51109989000E-03 0. -1.
     -623   -1    0    0    0    0  0.00000000000E+00  0.00000000000E+00  0.12525980253E-10  0.17130000000E+03  0.17130000000E+03 0.  1.
       11    1    1    2    0    0 -0.10580636223E-02  0.61208534503E-03  0.51230565823E-01  0.51247695019E-01  0.51109989000E-03 0. -1.
     -623    1    1    2    0    0  0.13475115878E-02 -0.25344622102E-02  0.18738751895E-04  0.17130000002E+03  0.17130000000E+03 0.  1.
      622    1    1    2    0    0 -0.28944797460E-03  0.19223768823E-02  0.39487506898E+01  0.39487523079E+01  0.30000000000E-02 0. -1.
</event>
<event>
 5   0  0.3294100E+10  0.9118800E+02  0.7818608E-02  0.1180000E+00
       11   -1    0    0    0    0  0.00000000000E+00  0.00000000000E+00  0.39999999673E+01  0.40000000000E+01  0.51109989000E-03 0.  1.
     -623   -1    0    0    0    0  0.00000000000E+00  0.00000000000E+00  0.12525980253E-10  0.17130000000E+03  0.17130000000E+03 0. -1.
       11    1    1    2    0    0  0.12686856833E-03 -0.29956458270E-03  0.20159883292E-01  0.20168984903E-01  0.51109989000E-03 0.  1.
     -623    1    1    2    0    0 -0.39867044525E-04  0.11078281730E-04  0.10211084224E-04  0.17130000000E+03  0.17130000000E+03 0. -1.
      622    1    1    2    0    0 -0.87001523399E-04  0.28848630086E-03  0.39798299141E+01  0.39798310562E+01  0.30000000000E-02 0.  1.
</event>
<event>
 5   0  0.3294100E+10  0.9118800E+02  0.7818608E-02  0.1180000E+00
       11   -1    0    0    0    0  0.00000000000E+00  0.00000000000E+00  0.39999999673E+01  0.40000000000E+01  0.51109989000E-03 0.  1.
     -623   -1    0    0    0    0  0.00000000000E+00  0.00000000000E+00  0.12525980253E-10  0.17130000000E+03  0.17130000000E+03 0.  1.
       11    1    1    2    0    0 -0.56907242552E-04 -0.10719158293E-03  0.44122761021E+00  0.44122792292E+00  0.51109989000E-03 0.  1.
     -623    1    1    2    0    0 -0.66821396563E-06  0.95891407895E-05  0.15463523106E-05  0.17130000000E+03  0.17130000000E+03 0.  1.
      622    1    1    2    0    0  0.57575456517E-04  0.97602442142E-04  0.35587708108E+01  0.35587720771E+01  0.30000000000E-02 0.  1.
</event>
<event>
 5   0  0.3294100E+10  0.9118800E+02  0.7818608E-02  0.1180000E+00
       11   -1    0    0    0    0  0.00000000000E+00  0.00000000000E+00  0.39999999673E+01  0.40000000000E+01  0.51109989000E-03 0. -1.
     -623   -1    0    0    0    0  0.00000000000E+00  0.00000000000E+00  0.12525980253E-10  0.17130000000E+03  0.17130000000E+03 0.  1.
       11    1    1    2    0    0  0.74565820908E-04  0.84274904121E-03  0.83618847942E+00  0.83618906362E+00  0.51109989000E-03 0. -1.
     -623    1    1    2    0    0 -0.11855233558E-03  0.16436680978E-04  0.20909085618E-05  0.17130000000E+03  0.17130000000E+03 0.  1.
      622    1    1    2    0    0  0.43986514668E-04 -0.85918572219E-03  0.31638093970E+01  0.31638109363E+01  0.30000000000E-02 0. -1.
</event>
<event>
 5   0  0.3294100E+10  0.9118800E+02  0.7818608E-02  0.1180000E+00
       11   -1    0    0    0    0  0.00000000000E+00  0.00000000000E+00  0.39999999673E+01  0.40000000000E+01  0.51109989000E-03 0. -1.
     -623   -1    0    0    0    0  0.00000000000E+00  0.00000000000E+00  0.12525980253E-10  0.17130000000E+03  0.17130000000E+03 0.  1.
       11    1    1    2    0    0  0.10984909213E-03  0.33678398368E-03  0.79973606440E+00  0.79973630618E+00  0.51109989000E-03 0. -1.
     -623    1    1    2    0    0 -0.38203629140E-04 -0.12001614516E-03  0.16234596742E-05  0.17130000000E+03  0.17130000000E+03 0.  1.
      622    1    1    2    0    0 -0.71645464728E-04 -0.21676784398E-03  0.32002620978E+01  0.32002635121E+01  0.30000000000E-02 0. -1.
</event>
<event>
 5   0  0.3294100E+10  0.9118800E+02  0.7818608E-02  0.1180000E+00
       11   -1    0    0    0    0  0.00000000000E+00  0.00000000000E+00  0.39999999673E+01  0.40000000000E+01  0.51109989000E-03 0. -1.
     -623   -1    0    0    0    0  0.00000000000E+00  0.00000000000E+00  0.12525980253E-10  0.17130000000E+03  0.17130000000E+03 0.  1.
       11    1    1    2    0    0 -0.70675331258E-03 -0.41547387381E-04  0.58411900348E-01  0.58418426475E-01  0.51109989000E-03 0. -1.
     -623    1    1    2    0    0 -0.79533982694E-05  0.34050395129E-04  0.76999684420E-05  0.17130000000E+03  0.17130000000E+03 0.  1.
      622    1    1    2    0    0  0.71470671089E-03  0.74969920871E-05  0.39415803864E+01  0.39415815928E+01  0.30000000000E-02 0. -1.
</event>
<event>
 5   0  0.3294100E+10  0.9118800E+02  0.7818608E-02  0.1180000E+00
       11   -1    0    0    0    0  0.00000000000E+00  0.00000000000E+00  0.39999999673E+01  0.40000000000E+01  0.51109989000E-03 0. -1.
     -623   -1    0    0    0    0  0.00000000000E+00  0.00000000000E+00  0.12525980253E-10  0.17130000000E+03  0.17130000000E+03 0.  1.
       11    1    1    2    0    0  0.50518893904E-03  0.89373697821E-03  0.37998289498E-02  0.39691188941E-02  0.51109989000E-03 0. -1.
     -623    1    1    2    0    0  0.11985066027E-04  0.27486323698E-03  0.17058806744E-03  0.17130000000E+03  0.17130000000E+03 0.  1.
      622    1    1    2    0    0 -0.51717400507E-03 -0.11686002151E-02  0.39960295498E+01  0.39960308803E+01  0.30000000000E-02 0. -1.
</event>
<event>
 5   0  0.3294100E+10  0.9118800E+02  0.7818608E-02  0.1180000E+00
       11   -1    0    0    0    0  0.00000000000E+00  0.00000000000E+00  0.39999999673E+01  0.40000000000E+01  0.51109989000E-03 0. -1.
     -623   -1    0    0    0    0  0.00000000000E+00  0.00000000000E+00  0.12525980253E-10  0.17130000000E+03  0.17130000000E+03 0. -1.
       11    1    1    2    0    0  0.53504091742E-04  0.48351184991E-03  0.49831905301E+00  0.49831955255E+00  0.51109989000E-03 0.  1.
     -623    1    1    2    0    0 -0.46081971225E-03  0.31328629493E-03  0.18672540962E-05  0.17130000000E+03  0.17130000000E+03 0. -1.
      622    1    1    2    0    0  0.40731562051E-03 -0.79679814485E-03  0.35016790471E+01  0.35016804465E+01  0.30000000000E-02 0. -1.
</event>
<event>
 5   0  0.3294100E+10  0.9118800E+02  0.7818608E-02  0.1180000E+00
       11   -1    0    0    0    0  0.00000000000E+00  0.00000000000E+00  0.39999999673E+01  0.40000000000E+01  0.51109989000E-03 0. -1.
     -623   -1    0    0    0    0  0.00000000000E+00  0.00000000000E+00  0.12525980253E-10  0.17130000000E+03  0.17130000000E+03 0. -1.
       11    1    1    2    0    0  0.33019213581E-03 -0.46537277238E-03  0.22551239884E-01  0.22564246986E-01  0.51109989000E-03 0.  1.
     -623    1    1    2    0    0  0.11392337028E-03 -0.50093219152E-03  0.14248790750E-04  0.17130000000E+03  0.17130000000E+03 0. -1.
      622    1    1    2    0    0 -0.44411550562E-03  0.96630496182E-03  0.39774344621E+01  0.39774357357E+01  0.30000000000E-02 0. -1.
</event>
<event>
 5   0  0.3294100E+10  0.9118800E+02  0.7818608E-02  0.1180000E+00
       11   -1    0    0    0    0  0.00000000000E+00  0.00000000000E+00  0.39999999673E+01  0.40000000000E+01  0.51109989000E-03 0.  1.
     -623   -1    0    0    0    0  0.00000000000E+00  0.00000000000E+00  0.12525980253E-10  0.17130000000E+03  0.17130000000E+03 0.  1.
       11    1    1    2    0    0  0.26063921061E-03 -0.22894798909E-02  0.19840536180E+00  0.19841940043E+00  0.51109989000E-03 0.  1.
     -623    1    1    2    0    0  0.62483352307E-04  0.10327018658E-03  0.15832100906E-04  0.17130000000E+03  0.17130000000E+03 0.  1.
      622    1    1    2    0    0 -0.32312256269E-03  0.21862097047E-02  0.38015787590E+01  0.38015805850E+01  0.30000000000E-02 0.  1.
</event>
<event>
 5   0  0.3294100E+10  0.9118800E+02  0.7818608E-02  0.1180000E+00
       11   -1    0    0    0    0  0.00000000000E+00  0.00000000000E+00  0.39999999673E+01  0.40000000000E+01  0.51109989000E-03 0.  1.
     -623   -1    0    0    0    0  0.00000000000E+00  0.00000000000E+00  0.12525980253E-10  0.17130000000E+03  0.17130000000E+03 0. -1.
       11    1    1    2    0    0  0.10347697034E-02 -0.49437971758E-03  0.10190061288E+01  0.10190069023E+01  0.51109989000E-03 0.  1.
     -623    1    1    2    0    0 -0.12453848032E-02  0.24252753652E-02  0.29049053203E-05  0.17130000002E+03  0.17130000000E+03 0. -1.
      622    1    1    2    0    0  0.21061509980E-03 -0.19308956476E-02  0.29809909336E+01  0.29809930760E+01  0.30000000000E-02 0.  1.
</event>
<event>
 5   0  0.3294100E+10  0.9118800E+02  0.7818608E-02  0.1180000E+00
       11   -1    0    0    0    0  0.00000000000E+00  0.00000000000E+00  0.39999999673E+01  0.40000000000E+01  0.51109989000E-03 0.  1.
     -623   -1    0    0    0    0  0.00000000000E+00  0.00000000000E+00  0.12525980253E-10  0.17130000000E+03  0.17130000000E+03 0.  1.
       11    1    1    2    0    0 -0.97326766254E-04  0.19921902057E-02  0.11125712282E+00  0.11127617397E+00  0.51109989000E-03 0.  1.
     -623    1    1    2    0    0 -0.36156635714E-03  0.13463675833E-03  0.20784818995E-04  0.17130000000E+03  0.17130000000E+03 0.  1.
      622    1    1    2    0    0  0.45889312339E-03 -0.21268269640E-02  0.38887220597E+01  0.38887238256E+01  0.30000000000E-02 0.  1.
</event>
<event>
 5   0  0.3294100E+10  0.9118800E+02  0.7818608E-02  0.1180000E+00
       11   -1    0    0    0    0  0.00000000000E+00  0.00000000000E+00  0.39999999673E+01  0.40000000000E+01  0.51109989000E-03 0.  1.
     -623   -1    0    0    0    0  0.00000000000E+00  0.00000000000E+00  0.12525980253E-10  0.17130000000E+03  0.17130000000E+03 0. -1.
       11    1    1    2    0    0  0.87058260401E-03 -0.50360483254E-03  0.11996488364E+01  0.11996493669E+01  0.51109989000E-03 0.  1.
     -623    1    1    2    0    0 -0.17433303609E-02  0.92800671510E-03  0.22843141938E-05  0.17130000001E+03  0.17130000000E+03 0. -1.
      622    1    1    2    0    0  0.87274775688E-03 -0.42440188255E-03  0.28003488466E+01  0.28003506217E+01  0.30000000000E-02 0.  1.
</event>
<event>
 5   0  0.3294100E+10  0.9118800E+02  0.7818608E-02  0.1180000E+00
       11   -1    0    0    0    0  0.00000000000E+00  0.00000000000E+00  0.39999999673E+01  0.40000000000E+01  0.51109989000E-03 0.  1.
     -623   -1    0    0    0    0  0.00000000000E+00  0.00000000000E+00  0.12525980253E-10  0.17130000000E+03  0.17130000000E+03 0.  1.
       11    1    1    2    0    0  0.44959356268E-02  0.52463414151E-03  0.97624355880E+00  0.97625418616E+00  0.51109989000E-03 0.  1.
     -623    1    1    2    0    0 -0.56192812488E-02 -0.11471971251E-02  0.12451707830E-04  0.17130000010E+03  0.17130000000E+03 0.  1.
      622    1    1    2    0    0  0.11233456496E-02  0.62256298920E-03  0.30237439765E+01  0.30237457375E+01  0.30000000000E-02 0.  0.
</event>
<event>
 5   0  0.3294100E+10  0.9118800E+02  0.7818608E-02  0.1180000E+00
       11   -1    0    0    0    0  0.00000000000E+00  0.00000000000E+00  0.39999999673E+01  0.40000000000E+01  0.51109989000E-03 0. -1.
     -623   -1    0    0    0    0  0.00000000000E+00  0.00000000000E+00  0.12525980253E-10  0.17130000000E+03  0.17130000000E+03 0. -1.
       11    1    1    2    0    0  0.14888496805E-02  0.82177333283E-03  0.23613333572E+00  0.23614001238E+00  0.51109989000E-03 0. -1.
     -623    1    1    2    0    0 -0.15925953290E-02  0.33146749380E-02  0.10153463806E-04  0.17130000004E+03  0.17130000000E+03 0. -1.
      622    1    1    2    0    0  0.10374567301E-03 -0.41364483218E-02  0.37638565397E+01  0.37638600097E+01  0.30000000000E-02 0. -1.
</event>
<event>
 5   0  0.3294100E+10  0.9118800E+02  0.7818608E-02  0.1180000E+00
       11   -1    0    0    0    0  0.00000000000E+00  0.00000000000E+00  0.39999999673E+01  0.40000000000E+01  0.51109989000E-03 0. -1.
     -623   -1    0    0    0    0  0.00000000000E+00  0.00000000000E+00  0.12525980253E-10  0.17130000000E+03  0.17130000000E+03 0.  1.
       11    1    1    2    0    0 -0.11720961376E-02 -0.20544879569E-02  0.30170285915E+00  0.30171256383E+00  0.51109989000E-03 0. -1.
     -623    1    1    2    0    0 -0.10526516063E-03  0.39347692159E-03  0.11482904095E-04  0.17130000000E+03  0.17130000000E+03 0.  1.
      622    1    1    2    0    0  0.12773612986E-02  0.16610110343E-02  0.36982856360E+01  0.36982874464E+01  0.30000000000E-02 0. -1.
</event>
<event>
 5   0  0.3294100E+10  0.9118800E+02  0.7818608E-02  0.1180000E+00
       11   -1    0    0    0    0  0.00000000000E+00  0.00000000000E+00  0.39999999673E+01  0.40000000000E+01  0.51109989000E-03 0.  1.
     -623   -1    0    0    0    0  0.00000000000E+00  0.00000000000E+00  0.12525980253E-10  0.17130000000E+03  0.17130000000E+03 0. -1.
       11    1    1    2    0    0 -0.28764408665E-03  0.44192280722E-02  0.49604792785E+00  0.49606795932E+00  0.51109989000E-03 0.  1.
     -623    1    1    2    0    0  0.85910840308E-03  0.19337241897E-03  0.24367996638E-04  0.17130000000E+03  0.17130000000E+03 0. -1.
      622    1    1    2    0    0 -0.57146431643E-03 -0.46126004912E-02  0.35039276715E+01  0.35039320384E+01  0.30000000000E-02 0.  1.
</event>
<event>
 5   0  0.3294100E+10  0.9118800E+02  0.7818608E-02  0.1180000E+00
       11   -1    0    0    0    0  0.00000000000E+00  0.00000000000E+00  0.39999999673E+01  0.40000000000E+01  0.51109989000E-03 0.  1.
     -623   -1    0    0    0    0  0.00000000000E+00  0.00000000000E+00  0.12525980253E-10  0.17130000000E+03  0.17130000000E+03 0.  1.
       11    1    1    2    0    0  0.54183836712E-04  0.80206824304E-03  0.43655999900E+00  0.43656103834E+00  0.51109989000E-03 0.  1.
     -623    1    1    2    0    0 -0.43377268877E-04 -0.13755573225E-02  0.23212209799E-05  0.17130000001E+03  0.17130000000E+03 0.  1.
      622    1    1    2    0    0 -0.10806566922E-04  0.57348910841E-03  0.35634377313E+01  0.35634390403E+01  0.30000000000E-02 0.  1.
</event>
<event>
 5   0  0.3294100E+10  0.9118800E+02  0.7818608E-02  0.1180000E+00
       11   -1    0    0    0    0  0.00000000000E+00  0.00000000000E+00  0.39999999673E+01  0.40000000000E+01  0.51109989000E-03 0. -1.
     -623   -1    0    0    0    0  0.00000000000E+00  0.00000000000E+00  0.12525980253E-10  0.17130000000E+03  0.17130000000E+03 0. -1.
       11    1    1    2    0    0 -0.10504289443E-02 -0.14283820896E-03  0.26223744370E-01  0.26250138929E-01  0.51109989000E-03 0. -1.
     -623    1    1    2    0    0  0.60375855126E-04  0.19485554309E-03  0.27618149464E-04  0.17130000000E+03  0.17130000000E+03 0. -1.
      622    1    1    2    0    0  0.99005308917E-03 -0.52017334134E-04  0.39737486048E+01  0.39737498609E+01  0.30000000000E-02 0. -1.
</event>
<event>
 5   0  0.3294100E+10  0.9118800E+02  0.7818608E-02  0.1180000E+00
       11   -1    0    0    0    0  0.00000000000E+00  0.00000000000E+00  0.39999999673E+01  0.40000000000E+01  0.51109989000E-03 0. -1.
     -623   -1    0    0    0    0  0.00000000000E+00  0.00000000000E+00  0.12525980253E-10  0.17130000000E+03  0.17130000000E+03 0.  1.
       11    1    1    2    0    0 -0.90656153721E-03 -0.16703022025E-02  0.96966923581E+00  0.96967123287E+00  0.51109989000E-03 0. -1.
     -623    1    1    2    0    0  0.96076395860E-03  0.10823705129E-02  0.35130439193E-05  0.17130000001E+03  0.17130000000E+03 0.  1.
      622    1    1    2    0    0 -0.54202424963E-04  0.58793168556E-03  0.30303272334E+01  0.30303287759E+01  0.30000000000E-02 0. -1.
</event>
<event>
 5   0  0.3294100E+10  0.9118800E+02  0.7818608E-02  0.1180000E+00
       11   -1    0    0    0    0  0.00000000000E+00  0.00000000000E+00  0.39999999673E+01  0.40000000000E+01  0.51109989000E-03 0.  1.
     -623   -1    0    0    0    0  0.00000000000E+00  0.00000000000E+00  0.12525980253E-10  0.17130000000E+03  0.17130000000E+03 0.  1.
       11    1    1    2    0    0 -0.23942863821E-03 -0.34839814696E-03  0.17863993789E+00  0.17864116922E+00  0.51109989000E-03 0.  1.
     -623    1    1    2    0    0  0.86034135913E-04 -0.14842300510E-03  0.24117411628E-05  0.17130000000E+03  0.17130000000E+03 0.  1.
      622    1    1    2    0    0  0.15339450219E-03  0.49682115225E-03  0.38213576230E+01  0.38213588360E+01  0.30000000000E-02 0.  1.
</event>
<event>
 5   0  0.3294100E+10  0.9118800E+02  0.7818608E-02  0.1180000E+00
       11   -1    0    0    0    0  0.00000000000E+00  0.00000000000E+00  0.39999999673E+01  0.40000000000E+01  0.51109989000E-03 0. -1.
     -623   -1    0    0    0    0  0.00000000000E+00  0.00000000000E+00  0.12525980253E-10  0.17130000000E+03  0.17130000000E+03 0. -1.
       11    1    1    2    0    0  0.25722224168E-03 -0.72316669692E-03  0.43815497330E+00  0.43815594368E+00  0.51109989000E-03 0. -1.
     -623    1    1    2    0    0 -0.13339214165E-03  0.28992910883E-03  0.22299295734E-05  0.17130000000E+03  0.17130000000E+03 0. -1.
      622    1    1    2    0    0 -0.12383010003E-03  0.43323758809E-03  0.35618427641E+01  0.35618440560E+01  0.30000000000E-02 0. -1.
</event>
<event>
 5   0  0.3294100E+10  0.9118800E+02  0.7818608E-02  0.1180000E+00
       11   -1    0    0    0    0  0.00000000000E+00  0.00000000000E+00  0.39999999673E+01  0.40000000000E+01  0.51109989000E-03 0.  1.
     -623   -1    0    0    0    0  0.00000000000E+00  0.00000000000E+00  0.12525980253E-10  0.17130000000E+03  0.17130000000E+03 0.  1.
       11    1    1    2    0    0 -0.41360670074E-02 -0.42546135680E-02  0.80548897303E+00  0.80551099042E+00  0.51109989000E-03 0.  1.
     -623    1    1    2    0    0 -0.13804210744E-02  0.45647952479E-02  0.28238020233E-04  0.17130000007E+03  0.17130000000E+03 0.  1.
      622    1    1    2    0    0  0.55164880818E-02 -0.31018167988E-03  0.31944827563E+01  0.31944889432E+01  0.30000000000E-02 0.  1.
</event>
<event>
 5   0  0.3294100E+10  0.9118800E+02  0.7818608E-02  0.1180000E+00
       11   -1    0    0    0    0  0.00000000000E+00  0.00000000000E+00  0.39999999673E+01  0.40000000000E+01  0.51109989000E-03 0.  1.
     -623   -1    0    0    0    0  0.00000000000E+00  0.00000000000E+00  0.12525980253E-10  0.17130000000E+03  0.17130000000E+03 0.  1.
       11    1    1    2    0    0 -0.24279529400E-02  0.58073548974E-03  0.64170984054E+00  0.64171489999E+00  0.51109989000E-03 0.  1.
     -623    1    1    2    0    0 -0.20935073602E-04 -0.30044533672E-04  0.73048147935E-05  0.17130000000E+03  0.17130000000E+03 0.  1.
      622    1    1    2    0    0  0.24488880136E-02 -0.55069095607E-03  0.33582828220E+01  0.33582851000E+01  0.30000000000E-02 0.  1.
</event>
<event>
 5   0  0.3294100E+10  0.9118800E+02  0.7818608E-02  0.1180000E+00
       11   -1    0    0    0    0  0.00000000000E+00  0.00000000000E+00  0.39999999673E+01  0.40000000000E+01  0.51109989000E-03 0. -1.
     -623   -1    0    0    0    0  0.00000000000E+00  0.00000000000E+00  0.12525980253E-10  0.17130000000E+03  0.17130000000E+03 0.  1.
       11    1    1    2    0    0 -0.60529150599E-03 -0.12319319980E-02  0.42740347550E+00  0.42740598513E+00  0.51109989000E-03 0. -1.
     -623    1    1    2    0    0  0.19128275021E-02  0.60792064325E-03  0.40421059797E-05  0.17130000001E+03  0.17130000000E+03 0.  1.
      622    1    1    2    0    0 -0.13075359961E-02  0.62401135479E-03  0.35725924498E+01  0.35725940031E+01  0.30000000000E-02 0. -1.
</event>
<event>
 5   0  0.3294100E+10  0.9118800E+02  0.7818608E-02  0.1180000E+00
       11   -1    0    0    0    0  0.00000000000E+00  0.00000000000E+00  0.39999999673E+01  0.40000000000E+01  0.51109989000E-03 0. -1.
     -623   -1    0    0    0    0  0.00000000000E+00  0.00000000000E+00  0.12525980253E-10  0.17130000000E+03  0.17130000000E+03 0.  1.
       11    1    1    2    0    0  0.43480416894E-02  0.22735881024E-02  0.26131079296E+00  0.26135735385E+00  0.51109989000E-03 0. -1.
     -623    1    1    2    0    0  0.45636416740E-03 -0.65051201656E-03  0.51173054309E-04  0.17130000000E+03  0.17130000000E+03 0.  1.
      622    1    1    2    0    0 -0.48044058577E-02 -0.16230760846E-02  0.37386380086E+01  0.37386426516E+01  0.30000000000E-02 0. -1.
</event>
<event>
 5   0  0.3294100E+10  0.9118800E+02  0.7818608E-02  0.1180000E+00
       11   -1    0    0    0    0  0.00000000000E+00  0.00000000000E+00  0.39999999673E+01  0.40000000000E+01  0.51109989000E-03 0. -1.
     -623   -1    0    0    0    0  0.00000000000E+00  0.00000000000E+00  0.12525980253E-10  0.17130000000E+03  0.17130000000E+03 0. -1.
       11    1    1    2    0    0 -0.17316543512E-02 -0.70478949099E-03  0.93870977573E+00  0.93871177665E+00  0.51109989000E-03 0. -1.
     -623    1    1    2    0    0 -0.99446283033E-03  0.26545357349E-02  0.52964302077E-05  0.17130000002E+03  0.17130000000E+03 0. -1.
      622    1    1    2    0    0  0.27261171815E-02 -0.19497462439E-02  0.30612848952E+01  0.30612881999E+01  0.30000000000E-02 0.  1.
</event>
<event>
 5   0  0.3294100E+10  0.9118800E+02  0.7818608E-02  0.1180000E+00
       11   -1    0    0    0    0  0.00000000000E+00  0.00000000000E+00  0.39999999673E+01  0.40000000000E+01  0.51109989000E-03 0.  1.
     -623   -1    0    0    0    0  0.00000000000E+00  0.00000000000E+00  0.12525980253E-10  0.17130000000E+03  0.17130000000E+03 0. -1.
       11    1    1    2    0    0 -0.41385180236E-03  0.53742744139E-03  0.89400610200E+00  0.89400650543E+00  0.51109989000E-03 0.  1.
     -623    1    1    2    0    0 -0.70291317703E-04 -0.20390346673E-03  0.18753697808E-05  0.17130000000E+03  0.17130000000E+03 0. -1.
      622    1    1    2    0    0  0.48414312007E-03 -0.33352397466E-03  0.31059919900E+01  0.31059934944E+01  0.30000000000E-02 0.  1.
</event>
<event>
 5   0  0.3294100E+10  0.9118800E+02  0.7818608E-02  0.1180000E+00
       11   -1    0    0    0    0  0.00000000000E+00  0.00000000000E+00  0.39999999673E+01  0.40000000000E+01  0.51109989000E-03 0. -1.
     -623   -1    0    0    0    0  0.00000000000E+00  0.00000000000E+00  0.12525980253E-10  0.17130000000E+03  0.17130000000E+03 0. -1.
       11    1    1    2    0    0 -0.32374235736E-03  0.58437928589E-03  0.41004680715E+00  0.41004766989E+00  0.51109989000E-03 0.  1.
     -623    1    1    2    0    0  0.48170310954E-04  0.36121054502E-03  0.22191005087E-05  0.17130000000E+03  0.17130000000E+03 0. -1.
      622    1    1    2    0    0  0.27557204694E-03 -0.94558982692E-03  0.35899508970E+01  0.35899522856E+01  0.30000000000E-02 0. -1.
</event>
<event>
 5   0  0.3294100E+10  0.9118800E+02  0.7818608E-02  0.1180000E+00
       11   -1    0    0    0    0  0.00000000000E+00  0.00000000000E+00  0.39999999673E+01  0.40000000000E+01  0.51109989000E-03 0. -1.
     -623   -1    0    0    0    0  0.00000000000E+00  0.00000000000E+00  0.12525980253E-10  0.17130000000E+03  0.17130000000E+03 0.  1.
       11    1    1    2    0    0 -0.16656332041E-02 -0.22863178049E-02  0.96084681346E-02  0.10029230469E-01  0.51109989000E-03 0. -1.
     -623    1    1    2    0    0  0.37375792424E-02 -0.57174446700E-02  0.43055988848E-03  0.17130000014E+03  0.17130000000E+03 0.  1.
      622    1    1    2    0    0 -0.20719460383E-02  0.80037624750E-02  0.39899609393E+01  0.39899706328E+01  0.30000000000E-02 0. -1.
</event>
<event>
 5   0  0.3294100E+10  0.9118800E+02  0.7818608E-02  0.1180000E+00
       11   -1    0    0    0    0  0.00000000000E+00  0.00000000000E+00  0.39999999673E+01  0.40000000000E+01  0.51109989000E-03 0. -1.
     -623   -1    0    0    0    0  0.00000000000E+00  0.00000000000E+00  0.12525980253E-10  0.17130000000E+03  0.17130000000E+03 0. -1.
       11    1    1    2    0    0  0.52606757361E-03  0.10165150893E-02  0.25941825932E+00  0.25942128776E+00  0.51109989000E-03 0. -1.
     -623    1    1    2    0    0  0.15624957685E-02  0.11093858442E-02  0.53967284090E-05  0.17130000001E+03  0.17130000000E+03 0. -1.
      622    1    1    2    0    0 -0.20885633706E-02 -0.21259009537E-02  0.37405763842E+01  0.37405787744E+01  0.30000000000E-02 0. -1.
</event>
<event>
 5   0  0.3294100E+10  0.9118800E+02  0.7818608E-02  0.1180000E+00
       11   -1    0    0    0    0  0.00000000000E+00  0.00000000000E+00  0.39999999673E+01  0.40000000000E+01  0.51109989000E-03 0. -1.
     -623   -1    0    0    0    0  0.00000000000E+00  0.00000000000E+00  0.12525980253E-10  0.17130000000E+03  0.17130000000E+03 0.  1.
       11    1    1    2    0    0  0.37456039181E-03  0.26332270588E-03  0.12932849101E+00  0.12933031139E+00  0.51109989000E-03 0. -1.
     -623    1    1    2    0    0  0.10106703238E-03 -0.28830758776E-03  0.29799057772E-05  0.17130000000E+03  0.17130000000E+03 0.  1.
      622    1    1    2    0    0 -0.47562742169E-03  0.24984874730E-04  0.38706683972E+01  0.38706695891E+01  0.30000000000E-02 0. -1.
</event>
<event>
 5   0  0.3294100E+10  0.9118800E+02  0.7818608E-02  0.1180000E+00
       11   -1    0    0    0    0  0.00000000000E+00  0.00000000000E+00  0.39999999673E+01  0.40000000000E+01  0.51109989000E-03 0.  1.
     -623   -1    0    0    0    0  0.00000000000E+00  0.00000000000E+00  0.12525980253E-10  0.17130000000E+03  0.17130000000E+03 0.  1.
       11    1    1    2    0    0  0.13437804285E-02  0.12178086330E-02  0.86610091007E+00  0.86610295950E+00  0.51109989000E-03 0.  1.
     -623    1    1    2    0    0 -0.39734868935E-04 -0.12976847628E-02  0.37299512168E-05  0.17130000000E+03  0.17130000000E+03 0.  1.
      622    1    1    2    0    0 -0.13040455605E-02  0.79876098621E-04  0.31338952312E+01  0.31338969395E+01  0.30000000000E-02 0.  1.
</event>
<event>
 5   0  0.3294100E+10  0.9118800E+02  0.7818608E-02  0.1180000E+00
       11   -1    0    0    0    0  0.00000000000E+00  0.00000000000E+00  0.39999999673E+01  0.40000000000E+01  0.51109989000E-03 0.  1.
     -623   -1    0    0    0    0  0.00000000000E+00  0.00000000000E+00  0.12525980253E-10  0.17130000000E+03  0.17130000000E+03 0.  1.
       11    1    1    2    0    0  0.59891540104E-03  0.82197323427E-04  0.27999814440E+00  0.27999926347E+00  0.51109989000E-03 0.  1.
     -623    1    1    2    0    0  0.16860511392E-03  0.64126503445E-03  0.24469197353E-05  0.17130000000E+03  0.17130000000E+03 0.  1.
      622    1    1    2    0    0 -0.76752051495E-03 -0.72346235788E-03  0.37199993760E+01  0.37200007352E+01  0.30000000000E-02 0.  1.
</event>
<event>
 5   0  0.3294100E+10  0.9118800E+02  0.7818608E-02  0.1180000E+00
       11   -1    0    0    0    0  0.00000000000E+00  0.00000000000E+00  0.39999999673E+01  0.40000000000E+01  0.51109989000E-03 0. -1.
     -623   -1    0    0    0    0  0.00000000000E+00  0.00000000000E+00  0.12525980253E-10  0.17130000000E+03  0.17130000000E+03 0. -1.
       11    1    1    2    0    0 -0.16383072692E-03 -0.33775702650E-03  0.21695723452E-01  0.21704989246E-01  0.51109989000E-03 0. -1.
     -623    1    1    2    0    0  0.55434838065E-03  0.24276946506E-03  0.10385661680E-04  0.17130000000E+03  0.17130000000E+03 0. -1.
      622    1    1    2    0    0 -0.39051765373E-03  0.94987561437E-04  0.39782938582E+01  0.39782950097E+01  0.30000000000E-02 0. -1.
</event>
<event>
 5   0  0.3294100E+10  0.9118800E+02  0.7818608E-02  0.1180000E+00
       11   -1    0    0    0    0  0.00000000000E+00  0.00000000000E+00  0.39999999673E+01  0.40000000000E+01  0.51109989000E-03 0.  1.
     -623   -1    0    0    0    0  0.00000000000E+00  0.00000000000E+00  0.12525980253E-10  0.17130000000E+03  0.17130000000E+03 0. -1.
       11    1    1    2    0    0  0.41668992089E-03  0.62427203009E-03  0.11956983830E+01  0.11956987278E+01  0.51109989000E-03 0.  1.
     -623    1    1    2    0    0  0.10058059931E-05  0.96044885187E-04  0.20404897190E-05  0.17130000000E+03  0.17130000000E+03 0. -1.
      622    1    1    2    0    0 -0.41769572689E-03 -0.72031691528E-03  0.28042995439E+01  0.28043012722E+01  0.30000000000E-02 0.  0.
</event>
<event>
 5   0  0.3294100E+10  0.9118800E+02  0.7818608E-02  0.1180000E+00
       11   -1    0    0    0    0  0.00000000000E+00  0.00000000000E+00  0.39999999673E+01  0.40000000000E+01  0.51109989000E-03 0. -1.
     -623   -1    0    0    0    0  0.00000000000E+00  0.00000000000E+00  0.12525980253E-10  0.17130000000E+03  0.17130000000E+03 0. -1.
       11    1    1    2    0    0  0.35779404614E-03 -0.17227563086E-02  0.56209841666E+00  0.56210140290E+00  0.51109989000E-03 0. -1.
     -623    1    1    2    0    0 -0.35507274920E-03  0.13469455679E-02  0.42887432996E-05  0.17130000001E+03  0.17130000000E+03 0. -1.
      622    1    1    2    0    0 -0.27212939836E-05  0.37581072946E-03  0.34378972952E+01  0.34378986247E+01  0.30000000000E-02 0. -1.
</event>
<event>
 5   0  0.3294100E+10  0.9118800E+02  0.7818608E-02  0.1180000E+00
       11   -1    0    0    0    0  0.00000000000E+00  0.00000000000E+00  0.39999999673E+01  0.40000000000E+01  0.51109989000E-03 0. -1.
     -623   -1    0    0    0    0  0.00000000000E+00  0.00000000000E+00  0.12525980253E-10  0.17130000000E+03  0.17130000000E+03 0. -1.
       11    1    1    2    0    0 -0.63846429298E-03 -0.22267569054E-02  0.25249223226E+00  0.25250337554E+00  0.51109989000E-03 0. -1.
     -623    1    1    2    0    0 -0.74839851816E-03  0.66059640457E-03  0.12898237595E-04  0.17130000000E+03  0.17130000000E+03 0. -1.
      622    1    1    2    0    0  0.13868628148E-02  0.15661604975E-02  0.37474948566E+01  0.37474966413E+01  0.30000000000E-02 0. -1.
</event>
<event>
 5   0  0.3294100E+10  0.9118800E+02  0.7818608E-02  0.1180000E+00
       11   -1    0    0    0    0  0.00000000000E+00  0.00000000000E+00  0.39999999673E+01  0.40000000000E+01  0.51109989000E-03 0.  1.
     -623   -1    0    0    0    0  0.00000000000E+00  0.00000000000E+00  0.12525980253E-10  0.17130000000E+03  0.17130000000E+03 0.  1.
       11    1    1    2    0    0  0.11631381419E-02  0.33604977665E-03  0.89621859342E+00  0.89621955694E+00  0.51109989000E-03 0.  1.
     -623    1    1    2    0    0 -0.35258720526E-03 -0.21355532782E-03  0.24894711319E-05  0.17130000000E+03  0.17130000000E+03 0.  1.
      622    1    1    2    0    0 -0.81055093660E-03 -0.12249444883E-03  0.31037788845E+01  0.31037804426E+01  0.30000000000E-02 0.  0.
</event>
<event>
 5   0  0.3294100E+10  0.9118800E+02  0.7818608E-02  0.1180000E+00
       11   -1    0    0    0    0  0.00000000000E+00  0.00000000000E+00  0.39999999673E+01  0.40000000000E+01  0.51109989000E-03 0.  1.
     -623   -1    0    0    0    0  0.00000000000E+00  0.00000000000E+00  0.12525980253E-10  0.17130000000E+03  0.17130000000E+03 0.  1.
       11    1    1    2    0    0  0.52307663425E-03  0.16034833622E-02  0.68260746628E-01  0.68283493769E-01  0.51109989000E-03 0.  1.
     -623    1    1    2    0    0  0.57930442620E-04 -0.10025215877E-03  0.24189378372E-04  0.17130000000E+03  0.17130000000E+03 0.  1.
      622    1    1    2    0    0 -0.58100707690E-03 -0.15032312034E-02  0.39317150335E+01  0.39317165083E+01  0.30000000000E-02 0.  1.
</event>
<event>
 5   0  0.3294100E+10  0.9118800E+02  0.7818608E-02  0.1180000E+00
       11   -1    0    0    0    0  0.00000000000E+00  0.00000000000E+00  0.39999999673E+01  0.40000000000E+01  0.51109989000E-03 0. -1.
     -623   -1    0    0    0    0  0.00000000000E+00  0.00000000000E+00  0.12525980253E-10  0.17130000000E+03  0.17130000000E+03 0.  1.
       11    1    1    2    0    0  0.15280777117E-02  0.91397207662E-03  0.80208755310E+00  0.80208969226E+00  0.51109989000E-03 0. -1.
     -623    1    1    2    0    0  0.20280899642E-03 -0.87898580237E-03  0.39846805411E-05  0.17130000000E+03  0.17130000000E+03 0.  1.
      622    1    1    2    0    0 -0.17308867105E-02 -0.34986263772E-04  0.31979084772E+01  0.31979103530E+01  0.30000000000E-02 0. -1.
</event>
<event>
 5   0  0.3294100E+10  0.9118800E+02  0.7818608E-02  0.1180000E+00
       11   -1    0    0    0    0  0.00000000000E+00  0.00000000000E+00  0.39999999673E+01  0.40000000000E+01  0.51109989000E-03 0.  1.
     -623   -1    0    0    0    0  0.00000000000E+00  0.00000000000E+00  0.12525980253E-10  0.17130000000E+03  0.17130000000E+03 0. -1.
       11    1    1    2    0    0 -0.99984372527E-05 -0.19352273992E-03  0.74293676644E+00  0.74293696752E+00  0.51109989000E-03 0.  1.
     -623    1    1    2    0    0 -0.18281343464E-03  0.62517634001E-04  0.15584990769E-05  0.17130000000E+03  0.17130000000E+03 0. -1.
      622    1    1    2    0    0  0.19281187189E-03  0.13100510591E-03  0.32570616424E+01  0.32570630324E+01  0.30000000000E-02 0.  1.
</event>
<event>
 5   0  0.3294100E+10  0.9118800E+02  0.7818608E-02  0.1180000E+00
       11   -1    0    0    0    0  0.00000000000E+00  0.00000000000E+00  0.39999999673E+01  0.40000000000E+01  0.51109989000E-03 0.  1.
     -623   -1    0    0    0    0  0.00000000000E+00  0.00000000000E+00  0.12525980253E-10  0.17130000000E+03  0.17130000000E+03 0. -1.
       11    1    1    2    0    0  0.14404671117E-03  0.63935706039E-04  0.87061162610E-01  0.87062805465E-01  0.51109989000E-03 0.  1.
     -623    1    1    2    0    0 -0.72023829557E-05  0.23396829571E-04  0.27636150315E-05  0.17130000000E+03  0.17130000000E+03 0. -1.
      622    1    1    2    0    0 -0.13684432841E-03 -0.87332534967E-04  0.39129359313E+01  0.39129370847E+01  0.30000000000E-02 0.  1.
</event>
<event>
 5   0  0.3294100E+10  0.9118800E+02  0.7818608E-02  0.1180000E+00
       11   -1    0    0    0    0  0.00000000000E+00  0.00000000000E+00  0.39999999673E+01  0.40000000000E+01  0.51109989000E-03 0. -1.
     -623   -1    0    0    0    0  0.00000000000E+00  0.00000000000E+00  0.12525980253E-10  0.17130000000E+03  0.17130000000E+03 0. -1.
       11    1    1    2    0    0  0.11314826673E-02  0.69068420906E-03  0.83023549548E+00  0.83023671111E+00  0.51109989000E-03 0. -1.
     -623    1    1    2    0    0 -0.26376362540E-04 -0.61268252069E-04  0.28578009599E-05  0.17130000000E+03  0.17130000000E+03 0. -1.
      622    1    1    2    0    0 -0.11051063048E-02 -0.62941595699E-03  0.31697616141E+01  0.31697632889E+01  0.30000000000E-02 0.  0.
</event>
<event>
 5   0  0.3294100E+10  0.9118800E+02  0.7818608E-02  0.1180000E+00
       11   -1    0    0    0    0  0.00000000000E+00  0.00000000000E+00  0.39999999673E+01  0.40000000000E+01  0.51109989000E-03 0. -1.
     -623   -1    0    0    0    0  0.00000000000E+00  0.00000000000E+00  0.12525980253E-10  0.17130000000E+03  0.17130000000E+03 0. -1.
       11    1    1    2    0    0  0.53070320246E-04  0.11582148052E-03  0.21804075125E-01  0.21810436573E-01  0.51109989000E-03 0. -1.
     -623    1    1    2    0    0 -0.33106981872E-03 -0.18698569198E-03  0.74707476929E-05  0.17130000000E+03  0.17130000000E+03 0. -1.
      622    1    1    2    0    0  0.27799949847E-03  0.71164211460E-04  0.39781884215E+01  0.39781895630E+01  0.30000000000E-02 0. -1.
</event>
<event>
 5   0  0.3294100E+10  0.9118800E+02  0.7818608E-02  0.1180000E+00
       11   -1    0    0    0    0  0.00000000000E+00  0.00000000000E+00  0.39999999673E+01  0.40000000000E+01  0.51109989000E-03 0.  1.
     -623   -1    0    0    0    0  0.00000000000E+00  0.00000000000E+00  0.12525980253E-10  0.17130000000E+03  0.17130000000E+03 0.  1.
       11    1    1    2    0    0  0.11706513889E-03 -0.33824559801E-03  0.13387549762E-01  0.13402082900E-01  0.51109989000E-03 0. -1.
     -623    1    1    2    0    0  0.45205180777E-03 -0.49641024115E-04  0.15689377445E-04  0.17130000000E+03  0.17130000000E+03 0.  1.
      622    1    1    2    0    0 -0.56911695005E-03  0.38788662250E-03  0.39865967583E+01  0.39865979465E+01  0.30000000000E-02 0.  1.
</event>
<event>
 5   0  0.3294100E+10  0.9118800E+02  0.7818608E-02  0.1180000E+00
       11   -1    0    0    0    0  0.00000000000E+00  0.00000000000E+00  0.39999999673E+01  0.40000000000E+01  0.51109989000E-03 0. -1.
     -623   -1    0    0    0    0  0.00000000000E+00  0.00000000000E+00  0.12525980253E-10  0.17130000000E+03  0.17130000000E+03 0.  1.
       11    1    1    2    0    0 -0.14559705302E-03  0.38508359685E-03  0.48397531172E+00  0.48397575669E+00  0.51109989000E-03 0. -1.
     -623    1    1    2    0    0 -0.36110568002E-04 -0.44620055160E-04  0.17133735799E-05  0.17130000000E+03  0.17130000000E+03 0.  1.
      622    1    1    2    0    0  0.18170762103E-03 -0.34046354168E-03  0.35160229423E+01  0.35160242433E+01  0.30000000000E-02 0. -1.
</event>
<event>
 5   0  0.3294100E+10  0.9118800E+02  0.7818608E-02  0.1180000E+00
       11   -1    0    0    0    0  0.00000000000E+00  0.00000000000E+00  0.39999999673E+01  0.40000000000E+01  0.51109989000E-03 0. -1.
     -623   -1    0    0    0    0  0.00000000000E+00  0.00000000000E+00  0.12525980253E-10  0.17130000000E+03  0.17130000000E+03 0.  1.
       11    1    1    2    0    0  0.39457836136E-03 -0.19765014116E-03  0.26645248838E+00  0.26645334403E+00  0.51109989000E-03 0. -1.
     -623    1    1    2    0    0 -0.12982848304E-04  0.57020439052E-04  0.20504574798E-05  0.17130000000E+03  0.17130000000E+03 0.  1.
      622    1    1    2    0    0 -0.38159551274E-03  0.14062970073E-03  0.37335455256E+01  0.37335467530E+01  0.30000000000E-02 0. -1.
</event>
<event>
 5   0  0.3294100E+10  0.9118800E+02  0.7818608E-02  0.1180000E+00
       11   -1    0    0    0    0  0.00000000000E+00  0.00000000000E+00  0.39999999673E+01  0.40000000000E+01  0.51109989000E-03 0. -1.
     -623   -1    0    0    0    0  0.00000000000E+00  0.00000000000E+00  0.12525980253E-10  0.17130000000E+03  0.17130000000E+03 0.  1.
       11    1    1    2    0    0  0.69829924208E-04  0.21639837116E-02  0.81134965303E+00  0.81135270283E+00  0.51109989000E-03 0. -1.
     -623    1    1    2    0    0 -0.42905638534E-04 -0.35166350838E-03  0.49439312573E-05  0.17130000000E+03  0.17130000000E+03 0.  1.
      622    1    1    2    0    0 -0.26924285675E-04 -0.18123202032E-02  0.31886453704E+01  0.31886472968E+01  0.30000000000E-02 0.  0.
</event>
<event>
 5   0  0.3294100E+10  0.9118800E+02  0.7818608E-02  0.1180000E+00
       11   -1    0    0    0    0  0.00000000000E+00  0.00000000000E+00  0.39999999673E+01  0.40000000000E+01  0.51109989000E-03 0. -1.
     -623   -1    0    0    0    0  0.00000000000E+00  0.00000000000E+00  0.12525980253E-10  0.17130000000E+03  0.17130000000E+03 0.  1.
       11    1    1    2    0    0 -0.93981190269E-03  0.29150877045E-02  0.41894831007E+00  0.41895981754E+00  0.51109989000E-03 0. -1.
     -623    1    1    2    0    0 -0.90123029485E-03 -0.50300252535E-02  0.13905455595E-04  0.17130000008E+03  0.17130000000E+03 0.  1.
      622    1    1    2    0    0  0.18410421960E-02  0.21149375407E-02  0.35810377451E+01  0.35810400995E+01  0.30000000000E-02 0. -1.
</event>
<event>
 5   0  0.3294100E+10  0.9118800E+02  0.7818608E-02  0.1180000E+00
       11   -1    0    0    0    0  0.00000000000E+00  0.00000000000E+00  0.39999999673E+01  0.40000000000E+01  0.51109989000E-03 0. -1.
     -623   -1    0    0    0    0  0.00000000000E+00  0.00000000000E+00  0.12525980253E-10  0.17130000000E+03  0.17130000000E+03 0.  1.
       11    1    1    2    0    0  0.46398864284E-02  0.70682527469E-03  0.10783656322E+01  0.10783759669E+01  0.51109989000E-03 0. -1.
     -623    1    1    2    0    0 -0.35384048823E-02 -0.48802813601E-03  0.12095411080E-04  0.17130000004E+03  0.17130000000E+03 0.  1.
      622    1    1    2    0    0 -0.11014815058E-02 -0.21879713311E-03  0.29216222854E+01  0.29216240415E+01  0.30000000000E-02 0.  0.
</event>
<event>
 5   0  0.3294100E+10  0.9118800E+02  0.7818608E-02  0.1180000E+00
       11   -1    0    0    0    0  0.00000000000E+00  0.00000000000E+00  0.39999999673E+01  0.40000000000E+01  0.51109989000E-03 0. -1.
     -623   -1    0    0    0    0  0.00000000000E+00  0.00000000000E+00  0.12525980253E-10  0.17130000000E+03  0.17130000000E+03 0.  1.
       11    1    1    2    0    0  0.21854420775E-03  0.41203220142E-03  0.66759878822E+00  0.66759914679E+00  0.51109989000E-03 0. -1.
     -623    1    1    2    0    0  0.36843812874E-04 -0.36749593347E-04  0.17072283836E-05  0.17130000000E+03  0.17130000000E+03 0.  1.
      622    1    1    2    0    0 -0.25538802162E-03 -0.37528260709E-03  0.33323995794E+01  0.33324009607E+01  0.30000000000E-02 0. -1.
</event>
<event>
 5   0  0.3294100E+10  0.9118800E+02  0.7818608E-02  0.1180000E+00
       11   -1    0    0    0    0  0.00000000000E+00  0.00000000000E+00  0.39999999673E+01  0.40000000000E+01  0.51109989000E-03 0.  1.
     -623   -1    0    0    0    0  0.00000000000E+00  0.00000000000E+00  0.12525980253E-10  0.17130000000E+03  0.17130000000E+03 0.  1.
       11    1    1    2    0    0  0.17142921075E-02 -0.23876227930E-02  0.45027392064E+00  0.45028380425E+00  0.51109989000E-03 0.  1.
     -623    1    1    2    0    0  0.19774019166E-01  0.40103889489E-02  0.77718585416E-04  0.17130000119E+03  0.17130000000E+03 0.  1.
      622    1    1    2    0    0 -0.21488311298E-01 -0.16227661610E-02  0.35496483332E+01  0.35497150126E+01  0.30000000000E-02 0.  1.
</event>
<event>
 5   0  0.3294100E+10  0.9118800E+02  0.7818608E-02  0.1180000E+00
       11   -1    0    0    0    0  0.00000000000E+00  0.00000000000E+00  0.39999999673E+01  0.40000000000E+01  0.51109989000E-03 0. -1.
     -623   -1    0    0    0    0  0.00000000000E+00  0.00000000000E+00  0.12525980253E-10  0.17130000000E+03  0.17130000000E+03 0.  1.
       11    1    1    2    0    0 -0.30899138448E-03 -0.72684441293E-03  0.14804197113E+00  0.14804496012E+00  0.51109989000E-03 0. -1.
     -623    1    1    2    0    0  0.19250633080E-02  0.44280607410E-04  0.45348962421E-05  0.17130000001E+03  0.17130000000E+03 0.  1.
      622    1    1    2    0    0 -0.16160719322E-02  0.68256380532E-03  0.38519534795E+01  0.38519550472E+01  0.30000000000E-02 0. -1.
</event>
<event>
 5   0  0.3294100E+10  0.9118800E+02  0.7818608E-02  0.1180000E+00
       11   -1    0    0    0    0  0.00000000000E+00  0.00000000000E+00  0.39999999673E+01  0.40000000000E+01  0.51109989000E-03 0. -1.
     -623   -1    0    0    0    0  0.00000000000E+00  0.00000000000E+00  0.12525980253E-10  0.17130000000E+03  0.17130000000E+03 0. -1.
       11    1    1    2    0    0  0.58469078825E-03 -0.17017423351E-02  0.59480718373E-01  0.59510124090E-01  0.51109989000E-03 0.  1.
     -623    1    1    2    0    0 -0.52698309148E-04  0.23600893581E-03  0.30823755251E-04  0.17130000000E+03  0.17130000000E+03 0. -1.
      622    1    1    2    0    0 -0.53199247910E-03  0.14657333993E-02  0.39404884252E+01  0.39404898757E+01  0.30000000000E-02 0. -1.
</event>
<event>
 5   0  0.3294100E+10  0.9118800E+02  0.7818608E-02  0.1180000E+00
       11   -1    0    0    0    0  0.00000000000E+00  0.00000000000E+00  0.39999999673E+01  0.40000000000E+01  0.51109989000E-03 0. -1.
     -623   -1    0    0    0    0  0.00000000000E+00  0.00000000000E+00  0.12525980253E-10  0.17130000000E+03  0.17130000000E+03 0.  1.
       11    1    1    2    0    0  0.12934309663E-02  0.77769636610E-03  0.53644511606E+00  0.53644748256E+00  0.51109989000E-03 0.  1.
     -623    1    1    2    0    0  0.51628200138E-04  0.53153451815E-04  0.39939454686E-05  0.17130000000E+03  0.17130000000E+03 0.  1.
      622    1    1    2    0    0 -0.13450591664E-02 -0.83084981792E-03  0.34635508574E+01  0.34635525174E+01  0.30000000000E-02 0. -1.
</event>
<event>
 5   0  0.3294100E+10  0.9118800E+02  0.7818608E-02  0.1180000E+00
       11   -1    0    0    0    0  0.00000000000E+00  0.00000000000E+00  0.39999999673E+01  0.40000000000E+01  0.51109989000E-03 0.  1.
     -623   -1    0    0    0    0  0.00000000000E+00  0.00000000000E+00  0.12525980253E-10  0.17130000000E+03  0.17130000000E+03 0.  1.
       11    1    1    2    0    0 -0.35402669846E-03  0.21478053016E-04  0.21278441702E-01  0.21287533924E-01  0.51109989000E-03 0.  1.
     -623    1    1    2    0    0  0.64709755280E-03 -0.79177257694E-05  0.10202640881E-04  0.17130000000E+03  0.17130000000E+03 0.  1.
      622    1    1    2    0    0 -0.29307085885E-03 -0.13560327191E-04  0.39787113509E+01  0.39787124927E+01  0.30000000000E-02 0.  1.
</event>
<event>
 5   0  0.3294100E+10  0.9118800E+02  0.7818608E-02  0.1180000E+00
       11   -1    0    0    0    0  0.00000000000E+00  0.00000000000E+00  0.39999999673E+01  0.40000000000E+01  0.51109989000E-03 0. -1.
     -623   -1    0    0    0    0  0.00000000000E+00  0.00000000000E+00  0.12525980253E-10  0.17130000000E+03  0.17130000000E+03 0.  1.
       11    1    1    2    0    0 -0.14486429261E-02  0.18401203558E-02  0.23357006653E+00  0.23358236622E+00  0.51109989000E-03 0. -1.
     -623    1    1    2    0    0  0.57586880331E-03 -0.83386088648E-03  0.13700363463E-04  0.17130000000E+03  0.17130000000E+03 0.  1.
      622    1    1    2    0    0  0.87277412364E-03 -0.10062594706E-02  0.37664161945E+01  0.37664176248E+01  0.30000000000E-02 0. -1.
</event>
<event>
 5   0  0.3294100E+10  0.9118800E+02  0.7818608E-02  0.1180000E+00
       11   -1    0    0    0    0  0.00000000000E+00  0.00000000000E+00  0.39999999673E+01  0.40000000000E+01  0.51109989000E-03 0. -1.
     -623   -1    0    0    0    0  0.00000000000E+00  0.00000000000E+00  0.12525980253E-10  0.17130000000E+03  0.17130000000E+03 0. -1.
       11    1    1    2    0    0 -0.67280632113E-03 -0.69638013953E-03  0.70383651872E+00  0.70383737036E+00  0.51109989000E-03 0. -1.
     -623    1    1    2    0    0  0.46359986363E-03 -0.38351631222E-03  0.23688221069E-05  0.17130000000E+03  0.17130000000E+03 0. -1.
      622    1    1    2    0    0  0.20920645750E-03  0.10798964517E-02  0.32961610798E+01  0.32961626286E+01  0.30000000000E-02 0. -1.
</event>
<event>
 5   0  0.3294100E+10  0.9118800E+02  0.7818608E-02  0.1180000E+00
       11   -1    0    0    0    0  0.00000000000E+00  0.00000000000E+00  0.39999999673E+01  0.40000000000E+01  0.51109989000E-03 0.  1.
     -623   -1    0    0    0    0  0.00000000000E+00  0.00000000000E+00  0.12525980253E-10  0.17130000000E+03  0.17130000000E+03 0.  1.
       11    1    1    2    0    0 -0.67298526432E-03  0.25618286951E-02  0.22752216675E+00  0.22753815825E+00  0.51109989000E-03 0.  1.
     -623    1    1    2    0    0  0.74949390075E-03 -0.11721637830E-02  0.17414101405E-04  0.17130000001E+03  0.17130000000E+03 0.  1.
      622    1    1    2    0    0 -0.76508636427E-04 -0.13896649120E-02  0.37724603865E+01  0.37724618361E+01  0.30000000000E-02 0.  1.
</event>
<event>
 5   0  0.3294100E+10  0.9118800E+02  0.7818608E-02  0.1180000E+00
       11   -1    0    0    0    0  0.00000000000E+00  0.00000000000E+00  0.39999999673E+01  0.40000000000E+01  0.51109989000E-03 0.  1.
     -623   -1    0    0    0    0  0.00000000000E+00  0.00000000000E+00  0.12525980253E-10  0.17130000000E+03  0.17130000000E+03 0. -1.
       11    1    1    2    0    0  0.54993753700E-04 -0.10388651527E-02  0.26973368606E+00  0.26973617644E+00  0.51109989000E-03 0. -1.
     -623    1    1    2    0    0  0.42234131592E-04 -0.17952472540E-04  0.38150713335E-05  0.17130000000E+03  0.17130000000E+03 0. -1.
      622    1    1    2    0    0 -0.97227886471E-04  0.10568176257E-02  0.37302625779E+01  0.37302639352E+01  0.30000000000E-02 0.  1.
</event>
<event>
 5   0  0.3294100E+10  0.9118800E+02  0.7818608E-02  0.1180000E+00
       11   -1    0    0    0    0  0.00000000000E+00  0.00000000000E+00  0.39999999673E+01  0.40000000000E+01  0.51109989000E-03 0.  1.
     -623   -1    0    0    0    0  0.00000000000E+00  0.00000000000E+00  0.12525980253E-10  0.17130000000E+03  0.17130000000E+03 0.  1.
       11    1    1    2    0    0 -0.14550429316E-02  0.88621973624E-03  0.21042305259E+00  0.21043057007E+00  0.51109989000E-03 0.  1.
     -623    1    1    2    0    0  0.76390528738E-04 -0.11159891298E-03  0.90023036754E-05  0.17130000000E+03  0.17130000000E+03 0.  1.
      622    1    1    2    0    0  0.13786524028E-02 -0.77462082326E-03  0.37895679125E+01  0.37895694299E+01  0.30000000000E-02 0.  1.
</event>
<event>
 5   0  0.3294100E+10  0.9118800E+02  0.7818608E-02  0.1180000E+00
       11   -1    0    0    0    0  0.00000000000E+00  0.00000000000E+00  0.39999999673E+01  0.40000000000E+01  0.51109989000E-03 0. -1.
     -623   -1    0    0    0    0  0.00000000000E+00  0.00000000000E+00  0.12525980253E-10  0.17130000000E+03  0.17130000000E+03 0.  1.
       11    1    1    2    0    0  0.28057920786E-02  0.51773829181E-02  0.29675531593E-01  0.30258489042E-01  0.51109989000E-03 0. -1.
     -623    1    1    2    0    0 -0.30097238425E-02 -0.63922845207E-02  0.58439623185E-03  0.17130000015E+03  0.17130000000E+03 0.  1.
      622    1    1    2    0    0  0.20393176388E-03  0.12149016025E-02  0.39697400395E+01  0.39697413643E+01  0.30000000000E-02 0. -1.
</event>
<event>
 5   0  0.3294100E+10  0.9118800E+02  0.7818608E-02  0.1180000E+00
       11   -1    0    0    0    0  0.00000000000E+00  0.00000000000E+00  0.39999999673E+01  0.40000000000E+01  0.51109989000E-03 0.  1.
     -623   -1    0    0    0    0  0.00000000000E+00  0.00000000000E+00  0.12525980253E-10  0.17130000000E+03  0.17130000000E+03 0. -1.
       11    1    1    2    0    0  0.29051430071E-04 -0.99915193880E-03  0.41986010817E+00  0.41986160911E+00  0.51109989000E-03 0.  1.
     -623    1    1    2    0    0  0.19639739920E-04  0.31260470986E-04  0.28564045138E-05  0.17130000000E+03  0.17130000000E+03 0. -1.
      622    1    1    2    0    0 -0.48691169994E-04  0.96789146781E-03  0.35801370033E+01  0.35801383914E+01  0.30000000000E-02 0.  1.
</event>
<event>
 5   0  0.3294100E+10  0.9118800E+02  0.7818608E-02  0.1180000E+00
       11   -1    0    0    0    0  0.00000000000E+00  0.00000000000E+00  0.39999999673E+01  0.40000000000E+01  0.51109989000E-03 0.  1.
     -623   -1    0    0    0    0  0.00000000000E+00  0.00000000000E+00  0.12525980253E-10  0.17130000000E+03  0.17130000000E+03 0. -1.
       11    1    1    2    0    0  0.14835383508E-02  0.33925471814E-03  0.29893321293E+00  0.29893752356E+00  0.51109989000E-03 0.  1.
     -623    1    1    2    0    0 -0.19212149908E-04  0.12461100958E-03  0.58126548375E-05  0.17130000000E+03  0.17130000000E+03 0. -1.
      622    1    1    2    0    0 -0.14643262009E-02 -0.46386572772E-03  0.37010609418E+01  0.37010624764E+01  0.30000000000E-02 0.  1.
</event>
<event>
 5   0  0.3294100E+10  0.9118800E+02  0.7818608E-02  0.1180000E+00
       11   -1    0    0    0    0  0.00000000000E+00  0.00000000000E+00  0.39999999673E+01  0.40000000000E+01  0.51109989000E-03 0.  1.
     -623   -1    0    0    0    0  0.00000000000E+00  0.00000000000E+00  0.12525980253E-10  0.17130000000E+03  0.17130000000E+03 0. -1.
       11    1    1    2    0    0  0.33936743042E-03  0.44377120664E-03  0.46848923451E+00  0.46848984639E+00  0.51109989000E-03 0.  1.
     -623    1    1    2    0    0 -0.76239396440E-03 -0.44942520482E-03  0.18811174822E-05  0.17130000000E+03  0.17130000000E+03 0. -1.
      622    1    1    2    0    0  0.42302655278E-03  0.56540092619E-05  0.35315089504E+01  0.35315102499E+01  0.30000000000E-02 0.  1.
</event>
<event>
 5   0  0.3294100E+10  0.9118800E+02  0.7818608E-02  0.1180000E+00
       11   -1    0    0    0    0  0.00000000000E+00  0.00000000000E+00  0.39999999673E+01  0.40000000000E+01  0.51109989000E-03 0.  1.
     -623   -1    0    0    0    0  0.00000000000E+00  0.00000000000E+00  0.12525980253E-10  0.17130000000E+03  0.17130000000E+03 0.  1.
       11    1    1    2    0    0  0.37726884024E-02  0.12449814726E-02  0.97805173367E-01  0.97887161146E-01  0.51109989000E-03 0.  1.
     -623    1    1    2    0    0  0.17547063936E-02 -0.25930851859E-02  0.87284685192E-04  0.17130000003E+03  0.17130000000E+03 0.  1.
      622    1    1    2    0    0 -0.55273947959E-02  0.13481037133E-02  0.39021075093E+01  0.39021128102E+01  0.30000000000E-02 0.  1.
</event>
<event>
 5   0  0.3294100E+10  0.9118800E+02  0.7818608E-02  0.1180000E+00
       11   -1    0    0    0    0  0.00000000000E+00  0.00000000000E+00  0.39999999673E+01  0.40000000000E+01  0.51109989000E-03 0. -1.
     -623   -1    0    0    0    0  0.00000000000E+00  0.00000000000E+00  0.12525980253E-10  0.17130000000E+03  0.17130000000E+03 0. -1.
       11    1    1    2    0    0 -0.72356255624E-03 -0.12954946964E-02  0.10582450213E+01  0.10582461850E+01  0.51109989000E-03 0. -1.
     -623    1    1    2    0    0  0.15077889393E-02 -0.13639576489E-04  0.30632739847E-05  0.17130000001E+03  0.17130000000E+03 0. -1.
      622    1    1    2    0    0 -0.78422638302E-03  0.13091342729E-02  0.29417518828E+01  0.29417538083E+01  0.30000000000E-02 0. -1.
</event>
<event>
 5   0  0.3294100E+10  0.9118800E+02  0.7818608E-02  0.1180000E+00
       11   -1    0    0    0    0  0.00000000000E+00  0.00000000000E+00  0.39999999673E+01  0.40000000000E+01  0.51109989000E-03 0. -1.
     -623   -1    0    0    0    0  0.00000000000E+00  0.00000000000E+00  0.12525980253E-10  0.17130000000E+03  0.17130000000E+03 0. -1.
       11    1    1    2    0    0 -0.92068382013E-03  0.14168252259E-02  0.13855920834E+00  0.13857045317E+00  0.51109989000E-03 0. -1.
     -623    1    1    2    0    0  0.45264559418E-03  0.10032581514E-02  0.13167834341E-04  0.17130000000E+03  0.17130000000E+03 0. -1.
      622    1    1    2    0    0  0.46803822387E-03 -0.24200833820E-02  0.38614276096E+01  0.38614295617E+01  0.30000000000E-02 0. -1.
</event>
<event>
 5   0  0.3294100E+10  0.9118800E+02  0.7818608E-02  0.1180000E+00
       11   -1    0    0    0    0  0.00000000000E+00  0.00000000000E+00  0.39999999673E+01  0.40000000000E+01  0.51109989000E-03 0. -1.
     -623   -1    0    0    0    0  0.00000000000E+00  0.00000000000E+00  0.12525980253E-10  0.17130000000E+03  0.17130000000E+03 0.  1.
       11    1    1    2    0    0  0.98686981983E-03  0.17501316466E-02  0.41033343630E+00  0.41033867358E+00  0.51109989000E-03 0.  1.
     -623    1    1    2    0    0  0.49983537095E-03  0.16560198480E-03  0.72781221800E-05  0.17130000000E+03  0.17130000000E+03 0.  1.
      622    1    1    2    0    0 -0.14867051889E-02 -0.19157336308E-02  0.35896592380E+01  0.35896613107E+01  0.30000000000E-02 0. -1.
</event>
<event>
 5   0  0.3294100E+10  0.9118800E+02  0.7818608E-02  0.1180000E+00
       11   -1    0    0    0    0  0.00000000000E+00  0.00000000000E+00  0.39999999673E+01  0.40000000000E+01  0.51109989000E-03 0.  1.
     -623   -1    0    0    0    0  0.00000000000E+00  0.00000000000E+00  0.12525980253E-10  0.17130000000E+03  0.17130000000E+03 0. -1.
       11    1    1    2    0    0  0.72995937645E-03  0.13994247973E-03  0.26635308778E+00  0.26635461516E+00  0.51109989000E-03 0.  1.
     -623    1    1    2    0    0  0.11520051742E-02  0.12392105065E-02  0.34373806135E-05  0.17130000001E+03  0.17130000000E+03 0. -1.
      622    1    1    2    0    0 -0.18819645249E-02 -0.13791529586E-02  0.37336433529E+01  0.37336452872E+01  0.30000000000E-02 0.  1.
</event>
<event>
 5   0  0.3294100E+10  0.9118800E+02  0.7818608E-02  0.1180000E+00
       11   -1    0    0    0    0  0.00000000000E+00  0.00000000000E+00  0.39999999673E+01  0.40000000000E+01  0.51109989000E-03 0. -1.
     -623   -1    0    0    0    0  0.00000000000E+00  0.00000000000E+00  0.12525980253E-10  0.17130000000E+03  0.17130000000E+03 0. -1.
       11    1    1    2    0    0 -0.86088760058E-03  0.46853002703E-03  0.59826050609E+00  0.59826152727E+00  0.51109989000E-03 0. -1.
     -623    1    1    2    0    0  0.24482506093E-03 -0.61400360670E-03  0.23715697588E-05  0.17130000000E+03  0.17130000000E+03 0. -1.
      622    1    1    2    0    0  0.61606253935E-03  0.14547358041E-03  0.34017370946E+01  0.34017384763E+01  0.30000000000E-02 0. -1.
</event>
<event>
 5   0  0.3294100E+10  0.9118800E+02  0.7818608E-02  0.1180000E+00
       11   -1    0    0    0    0  0.00000000000E+00  0.00000000000E+00  0.39999999673E+01  0.40000000000E+01  0.51109989000E-03 0. -1.
     -623   -1    0    0    0    0  0.00000000000E+00  0.00000000000E+00  0.12525980253E-10  0.17130000000E+03  0.17130000000E+03 0.  1.
       11    1    1    2    0    0  0.33184400738E-04  0.13755058894E-02  0.25662667704E+00  0.25663087443E+00  0.51109989000E-03 0. -1.
     -623    1    1    2    0    0 -0.26673966064E-02  0.20958024069E-02  0.79368222510E-05  0.17130000003E+03  0.17130000000E+03 0.  1.
      622    1    1    2    0    0  0.26342122167E-02 -0.34713083049E-02  0.37433653699E+01  0.37433691084E+01  0.30000000000E-02 0. -1.
</event>
<event>
 5   0  0.3294100E+10  0.9118800E+02  0.7818608E-02  0.1180000E+00
       11   -1    0    0    0    0  0.00000000000E+00  0.00000000000E+00  0.39999999673E+01  0.40000000000E+01  0.51109989000E-03 0.  1.
     -623   -1    0    0    0    0  0.00000000000E+00  0.00000000000E+00  0.12525980253E-10  0.17130000000E+03  0.17130000000E+03 0. -1.
       11    1    1    2    0    0 -0.90007931725E-05  0.19970541141E-02  0.10301883909E+01  0.10301904534E+01  0.51109989000E-03 0.  1.
     -623    1    1    2    0    0  0.19376546618E-02 -0.14449054439E-02  0.42397416036E-05  0.17130000002E+03  0.17130000000E+03 0. -1.
      622    1    1    2    0    0 -0.19286538686E-02 -0.55214867018E-03  0.29698073367E+01  0.29698095295E+01  0.30000000000E-02 0.  1.
</event>
<event>
 5   0  0.3294100E+10  0.9118800E+02  0.7818608E-02  0.1180000E+00
       11   -1    0    0    0    0  0.00000000000E+00  0.00000000000E+00  0.39999999673E+01  0.40000000000E+01  0.51109989000E-03 0.  1.
     -623   -1    0    0    0    0  0.00000000000E+00  0.00000000000E+00  0.12525980253E-10  0.17130000000E+03  0.17130000000E+03 0.  1.
       11    1    1    2    0    0 -0.46238370864E-03  0.25850156733E-03  0.57401974287E+00  0.57402021484E+00  0.51109989000E-03 0.  1.
     -623    1    1    2    0    0  0.21620767924E-03  0.79678494692E-04  0.17785172788E-05  0.17130000000E+03  0.17130000000E+03 0.  1.
      622    1    1    2    0    0  0.24617602277E-03 -0.33818006446E-03  0.34259785685E+01  0.34259799076E+01  0.30000000000E-02 0.  1.
</event>
<event>
 5   0  0.3294100E+10  0.9118800E+02  0.7818608E-02  0.1180000E+00
       11   -1    0    0    0    0  0.00000000000E+00  0.00000000000E+00  0.39999999673E+01  0.40000000000E+01  0.51109989000E-03 0.  1.
     -623   -1    0    0    0    0  0.00000000000E+00  0.00000000000E+00  0.12525980253E-10  0.17130000000E+03  0.17130000000E+03 0. -1.
       11    1    1    2    0    0 -0.58206582691E-03  0.10671558204E-02  0.62612083450E-01  0.62625967763E-01  0.51109989000E-03 0.  1.
     -623    1    1    2    0    0  0.70311668268E-03 -0.53655596726E-03  0.15034462922E-04  0.17130000000E+03  0.17130000000E+03 0. -1.
      622    1    1    2    0    0 -0.12105085577E-03 -0.53059985311E-03  0.39373728494E+01  0.39373740300E+01  0.30000000000E-02 0.  1.
</event>
<event>
 5   0  0.3294100E+10  0.9118800E+02  0.7818608E-02  0.1180000E+00
       11   -1    0    0    0    0  0.00000000000E+00  0.00000000000E+00  0.39999999673E+01  0.40000000000E+01  0.51109989000E-03 0. -1.
     -623   -1    0    0    0    0  0.00000000000E+00  0.00000000000E+00  0.12525980253E-10  0.17130000000E+03  0.17130000000E+03 0.  1.
       11    1    1    2    0    0  0.98744715497E-02  0.91011605874E-02  0.44973300175E+00  0.44993374001E+00  0.51109989000E-03 0. -1.
     -623    1    1    2    0    0 -0.50791980328E-04 -0.34979307715E-02  0.22002298445E-03  0.17130000004E+03  0.17130000000E+03 0.  1.
      622    1    1    2    0    0 -0.98236795694E-02 -0.56032298159E-02  0.35500469426E+01  0.35500662241E+01  0.30000000000E-02 0.  1.
</event>
<event>
 5   0  0.3294100E+10  0.9118800E+02  0.7818608E-02  0.1180000E+00
       11   -1    0    0    0    0  0.00000000000E+00  0.00000000000E+00  0.39999999673E+01  0.40000000000E+01  0.51109989000E-03 0.  1.
     -623   -1    0    0    0    0  0.00000000000E+00  0.00000000000E+00  0.12525980253E-10  0.17130000000E+03  0.17130000000E+03 0.  1.
       11    1    1    2    0    0  0.20808650126E-02  0.23266244277E-02  0.18888766620E+00  0.18891414675E+00  0.51109989000E-03 0.  1.
     -623    1    1    2    0    0  0.20475773785E-04  0.64803477749E-04  0.28958314685E-04  0.17130000000E+03  0.17130000000E+03 0.  1.
      622    1    1    2    0    0 -0.21013407864E-02 -0.23914279055E-02  0.38110833428E+01  0.38110858532E+01  0.30000000000E-02 0.  1.
</event>
<event>
 5   0  0.3294100E+10  0.9118800E+02  0.7818608E-02  0.1180000E+00
       11   -1    0    0    0    0  0.00000000000E+00  0.00000000000E+00  0.39999999673E+01  0.40000000000E+01  0.51109989000E-03 0.  1.
     -623   -1    0    0    0    0  0.00000000000E+00  0.00000000000E+00  0.12525980253E-10  0.17130000000E+03  0.17130000000E+03 0.  1.
       11    1    1    2    0    0  0.37610823962E-03 -0.10084874165E-02  0.13998384800E+00  0.13998891894E+00  0.51109989000E-03 0. -1.
     -623    1    1    2    0    0  0.21156779258E-04 -0.56758018172E-05  0.63577710563E-05  0.17130000000E+03  0.17130000000E+03 0.  1.
      622    1    1    2    0    0 -0.39726501888E-03  0.10141632183E-02  0.38600097616E+01  0.38600110811E+01  0.30000000000E-02 0.  1.
</event>
<event>
 5   0  0.3294100E+10  0.9118800E+02  0.7818608E-02  0.1180000E+00
       11   -1    0    0    0    0  0.00000000000E+00  0.00000000000E+00  0.39999999673E+01  0.40000000000E+01  0.51109989000E-03 0. -1.
     -623   -1    0    0    0    0  0.00000000000E+00  0.00000000000E+00  0.12525980253E-10  0.17130000000E+03  0.17130000000E+03 0. -1.
       11    1    1    2    0    0 -0.97725060421E-03 -0.10932360247E-02  0.69492301856E+00  0.69492475357E+00  0.51109989000E-03 0. -1.
     -623    1    1    2    0    0  0.51628638050E-03 -0.24854996139E-03  0.33693891317E-05  0.17130000000E+03  0.17130000000E+03 0. -1.
      622    1    1    2    0    0  0.46096420970E-03  0.13417859929E-02  0.33050736879E+01  0.33050753540E+01  0.30000000000E-02 0. -1.
</event>
<event>
 5   0  0.3294100E+10  0.9118800E+02  0.7818608E-02  0.1180000E+00
       11   -1    0    0    0    0  0.00000000000E+00  0.00000000000E+00  0.39999999673E+01  0.40000000000E+01  0.51109989000E-03 0.  1.
     -623   -1    0    0    0    0  0.00000000000E+00  0.00000000000E+00  0.12525980253E-10  0.17130000000E+03  0.17130000000E+03 0.  1.
       11    1    1    2    0    0  0.33101574138E-03 -0.87408265337E-04  0.55606880544E-01  0.55610283208E-01  0.51109989000E-03 0.  1.
     -623    1    1    2    0    0 -0.12624081691E-03 -0.38991320191E-04  0.45182775641E-05  0.17130000000E+03  0.17130000000E+03 0.  1.
      622    1    1    2    0    0 -0.20477492640E-03  0.12639958493E-03  0.39443885075E+01  0.39443896557E+01  0.30000000000E-02 0.  1.
</event>
<event>
 5   0  0.3294100E+10  0.9118800E+02  0.7818608E-02  0.1180000E+00
       11   -1    0    0    0    0  0.00000000000E+00  0.00000000000E+00  0.39999999673E+01  0.40000000000E+01  0.51109989000E-03 0. -1.
     -623   -1    0    0    0    0  0.00000000000E+00  0.00000000000E+00  0.12525980253E-10  0.17130000000E+03  0.17130000000E+03 0.  1.
       11    1    1    2    0    0 -0.79587756301E-03  0.76319294417E-03  0.23166207282E+00  0.23166526086E+00  0.51109989000E-03 0. -1.
     -623    1    1    2    0    0  0.87284797853E-04  0.37928905616E-05  0.44942562760E-05  0.17130000000E+03  0.17130000000E+03 0.  1.
      622    1    1    2    0    0  0.70859276516E-03 -0.76698583473E-03  0.37683334003E+01  0.37683347391E+01  0.30000000000E-02 0. -1.
</event>
<event>
 5   0  0.3294100E+10  0.9118800E+02  0.7818608E-02  0.1180000E+00
       11   -1    0    0    0    0  0.00000000000E+00  0.00000000000E+00  0.39999999673E+01  0.40000000000E+01  0.51109989000E-03 0. -1.
     -623   -1    0    0    0    0  0.00000000000E+00  0.00000000000E+00  0.12525980253E-10  0.17130000000E+03  0.17130000000E+03 0. -1.
       11    1    1    2    0    0 -0.10784399632E-03 -0.26266764340E-03  0.30451929461E+00  0.30451985590E+00  0.51109989000E-03 0. -1.
     -623    1    1    2    0    0 -0.48889652002E-04 -0.31551782365E-04  0.17613998109E-05  0.17130000000E+03  0.17130000000E+03 0. -1.
      622    1    1    2    0    0  0.15673365048E-03  0.29421942716E-03  0.36954790879E+01  0.36954803207E+01  0.30000000000E-02 0. -1.
</event>
<event>
 5   0  0.3294100E+10  0.9118800E+02  0.7818608E-02  0.1180000E+00
       11   -1    0    0    0    0  0.00000000000E+00  0.00000000000E+00  0.39999999673E+01  0.40000000000E+01  0.51109989000E-03 0.  1.
     -623   -1    0    0    0    0  0.00000000000E+00  0.00000000000E+00  0.12525980253E-10  0.17130000000E+03  0.17130000000E+03 0.  1.
       11    1    1    2    0    0 -0.36971515375E-02  0.12948846789E-02  0.32909741737E+00  0.32912112816E+00  0.51109989000E-03 0.  1.
     -623    1    1    2    0    0 -0.91741136116E-03 -0.41165780706E-02  0.28940832947E-04  0.17130000005E+03  0.17130000000E+03 0.  1.
      622    1    1    2    0    0  0.46145628997E-02  0.28216933964E-02  0.36708736136E+01  0.36708788244E+01  0.30000000000E-02 0.  1.
</event>
<event>
 5   0  0.3294100E+10  0.9118800E+02  0.7818608E-02  0.1180000E+00
       11   -1    0    0    0    0  0.00000000000E+00  0.00000000000E+00  0.39999999673E+01  0.40000000000E+01  0.51109989000E-03 0. -1.
     -623   -1    0    0    0    0  0.00000000000E+00  0.00000000000E+00  0.12525980253E-10  0.17130000000E+03  0.17130000000E+03 0.  1.
       11    1    1    2    0    0  0.12291275290E-02  0.89972317610E-03  0.79182916714E+00  0.79183079721E+00  0.51109989000E-03 0. -1.
     -623    1    1    2    0    0  0.22231894338E-04 -0.66908302436E-04  0.33522594451E-05  0.17130000000E+03  0.17130000000E+03 0.  1.
      622    1    1    2    0    0 -0.12513594233E-02 -0.83281487367E-03  0.32081674480E+01  0.32081692028E+01  0.30000000000E-02 0. -1.
</event>
<event>
 5   0  0.3294100E+10  0.9118800E+02  0.7818608E-02  0.1180000E+00
       11   -1    0    0    0    0  0.00000000000E+00  0.00000000000E+00  0.39999999673E+01  0.40000000000E+01  0.51109989000E-03 0.  1.
     -623   -1    0    0    0    0  0.00000000000E+00  0.00000000000E+00  0.12525980253E-10  0.17130000000E+03  0.17130000000E+03 0. -1.
       11    1    1    2    0    0 -0.75646862757E-03  0.22711633314E-03  0.19716507446E+00  0.19716731889E+00  0.51109989000E-03 0.  1.
     -623    1    1    2    0    0 -0.65105438628E-04  0.52472330173E-04  0.34941560094E-05  0.17130000000E+03  0.17130000000E+03 0. -1.
      622    1    1    2    0    0  0.82157406620E-03 -0.27958866332E-03  0.38028313987E+01  0.38028326811E+01  0.30000000000E-02 0.  0.
</event>
<event>
 5   0  0.3294100E+10  0.9118800E+02  0.7818608E-02  0.1180000E+00
       11   -1    0    0    0    0  0.00000000000E+00  0.00000000000E+00  0.39999999673E+01  0.40000000000E+01  0.51109989000E-03 0. -1.
     -623   -1    0    0    0    0  0.00000000000E+00  0.00000000000E+00  0.12525980253E-10  0.17130000000E+03  0.17130000000E+03 0. -1.
       11    1    1    2    0    0 -0.33866981088E-02 -0.34401924813E-03  0.56341920568E+00  0.56342972111E+00  0.51109989000E-03 0. -1.
     -623    1    1    2    0    0  0.12594255949E-03 -0.74897788646E-04  0.13364795918E-04  0.17130000000E+03  0.17130000000E+03 0. -1.
      622    1    1    2    0    0  0.32607555490E-02  0.41891703696E-03  0.34365674067E+01  0.34365702886E+01  0.30000000000E-02 0. -1.
</event>
<event>
 5   0  0.3294100E+10  0.9118800E+02  0.7818608E-02  0.1180000E+00
       11   -1    0    0    0    0  0.00000000000E+00  0.00000000000E+00  0.39999999673E+01  0.40000000000E+01  0.51109989000E-03 0.  1.
     -623   -1    0    0    0    0  0.00000000000E+00  0.00000000000E+00  0.12525980253E-10  0.17130000000E+03  0.17130000000E+03 0.  1.
       11    1    1    2    0    0 -0.11066847025E-03  0.37949000600E-03  0.98646723293E+00  0.98646744454E+00  0.51109989000E-03 0.  1.
     -623    1    1    2    0    0 -0.34887423935E-04  0.68496790580E-04  0.17090604274E-05  0.17130000000E+03  0.17130000000E+03 0.  1.
      622    1    1    2    0    0  0.14555589556E-03 -0.44798679927E-03  0.30135311827E+01  0.30135327128E+01  0.30000000000E-02 0.  1.
</event>
<event>
 5   0  0.3294100E+10  0.9118800E+02  0.7818608E-02  0.1180000E+00
       11   -1    0    0    0    0  0.00000000000E+00  0.00000000000E+00  0.39999999673E+01  0.40000000000E+01  0.51109989000E-03 0. -1.
     -623   -1    0    0    0    0  0.00000000000E+00  0.00000000000E+00  0.12525980253E-10  0.17130000000E+03  0.17130000000E+03 0. -1.
       11    1    1    2    0    0  0.29404595587E-03  0.11739460958E-02  0.73225755291E+00  0.73225873134E+00  0.51109989000E-03 0. -1.
     -623    1    1    2    0    0  0.74487838775E-03 -0.12115932287E-02  0.26941668270E-05  0.17130000001E+03  0.17130000000E+03 0. -1.
      622    1    1    2    0    0 -0.10389243436E-02  0.37647132864E-04  0.32677397203E+01  0.32677412628E+01  0.30000000000E-02 0. -1.
</event>
<event>
 5   0  0.3294100E+10  0.9118800E+02  0.7818608E-02  0.1180000E+00
       11   -1    0    0    0    0  0.00000000000E+00  0.00000000000E+00  0.39999999673E+01  0.40000000000E+01  0.51109989000E-03 0. -1.
     -623   -1    0    0    0    0  0.00000000000E+00  0.00000000000E+00  0.12525980253E-10  0.17130000000E+03  0.17130000000E+03 0. -1.
       11    1    1    2    0    0  0.16611737121E-03 -0.31718706770E-03  0.31131767291E+00  0.31131829836E+00  0.51109989000E-03 0. -1.
     -623    1    1    2    0    0  0.42481168076E-04 -0.70920351777E-03  0.19629252241E-05  0.17130000000E+03  0.17130000000E+03 0. -1.
      622    1    1    2    0    0 -0.20859854025E-03  0.10263906017E-02  0.36886804229E+01  0.36886817916E+01  0.30000000000E-02 0. -1.
</event>
<event>
 5   0  0.3294100E+10  0.9118800E+02  0.7818608E-02  0.1180000E+00
       11   -1    0    0    0    0  0.00000000000E+00  0.00000000000E+00  0.39999999673E+01  0.40000000000E+01  0.51109989000E-03 0. -1.
     -623   -1    0    0    0    0  0.00000000000E+00  0.00000000000E+00  0.12525980253E-10  0.17130000000E+03  0.17130000000E+03 0. -1.
       11    1    1    2    0    0 -0.14936044013E-02 -0.12420359444E-02  0.11231142274E+00  0.11232938353E+00  0.51109989000E-03 0. -1.
     -623    1    1    2    0    0  0.13818125584E-02 -0.40514724632E-03  0.19442276537E-04  0.17130000001E+03  0.17130000000E+03 0. -1.
      622    1    1    2    0    0  0.11179184293E-03  0.16471831907E-02  0.38876691023E+01  0.38876706104E+01  0.30000000000E-02 0. -1.
</event>
<event>
 5   0  0.3294100E+10  0.9118800E+02  0.7818608E-02  0.1180000E+00
       11   -1    0    0    0    0  0.00000000000E+00  0.00000000000E+00  0.39999999673E+01  0.40000000000E+01  0.51109989000E-03 0. -1.
     -623   -1    0    0    0    0  0.00000000000E+00  0.00000000000E+00  0.12525980253E-10  0.17130000000E+03  0.17130000000E+03 0. -1.
       11    1    1    2    0    0  0.40075919121E-03 -0.42149086371E-03  0.49079646305E+00  0.49079707377E+00  0.51109989000E-03 0. -1.
     -623    1    1    2    0    0 -0.30140033816E-03 -0.24642259016E-03  0.19258380206E-05  0.17130000000E+03  0.17130000000E+03 0. -1.
      622    1    1    2    0    0 -0.99358853054E-04  0.66791345386E-03  0.35092015785E+01  0.35092029258E+01  0.30000000000E-02 0. -1.
</event>
<event>
 5   0  0.3294100E+10  0.9118800E+02  0.7818608E-02  0.1180000E+00
       11   -1    0    0    0    0  0.00000000000E+00  0.00000000000E+00  0.39999999673E+01  0.40000000000E+01  0.51109989000E-03 0.  1.
     -623   -1    0    0    0    0  0.00000000000E+00  0.00000000000E+00  0.12525980253E-10  0.17130000000E+03  0.17130000000E+03 0. -1.
       11    1    1    2    0    0  0.36908031000E-04  0.17358722245E-02  0.31195517466E+00  0.31196042511E+00  0.51109989000E-03 0.  1.
     -623    1    1    2    0    0 -0.32709401887E-02 -0.74718292149E-02  0.12510642990E-04  0.17130000019E+03  0.17130000000E+03 0. -1.
      622    1    1    2    0    0  0.32340321577E-02  0.57359569904E-02  0.36880322821E+01  0.36880393807E+01  0.30000000000E-02 0.  1.
</event>
<event>
 5   0  0.3294100E+10  0.9118800E+02  0.7818608E-02  0.1180000E+00
       11   -1    0    0    0    0  0.00000000000E+00  0.00000000000E+00  0.39999999673E+01  0.40000000000E+01  0.51109989000E-03 0.  1.
     -623   -1    0    0    0    0  0.00000000000E+00  0.00000000000E+00  0.12525980253E-10  0.17130000000E+03  0.17130000000E+03 0. -1.
       11    1    1    2    0    0  0.41296178012E-02 -0.28476507707E-02  0.11997261676E+01  0.11997367633E+01  0.51109989000E-03 0.  1.
     -623    1    1    2    0    0  0.39534004923E-04  0.10859801188E-03  0.16613331897E-04  0.17130000000E+03  0.17130000000E+03 0. -1.
      622    1    1    2    0    0 -0.41691518061E-02  0.27390527588E-02  0.28002571864E+01  0.28002632366E+01  0.30000000000E-02 0.  1.
</event>
<event>
 5   0  0.3294100E+10  0.9118800E+02  0.7818608E-02  0.1180000E+00
       11   -1    0    0    0    0  0.00000000000E+00  0.00000000000E+00  0.39999999673E+01  0.40000000000E+01  0.51109989000E-03 0.  1.
     -623   -1    0    0    0    0  0.00000000000E+00  0.00000000000E+00  0.12525980253E-10  0.17130000000E+03  0.17130000000E+03 0. -1.
       11    1    1    2    0    0  0.34377631862E-02 -0.47118790670E-02  0.37517769146E+00  0.37522337536E+00  0.51109989000E-03 0.  1.
     -623    1    1    2    0    0 -0.72453277783E-04 -0.61600591498E-03  0.52371656491E-04  0.17130000000E+03  0.17130000000E+03 0. -1.
      622    1    1    2    0    0 -0.33653099084E-02  0.53278849821E-02  0.36247699049E+01  0.36247766242E+01  0.30000000000E-02 0.  1.
</event>
<event>
 5   0  0.3294100E+10  0.9118800E+02  0.7818608E-02  0.1180000E+00
       11   -1    0    0    0    0  0.00000000000E+00  0.00000000000E+00  0.39999999673E+01  0.40000000000E+01  0.51109989000E-03 0. -1.
     -623   -1    0    0    0    0  0.00000000000E+00  0.00000000000E+00  0.12525980253E-10  0.17130000000E+03  0.17130000000E+03 0.  1.
       11    1    1    2    0    0  0.14467895912E-05  0.67101307955E-03  0.73932377039E+00  0.73932425157E+00  0.51109989000E-03 0. -1.
     -623    1    1    2    0    0 -0.11289464798E-04  0.23757730252E-04  0.19026496454E-05  0.17130000000E+03  0.17130000000E+03 0.  1.
      622    1    1    2    0    0  0.98426752070E-05 -0.69477080980E-03  0.32606742943E+01  0.32606757484E+01  0.30000000000E-02 0. -1.
</event>
<event>
 5   0  0.3294100E+10  0.9118800E+02  0.7818608E-02  0.1180000E+00
       11   -1    0    0    0    0  0.00000000000E+00  0.00000000000E+00  0.39999999673E+01  0.40000000000E+01  0.51109989000E-03 0.  1.
     -623   -1    0    0    0    0  0.00000000000E+00  0.00000000000E+00  0.12525980253E-10  0.17130000000E+03  0.17130000000E+03 0. -1.
       11    1    1    2    0    0 -0.51928005166E-03  0.38999258631E-03  0.80149654503E+00  0.80149697109E+00  0.51109989000E-03 0. -1.
     -623    1    1    2    0    0 -0.68603054781E-03  0.76228603687E-03  0.22380565801E-05  0.17130000000E+03  0.17130000000E+03 0. -1.
      622    1    1    2    0    0  0.12053105826E-02 -0.11522786045E-02  0.31985010861E+01  0.31985029276E+01  0.30000000000E-02 0.  1.
</event>
<event>
 5   0  0.3294100E+10  0.9118800E+02  0.7818608E-02  0.1180000E+00
       11   -1    0    0    0    0  0.00000000000E+00  0.00000000000E+00  0.39999999673E+01  0.40000000000E+01  0.51109989000E-03 0. -1.
     -623   -1    0    0    0    0  0.00000000000E+00  0.00000000000E+00  0.12525980253E-10  0.17130000000E+03  0.17130000000E+03 0.  1.
       11    1    1    2    0    0 -0.12561663143E-03 -0.57760322409E-03  0.45751908240E+00  0.45751974972E+00  0.51109989000E-03 0. -1.
     -623    1    1    2    0    0  0.62483300582E-03 -0.21963824367E-04  0.19920364358E-05  0.17130000000E+03  0.17130000000E+03 0.  1.
      622    1    1    2    0    0 -0.49921637162E-03  0.59956704836E-03  0.35424788752E+01  0.35424802314E+01  0.30000000000E-02 0. -1.
</event>
<event>
 5   0  0.3294100E+10  0.9118800E+02  0.7818608E-02  0.1180000E+00
       11   -1    0    0    0    0  0.00000000000E+00  0.00000000000E+00  0.39999999673E+01  0.40000000000E+01  0.51109989000E-03 0. -1.
     -623   -1    0    0    0    0  0.00000000000E+00  0.00000000000E+00  0.12525980253E-10  0.17130000000E+03  0.17130000000E+03 0. -1.
       11    1    1    2    0    0  0.85197479519E-02 -0.33944173240E-02  0.42258658764E+00  0.42268640084E+00  0.51109989000E-03 0. -1.
     -623    1    1    2    0    0 -0.20165067238E-02  0.25833201535E-02  0.10707298213E-03  0.17130000003E+03  0.17130000000E+03 0. -1.
      622    1    1    2    0    0 -0.65032412289E-02  0.81109717150E-03  0.35773063053E+01  0.35773135663E+01  0.30000000000E-02 0. -1.
</event>
<event>
 5   0  0.3294100E+10  0.9118800E+02  0.7818608E-02  0.1180000E+00
       11   -1    0    0    0    0  0.00000000000E+00  0.00000000000E+00  0.39999999673E+01  0.40000000000E+01  0.51109989000E-03 0.  1.
     -623   -1    0    0    0    0  0.00000000000E+00  0.00000000000E+00  0.12525980253E-10  0.17130000000E+03  0.17130000000E+03 0. -1.
       11    1    1    2    0    0  0.27295199339E-03  0.11807077304E-02  0.61418249745E+00  0.61418390566E+00  0.51109989000E-03 0.  1.
     -623    1    1    2    0    0  0.23243299527E-04 -0.23955163091E-04  0.29152023973E-05  0.17130000000E+03  0.17130000000E+03 0. -1.
      622    1    1    2    0    0 -0.29619529359E-03 -0.11567525666E-02  0.33858146719E+01  0.33858162115E+01  0.30000000000E-02 0.  1.
</event>
<event>
 5   0  0.3294100E+10  0.9118800E+02  0.7818608E-02  0.1180000E+00
       11   -1    0    0    0    0  0.00000000000E+00  0.00000000000E+00  0.39999999673E+01  0.40000000000E+01  0.51109989000E-03 0. -1.
     -623   -1    0    0    0    0  0.00000000000E+00  0.00000000000E+00  0.12525980253E-10  0.17130000000E+03  0.17130000000E+03 0. -1.
       11    1    1    2    0    0  0.60864108825E-03 -0.14189227346E-03  0.49769993493E+00  0.49770058974E+00  0.51109989000E-03 0. -1.
     -623    1    1    2    0    0  0.18244663101E-04  0.44357473211E-04  0.19645111098E-05  0.17130000000E+03  0.17130000000E+03 0. -1.
      622    1    1    2    0    0 -0.62688575277E-03  0.97534796794E-04  0.35022983796E+01  0.35022997219E+01  0.30000000000E-02 0. -1.
</event>
<event>
 5   0  0.3294100E+10  0.9118800E+02  0.7818608E-02  0.1180000E+00
       11   -1    0    0    0    0  0.00000000000E+00  0.00000000000E+00  0.39999999673E+01  0.40000000000E+01  0.51109989000E-03 0.  1.
     -623   -1    0    0    0    0  0.00000000000E+00  0.00000000000E+00  0.12525980253E-10  0.17130000000E+03  0.17130000000E+03 0. -1.
       11    1    1    2    0    0 -0.16227034310E-02 -0.66585328064E-02  0.35994495618E+00  0.36001055808E+00  0.51109989000E-03 0.  1.
     -623    1    1    2    0    0  0.91091883577E-03  0.41842048800E-02  0.67769633458E-04  0.17130000005E+03  0.17130000000E+03 0. -1.
      622    1    1    2    0    0  0.71178459519E-03  0.24743279264E-02  0.36399872415E+01  0.36399893884E+01  0.30000000000E-02 0.  1.
</event>
<event>
 5   0  0.3294100E+10  0.9118800E+02  0.7818608E-02  0.1180000E+00
       11   -1    0    0    0    0  0.00000000000E+00  0.00000000000E+00  0.39999999673E+01  0.40000000000E+01  0.51109989000E-03 0.  1.
     -623   -1    0    0    0    0  0.00000000000E+00  0.00000000000E+00  0.12525980253E-10  0.17130000000E+03  0.17130000000E+03 0. -1.
       11    1    1    2    0    0 -0.29579555807E-03  0.11062421290E-02  0.11707132664E+01  0.11707139380E+01  0.51109989000E-03 0.  1.
     -623    1    1    2    0    0 -0.86785649633E-03 -0.16536884903E-02  0.25319043511E-05  0.17130000001E+03  0.17130000000E+03 0. -1.
      622    1    1    2    0    0  0.11636520933E-02  0.54744643557E-03  0.28292843485E+01  0.28292862313E+01  0.30000000000E-02 0.  0.
</event>
<event>
 5   0  0.3294100E+10  0.9118800E+02  0.7818608E-02  0.1180000E+00
       11   -1    0    0    0    0  0.00000000000E+00  0.00000000000E+00  0.39999999673E+01  0.40000000000E+01  0.51109989000E-03 0.  1.
     -623   -1    0    0    0    0  0.00000000000E+00  0.00000000000E+00  0.12525980253E-10  0.17130000000E+03  0.17130000000E+03 0.  1.
       11    1    1    2    0    0  0.10360993310E-03 -0.70267230796E-03  0.97544118166E-01  0.97548043011E-01  0.51109989000E-03 0.  1.
     -623    1    1    2    0    0  0.31829942893E-03  0.10578046997E-02  0.50878542757E-05  0.17130000000E+03  0.17130000000E+03 0.  1.
      622    1    1    2    0    0 -0.42190935569E-03 -0.35513237071E-03  0.39024506817E+01  0.39024518738E+01  0.30000000000E-02 0.  1.
</event>
<event>
 5   0  0.3294100E+10  0.9118800E+02  0.7818608E-02  0.1180000E+00
       11   -1    0    0    0    0  0.00000000000E+00  0.00000000000E+00  0.39999999673E+01  0.40000000000E+01  0.51109989000E-03 0. -1.
     -623   -1    0    0    0    0  0.00000000000E+00  0.00000000000E+00  0.12525980253E-10  0.17130000000E+03  0.17130000000E+03 0. -1.
       11    1    1    2    0    0 -0.71212042882E-03 -0.12283825599E-02  0.86617724665E+00  0.86617856120E+00  0.51109989000E-03 0. -1.
     -623    1    1    2    0    0 -0.21275327986E-04  0.21604708420E-04  0.30360249705E-05  0.17130000000E+03  0.17130000000E+03 0. -1.
      622    1    1    2    0    0  0.73339575681E-03  0.12067778515E-02  0.31338196847E+01  0.31338214388E+01  0.30000000000E-02 0. -1.
</event>
<event>
 5   0  0.3294100E+10  0.9118800E+02  0.7818608E-02  0.1180000E+00
       11   -1    0    0    0    0  0.00000000000E+00  0.00000000000E+00  0.39999999673E+01  0.40000000000E+01  0.51109989000E-03 0. -1.
     -623   -1    0    0    0    0  0.00000000000E+00  0.00000000000E+00  0.12525980253E-10  0.17130000000E+03  0.17130000000E+03 0.  1.
       11    1    1    2    0    0  0.15121334589E-02 -0.98405077476E-03  0.93015694570E+00  0.93015883577E+00  0.51109989000E-03 0. -1.
     -623    1    1    2    0    0 -0.12366234457E-02 -0.17162355428E-03  0.35577480526E-05  0.17130000000E+03  0.17130000000E+03 0.  1.
      622    1    1    2    0    0 -0.27551001322E-03  0.11556743290E-02  0.30698394639E+01  0.30698411597E+01  0.30000000000E-02 0. -1.
</event>
<event>
 5   0  0.3294100E+10  0.9118800E+02  0.7818608E-02  0.1180000E+00
       11   -1    0    0    0    0  0.00000000000E+00  0.00000000000E+00  0.39999999673E+01  0.40000000000E+01  0.51109989000E-03 0.  1.
     -623   -1    0    0    0    0  0.00000000000E+00  0.00000000000E+00  0.12525980253E-10  0.17130000000E+03  0.17130000000E+03 0.  1.
       11    1    1    2    0    0 -0.48216859412E-03  0.21364073098E-02  0.10350176900E+01  0.10350201334E+01  0.51109989000E-03 0.  1.
     -623    1    1    2    0    0 -0.35935579757E-03 -0.56489932828E-03  0.44656811991E-05  0.17130000000E+03  0.17130000000E+03 0.  1.
      622    1    1    2    0    0  0.84152439169E-03 -0.15715079815E-02  0.29649778117E+01  0.29649798653E+01  0.30000000000E-02 0.  1.
</event>
<event>
 5   0  0.3294100E+10  0.9118800E+02  0.7818608E-02  0.1180000E+00
       11   -1    0    0    0    0  0.00000000000E+00  0.00000000000E+00  0.39999999673E+01  0.40000000000E+01  0.51109989000E-03 0.  1.
     -623   -1    0    0    0    0  0.00000000000E+00  0.00000000000E+00  0.12525980253E-10  0.17130000000E+03  0.17130000000E+03 0.  1.
       11    1    1    2    0    0 -0.97358514325E-03 -0.10857008650E-02  0.15407016567E+00  0.15407791467E+00  0.51109989000E-03 0.  1.
     -623    1    1    2    0    0 -0.44568029483E-04 -0.19961997003E-03  0.92360967408E-05  0.17130000000E+03  0.17130000000E+03 0.  1.
      622    1    1    2    0    0  0.10181531730E-02  0.12853208364E-02  0.38459205931E+01  0.38459221127E+01  0.30000000000E-02 0.  1.
</event>
<event>
 5   0  0.3294100E+10  0.9118800E+02  0.7818608E-02  0.1180000E+00
       11   -1    0    0    0    0  0.00000000000E+00  0.00000000000E+00  0.39999999673E+01  0.40000000000E+01  0.51109989000E-03 0. -1.
     -623   -1    0    0    0    0  0.00000000000E+00  0.00000000000E+00  0.12525980253E-10  0.17130000000E+03  0.17130000000E+03 0.  1.
       11    1    1    2    0    0 -0.85566371791E-03  0.28610844448E-04  0.14007149265E+00  0.14007504151E+00  0.51109989000E-03 0. -1.
     -623    1    1    2    0    0  0.94584131372E-03 -0.29821197159E-03  0.46953898836E-05  0.17130000000E+03  0.17130000000E+03 0.  1.
      622    1    1    2    0    0 -0.90177594424E-04  0.26960112670E-03  0.38599237735E+01  0.38599249498E+01  0.30000000000E-02 0. -1.
</event>
<event>
 5   0  0.3294100E+10  0.9118800E+02  0.7818608E-02  0.1180000E+00
       11   -1    0    0    0    0  0.00000000000E+00  0.00000000000E+00  0.39999999673E+01  0.40000000000E+01  0.51109989000E-03 0. -1.
     -623   -1    0    0    0    0  0.00000000000E+00  0.00000000000E+00  0.12525980253E-10  0.17130000000E+03  0.17130000000E+03 0.  1.
       11    1    1    2    0    0 -0.63032200343E-03  0.90259513697E-03  0.83966762323E-03  0.14758887574E-02  0.51109989000E-03 0.  1.
     -623    1    1    2    0    0  0.57234881856E-03 -0.68806425814E-03  0.63732360839E-03  0.17130000000E+03  0.17130000000E+03 0.  1.
      622    1    1    2    0    0  0.57973184863E-04 -0.21453087883E-03  0.39985229761E+01  0.39985241077E+01  0.30000000000E-02 0. -1.
</event>
<event>
 5   0  0.3294100E+10  0.9118800E+02  0.7818608E-02  0.1180000E+00
       11   -1    0    0    0    0  0.00000000000E+00  0.00000000000E+00  0.39999999673E+01  0.40000000000E+01  0.51109989000E-03 0. -1.
     -623   -1    0    0    0    0  0.00000000000E+00  0.00000000000E+00  0.12525980253E-10  0.17130000000E+03  0.17130000000E+03 0. -1.
       11    1    1    2    0    0  0.27665982363E-02 -0.55256865422E-03  0.33543620186E+00  0.33544845527E+00  0.51109989000E-03 0. -1.
     -623    1    1    2    0    0 -0.21880533076E-03 -0.23227104121E-02  0.15478312823E-04  0.17130000002E+03  0.17130000000E+03 0. -1.
      622    1    1    2    0    0 -0.25477929055E-02  0.28752790663E-02  0.36645482872E+01  0.36645515288E+01  0.30000000000E-02 0. -1.
</event>
<event>
 5   0  0.3294100E+10  0.9118800E+02  0.7818608E-02  0.1180000E+00
       11   -1    0    0    0    0  0.00000000000E+00  0.00000000000E+00  0.39999999673E+01  0.40000000000E+01  0.51109989000E-03 0.  1.
     -623   -1    0    0    0    0  0.00000000000E+00  0.00000000000E+00  0.12525980253E-10  0.17130000000E+03  0.17130000000E+03 0.  1.
       11    1    1    2    0    0  0.12911769553E-02  0.13235695796E-03  0.56401752055E+00  0.56401924556E+00  0.51109989000E-03 0.  1.
     -623    1    1    2    0    0 -0.83383762866E-04  0.15646448846E-03  0.32265517063E-05  0.17130000000E+03  0.17130000000E+03 0.  1.
      622    1    1    2    0    0 -0.12077931925E-02 -0.28882144642E-03  0.34359792203E+01  0.34359807543E+01  0.30000000000E-02 0.  1.
</event>
<event>
 5   0  0.3294100E+10  0.9118800E+02  0.7818608E-02  0.1180000E+00
       11   -1    0    0    0    0  0.00000000000E+00  0.00000000000E+00  0.39999999673E+01  0.40000000000E+01  0.51109989000E-03 0.  1.
     -623   -1    0    0    0    0  0.00000000000E+00  0.00000000000E+00  0.12525980253E-10  0.17130000000E+03  0.17130000000E+03 0. -1.
       11    1    1    2    0    0  0.20284184703E-03  0.41975026353E-03  0.25160728098E-01  0.25170236324E-01  0.51109989000E-03 0.  1.
     -623    1    1    2    0    0  0.51767495046E-03 -0.70286771951E-03  0.10685321671E-04  0.17130000000E+03  0.17130000000E+03 0. -1.
      622    1    1    2    0    0 -0.72051679682E-03  0.28311745506E-03  0.39748285487E+01  0.39748297563E+01  0.30000000000E-02 0.  1.
</event>
<event>
 5   0  0.3294100E+10  0.9118800E+02  0.7818608E-02  0.1180000E+00
       11   -1    0    0    0    0  0.00000000000E+00  0.00000000000E+00  0.39999999673E+01  0.40000000000E+01  0.51109989000E-03 0.  1.
     -623   -1    0    0    0    0  0.00000000000E+00  0.00000000000E+00  0.12525980253E-10  0.17130000000E+03  0.17130000000E+03 0. -1.
       11    1    1    2    0    0 -0.21378963692E-03  0.12951908418E-03  0.30684429083E+00  0.30684481830E+00  0.51109989000E-03 0.  1.
     -623    1    1    2    0    0 -0.54795448233E-03 -0.77087211226E-03  0.18501607792E-05  0.17130000000E+03  0.17130000000E+03 0. -1.
      622    1    1    2    0    0  0.76174413386E-03  0.64135304864E-03  0.36931539330E+01  0.36931552857E+01  0.30000000000E-02 0.  1.
</event>
<event>
 5   0  0.3294100E+10  0.9118800E+02  0.7818608E-02  0.1180000E+00
       11   -1    0    0    0    0  0.00000000000E+00  0.00000000000E+00  0.39999999673E+01  0.40000000000E+01  0.51109989000E-03 0. -1.
     -623   -1    0    0    0    0  0.00000000000E+00  0.00000000000E+00  0.12525980253E-10  0.17130000000E+03  0.17130000000E+03 0. -1.
       11    1    1    2    0    0 -0.81540592642E-04  0.12472521902E-02  0.87978705835E+00  0.87978809469E+00  0.51109989000E-03 0. -1.
     -623    1    1    2    0    0  0.47724844453E-02 -0.10670236718E-02  0.60471146970E-05  0.17130000007E+03  0.17130000000E+03 0. -1.
      622    1    1    2    0    0 -0.46909438396E-02 -0.18022852137E-03  0.31202068510E+01  0.31202118246E+01  0.30000000000E-02 0. -1.
</event>
<event>
 5   0  0.3294100E+10  0.9118800E+02  0.7818608E-02  0.1180000E+00
       11   -1    0    0    0    0  0.00000000000E+00  0.00000000000E+00  0.39999999673E+01  0.40000000000E+01  0.51109989000E-03 0.  1.
     -623   -1    0    0    0    0  0.00000000000E+00  0.00000000000E+00  0.12525980253E-10  0.17130000000E+03  0.17130000000E+03 0. -1.
       11    1    1    2    0    0 -0.16269868339E-02  0.53600024750E-03  0.81476182221E-01  0.81495790528E-01  0.51109989000E-03 0.  1.
     -623    1    1    2    0    0  0.89616604792E-04 -0.43949661032E-03  0.21027423438E-04  0.17130000000E+03  0.17130000000E+03 0. -1.
      622    1    1    2    0    0  0.15373702291E-02 -0.96503637171E-04  0.39185027577E+01  0.39185042089E+01  0.30000000000E-02 0.  1.
</event>
<event>
 5   0  0.3294100E+10  0.9118800E+02  0.7818608E-02  0.1180000E+00
       11   -1    0    0    0    0  0.00000000000E+00  0.00000000000E+00  0.39999999673E+01  0.40000000000E+01  0.51109989000E-03 0.  1.
     -623   -1    0    0    0    0  0.00000000000E+00  0.00000000000E+00  0.12525980253E-10  0.17130000000E+03  0.17130000000E+03 0. -1.
       11    1    1    2    0    0 -0.13885320228E-03 -0.33781938249E-03  0.99439008355E+00  0.99439028198E+00  0.51109989000E-03 0.  1.
     -623    1    1    2    0    0  0.30548787667E-03  0.60762586868E-04  0.16806582441E-05  0.17130000000E+03  0.17130000000E+03 0. -1.
      622    1    1    2    0    0 -0.16663468090E-03  0.27705679433E-03  0.30056082885E+01  0.30056098031E+01  0.30000000000E-02 0.  1.
</event>
<event>
 5   0  0.3294100E+10  0.9118800E+02  0.7818608E-02  0.1180000E+00
       11   -1    0    0    0    0  0.00000000000E+00  0.00000000000E+00  0.39999999673E+01  0.40000000000E+01  0.51109989000E-03 0. -1.
     -623   -1    0    0    0    0  0.00000000000E+00  0.00000000000E+00  0.12525980253E-10  0.17130000000E+03  0.17130000000E+03 0. -1.
       11    1    1    2    0    0 -0.13310657725E-02  0.39731765027E-03  0.45535959122E+00  0.45536199681E+00  0.51109989000E-03 0. -1.
     -623    1    1    2    0    0  0.13435108140E-02  0.33320787783E-03  0.37233619574E-05  0.17130000001E+03  0.17130000000E+03 0. -1.
      622    1    1    2    0    0 -0.12445041479E-04 -0.73052552810E-03  0.35446366528E+01  0.35446379976E+01  0.30000000000E-02 0. -1.
</event>
<event>
 5   0  0.3294100E+10  0.9118800E+02  0.7818608E-02  0.1180000E+00
       11   -1    0    0    0    0  0.00000000000E+00  0.00000000000E+00  0.39999999673E+01  0.40000000000E+01  0.51109989000E-03 0.  1.
     -623   -1    0    0    0    0  0.00000000000E+00  0.00000000000E+00  0.12525980253E-10  0.17130000000E+03  0.17130000000E+03 0.  1.
       11    1    1    2    0    0  0.90677529470E-03 -0.65256140135E-03  0.38220352807E+00  0.38220550254E+00  0.51109989000E-03 0.  1.
     -623    1    1    2    0    0 -0.61091315078E-04 -0.16565622691E-03  0.33771362129E-05  0.17130000000E+03  0.17130000000E+03 0.  1.
      622    1    1    2    0    0 -0.84568397962E-03  0.81821762826E-03  0.36177930622E+01  0.36177944974E+01  0.30000000000E-02 0.  1.
</event>
<event>
 5   0  0.3294100E+10  0.9118800E+02  0.7818608E-02  0.1180000E+00
       11   -1    0    0    0    0  0.00000000000E+00  0.00000000000E+00  0.39999999673E+01  0.40000000000E+01  0.51109989000E-03 0. -1.
     -623   -1    0    0    0    0  0.00000000000E+00  0.00000000000E+00  0.12525980253E-10  0.17130000000E+03  0.17130000000E+03 0.  1.
       11    1    1    2    0    0  0.29092629685E-03 -0.67453638072E-03  0.18987471807E+00  0.18987682697E+00  0.51109989000E-03 0. -1.
     -623    1    1    2    0    0  0.44605984365E-03  0.11370947618E-02  0.33610382926E-05  0.17130000000E+03  0.17130000000E+03 0.  1.
      622    1    1    2    0    0 -0.73698614050E-03 -0.46255838108E-03  0.38101218883E+01  0.38101231687E+01  0.30000000000E-02 0. -1.
</event>
<event>
 5   0  0.3294100E+10  0.9118800E+02  0.7818608E-02  0.1180000E+00
       11   -1    0    0    0    0  0.00000000000E+00  0.00000000000E+00  0.39999999673E+01  0.40000000000E+01  0.51109989000E-03 0. -1.
     -623   -1    0    0    0    0  0.00000000000E+00  0.00000000000E+00  0.12525980253E-10  0.17130000000E+03  0.17130000000E+03 0.  1.
       11    1    1    2    0    0 -0.39732590403E-03 -0.23899838374E-03  0.94529678254E+00  0.94529703443E+00  0.51109989000E-03 0. -1.
     -623    1    1    2    0    0  0.20895756324E-03  0.43140954355E-03  0.17049212011E-05  0.17130000000E+03  0.17130000000E+03 0.  1.
      622    1    1    2    0    0  0.18836832716E-03 -0.19241118795E-03  0.30547017407E+01  0.30547032257E+01  0.30000000000E-02 0. -1.
</event>
<event>
 5   0  0.3294100E+10  0.9118800E+02  0.7818608E-02  0.1180000E+00
       11   -1    0    0    0    0  0.00000000000E+00  0.00000000000E+00  0.39999999673E+01  0.40000000000E+01  0.51109989000E-03 0. -1.
     -623   -1    0    0    0    0  0.00000000000E+00  0.00000000000E+00  0.12525980253E-10  0.17130000000E+03  0.17130000000E+03 0.  1.
       11    1    1    2    0    0  0.45115648923E-03  0.11113886415E-02  0.21592017236E+00  0.21592410885E+00  0.51109989000E-03 0. -1.
     -623    1    1    2    0    0  0.29998355128E-03 -0.22028508680E-03  0.52729196125E-05  0.17130000000E+03  0.17130000000E+03 0.  1.
      622    1    1    2    0    0 -0.75114003670E-03 -0.89110355754E-03  0.37840744713E+01  0.37840758399E+01  0.30000000000E-02 0. -1.
</event>
<event>
 5   0  0.3294100E+10  0.9118800E+02  0.7818608E-02  0.1180000E+00
       11   -1    0    0    0    0  0.00000000000E+00  0.00000000000E+00  0.39999999673E+01  0.40000000000E+01  0.51109989000E-03 0.  1.
     -623   -1    0    0    0    0  0.00000000000E+00  0.00000000000E+00  0.12525980253E-10  0.17130000000E+03  0.17130000000E+03 0. -1.
       11    1    1    2    0    0  0.53404897959E-03  0.83671318468E-03  0.67653499932E-01  0.67662711839E-01  0.51109989000E-03 0.  1.
     -623    1    1    2    0    0  0.45232157847E-04 -0.11251909420E-02  0.10380575341E-04  0.17130000000E+03  0.17130000000E+03 0. -1.
      622    1    1    2    0    0 -0.57928113768E-03  0.28847776344E-03  0.39323361086E+01  0.39323373062E+01  0.30000000000E-02 0.  1.
</event>
<event>
 5   0  0.3294100E+10  0.9118800E+02  0.7818608E-02  0.1180000E+00
       11   -1    0    0    0    0  0.00000000000E+00  0.00000000000E+00  0.39999999673E+01  0.40000000000E+01  0.51109989000E-03 0.  1.
     -623   -1    0    0    0    0  0.00000000000E+00  0.00000000000E+00  0.12525980253E-10  0.17130000000E+03  0.17130000000E+03 0.  1.
       11    1    1    2    0    0  0.80503946295E-03  0.13239525352E-03  0.10140257009E+01  0.10140261579E+01  0.51109989000E-03 0.  1.
     -623    1    1    2    0    0  0.10378254603E-03 -0.26328280129E-03  0.20728240773E-05  0.17130000000E+03  0.17130000000E+03 0.  1.
      622    1    1    2    0    0 -0.90882200898E-03  0.13088754777E-03  0.29859721937E+01  0.29859738419E+01  0.30000000000E-02 0.  1.
</event>
<event>
 5   0  0.3294100E+10  0.9118800E+02  0.7818608E-02  0.1180000E+00
       11   -1    0    0    0    0  0.00000000000E+00  0.00000000000E+00  0.39999999673E+01  0.40000000000E+01  0.51109989000E-03 0. -1.
     -623   -1    0    0    0    0  0.00000000000E+00  0.00000000000E+00  0.12525980253E-10  0.17130000000E+03  0.17130000000E+03 0.  1.
       11    1    1    2    0    0  0.18301818767E-02  0.60767724025E-03  0.68680243229E+00  0.68680532981E+00  0.51109989000E-03 0. -1.
     -623    1    1    2    0    0  0.27885950767E-03  0.36344770216E-03  0.50372883269E-05  0.17130000000E+03  0.17130000000E+03 0.  1.
      622    1    1    2    0    0 -0.21090413889E-02 -0.97112494826E-03  0.33131925622E+01  0.33131947340E+01  0.30000000000E-02 0.  0.
</event>
<event>
 5   0  0.3294100E+10  0.9118800E+02  0.7818608E-02  0.1180000E+00
       11   -1    0    0    0    0  0.00000000000E+00  0.00000000000E+00  0.39999999673E+01  0.40000000000E+01  0.51109989000E-03 0. -1.
     -623   -1    0    0    0    0  0.00000000000E+00  0.00000000000E+00  0.12525980253E-10  0.17130000000E+03  0.17130000000E+03 0.  1.
       11    1    1    2    0    0 -0.22626593468E-02 -0.17149388807E-03  0.13779128006E+00  0.13781091074E+00  0.51109989000E-03 0. -1.
     -623    1    1    2    0    0  0.87640672549E-04  0.25968519160E-03  0.21376852719E-04  0.17130000000E+03  0.17130000000E+03 0.  1.
      622    1    1    2    0    0  0.21750186743E-02 -0.88191303530E-04  0.38621873104E+01  0.38621890890E+01  0.30000000000E-02 0. -1.
</event>
<event>
 5   0  0.3294100E+10  0.9118800E+02  0.7818608E-02  0.1180000E+00
       11   -1    0    0    0    0  0.00000000000E+00  0.00000000000E+00  0.39999999673E+01  0.40000000000E+01  0.51109989000E-03 0.  1.
     -623   -1    0    0    0    0  0.00000000000E+00  0.00000000000E+00  0.12525980253E-10  0.17130000000E+03  0.17130000000E+03 0.  1.
       11    1    1    2    0    0 -0.28437088201E-02  0.51773064808E-03  0.61520771150E-01  0.61590756051E-01  0.51109989000E-03 0.  1.
     -623    1    1    2    0    0  0.22328161203E-03 -0.32529755401E-04  0.71996658278E-04  0.17130000000E+03  0.17130000000E+03 0.  1.
      622    1    1    2    0    0  0.26204272077E-02 -0.48520089262E-03  0.39384072070E+01  0.39384092512E+01  0.30000000000E-02 0.  1.
</event>
<event>
 5   0  0.3294100E+10  0.9118800E+02  0.7818608E-02  0.1180000E+00
       11   -1    0    0    0    0  0.00000000000E+00  0.00000000000E+00  0.39999999673E+01  0.40000000000E+01  0.51109989000E-03 0.  1.
     -623   -1    0    0    0    0  0.00000000000E+00  0.00000000000E+00  0.12525980253E-10  0.17130000000E+03  0.17130000000E+03 0.  1.
       11    1    1    2    0    0 -0.31720684454E-02  0.11637587860E-04  0.77515867779E+00  0.77516533664E+00  0.51109989000E-03 0.  1.
     -623    1    1    2    0    0  0.42568663179E-04  0.57275955975E-04  0.95408751291E-05  0.17130000000E+03  0.17130000000E+03 0.  1.
      622    1    1    2    0    0  0.31294997822E-02 -0.68913543835E-04  0.32248317487E+01  0.32248346633E+01  0.30000000000E-02 0.  1.
</event>
<event>
 5   0  0.3294100E+10  0.9118800E+02  0.7818608E-02  0.1180000E+00
       11   -1    0    0    0    0  0.00000000000E+00  0.00000000000E+00  0.39999999673E+01  0.40000000000E+01  0.51109989000E-03 0. -1.
     -623   -1    0    0    0    0  0.00000000000E+00  0.00000000000E+00  0.12525980253E-10  0.17130000000E+03  0.17130000000E+03 0.  1.
       11    1    1    2    0    0 -0.12200003509E-02 -0.19684914945E-02  0.10030385145E+01  0.10030413183E+01  0.51109989000E-03 0. -1.
     -623    1    1    2    0    0 -0.64064176553E-03  0.18039540523E-02  0.48654480485E-05  0.17130000001E+03  0.17130000000E+03 0.  1.
      622    1    1    2    0    0  0.18606421185E-02  0.16453743635E-03  0.29969566002E+01  0.29969586838E+01  0.30000000000E-02 0. -1.
</event>
<event>
 5   0  0.3294100E+10  0.9118800E+02  0.7818608E-02  0.1180000E+00
       11   -1    0    0    0    0  0.00000000000E+00  0.00000000000E+00  0.39999999673E+01  0.40000000000E+01  0.51109989000E-03 0. -1.
     -623   -1    0    0    0    0  0.00000000000E+00  0.00000000000E+00  0.12525980253E-10  0.17130000000E+03  0.17130000000E+03 0.  1.
       11    1    1    2    0    0 -0.30732775351E-02  0.16470563724E-03  0.98792953637E-01  0.98842202900E-01  0.51109989000E-03 0. -1.
     -623    1    1    2    0    0 -0.52550167624E-03  0.22747828682E-02  0.52808701354E-04  0.17130000002E+03  0.17130000000E+03 0.  1.
      622    1    1    2    0    0  0.35987792111E-02 -0.24394885045E-02  0.39011542035E+01  0.39011577797E+01  0.30000000000E-02 0. -1.
</event>
<event>
 5   0  0.3294100E+10  0.9118800E+02  0.7818608E-02  0.1180000E+00
       11   -1    0    0    0    0  0.00000000000E+00  0.00000000000E+00  0.39999999673E+01  0.40000000000E+01  0.51109989000E-03 0. -1.
     -623   -1    0    0    0    0  0.00000000000E+00  0.00000000000E+00  0.12525980253E-10  0.17130000000E+03  0.17130000000E+03 0. -1.
       11    1    1    2    0    0 -0.73906921694E-02 -0.55308652111E-02  0.26942137990E+00  0.26957995839E+00  0.51109989000E-03 0. -1.
     -623    1    1    2    0    0  0.52946533157E-02  0.20573082901E-02  0.16205246075E-03  0.17130000009E+03  0.17130000000E+03 0. -1.
      622    1    1    2    0    0  0.20960388537E-02  0.34735569211E-02  0.37304165350E+01  0.37304199473E+01  0.30000000000E-02 0. -1.
</event>
<event>
 5   0  0.3294100E+10  0.9118800E+02  0.7818608E-02  0.1180000E+00
       11   -1    0    0    0    0  0.00000000000E+00  0.00000000000E+00  0.39999999673E+01  0.40000000000E+01  0.51109989000E-03 0. -1.
     -623   -1    0    0    0    0  0.00000000000E+00  0.00000000000E+00  0.12525980253E-10  0.17130000000E+03  0.17130000000E+03 0.  1.
       11    1    1    2    0    0 -0.10683784973E-02  0.57004962310E-03  0.44914661597E+00  0.44914853918E+00  0.51109989000E-03 0. -1.
     -623    1    1    2    0    0  0.18042506034E-03  0.76334061561E-03  0.35210446243E-05  0.17130000000E+03  0.17130000000E+03 0.  1.
      622    1    1    2    0    0  0.88795343699E-03 -0.13333902387E-02  0.35508498303E+01  0.35508514590E+01  0.30000000000E-02 0. -1.
</event>
<event>
 5   0  0.3294100E+10  0.9118800E+02  0.7818608E-02  0.1180000E+00
       11   -1    0    0    0    0  0.00000000000E+00  0.00000000000E+00  0.39999999673E+01  0.40000000000E+01  0.51109989000E-03 0. -1.
     -623   -1    0    0    0    0  0.00000000000E+00  0.00000000000E+00  0.12525980253E-10  0.17130000000E+03  0.17130000000E+03 0.  1.
       11    1    1    2    0    0 -0.18734956821E-03  0.11179546174E-03  0.16398199636E+00  0.16398293798E+00  0.51109989000E-03 0.  1.
     -623    1    1    2    0    0  0.18105158542E-02 -0.35314613857E-03  0.24430170535E-05  0.17130000001E+03  0.17130000000E+03 0.  1.
      622    1    1    2    0    0 -0.16231663252E-02  0.24135068448E-03  0.38360156147E+01  0.38360171388E+01  0.30000000000E-02 0. -1.
</event>
<event>
 5   0  0.3294100E+10  0.9118800E+02  0.7818608E-02  0.1180000E+00
       11   -1    0    0    0    0  0.00000000000E+00  0.00000000000E+00  0.39999999673E+01  0.40000000000E+01  0.51109989000E-03 0.  1.
     -623   -1    0    0    0    0  0.00000000000E+00  0.00000000000E+00  0.12525980253E-10  0.17130000000E+03  0.17130000000E+03 0. -1.
       11    1    1    2    0    0  0.73485428242E-03  0.24570243514E-03  0.20593638044E+00  0.20593847235E+00  0.51109989000E-03 0.  1.
     -623    1    1    2    0    0  0.10622606279E-04 -0.17591796692E-04  0.33254266723E-05  0.17130000000E+03  0.17130000000E+03 0. -1.
      622    1    1    2    0    0 -0.74547688865E-03 -0.22811063851E-03  0.37940602458E+01  0.37940615119E+01  0.30000000000E-02 0.  1.
</event>
<event>
 5   0  0.3294100E+10  0.9118800E+02  0.7818608E-02  0.1180000E+00
       11   -1    0    0    0    0  0.00000000000E+00  0.00000000000E+00  0.39999999673E+01  0.40000000000E+01  0.51109989000E-03 0.  1.
     -623   -1    0    0    0    0  0.00000000000E+00  0.00000000000E+00  0.12525980253E-10  0.17130000000E+03  0.17130000000E+03 0. -1.
       11    1    1    2    0    0 -0.60029842806E-03 -0.78038808088E-03  0.23983996173E+00  0.23984252715E+00  0.51109989000E-03 0.  1.
     -623    1    1    2    0    0 -0.15198267616E-04  0.34540099358E-04  0.38538888281E-05  0.17130000000E+03  0.17130000000E+03 0. -1.
      622    1    1    2    0    0  0.61549669581E-03  0.74584798120E-03  0.37601561885E+01  0.37601575096E+01  0.30000000000E-02 0.  1.
</event>
<event>
 5   0  0.3294100E+10  0.9118800E+02  0.7818608E-02  0.1180000E+00
       11   -1    0    0    0    0  0.00000000000E+00  0.00000000000E+00  0.39999999673E+01  0.40000000000E+01  0.51109989000E-03 0. -1.
     -623   -1    0    0    0    0  0.00000000000E+00  0.00000000000E+00  0.12525980253E-10  0.17130000000E+03  0.17130000000E+03 0. -1.
       11    1    1    2    0    0 -0.82746555743E-03  0.12233013698E-02  0.26647580578E+00  0.26648038850E+00  0.51109989000E-03 0. -1.
     -623    1    1    2    0    0 -0.64650527924E-04  0.71467911317E-04  0.60864984675E-05  0.17130000000E+03  0.17130000000E+03 0. -1.
      622    1    1    2    0    0  0.89211608585E-03 -0.12947692816E-02  0.37335181055E+01  0.37335196419E+01  0.30000000000E-02 0. -1.
</event>
<event>
 5   0  0.3294100E+10  0.9118800E+02  0.7818608E-02  0.1180000E+00
       11   -1    0    0    0    0  0.00000000000E+00  0.00000000000E+00  0.39999999673E+01  0.40000000000E+01  0.51109989000E-03 0. -1.
     -623   -1    0    0    0    0  0.00000000000E+00  0.00000000000E+00  0.12525980253E-10  0.17130000000E+03  0.17130000000E+03 0.  1.
       11    1    1    2    0    0  0.13867024190E-03  0.72301121406E-03  0.47489928379E-01  0.47498384132E-01  0.51109989000E-03 0.  1.
     -623    1    1    2    0    0  0.68608485261E-04 -0.12411923176E-03  0.96124996887E-05  0.17130000000E+03  0.17130000000E+03 0.  1.
      622    1    1    2    0    0 -0.20727872760E-03 -0.59889198151E-03  0.39525004520E+01  0.39525016413E+01  0.30000000000E-02 0. -1.
</event>
<event>
 5   0  0.3294100E+10  0.9118800E+02  0.7818608E-02  0.1180000E+00
       11   -1    0    0    0    0  0.00000000000E+00  0.00000000000E+00  0.39999999673E+01  0.40000000000E+01  0.51109989000E-03 0. -1.
     -623   -1    0    0    0    0  0.00000000000E+00  0.00000000000E+00  0.12525980253E-10  0.17130000000E+03  0.17130000000E+03 0.  1.
       11    1    1    2    0    0 -0.67411835506E-04 -0.10665351838E-02  0.55323895000E+00  0.55324021822E+00  0.51109989000E-03 0. -1.
     -623    1    1    2    0    0 -0.12975955899E-03 -0.14353131270E-03  0.27593183494E-05  0.17130000000E+03  0.17130000000E+03 0.  1.
      622    1    1    2    0    0  0.19717139449E-03  0.12100664965E-02  0.34467582580E+01  0.34467597817E+01  0.30000000000E-02 0.  0.
</event>
<event>
 5   0  0.3294100E+10  0.9118800E+02  0.7818608E-02  0.1180000E+00
       11   -1    0    0    0    0  0.00000000000E+00  0.00000000000E+00  0.39999999673E+01  0.40000000000E+01  0.51109989000E-03 0.  1.
     -623   -1    0    0    0    0  0.00000000000E+00  0.00000000000E+00  0.12525980253E-10  0.17130000000E+03  0.17130000000E+03 0. -1.
       11    1    1    2    0    0  0.28417096566E-04  0.96026666029E-03  0.22152539606E-01  0.22179250501E-01  0.51109989000E-03 0.  1.
     -623    1    1    2    0    0 -0.10893895659E-02  0.38296244845E-03  0.28181705348E-04  0.17130000000E+03  0.17130000000E+03 0. -1.
      622    1    1    2    0    0  0.10609724693E-02 -0.13432291087E-02  0.39778192460E+01  0.39778207456E+01  0.30000000000E-02 0.  1.
</event>
<event>
 5   0  0.3294100E+10  0.9118800E+02  0.7818608E-02  0.1180000E+00
       11   -1    0    0    0    0  0.00000000000E+00  0.00000000000E+00  0.39999999673E+01  0.40000000000E+01  0.51109989000E-03 0. -1.
     -623   -1    0    0    0    0  0.00000000000E+00  0.00000000000E+00  0.12525980253E-10  0.17130000000E+03  0.17130000000E+03 0.  1.
       11    1    1    2    0    0 -0.71677562306E-03  0.51576420342E-04  0.58304034406E-01  0.58310702950E-01  0.51109989000E-03 0. -1.
     -623    1    1    2    0    0  0.74434878269E-03  0.39898349587E-03  0.78054760975E-05  0.17130000000E+03  0.17130000000E+03 0.  1.
      622    1    1    2    0    0 -0.27573155191E-04 -0.45055991384E-03  0.39416881036E+01  0.39416892711E+01  0.30000000000E-02 0. -1.
</event>
<event>
 5   0  0.3294100E+10  0.9118800E+02  0.7818608E-02  0.1180000E+00
       11   -1    0    0    0    0  0.00000000000E+00  0.00000000000E+00  0.39999999673E+01  0.40000000000E+01  0.51109989000E-03 0.  1.
     -623   -1    0    0    0    0  0.00000000000E+00  0.00000000000E+00  0.12525980253E-10  0.17130000000E+03  0.17130000000E+03 0. -1.
       11    1    1    2    0    0  0.20052198595E-02 -0.26688707927E-02  0.44665294189E+00  0.44666570889E+00  0.51109989000E-03 0.  1.
     -623    1    1    2    0    0 -0.25826644016E-03  0.81875043428E-03  0.14914017511E-04  0.17130000000E+03  0.17130000000E+03 0. -1.
      622    1    1    2    0    0 -0.17469534185E-02  0.18501203555E-02  0.35533321259E+01  0.35533343034E+01  0.30000000000E-02 0.  1.
</event>
<event>
 5   0  0.3294100E+10  0.9118800E+02  0.7818608E-02  0.1180000E+00
       11   -1    0    0    0    0  0.00000000000E+00  0.00000000000E+00  0.39999999673E+01  0.40000000000E+01  0.51109989000E-03 0. -1.
     -623   -1    0    0    0    0  0.00000000000E+00  0.00000000000E+00  0.12525980253E-10  0.17130000000E+03  0.17130000000E+03 0.  1.
       11    1    1    2    0    0  0.89240428744E-04 -0.52051798457E-03  0.54189579024E+00  0.54189628860E+00  0.51109989000E-03 0. -1.
     -623    1    1    2    0    0  0.31759119658E-04  0.22373239645E-04  0.18050162525E-05  0.17130000000E+03  0.17130000000E+03 0.  1.
      622    1    1    2    0    0 -0.12099954840E-03  0.49814474492E-03  0.34581023721E+01  0.34581037114E+01  0.30000000000E-02 0. -1.
</event>
<event>
 5   0  0.3294100E+10  0.9118800E+02  0.7818608E-02  0.1180000E+00
       11   -1    0    0    0    0  0.00000000000E+00  0.00000000000E+00  0.39999999673E+01  0.40000000000E+01  0.51109989000E-03 0.  1.
     -623   -1    0    0    0    0  0.00000000000E+00  0.00000000000E+00  0.12525980253E-10  0.17130000000E+03  0.17130000000E+03 0. -1.
       11    1    1    2    0    0  0.37309225630E-03  0.36584075677E-03  0.64115342405E+00  0.64115384068E+00  0.51109989000E-03 0.  1.
     -623    1    1    2    0    0 -0.14179514355E-04 -0.18766021249E-04  0.17608535030E-05  0.17130000000E+03  0.17130000000E+03 0. -1.
      622    1    1    2    0    0 -0.35891274195E-03 -0.34707473552E-03  0.33588447825E+01  0.33588461593E+01  0.30000000000E-02 0.  0.
</event>
<event>
 5   0  0.3294100E+10  0.9118800E+02  0.7818608E-02  0.1180000E+00
       11   -1    0    0    0    0  0.00000000000E+00  0.00000000000E+00  0.39999999673E+01  0.40000000000E+01  0.51109989000E-03 0.  1.
     -623   -1    0    0    0    0  0.00000000000E+00  0.00000000000E+00  0.12525980253E-10  0.17130000000E+03  0.17130000000E+03 0. -1.
       11    1    1    2    0    0 -0.91747413730E-03 -0.47952445486E-03  0.30274906270E+00  0.30275126406E+00  0.51109989000E-03 0.  1.
     -623    1    1    2    0    0 -0.26328409611E-03  0.90997419111E-03  0.36020605645E-05  0.17130000000E+03  0.17130000000E+03 0. -1.
      622    1    1    2    0    0  0.11807582334E-02 -0.43044973625E-03  0.36972473026E+01  0.36972487333E+01  0.30000000000E-02 0.  1.
</event>
<event>
 5   0  0.3294100E+10  0.9118800E+02  0.7818608E-02  0.1180000E+00
       11   -1    0    0    0    0  0.00000000000E+00  0.00000000000E+00  0.39999999673E+01  0.40000000000E+01  0.51109989000E-03 0. -1.
     -623   -1    0    0    0    0  0.00000000000E+00  0.00000000000E+00  0.12525980253E-10  0.17130000000E+03  0.17130000000E+03 0. -1.
       11    1    1    2    0    0 -0.58037061186E-03  0.40125629607E-03  0.48741779550E+00  0.48741857415E+00  0.51109989000E-03 0. -1.
     -623    1    1    2    0    0  0.18729958634E-03  0.20156438779E-03  0.21010640796E-05  0.17130000000E+03  0.17130000000E+03 0. -1.
      622    1    1    2    0    0  0.39307102376E-03 -0.60282068575E-03  0.35125801085E+01  0.35125814633E+01  0.30000000000E-02 0. -1.
</event>
<event>
 5   0  0.3294100E+10  0.9118800E+02  0.7818608E-02  0.1180000E+00
       11   -1    0    0    0    0  0.00000000000E+00  0.00000000000E+00  0.39999999673E+01  0.40000000000E+01  0.51109989000E-03 0.  1.
     -623   -1    0    0    0    0  0.00000000000E+00  0.00000000000E+00  0.12525980253E-10  0.17130000000E+03  0.17130000000E+03 0. -1.
       11    1    1    2    0    0  0.32882373009E-02 -0.10875762275E-02  0.11217121619E+01  0.11217176252E+01  0.51109989000E-03 0.  1.
     -623    1    1    2    0    0 -0.19123340727E-04 -0.59032344883E-04  0.90790072633E-05  0.17130000000E+03  0.17130000000E+03 0. -1.
      622    1    1    2    0    0 -0.32691139603E-02  0.11466085720E-02  0.28782786990E+01  0.28782823474E+01  0.30000000000E-02 0.  1.
</event>
<event>
 5   0  0.3294100E+10  0.9118800E+02  0.7818608E-02  0.1180000E+00
       11   -1    0    0    0    0  0.00000000000E+00  0.00000000000E+00  0.39999999673E+01  0.40000000000E+01  0.51109989000E-03 0.  1.
     -623   -1    0    0    0    0  0.00000000000E+00  0.00000000000E+00  0.12525980253E-10  0.17130000000E+03  0.17130000000E+03 0. -1.
       11    1    1    2    0    0  0.27672070203E-02  0.25835926581E-02  0.92378537972E+00  0.92379327850E+00  0.51109989000E-03 0.  1.
     -623    1    1    2    0    0 -0.15622926145E-02 -0.76491101303E-03  0.10111395095E-04  0.17130000001E+03  0.17130000000E+03 0. -1.
      622    1    1    2    0    0 -0.12049144058E-02 -0.18186816451E-02  0.30762044762E+01  0.30762067127E+01  0.30000000000E-02 0.  1.
</event>
<event>
 5   0  0.3294100E+10  0.9118800E+02  0.7818608E-02  0.1180000E+00
       11   -1    0    0    0    0  0.00000000000E+00  0.00000000000E+00  0.39999999673E+01  0.40000000000E+01  0.51109989000E-03 0. -1.
     -623   -1    0    0    0    0  0.00000000000E+00  0.00000000000E+00  0.12525980253E-10  0.17130000000E+03  0.17130000000E+03 0. -1.
       11    1    1    2    0    0 -0.92377199947E-03 -0.57279854457E-03  0.98265670185E-01  0.98273010598E-01  0.51109989000E-03 0. -1.
     -623    1    1    2    0    0 -0.48079893048E-04  0.14663609267E-04  0.86220722038E-05  0.17130000000E+03  0.17130000000E+03 0. -1.
      622    1    1    2    0    0  0.97185189252E-03  0.55813493530E-03  0.39017256751E+01  0.39017269894E+01  0.30000000000E-02 0. -1.
</event>
<event>
 5   0  0.3294100E+10  0.9118800E+02  0.7818608E-02  0.1180000E+00
       11   -1    0    0    0    0  0.00000000000E+00  0.00000000000E+00  0.39999999673E+01  0.40000000000E+01  0.51109989000E-03 0. -1.
     -623   -1    0    0    0    0  0.00000000000E+00  0.00000000000E+00  0.12525980253E-10  0.17130000000E+03  0.17130000000E+03 0. -1.
       11    1    1    2    0    0 -0.10201085018E-02 -0.64052462520E-03  0.30234340648E+00  0.30234623787E+00  0.51109989000E-03 0. -1.
     -623    1    1    2    0    0  0.43720145829E-03 -0.32851896131E-03  0.41895387466E-05  0.17130000000E+03  0.17130000000E+03 0. -1.
      622    1    1    2    0    0  0.58290704350E-03  0.96904358651E-03  0.36976523713E+01  0.36976537613E+01  0.30000000000E-02 0. -1.
</event>
<event>
 5   0  0.3294100E+10  0.9118800E+02  0.7818608E-02  0.1180000E+00
       11   -1    0    0    0    0  0.00000000000E+00  0.00000000000E+00  0.39999999673E+01  0.40000000000E+01  0.51109989000E-03 0.  1.
     -623   -1    0    0    0    0  0.00000000000E+00  0.00000000000E+00  0.12525980253E-10  0.17130000000E+03  0.17130000000E+03 0. -1.
       11    1    1    2    0    0  0.20334148919E-02 -0.19349670012E-02  0.65238431526E+00  0.65239055396E+00  0.51109989000E-03 0.  1.
     -623    1    1    2    0    0 -0.28397226687E-02  0.80866717772E-03  0.78623217994E-05  0.17130000003E+03  0.17130000000E+03 0. -1.
      622    1    1    2    0    0  0.80630777675E-03  0.11262998235E-02  0.33476077898E+01  0.33476094206E+01  0.30000000000E-02 0.  1.
</event>
<event>
 5   0  0.3294100E+10  0.9118800E+02  0.7818608E-02  0.1180000E+00
       11   -1    0    0    0    0  0.00000000000E+00  0.00000000000E+00  0.39999999673E+01  0.40000000000E+01  0.51109989000E-03 0. -1.
     -623   -1    0    0    0    0  0.00000000000E+00  0.00000000000E+00  0.12525980253E-10  0.17130000000E+03  0.17130000000E+03 0. -1.
       11    1    1    2    0    0  0.14021609833E-02 -0.24198283216E-02  0.70462532346E+00  0.70463105900E+00  0.51109989000E-03 0. -1.
     -623    1    1    2    0    0 -0.29703817283E-03  0.29433982186E-02  0.73208966858E-05  0.17130000003E+03  0.17130000000E+03 0. -1.
      622    1    1    2    0    0 -0.11051228046E-02 -0.52356995587E-03  0.32953674030E+01  0.32953689954E+01  0.30000000000E-02 0.  0.
</event>
<event>
 5   0  0.3294100E+10  0.9118800E+02  0.7818608E-02  0.1180000E+00
       11   -1    0    0    0    0  0.00000000000E+00  0.00000000000E+00  0.39999999673E+01  0.40000000000E+01  0.51109989000E-03 0. -1.
     -623   -1    0    0    0    0  0.00000000000E+00  0.00000000000E+00  0.12525980253E-10  0.17130000000E+03  0.17130000000E+03 0. -1.
       11    1    1    2    0    0 -0.18021818040E-03  0.30622872816E-03  0.99416538037E-01  0.99418486777E-01  0.51109989000E-03 0. -1.
     -623    1    1    2    0    0  0.82951614984E-04  0.15352585323E-03  0.30981707533E-05  0.17130000000E+03  0.17130000000E+03 0. -1.
      622    1    1    2    0    0  0.97266563257E-04 -0.45975458539E-03  0.39005804352E+01  0.39005816172E+01  0.30000000000E-02 0. -1.
</event>
<event>
 5   0  0.3294100E+10  0.9118800E+02  0.7818608E-02  0.1180000E+00
       11   -1    0    0    0    0  0.00000000000E+00  0.00000000000E+00  0.39999999673E+01  0.40000000000E+01  0.51109989000E-03 0.  1.
     -623   -1    0    0    0    0  0.00000000000E+00  0.00000000000E+00  0.12525980253E-10  0.17130000000E+03  0.17130000000E+03 0. -1.
       11    1    1    2    0    0  0.32269837101E-02  0.17834754317E-02  0.59629398575E+00  0.59630560359E+00  0.51109989000E-03 0.  1.
     -623    1    1    2    0    0 -0.37991371915E-02 -0.14105952115E-02  0.13023744541E-04  0.17130000005E+03  0.17130000000E+03 0. -1.
      622    1    1    2    0    0  0.57215347846E-03 -0.37288022138E-03  0.34036929547E+01  0.34036943453E+01  0.30000000000E-02 0.  0.
</event>
<event>
 5   0  0.3294100E+10  0.9118800E+02  0.7818608E-02  0.1180000E+00
       11   -1    0    0    0    0  0.00000000000E+00  0.00000000000E+00  0.39999999673E+01  0.40000000000E+01  0.51109989000E-03 0.  1.
     -623   -1    0    0    0    0  0.00000000000E+00  0.00000000000E+00  0.12525980253E-10  0.17130000000E+03  0.17130000000E+03 0.  1.
       11    1    1    2    0    0  0.15375245439E-02 -0.35752875486E-03  0.10248944764E+01  0.10248958195E+01  0.51109989000E-03 0.  1.
     -623    1    1    2    0    0  0.27295860525E-03  0.20522628131E-03  0.33781108155E-05  0.17130000000E+03  0.17130000000E+03 0.  1.
      622    1    1    2    0    0 -0.18104831513E-02  0.15230247191E-03  0.29751021448E+01  0.29751042121E+01  0.30000000000E-02 0.  1.
</event>
<event>
 5   0  0.3294100E+10  0.9118800E+02  0.7818608E-02  0.1180000E+00
       11   -1    0    0    0    0  0.00000000000E+00  0.00000000000E+00  0.39999999673E+01  0.40000000000E+01  0.51109989000E-03 0.  1.
     -623   -1    0    0    0    0  0.00000000000E+00  0.00000000000E+00  0.12525980253E-10  0.17130000000E+03  0.17130000000E+03 0.  1.
       11    1    1    2    0    0 -0.27997939679E-03 -0.21014279286E-03  0.33605953460E-01  0.33611662849E-01  0.51109989000E-03 0. -1.
     -623    1    1    2    0    0 -0.70542853739E-04 -0.35232121349E-03  0.68670290205E-05  0.17130000000E+03  0.17130000000E+03 0.  1.
      622    1    1    2    0    0  0.35052225180E-03  0.56246401271E-03  0.39663872191E+01  0.39663884090E+01  0.30000000000E-02 0.  1.
</event>
<event>
 5   0  0.3294100E+10  0.9118800E+02  0.7818608E-02  0.1180000E+00
       11   -1    0    0    0    0  0.00000000000E+00  0.00000000000E+00  0.39999999673E+01  0.40000000000E+01  0.51109989000E-03 0. -1.
     -623   -1    0    0    0    0  0.00000000000E+00  0.00000000000E+00  0.12525980253E-10  0.17130000000E+03  0.17130000000E+03 0. -1.
       11    1    1    2    0    0  0.93546007079E-03  0.15694674073E-03  0.95312689745E+00  0.95312750646E+00  0.51109989000E-03 0. -1.
     -623    1    1    2    0    0  0.58481087069E-04  0.57381697539E-05  0.22197748879E-05  0.17130000000E+03  0.17130000000E+03 0. -1.
      622    1    1    2    0    0 -0.99394115766E-03 -0.16268491047E-03  0.30468708361E+01  0.30468724795E+01  0.30000000000E-02 0.  0.
</event>
<event>
 5   0  0.3294100E+10  0.9118800E+02  0.7818608E-02  0.1180000E+00
       11   -1    0    0    0    0  0.00000000000E+00  0.00000000000E+00  0.39999999673E+01  0.40000000000E+01  0.51109989000E-03 0.  1.
     -623   -1    0    0    0    0  0.00000000000E+00  0.00000000000E+00  0.12525980253E-10  0.17130000000E+03  0.17130000000E+03 0.  1.
       11    1    1    2    0    0 -0.79087385625E-03  0.24677035809E-02  0.40375559986E+00  0.40376423899E+00  0.51109989000E-03 0.  1.
     -623    1    1    2    0    0  0.58009739157E-04  0.48598270010E-04  0.10812818507E-04  0.17130000000E+03  0.17130000000E+03 0.  1.
      622    1    1    2    0    0  0.73286411710E-03 -0.25163018509E-02  0.35962335547E+01  0.35962357610E+01  0.30000000000E-02 0.  1.
</event>
<event>
 5   0  0.3294100E+10  0.9118800E+02  0.7818608E-02  0.1180000E+00
       11   -1    0    0    0    0  0.00000000000E+00  0.00000000000E+00  0.39999999673E+01  0.40000000000E+01  0.51109989000E-03 0.  1.
     -623   -1    0    0    0    0  0.00000000000E+00  0.00000000000E+00  0.12525980253E-10  0.17130000000E+03  0.17130000000E+03 0. -1.
       11    1    1    2    0    0 -0.43109547290E-03 -0.54426771844E-03  0.22626132342E-01  0.22642551891E-01  0.51109989000E-03 0. -1.
     -623    1    1    2    0    0  0.61667911555E-03  0.44701857767E-03  0.17525526092E-04  0.17130000000E+03  0.17130000000E+03 0. -1.
      622    1    1    2    0    0 -0.18558364265E-03  0.97249140765E-04  0.39773563095E+01  0.39773574464E+01  0.30000000000E-02 0.  1.
</event>
<event>
 5   0  0.3294100E+10  0.9118800E+02  0.7818608E-02  0.1180000E+00
       11   -1    0    0    0    0  0.00000000000E+00  0.00000000000E+00  0.39999999673E+01  0.40000000000E+01  0.51109989000E-03 0.  1.
     -623   -1    0    0    0    0  0.00000000000E+00  0.00000000000E+00  0.12525980253E-10  0.17130000000E+03  0.17130000000E+03 0.  1.
       11    1    1    2    0    0  0.14230686765E-03  0.33312645006E-03  0.82312187759E-01  0.82314571621E-01  0.51109989000E-03 0. -1.
     -623    1    1    2    0    0  0.62990959992E-03 -0.21386658033E-04  0.35895284745E-05  0.17130000000E+03  0.17130000000E+03 0.  1.
      622    1    1    2    0    0 -0.77221647053E-03 -0.31173979193E-03  0.39176842089E+01  0.39176854460E+01  0.30000000000E-02 0.  1.
</event>
<event>
 5   0  0.3294100E+10  0.9118800E+02  0.7818608E-02  0.1180000E+00
       11   -1    0    0    0    0  0.00000000000E+00  0.00000000000E+00  0.39999999673E+01  0.40000000000E+01  0.51109989000E-03 0. -1.
     -623   -1    0    0    0    0  0.00000000000E+00  0.00000000000E+00  0.12525980253E-10  0.17130000000E+03  0.17130000000E+03 0.  1.
       11    1    1    2    0    0 -0.72246574912E-03 -0.22387868436E-02  0.99990155800E+00  0.99990445595E+00  0.51109989000E-03 0. -1.
     -623    1    1    2    0    0  0.51118357268E-04 -0.14635526435E-03  0.53885734248E-05  0.17130000000E+03  0.17130000000E+03 0.  1.
      622    1    1    2    0    0  0.67134739164E-03  0.23851421086E-02  0.30000930369E+01  0.30000955601E+01  0.30000000000E-02 0.  0.
</event>
<event>
 5   0  0.3294100E+10  0.9118800E+02  0.7818608E-02  0.1180000E+00
       11   -1    0    0    0    0  0.00000000000E+00  0.00000000000E+00  0.39999999673E+01  0.40000000000E+01  0.51109989000E-03 0.  1.
     -623   -1    0    0    0    0  0.00000000000E+00  0.00000000000E+00  0.12525980253E-10  0.17130000000E+03  0.17130000000E+03 0. -1.
       11    1    1    2    0    0 -0.80120481568E-03  0.37399914483E-03  0.31234627854E+00  0.31234794820E+00  0.51109989000E-03 0.  1.
     -623    1    1    2    0    0  0.29193068136E-02 -0.59962160605E-03  0.34984315054E-05  0.17130000003E+03  0.17130000000E+03 0. -1.
      622    1    1    2    0    0 -0.21181020845E-02  0.22562247900E-03  0.36876503090E+01  0.36876521445E+01  0.30000000000E-02 0.  1.
</event>
<event>
 5   0  0.3294100E+10  0.9118800E+02  0.7818608E-02  0.1180000E+00
       11   -1    0    0    0    0  0.00000000000E+00  0.00000000000E+00  0.39999999673E+01  0.40000000000E+01  0.51109989000E-03 0.  1.
     -623   -1    0    0    0    0  0.00000000000E+00  0.00000000000E+00  0.12525980253E-10  0.17130000000E+03  0.17130000000E+03 0. -1.
       11    1    1    2    0    0  0.26841280890E-04  0.14763715141E-03  0.91467087689E+00  0.91467103200E+00  0.51109989000E-03 0.  1.
     -623    1    1    2    0    0  0.48965104613E-04  0.41675946874E-04  0.15877313566E-05  0.17130000000E+03  0.17130000000E+03 0. -1.
      622    1    1    2    0    0 -0.75806385502E-04 -0.18931309828E-03  0.30853275027E+01  0.30853289680E+01  0.30000000000E-02 0.  1.
</event>
<event>
 5   0  0.3294100E+10  0.9118800E+02  0.7818608E-02  0.1180000E+00
       11   -1    0    0    0    0  0.00000000000E+00  0.00000000000E+00  0.39999999673E+01  0.40000000000E+01  0.51109989000E-03 0. -1.
     -623   -1    0    0    0    0  0.00000000000E+00  0.00000000000E+00  0.12525980253E-10  0.17130000000E+03  0.17130000000E+03 0.  1.
       11    1    1    2    0    0  0.79218311296E-03 -0.18913176579E-03  0.29890924180E+00  0.29891078833E+00  0.51109989000E-03 0. -1.
     -623    1    1    2    0    0  0.20908253994E-03 -0.25590621428E-03  0.28922615827E-05  0.17130000000E+03  0.17130000000E+03 0.  1.
      622    1    1    2    0    0 -0.10012656529E-02  0.44503798006E-03  0.37010878333E+01  0.37010892113E+01  0.30000000000E-02 0. -1.
</event>
<event>
 5   0  0.3294100E+10  0.9118800E+02  0.7818608E-02  0.1180000E+00
       11   -1    0    0    0    0  0.00000000000E+00  0.00000000000E+00  0.39999999673E+01  0.40000000000E+01  0.51109989000E-03 0. -1.
     -623   -1    0    0    0    0  0.00000000000E+00  0.00000000000E+00  0.12525980253E-10  0.17130000000E+03  0.17130000000E+03 0.  1.
       11    1    1    2    0    0 -0.15501201005E-03 -0.13821599757E-02  0.89723844110E+00  0.89723966464E+00  0.51109989000E-03 0. -1.
     -623    1    1    2    0    0 -0.86222267242E-04  0.13092335106E-03  0.29029621955E-05  0.17130000000E+03  0.17130000000E+03 0.  1.
      622    1    1    2    0    0  0.24123427729E-03  0.12512366247E-02  0.31027586233E+01  0.31027603353E+01  0.30000000000E-02 0.  0.
</event>
<event>
 5   0  0.3294100E+10  0.9118800E+02  0.7818608E-02  0.1180000E+00
       11   -1    0    0    0    0  0.00000000000E+00  0.00000000000E+00  0.39999999673E+01  0.40000000000E+01  0.51109989000E-03 0.  1.
     -623   -1    0    0    0    0  0.00000000000E+00  0.00000000000E+00  0.12525980253E-10  0.17130000000E+03  0.17130000000E+03 0.  1.
       11    1    1    2    0    0  0.38567786311E-02 -0.55278252191E-03  0.66655559222E+00  0.66656717520E+00  0.51109989000E-03 0.  1.
     -623    1    1    2    0    0 -0.31859625249E-03  0.24258527986E-03  0.14792955843E-04  0.17130000000E+03  0.17130000000E+03 0.  1.
      622    1    1    2    0    0 -0.35381823776E-02  0.31019724130E-03  0.33334295945E+01  0.33334328367E+01  0.30000000000E-02 0.  1.
</event>
<event>
 5   0  0.3294100E+10  0.9118800E+02  0.7818608E-02  0.1180000E+00
       11   -1    0    0    0    0  0.00000000000E+00  0.00000000000E+00  0.39999999673E+01  0.40000000000E+01  0.51109989000E-03 0.  1.
     -623   -1    0    0    0    0  0.00000000000E+00  0.00000000000E+00  0.12525980253E-10  0.17130000000E+03  0.17130000000E+03 0.  1.
       11    1    1    2    0    0  0.71414081873E-03  0.94884865614E-04  0.10774516127E+01  0.10774519747E+01  0.51109989000E-03 0.  1.
     -623    1    1    2    0    0  0.11941338083E-04  0.22465503898E-04  0.19617329952E-05  0.17130000000E+03  0.17130000000E+03 0.  1.
      622    1    1    2    0    0 -0.72608215681E-03 -0.11735036951E-03  0.29225463930E+01  0.29225480253E+01  0.30000000000E-02 0.  1.
</event>
<event>
 5   0  0.3294100E+10  0.9118800E+02  0.7818608E-02  0.1180000E+00
       11   -1    0    0    0    0  0.00000000000E+00  0.00000000000E+00  0.39999999673E+01  0.40000000000E+01  0.51109989000E-03 0. -1.
     -623   -1    0    0    0    0  0.00000000000E+00  0.00000000000E+00  0.12525980253E-10  0.17130000000E+03  0.17130000000E+03 0. -1.
       11    1    1    2    0    0  0.41659579358E-03  0.11837905975E-03  0.17930401266E-01  0.17942911646E-01  0.51109989000E-03 0. -1.
     -623    1    1    2    0    0 -0.59750901231E-03 -0.69701858322E-03  0.13656420489E-04  0.17130000000E+03  0.17130000000E+03 0. -1.
      622    1    1    2    0    0  0.18091322022E-03  0.57863952522E-03  0.39820559197E+01  0.39820570959E+01  0.30000000000E-02 0. -1.
</event>
<event>
 5   0  0.3294100E+10  0.9118800E+02  0.7818608E-02  0.1180000E+00
       11   -1    0    0    0    0  0.00000000000E+00  0.00000000000E+00  0.39999999673E+01  0.40000000000E+01  0.51109989000E-03 0. -1.
     -623   -1    0    0    0    0  0.00000000000E+00  0.00000000000E+00  0.12525980253E-10  0.17130000000E+03  0.17130000000E+03 0. -1.
       11    1    1    2    0    0  0.10268909651E-02 -0.22705625057E-02  0.36324188215E+00  0.36325078958E+00  0.51109989000E-03 0. -1.
     -623    1    1    2    0    0  0.85830128525E-04 -0.62560876033E-04  0.11030816347E-04  0.17130000000E+03  0.17130000000E+03 0. -1.
      622    1    1    2    0    0 -0.11127210945E-02  0.23331233823E-02  0.36367470908E+01  0.36367492468E+01  0.30000000000E-02 0. -1.
</event>
<event>
 5   0  0.3294100E+10  0.9118800E+02  0.7818608E-02  0.1180000E+00
       11   -1    0    0    0    0  0.00000000000E+00  0.00000000000E+00  0.39999999673E+01  0.40000000000E+01  0.51109989000E-03 0.  1.
     -623   -1    0    0    0    0  0.00000000000E+00  0.00000000000E+00  0.12525980253E-10  0.17130000000E+03  0.17130000000E+03 0.  1.
       11    1    1    2    0    0 -0.18248247489E-02  0.21419415001E-02  0.28658726324E+00  0.28660153275E+00  0.51109989000E-03 0.  1.
     -623    1    1    2    0    0  0.14815662211E-02 -0.32888442531E-02  0.15679649854E-04  0.17130000004E+03  0.17130000000E+03 0.  1.
      622    1    1    2    0    0  0.34325852772E-03  0.11469027530E-02  0.37133970245E+01  0.37133984293E+01  0.30000000000E-02 0.  1.
</event>
<event>
 5   0  0.3294100E+10  0.9118800E+02  0.7818608E-02  0.1180000E+00
       11   -1    0    0    0    0  0.00000000000E+00  0.00000000000E+00  0.39999999673E+01  0.40000000000E+01  0.51109989000E-03 0. -1.
     -623   -1    0    0    0    0  0.00000000000E+00  0.00000000000E+00  0.12525980253E-10  0.17130000000E+03  0.17130000000E+03 0. -1.
       11    1    1    2    0    0 -0.11452037532E-02  0.98395326998E-03  0.28825360152E-01  0.28869400140E-01  0.51109989000E-03 0. -1.
     -623    1    1    2    0    0 -0.49738150368E-04 -0.54844961541E-04  0.45429021226E-04  0.17130000000E+03  0.17130000000E+03 0. -1.
      622    1    1    2    0    0  0.11949419035E-02 -0.92910830844E-03  0.39711291782E+01  0.39711305998E+01  0.30000000000E-02 0. -1.
</event>
<event>
 5   0  0.3294100E+10  0.9118800E+02  0.7818608E-02  0.1180000E+00
       11   -1    0    0    0    0  0.00000000000E+00  0.00000000000E+00  0.39999999673E+01  0.40000000000E+01  0.51109989000E-03 0.  1.
     -623   -1    0    0    0    0  0.00000000000E+00  0.00000000000E+00  0.12525980253E-10  0.17130000000E+03  0.17130000000E+03 0. -1.
       11    1    1    2    0    0 -0.66954628818E-03  0.43391647756E-03  0.10075372728E+01  0.10075377183E+01  0.51109989000E-03 0.  1.
     -623    1    1    2    0    0 -0.14393772584E-03 -0.11102725566E-03  0.20447670663E-05  0.17130000000E+03  0.17130000000E+03 0. -1.
      622    1    1    2    0    0  0.81348400628E-03 -0.32288922788E-03  0.29924604346E+01  0.29924620664E+01  0.30000000000E-02 0.  1.
</event>
<event>
 5   0  0.3294100E+10  0.9118800E+02  0.7818608E-02  0.1180000E+00
       11   -1    0    0    0    0  0.00000000000E+00  0.00000000000E+00  0.39999999673E+01  0.40000000000E+01  0.51109989000E-03 0. -1.
     -623   -1    0    0    0    0  0.00000000000E+00  0.00000000000E+00  0.12525980253E-10  0.17130000000E+03  0.17130000000E+03 0.  1.
       11    1    1    2    0    0  0.23695914790E-03  0.73179766898E-04  0.89453121876E-02  0.89633329820E-02  0.51109989000E-03 0. -1.
     -623    1    1    2    0    0 -0.25204790378E-03 -0.47275939474E-04  0.19115986660E-04  0.17130000000E+03  0.17130000000E+03 0.  1.
      622    1    1    2    0    0  0.15088756557E-04 -0.25903827296E-04  0.39910355501E+01  0.39910366777E+01  0.30000000000E-02 0. -1.
</event>
<event>
 5   0  0.3294100E+10  0.9118800E+02  0.7818608E-02  0.1180000E+00
       11   -1    0    0    0    0  0.00000000000E+00  0.00000000000E+00  0.39999999673E+01  0.40000000000E+01  0.51109989000E-03 0.  1.
     -623   -1    0    0    0    0  0.00000000000E+00  0.00000000000E+00  0.12525980253E-10  0.17130000000E+03  0.17130000000E+03 0. -1.
       11    1    1    2    0    0  0.39741094022E-02  0.18082975788E-02  0.82088305877E+00  0.82089482937E+00  0.51109989000E-03 0.  1.
     -623    1    1    2    0    0 -0.22657004681E-02  0.11375639422E-02  0.14996117804E-04  0.17130000002E+03  0.17130000000E+03 0. -1.
      622    1    1    2    0    0 -0.17084089376E-02 -0.29458615192E-02  0.31791019063E+01  0.31791051457E+01  0.30000000000E-02 0.  1.
</event>
<event>
 5   0  0.3294100E+10  0.9118800E+02  0.7818608E-02  0.1180000E+00
       11   -1    0    0    0    0  0.00000000000E+00  0.00000000000E+00  0.39999999673E+01  0.40000000000E+01  0.51109989000E-03 0.  1.
     -623   -1    0    0    0    0  0.00000000000E+00  0.00000000000E+00  0.12525980253E-10  0.17130000000E+03  0.17130000000E+03 0. -1.
       11    1    1    2    0    0  0.12059816212E-02  0.34101938516E-03  0.91816486244E+00  0.91816586004E+00  0.51109989000E-03 0.  1.
     -623    1    1    2    0    0 -0.23720766320E-02 -0.68288961803E-02  0.96274242209E-05  0.17130000015E+03  0.17130000000E+03 0. -1.
      622    1    1    2    0    0  0.11660950108E-02  0.64878767951E-02  0.30818254775E+01  0.30818339874E+01  0.30000000000E-02 0.  0.
</event>
<event>
 5   0  0.3294100E+10  0.9118800E+02  0.7818608E-02  0.1180000E+00
       11   -1    0    0    0    0  0.00000000000E+00  0.00000000000E+00  0.39999999673E+01  0.40000000000E+01  0.51109989000E-03 0.  1.
     -623   -1    0    0    0    0  0.00000000000E+00  0.00000000000E+00  0.12525980253E-10  0.17130000000E+03  0.17130000000E+03 0.  1.
       11    1    1    2    0    0  0.11337511072E-01 -0.93305537143E-02  0.54458630748E+00  0.54478445821E+00  0.51109989000E-03 0.  1.
     -623    1    1    2    0    0 -0.10137907302E-01  0.21814330319E-02  0.20733878635E-03  0.17130000031E+03  0.17130000000E+03 0.  1.
      622    1    1    2    0    0 -0.11996037662E-02  0.71491206815E-02  0.34552063228E+01  0.34552152295E+01  0.30000000000E-02 0.  1.
</event>
<event>
 5   0  0.3294100E+10  0.9118800E+02  0.7818608E-02  0.1180000E+00
       11   -1    0    0    0    0  0.00000000000E+00  0.00000000000E+00  0.39999999673E+01  0.40000000000E+01  0.51109989000E-03 0. -1.
     -623   -1    0    0    0    0  0.00000000000E+00  0.00000000000E+00  0.12525980253E-10  0.17130000000E+03  0.17130000000E+03 0.  1.
       11    1    1    2    0    0 -0.17585812454E-02 -0.24212146465E-03  0.87408943581E+00  0.87409138782E+00  0.51109989000E-03 0. -1.
     -623    1    1    2    0    0  0.16250007716E-02  0.24009972995E-03  0.33696753428E-05  0.17130000001E+03  0.17130000000E+03 0.  1.
      622    1    1    2    0    0  0.13358051490E-03  0.20217407726E-05  0.31259070607E+01  0.31259085032E+01  0.30000000000E-02 0. -1.
</event>
<event>
 5   0  0.3294100E+10  0.9118800E+02  0.7818608E-02  0.1180000E+00
       11   -1    0    0    0    0  0.00000000000E+00  0.00000000000E+00  0.39999999673E+01  0.40000000000E+01  0.51109989000E-03 0. -1.
     -623   -1    0    0    0    0  0.00000000000E+00  0.00000000000E+00  0.12525980253E-10  0.17130000000E+03  0.17130000000E+03 0. -1.
       11    1    1    2    0    0  0.45078435829E-03 -0.43035598145E-03  0.94484193701E-01  0.94487631441E-01  0.51109989000E-03 0. -1.
     -623    1    1    2    0    0  0.68811893124E-04  0.23824544234E-03  0.45967854940E-05  0.17130000000E+03  0.17130000000E+03 0. -1.
      622    1    1    2    0    0 -0.51959625281E-03  0.19211053427E-03  0.39055112582E+01  0.39055124497E+01  0.30000000000E-02 0. -1.
</event>
<event>
 5   0  0.3294100E+10  0.9118800E+02  0.7818608E-02  0.1180000E+00
       11   -1    0    0    0    0  0.00000000000E+00  0.00000000000E+00  0.39999999673E+01  0.40000000000E+01  0.51109989000E-03 0.  1.
     -623   -1    0    0    0    0  0.00000000000E+00  0.00000000000E+00  0.12525980253E-10  0.17130000000E+03  0.17130000000E+03 0. -1.
       11    1    1    2    0    0  0.68599113037E-02 -0.37112829387E-02  0.91695629862E+00  0.91698961107E+00  0.51109989000E-03 0.  1.
     -623    1    1    2    0    0  0.53548473140E-04  0.66125871649E-04  0.44645872309E-04  0.17130000000E+03  0.17130000000E+03 0. -1.
      622    1    1    2    0    0 -0.69134597769E-02  0.36451570670E-02  0.30829990270E+01  0.30830103930E+01  0.30000000000E-02 0.  1.
</event>
<event>
 5   0  0.3294100E+10  0.9118800E+02  0.7818608E-02  0.1180000E+00
       11   -1    0    0    0    0  0.00000000000E+00  0.00000000000E+00  0.39999999673E+01  0.40000000000E+01  0.51109989000E-03 0. -1.
     -623   -1    0    0    0    0  0.00000000000E+00  0.00000000000E+00  0.12525980253E-10  0.17130000000E+03  0.17130000000E+03 0.  1.
       11    1    1    2    0    0 -0.16995792103E-03  0.74932540313E-04  0.87074858369E-01  0.87076556453E-01  0.51109989000E-03 0. -1.
     -623    1    1    2    0    0  0.10860042282E-03  0.48588920199E-04  0.28179508735E-05  0.17130000000E+03  0.17130000000E+03 0.  1.
      622    1    1    2    0    0  0.61357492893E-04 -0.12352146289E-03  0.39129224870E+01  0.39129236395E+01  0.30000000000E-02 0. -1.
</event>
<event>
 5   0  0.3294100E+10  0.9118800E+02  0.7818608E-02  0.1180000E+00
       11   -1    0    0    0    0  0.00000000000E+00  0.00000000000E+00  0.39999999673E+01  0.40000000000E+01  0.51109989000E-03 0. -1.
     -623   -1    0    0    0    0  0.00000000000E+00  0.00000000000E+00  0.12525980253E-10  0.17130000000E+03  0.17130000000E+03 0.  1.
       11    1    1    2    0    0 -0.62466448434E-03 -0.17007136797E-02  0.77003932022E-01  0.77026939460E-01  0.51109989000E-03 0.  1.
     -623    1    1    2    0    0 -0.14914112888E-03 -0.20527083434E-03  0.24661407474E-04  0.17130000000E+03  0.17130000000E+03 0.  1.
      622    1    1    2    0    0  0.77380561386E-03  0.19059845150E-02  0.39229713912E+01  0.39229730776E+01  0.30000000000E-02 0. -1.
</event>
<event>
 5   0  0.3294100E+10  0.9118800E+02  0.7818608E-02  0.1180000E+00
       11   -1    0    0    0    0  0.00000000000E+00  0.00000000000E+00  0.39999999673E+01  0.40000000000E+01  0.51109989000E-03 0.  1.
     -623   -1    0    0    0    0  0.00000000000E+00  0.00000000000E+00  0.12525980253E-10  0.17130000000E+03  0.17130000000E+03 0. -1.
       11    1    1    2    0    0 -0.58659286849E-03 -0.34453822464E-03  0.12775342537E+00  0.12775625900E+00  0.51109989000E-03 0. -1.
     -623    1    1    2    0    0 -0.12288696701E-03 -0.58813224932E-05  0.40440067566E-05  0.17130000000E+03  0.17130000000E+03 0. -1.
      622    1    1    2    0    0  0.70947983674E-03  0.35041954719E-03  0.38722425380E+01  0.38722437809E+01  0.30000000000E-02 0.  1.
</event>
<event>
 5   0  0.3294100E+10  0.9118800E+02  0.7818608E-02  0.1180000E+00
       11   -1    0    0    0    0  0.00000000000E+00  0.00000000000E+00  0.39999999673E+01  0.40000000000E+01  0.51109989000E-03 0. -1.
     -623   -1    0    0    0    0  0.00000000000E+00  0.00000000000E+00  0.12525980253E-10  0.17130000000E+03  0.17130000000E+03 0.  1.
       11    1    1    2    0    0  0.20134517466E-02  0.10207426053E-02  0.30485794882E+00  0.30486673496E+00  0.51109989000E-03 0. -1.
     -623    1    1    2    0    0 -0.76970627245E-04  0.61176739591E-04  0.10637155164E-04  0.17130000000E+03  0.17130000000E+03 0.  1.
      622    1    1    2    0    0 -0.19364811193E-02 -0.10819193449E-02  0.36951313814E+01  0.36951332650E+01  0.30000000000E-02 0. -1.
</event>
<event>
 5   0  0.3294100E+10  0.9118800E+02  0.7818608E-02  0.1180000E+00
       11   -1    0    0    0    0  0.00000000000E+00  0.00000000000E+00  0.39999999673E+01  0.40000000000E+01  0.51109989000E-03 0. -1.
     -623   -1    0    0    0    0  0.00000000000E+00  0.00000000000E+00  0.12525980253E-10  0.17130000000E+03  0.17130000000E+03 0. -1.
       11    1    1    2    0    0 -0.49234961497E-03  0.70973022374E-03  0.22690658593E+00  0.22690880566E+00  0.51109989000E-03 0. -1.
     -623    1    1    2    0    0  0.24188628469E-03 -0.94871991498E-05  0.34532100397E-05  0.17130000000E+03  0.17130000000E+03 0. -1.
      622    1    1    2    0    0  0.25046332356E-03 -0.70024302433E-03  0.37730900393E+01  0.37730913053E+01  0.30000000000E-02 0. -1.
</event>
<event>
 5   0  0.3294100E+10  0.9118800E+02  0.7818608E-02  0.1180000E+00
       11   -1    0    0    0    0  0.00000000000E+00  0.00000000000E+00  0.39999999673E+01  0.40000000000E+01  0.51109989000E-03 0. -1.
     -623   -1    0    0    0    0  0.00000000000E+00  0.00000000000E+00  0.12525980253E-10  0.17130000000E+03  0.17130000000E+03 0. -1.
       11    1    1    2    0    0 -0.18720057994E-02 -0.12280338458E-02  0.10981496223E+01  0.10981520235E+01  0.51109989000E-03 0. -1.
     -623    1    1    2    0    0  0.17491894784E-02 -0.25209880705E-02  0.63711102700E-05  0.17130000003E+03  0.17130000000E+03 0. -1.
      622    1    1    2    0    0  0.12281632098E-03  0.37490219163E-02  0.29018439739E+01  0.29018479490E+01  0.30000000000E-02 0.  1.
</event>
<event>
 5   0  0.3294100E+10  0.9118800E+02  0.7818608E-02  0.1180000E+00
       11   -1    0    0    0    0  0.00000000000E+00  0.00000000000E+00  0.39999999673E+01  0.40000000000E+01  0.51109989000E-03 0. -1.
     -623   -1    0    0    0    0  0.00000000000E+00  0.00000000000E+00  0.12525980253E-10  0.17130000000E+03  0.17130000000E+03 0. -1.
       11    1    1    2    0    0  0.24998265906E-03 -0.15464811513E-02  0.29547643951E+00  0.29548103429E+00  0.51109989000E-03 0. -1.
     -623    1    1    2    0    0 -0.96417997346E-04 -0.49041951776E-03  0.63407699225E-05  0.17130000000E+03  0.17130000000E+03 0. -1.
      622    1    1    2    0    0 -0.15356466117E-03  0.20369006719E-02  0.37045172096E+01  0.37045189875E+01  0.30000000000E-02 0. -1.
</event>
<event>
 5   0  0.3294100E+10  0.9118800E+02  0.7818608E-02  0.1180000E+00
       11   -1    0    0    0    0  0.00000000000E+00  0.00000000000E+00  0.39999999673E+01  0.40000000000E+01  0.51109989000E-03 0. -1.
     -623   -1    0    0    0    0  0.00000000000E+00  0.00000000000E+00  0.12525980253E-10  0.17130000000E+03  0.17130000000E+03 0. -1.
       11    1    1    2    0    0  0.16447981339E-03 -0.83348136090E-03  0.42399928972E+00  0.42400044888E+00  0.51109989000E-03 0. -1.
     -623    1    1    2    0    0  0.19876754320E-03  0.21785463977E-03  0.24566047720E-05  0.17130000000E+03  0.17130000000E+03 0. -1.
      622    1    1    2    0    0 -0.36324736159E-03  0.61562671565E-03  0.35759983216E+01  0.35759996514E+01  0.30000000000E-02 0. -1.
</event>
<event>
 5   0  0.3294100E+10  0.9118800E+02  0.7818608E-02  0.1180000E+00
       11   -1    0    0    0    0  0.00000000000E+00  0.00000000000E+00  0.39999999673E+01  0.40000000000E+01  0.51109989000E-03 0.  1.
     -623   -1    0    0    0    0  0.00000000000E+00  0.00000000000E+00  0.12525980253E-10  0.17130000000E+03  0.17130000000E+03 0. -1.
       11    1    1    2    0    0 -0.15160329183E-02  0.23393080948E-02  0.41400901647E+00  0.41401871656E+00  0.51109989000E-03 0.  1.
     -623    1    1    2    0    0  0.22424716481E-02 -0.28975938264E-02  0.11078554314E-04  0.17130000004E+03  0.17130000000E+03 0. -1.
      622    1    1    2    0    0 -0.72643872983E-03  0.55828573162E-03  0.35859798723E+01  0.35859812443E+01  0.30000000000E-02 0.  1.
</event>
<event>
 5   0  0.3294100E+10  0.9118800E+02  0.7818608E-02  0.1180000E+00
       11   -1    0    0    0    0  0.00000000000E+00  0.00000000000E+00  0.39999999673E+01  0.40000000000E+01  0.51109989000E-03 0. -1.
     -623   -1    0    0    0    0  0.00000000000E+00  0.00000000000E+00  0.12525980253E-10  0.17130000000E+03  0.17130000000E+03 0. -1.
       11    1    1    2    0    0 -0.28293465524E-03  0.60562002741E-03  0.33817187218E+00  0.33817291906E+00  0.51109989000E-03 0. -1.
     -623    1    1    2    0    0  0.10218112800E-03  0.33600348188E-04  0.23034201693E-05  0.17130000000E+03  0.17130000000E+03 0. -1.
      622    1    1    2    0    0  0.18075352289E-03 -0.63922037703E-03  0.36618259619E+01  0.36618272511E+01  0.30000000000E-02 0. -1.
</event>
<event>
 5   0  0.3294100E+10  0.9118800E+02  0.7818608E-02  0.1180000E+00
       11   -1    0    0    0    0  0.00000000000E+00  0.00000000000E+00  0.39999999673E+01  0.40000000000E+01  0.51109989000E-03 0.  1.
     -623   -1    0    0    0    0  0.00000000000E+00  0.00000000000E+00  0.12525980253E-10  0.17130000000E+03  0.17130000000E+03 0.  1.
       11    1    1    2    0    0  0.59905277819E-03  0.49579357259E-03  0.44111490464E+00  0.44111588613E+00  0.51109989000E-03 0.  1.
     -623    1    1    2    0    0  0.50806074909E-04 -0.20054786468E-04  0.23044278734E-05  0.17130000000E+03  0.17130000000E+03 0.  1.
      622    1    1    2    0    0 -0.64985885479E-03 -0.47573878545E-03  0.35588828912E+01  0.35588842468E+01  0.30000000000E-02 0.  1.
</event>
<event>
 5   0  0.3294100E+10  0.9118800E+02  0.7818608E-02  0.1180000E+00
       11   -1    0    0    0    0  0.00000000000E+00  0.00000000000E+00  0.39999999673E+01  0.40000000000E+01  0.51109989000E-03 0.  1.
     -623   -1    0    0    0    0  0.00000000000E+00  0.00000000000E+00  0.12525980253E-10  0.17130000000E+03  0.17130000000E+03 0. -1.
       11    1    1    2    0    0 -0.39650150605E-03  0.62093929190E-03  0.24708034960E+00  0.24708197660E+00  0.51109989000E-03 0.  1.
     -623    1    1    2    0    0 -0.22029965862E-04 -0.98663030969E-04  0.28531359932E-05  0.17130000000E+03  0.17130000000E+03 0. -1.
      622    1    1    2    0    0  0.41853147213E-03 -0.52227625997E-03  0.37529168036E+01  0.37529180623E+01  0.30000000000E-02 0.  1.
</event>
<event>
 5   0  0.3294100E+10  0.9118800E+02  0.7818608E-02  0.1180000E+00
       11   -1    0    0    0    0  0.00000000000E+00  0.00000000000E+00  0.39999999673E+01  0.40000000000E+01  0.51109989000E-03 0. -1.
     -623   -1    0    0    0    0  0.00000000000E+00  0.00000000000E+00  0.12525980253E-10  0.17130000000E+03  0.17130000000E+03 0. -1.
       11    1    1    2    0    0 -0.14321108456E-03 -0.28318265348E-02  0.15664299397E+00  0.15666948819E+00  0.51109989000E-03 0. -1.
     -623    1    1    2    0    0  0.43425004152E-03  0.44806516578E-02  0.28056297414E-04  0.17130000006E+03  0.17130000000E+03 0. -1.
      622    1    1    2    0    0 -0.29103895696E-03 -0.16488251231E-02  0.38433289171E+01  0.38433304527E+01  0.30000000000E-02 0. -1.
</event>
<event>
 5   0  0.3294100E+10  0.9118800E+02  0.7818608E-02  0.1180000E+00
       11   -1    0    0    0    0  0.00000000000E+00  0.00000000000E+00  0.39999999673E+01  0.40000000000E+01  0.51109989000E-03 0.  1.
     -623   -1    0    0    0    0  0.00000000000E+00  0.00000000000E+00  0.12525980253E-10  0.17130000000E+03  0.17130000000E+03 0.  1.
       11    1    1    2    0    0  0.27432405230E-02 -0.36368243957E-02  0.75334825909E-01  0.75474161639E-01  0.51109989000E-03 0.  1.
     -623    1    1    2    0    0 -0.16974981372E-03 -0.89782107920E-04  0.14306300681E-03  0.17130000000E+03  0.17130000000E+03 0.  1.
      622    1    1    2    0    0 -0.25734907092E-02  0.37266065036E-02  0.39245220784E+01  0.39245258382E+01  0.30000000000E-02 0.  1.
</event>
<event>
 5   0  0.3294100E+10  0.9118800E+02  0.7818608E-02  0.1180000E+00
       11   -1    0    0    0    0  0.00000000000E+00  0.00000000000E+00  0.39999999673E+01  0.40000000000E+01  0.51109989000E-03 0.  1.
     -623   -1    0    0    0    0  0.00000000000E+00  0.00000000000E+00  0.12525980253E-10  0.17130000000E+03  0.17130000000E+03 0.  1.
       11    1    1    2    0    0  0.73791334099E-05 -0.96618741810E-03  0.27369290074E+00  0.27369508346E+00  0.51109989000E-03 0.  1.
     -623    1    1    2    0    0  0.47129497800E-03  0.12334225004E-02  0.34031287615E-05  0.17130000001E+03  0.17130000000E+03 0.  1.
      622    1    1    2    0    0 -0.47867410647E-03 -0.26723506939E-03  0.37263036216E+01  0.37263048696E+01  0.30000000000E-02 0.  1.
</event>
<event>
 5   0  0.3294100E+10  0.9118800E+02  0.7818608E-02  0.1180000E+00
       11   -1    0    0    0    0  0.00000000000E+00  0.00000000000E+00  0.39999999673E+01  0.40000000000E+01  0.51109989000E-03 0.  1.
     -623   -1    0    0    0    0  0.00000000000E+00  0.00000000000E+00  0.12525980253E-10  0.17130000000E+03  0.17130000000E+03 0. -1.
       11    1    1    2    0    0  0.12336962881E-02 -0.24285906878E-02  0.84132802051E+00  0.84133258547E+00  0.51109989000E-03 0.  1.
     -623    1    1    2    0    0  0.47279791095E-03 -0.49924288382E-03  0.77762633492E-05  0.17130000000E+03  0.17130000000E+03 0. -1.
      622    1    1    2    0    0 -0.17064941941E-02  0.29278335665E-02  0.31586641291E+01  0.31586673716E+01  0.30000000000E-02 0.  1.
</event>
<event>
 5   0  0.3294100E+10  0.9118800E+02  0.7818608E-02  0.1180000E+00
       11   -1    0    0    0    0  0.00000000000E+00  0.00000000000E+00  0.39999999673E+01  0.40000000000E+01  0.51109989000E-03 0. -1.
     -623   -1    0    0    0    0  0.00000000000E+00  0.00000000000E+00  0.12525980253E-10  0.17130000000E+03  0.17130000000E+03 0.  1.
       11    1    1    2    0    0 -0.33715859990E-03  0.27380147279E-04  0.21248802534E+00  0.21248890927E+00  0.51109989000E-03 0. -1.
     -623    1    1    2    0    0  0.13535888036E-03 -0.19812609045E-03  0.20487953907E-05  0.17130000000E+03  0.17130000000E+03 0.  1.
      622    1    1    2    0    0  0.20179971825E-03  0.17074594505E-03  0.37875099312E+01  0.37875111285E+01  0.30000000000E-02 0. -1.
</event>
<event>
 5   0  0.3294100E+10  0.9118800E+02  0.7818608E-02  0.1180000E+00
       11   -1    0    0    0    0  0.00000000000E+00  0.00000000000E+00  0.39999999673E+01  0.40000000000E+01  0.51109989000E-03 0.  1.
     -623   -1    0    0    0    0  0.00000000000E+00  0.00000000000E+00  0.12525980253E-10  0.17130000000E+03  0.17130000000E+03 0. -1.
       11    1    1    2    0    0  0.10102269156E-02  0.68363220985E-03  0.27607394679E+00  0.27607711464E+00  0.51109989000E-03 0.  1.
     -623    1    1    2    0    0  0.43769357468E-04 -0.38949680308E-04  0.45485847306E-05  0.17130000000E+03  0.17130000000E+03 0. -1.
      622    1    1    2    0    0 -0.10539962730E-02 -0.64468252954E-03  0.37239214720E+01  0.37239228854E+01  0.30000000000E-02 0.  1.
</event>
<event>
 5   0  0.3294100E+10  0.9118800E+02  0.7818608E-02  0.1180000E+00
       11   -1    0    0    0    0  0.00000000000E+00  0.00000000000E+00  0.39999999673E+01  0.40000000000E+01  0.51109989000E-03 0. -1.
     -623   -1    0    0    0    0  0.00000000000E+00  0.00000000000E+00  0.12525980253E-10  0.17130000000E+03  0.17130000000E+03 0. -1.
       11    1    1    2    0    0  0.29038637831E-02  0.10486901038E-02  0.95714583240E+00  0.95715094832E+00  0.51109989000E-03 0. -1.
     -623    1    1    2    0    0 -0.10397044055E-02 -0.11302860680E-02  0.71411667162E-05  0.17130000001E+03  0.17130000000E+03 0. -1.
      622    1    1    2    0    0 -0.18641593775E-02  0.81595964270E-04  0.30428469938E+01  0.30428490448E+01  0.30000000000E-02 0. -1.
</event>
<event>
 5   0  0.3294100E+10  0.9118800E+02  0.7818608E-02  0.1180000E+00
       11   -1    0    0    0    0  0.00000000000E+00  0.00000000000E+00  0.39999999673E+01  0.40000000000E+01  0.51109989000E-03 0.  1.
     -623   -1    0    0    0    0  0.00000000000E+00  0.00000000000E+00  0.12525980253E-10  0.17130000000E+03  0.17130000000E+03 0.  1.
       11    1    1    2    0    0 -0.82495256200E-03  0.12115731852E-02  0.17793559344E+00  0.17794236453E+00  0.51109989000E-03 0. -1.
     -623    1    1    2    0    0  0.30246070788E-04 -0.34036977131E-04  0.81798398184E-05  0.17130000000E+03  0.17130000000E+03 0.  1.
      622    1    1    2    0    0  0.79470649116E-03 -0.11775362080E-02  0.38220562018E+01  0.38220576432E+01  0.30000000000E-02 0.  1.
</event>
<event>
 5   0  0.3294100E+10  0.9118800E+02  0.7818608E-02  0.1180000E+00
       11   -1    0    0    0    0  0.00000000000E+00  0.00000000000E+00  0.39999999673E+01  0.40000000000E+01  0.51109989000E-03 0. -1.
     -623   -1    0    0    0    0  0.00000000000E+00  0.00000000000E+00  0.12525980253E-10  0.17130000000E+03  0.17130000000E+03 0.  1.
       11    1    1    2    0    0 -0.92570918769E-03 -0.70916362582E-02  0.11630034356E+01  0.11630255374E+01  0.51109989000E-03 0. -1.
     -623    1    1    2    0    0 -0.20010440900E-04 -0.52342480659E-04  0.32807905705E-04  0.17130000000E+03  0.17130000000E+03 0.  1.
      622    1    1    2    0    0  0.94571962866E-03  0.71439787391E-02  0.28369637394E+01  0.28369744782E+01  0.30000000000E-02 0. -1.
</event>
<event>
 5   0  0.3294100E+10  0.9118800E+02  0.7818608E-02  0.1180000E+00
       11   -1    0    0    0    0  0.00000000000E+00  0.00000000000E+00  0.39999999673E+01  0.40000000000E+01  0.51109989000E-03 0. -1.
     -623   -1    0    0    0    0  0.00000000000E+00  0.00000000000E+00  0.12525980253E-10  0.17130000000E+03  0.17130000000E+03 0. -1.
       11    1    1    2    0    0 -0.53374807440E-03  0.82087908828E-03  0.10293496613E+00  0.10294089180E+00  0.51109989000E-03 0.  1.
     -623    1    1    2    0    0  0.14813577293E-03 -0.65105227082E-03  0.70718178198E-05  0.17130000000E+03  0.17130000000E+03 0. -1.
      622    1    1    2    0    0  0.38561230146E-03 -0.16982681747E-03  0.38970579294E+01  0.38970591069E+01  0.30000000000E-02 0. -1.
</event>
<event>
 5   0  0.3294100E+10  0.9118800E+02  0.7818608E-02  0.1180000E+00
       11   -1    0    0    0    0  0.00000000000E+00  0.00000000000E+00  0.39999999673E+01  0.40000000000E+01  0.51109989000E-03 0. -1.
     -623   -1    0    0    0    0  0.00000000000E+00  0.00000000000E+00  0.12525980253E-10  0.17130000000E+03  0.17130000000E+03 0. -1.
       11    1    1    2    0    0 -0.10202456827E-02 -0.73968309547E-03  0.72146541757E+00  0.72146669916E+00  0.51109989000E-03 0.  1.
     -623    1    1    2    0    0  0.22685414655E-04 -0.64321754854E-04  0.28718825837E-05  0.17130000000E+03  0.17130000000E+03 0. -1.
      622    1    1    2    0    0  0.99756026738E-03  0.80400485221E-03  0.32785317953E+01  0.32785334182E+01  0.30000000000E-02 0. -1.
</event>
<event>
 5   0  0.3294100E+10  0.9118800E+02  0.7818608E-02  0.1180000E+00
       11   -1    0    0    0    0  0.00000000000E+00  0.00000000000E+00  0.39999999673E+01  0.40000000000E+01  0.51109989000E-03 0. -1.
     -623   -1    0    0    0    0  0.00000000000E+00  0.00000000000E+00  0.12525980253E-10  0.17130000000E+03  0.17130000000E+03 0.  1.
       11    1    1    2    0    0  0.39732233156E-03  0.61135612597E-04  0.72481532478E-01  0.72484449202E-01  0.51109989000E-03 0. -1.
     -623    1    1    2    0    0 -0.53146198065E-03  0.90323357178E-04  0.40359055746E-05  0.17130000000E+03  0.17130000000E+03 0.  1.
      622    1    1    2    0    0  0.13413964102E-03 -0.15145896840E-03  0.39275143383E+01  0.39275154893E+01  0.30000000000E-02 0. -1.
</event>
<event>
 5   0  0.3294100E+10  0.9118800E+02  0.7818608E-02  0.1180000E+00
       11   -1    0    0    0    0  0.00000000000E+00  0.00000000000E+00  0.39999999673E+01  0.40000000000E+01  0.51109989000E-03 0. -1.
     -623   -1    0    0    0    0  0.00000000000E+00  0.00000000000E+00  0.12525980253E-10  0.17130000000E+03  0.17130000000E+03 0. -1.
       11    1    1    2    0    0 -0.29476518079E-02 -0.22272290325E-02  0.98398522385E+00  0.98399229224E+00  0.51109989000E-03 0. -1.
     -623    1    1    2    0    0 -0.63951564985E-03 -0.15551314487E-03  0.11603518760E-04  0.17130000000E+03  0.17130000000E+03 0. -1.
      622    1    1    2    0    0  0.35871674583E-02  0.23827421775E-02  0.30160031435E+01  0.30160077100E+01  0.30000000000E-02 0. -1.
</event>
<event>
 5   0  0.3294100E+10  0.9118800E+02  0.7818608E-02  0.1180000E+00
       11   -1    0    0    0    0  0.00000000000E+00  0.00000000000E+00  0.39999999673E+01  0.40000000000E+01  0.51109989000E-03 0. -1.
     -623   -1    0    0    0    0  0.00000000000E+00  0.00000000000E+00  0.12525980253E-10  0.17130000000E+03  0.17130000000E+03 0.  1.
       11    1    1    2    0    0 -0.12651862863E-02  0.53964747343E-03  0.49322370862E+00  0.49322589134E+00  0.51109989000E-03 0. -1.
     -623    1    1    2    0    0 -0.11703200795E-03  0.47160922275E-03  0.38522081085E-05  0.17130000000E+03  0.17130000000E+03 0.  1.
      622    1    1    2    0    0  0.13822182943E-02 -0.10112566962E-02  0.35067724065E+01  0.35067741080E+01  0.30000000000E-02 0. -1.
</event>
<event>
 5   0  0.3294100E+10  0.9118800E+02  0.7818608E-02  0.1180000E+00
       11   -1    0    0    0    0  0.00000000000E+00  0.00000000000E+00  0.39999999673E+01  0.40000000000E+01  0.51109989000E-03 0.  1.
     -623   -1    0    0    0    0  0.00000000000E+00  0.00000000000E+00  0.12525980253E-10  0.17130000000E+03  0.17130000000E+03 0. -1.
       11    1    1    2    0    0  0.21913132836E-03 -0.33435778819E-04  0.12052504439E+00  0.12052633192E+00  0.51109989000E-03 0. -1.
     -623    1    1    2    0    0  0.88408414809E-03 -0.19483578756E-02  0.30912504068E-05  0.17130000001E+03  0.17130000000E+03 0. -1.
      622    1    1    2    0    0 -0.11032154860E-02  0.19817936756E-02  0.38794718751E+01  0.38794736981E+01  0.30000000000E-02 0.  1.
</event>
<event>
 5   0  0.3294100E+10  0.9118800E+02  0.7818608E-02  0.1180000E+00
       11   -1    0    0    0    0  0.00000000000E+00  0.00000000000E+00  0.39999999673E+01  0.40000000000E+01  0.51109989000E-03 0. -1.
     -623   -1    0    0    0    0  0.00000000000E+00  0.00000000000E+00  0.12525980253E-10  0.17130000000E+03  0.17130000000E+03 0.  1.
       11    1    1    2    0    0  0.81820358880E-03 -0.27554749865E-02  0.26794776568E+00  0.26796367003E+00  0.51109989000E-03 0. -1.
     -623    1    1    2    0    0 -0.13880580018E-04 -0.11349180632E-04  0.18189782814E-04  0.17130000000E+03  0.17130000000E+03 0.  1.
      622    1    1    2    0    0 -0.80432300876E-03  0.27668241672E-02  0.37320340194E+01  0.37320363375E+01  0.30000000000E-02 0. -1.
</event>
<event>
 5   0  0.3294100E+10  0.9118800E+02  0.7818608E-02  0.1180000E+00
       11   -1    0    0    0    0  0.00000000000E+00  0.00000000000E+00  0.39999999673E+01  0.40000000000E+01  0.51109989000E-03 0.  1.
     -623   -1    0    0    0    0  0.00000000000E+00  0.00000000000E+00  0.12525980253E-10  0.17130000000E+03  0.17130000000E+03 0.  1.
       11    1    1    2    0    0 -0.26198147177E-02 -0.12979347685E-04  0.18181514185E+00  0.18183473438E+00  0.51109989000E-03 0.  1.
     -623    1    1    2    0    0  0.97901073898E-03  0.19940113455E-03  0.21098487994E-04  0.17130000000E+03  0.17130000000E+03 0.  1.
      622    1    1    2    0    0  0.16408039741E-02 -0.18642178780E-03  0.38181637458E+01  0.38181652814E+01  0.30000000000E-02 0.  1.
</event>
<event>
 5   0  0.3294100E+10  0.9118800E+02  0.7818608E-02  0.1180000E+00
       11   -1    0    0    0    0  0.00000000000E+00  0.00000000000E+00  0.39999999673E+01  0.40000000000E+01  0.51109989000E-03 0. -1.
     -623   -1    0    0    0    0  0.00000000000E+00  0.00000000000E+00  0.12525980253E-10  0.17130000000E+03  0.17130000000E+03 0.  1.
       11    1    1    2    0    0  0.22007879744E-03 -0.11170161934E-03  0.54065692261E+00  0.54065722052E+00  0.51109989000E-03 0. -1.
     -623    1    1    2    0    0  0.18744660400E-03  0.23739357131E-03  0.15926480725E-05  0.17130000000E+03  0.17130000000E+03 0.  1.
      622    1    1    2    0    0 -0.40752540144E-03 -0.12569195198E-03  0.34593414521E+01  0.34593427792E+01  0.30000000000E-02 0. -1.
</event>
<event>
 5   0  0.3294100E+10  0.9118800E+02  0.7818608E-02  0.1180000E+00
       11   -1    0    0    0    0  0.00000000000E+00  0.00000000000E+00  0.39999999673E+01  0.40000000000E+01  0.51109989000E-03 0.  1.
     -623   -1    0    0    0    0  0.00000000000E+00  0.00000000000E+00  0.12525980253E-10  0.17130000000E+03  0.17130000000E+03 0. -1.
       11    1    1    2    0    0 -0.19450875924E-03  0.23010355746E-02  0.16013714864E+00  0.16015461341E+00  0.51109989000E-03 0.  1.
     -623    1    1    2    0    0 -0.13673805612E-03  0.20010952896E-04  0.19319883789E-04  0.17130000000E+03  0.17130000000E+03 0. -1.
      622    1    1    2    0    0  0.33124681536E-03 -0.23210465275E-02  0.38398434988E+01  0.38398453865E+01  0.30000000000E-02 0.  1.
</event>
<event>
 5   0  0.3294100E+10  0.9118800E+02  0.7818608E-02  0.1180000E+00
       11   -1    0    0    0    0  0.00000000000E+00  0.00000000000E+00  0.39999999673E+01  0.40000000000E+01  0.51109989000E-03 0. -1.
     -623   -1    0    0    0    0  0.00000000000E+00  0.00000000000E+00  0.12525980253E-10  0.17130000000E+03  0.17130000000E+03 0.  1.
       11    1    1    2    0    0 -0.79360876378E-03 -0.26246329211E-04  0.18391173735E+00  0.18391416166E+00  0.51109989000E-03 0.  1.
     -623    1    1    2    0    0 -0.23645655480E-04 -0.23150328086E-04  0.36587312007E-05  0.17130000000E+03  0.17130000000E+03 0.  1.
      622    1    1    2    0    0  0.81725441953E-03  0.49396657562E-04  0.38160846170E+01  0.38160858841E+01  0.30000000000E-02 0. -1.
</event>
<event>
 5   0  0.3294100E+10  0.9118800E+02  0.7818608E-02  0.1180000E+00
       11   -1    0    0    0    0  0.00000000000E+00  0.00000000000E+00  0.39999999673E+01  0.40000000000E+01  0.51109989000E-03 0. -1.
     -623   -1    0    0    0    0  0.00000000000E+00  0.00000000000E+00  0.12525980253E-10  0.17130000000E+03  0.17130000000E+03 0.  1.
       11    1    1    2    0    0 -0.54745766220E-02 -0.33806263105E-02  0.29482872360E+00  0.29489936777E+00  0.51109989000E-03 0. -1.
     -623    1    1    2    0    0  0.33846064049E-02 -0.35490268707E-02  0.78966015577E-04  0.17130000007E+03  0.17130000000E+03 0.  1.
      622    1    1    2    0    0  0.20899702176E-02  0.69296531807E-02  0.37050922772E+01  0.37051005615E+01  0.30000000000E-02 0. -1.
</event>
<event>
 5   0  0.3294100E+10  0.9118800E+02  0.7818608E-02  0.1180000E+00
       11   -1    0    0    0    0  0.00000000000E+00  0.00000000000E+00  0.39999999673E+01  0.40000000000E+01  0.51109989000E-03 0. -1.
     -623   -1    0    0    0    0  0.00000000000E+00  0.00000000000E+00  0.12525980253E-10  0.17130000000E+03  0.17130000000E+03 0. -1.
       11    1    1    2    0    0 -0.23574599434E-02  0.39239780159E-02  0.25320504672E+00  0.25324693903E+00  0.51109989000E-03 0. -1.
     -623    1    1    2    0    0  0.11318526519E-04  0.50868588355E-03  0.46418099458E-04  0.17130000000E+03  0.17130000000E+03 0. -1.
      622    1    1    2    0    0  0.23461414169E-02 -0.44326638995E-02  0.37467485025E+01  0.37467530602E+01  0.30000000000E-02 0. -1.
</event>
<event>
 5   0  0.3294100E+10  0.9118800E+02  0.7818608E-02  0.1180000E+00
       11   -1    0    0    0    0  0.00000000000E+00  0.00000000000E+00  0.39999999673E+01  0.40000000000E+01  0.51109989000E-03 0.  1.
     -623   -1    0    0    0    0  0.00000000000E+00  0.00000000000E+00  0.12525980253E-10  0.17130000000E+03  0.17130000000E+03 0.  1.
       11    1    1    2    0    0 -0.20317046425E-03  0.24223915405E-02  0.45634257265E-02  0.51957035490E-02  0.51109989000E-03 0.  1.
     -623    1    1    2    0    0  0.29554555709E-03 -0.17844151509E-02  0.63343437675E-03  0.17130000001E+03  0.17130000000E+03 0.  1.
      622    1    1    2    0    0 -0.92375092845E-04 -0.63797638959E-03  0.39948031073E+01  0.39948042857E+01  0.30000000000E-02 0.  1.
</event>
<event>
 5   0  0.3294100E+10  0.9118800E+02  0.7818608E-02  0.1180000E+00
       11   -1    0    0    0    0  0.00000000000E+00  0.00000000000E+00  0.39999999673E+01  0.40000000000E+01  0.51109989000E-03 0.  1.
     -623   -1    0    0    0    0  0.00000000000E+00  0.00000000000E+00  0.12525980253E-10  0.17130000000E+03  0.17130000000E+03 0.  1.
       11    1    1    2    0    0 -0.16414918757E-02  0.33579506786E-03  0.69961769429E+00  0.69961988725E+00  0.51109989000E-03 0.  1.
     -623    1    1    2    0    0 -0.52397134529E-04 -0.80898815401E-04  0.39683597843E-05  0.17130000000E+03  0.17130000000E+03 0.  1.
      622    1    1    2    0    0  0.16938890104E-02 -0.25489625215E-03  0.33003783199E+01  0.33003801279E+01  0.30000000000E-02 0.  1.
</event>
<event>
 5   0  0.3294100E+10  0.9118800E+02  0.7818608E-02  0.1180000E+00
       11   -1    0    0    0    0  0.00000000000E+00  0.00000000000E+00  0.39999999673E+01  0.40000000000E+01  0.51109989000E-03 0.  1.
     -623   -1    0    0    0    0  0.00000000000E+00  0.00000000000E+00  0.12525980253E-10  0.17130000000E+03  0.17130000000E+03 0. -1.
       11    1    1    2    0    0 -0.17677076340E-02 -0.66755576904E-03  0.93515146794E+00  0.93515351662E+00  0.51109989000E-03 0.  1.
     -623    1    1    2    0    0  0.14313985481E-03 -0.17023862502E-03  0.40295126418E-05  0.17130000000E+03  0.17130000000E+03 0. -1.
      622    1    1    2    0    0  0.16245677822E-02  0.83779439056E-03  0.30648443877E+01  0.30648464010E+01  0.30000000000E-02 0.  1.
</event>
<event>
 5   0  0.3294100E+10  0.9118800E+02  0.7818608E-02  0.1180000E+00
       11   -1    0    0    0    0  0.00000000000E+00  0.00000000000E+00  0.39999999673E+01  0.40000000000E+01  0.51109989000E-03 0. -1.
     -623   -1    0    0    0    0  0.00000000000E+00  0.00000000000E+00  0.12525980253E-10  0.17130000000E+03  0.17130000000E+03 0. -1.
       11    1    1    2    0    0 -0.99624527794E-02 -0.15294115884E-02  0.59784310532E+00  0.59792828113E+00  0.51109989000E-03 0. -1.
     -623    1    1    2    0    0 -0.46931638070E-04 -0.26890199133E-04  0.10154645859E-03  0.17130000000E+03  0.17130000000E+03 0. -1.
      622    1    1    2    0    0  0.10009384417E-01  0.15563017875E-02  0.34020553156E+01  0.34020717188E+01  0.30000000000E-02 0. -1.
</event>
<event>
 5   0  0.3294100E+10  0.9118800E+02  0.7818608E-02  0.1180000E+00
       11   -1    0    0    0    0  0.00000000000E+00  0.00000000000E+00  0.39999999673E+01  0.40000000000E+01  0.51109989000E-03 0.  1.
     -623   -1    0    0    0    0  0.00000000000E+00  0.00000000000E+00  0.12525980253E-10  0.17130000000E+03  0.17130000000E+03 0.  1.
       11    1    1    2    0    0  0.16250736857E-02  0.14514958536E-02  0.55718435339E+00  0.55718884822E+00  0.51109989000E-03 0.  1.
     -623    1    1    2    0    0  0.77896866815E-04 -0.76960681806E-04  0.64648775231E-05  0.17130000000E+03  0.17130000000E+03 0.  1.
      622    1    1    2    0    0 -0.17029705525E-02 -0.13745351718E-02  0.34428091491E+01  0.34428111517E+01  0.30000000000E-02 0.  1.
</event>
<event>
 5   0  0.3294100E+10  0.9118800E+02  0.7818608E-02  0.1180000E+00
       11   -1    0    0    0    0  0.00000000000E+00  0.00000000000E+00  0.39999999673E+01  0.40000000000E+01  0.51109989000E-03 0.  1.
     -623   -1    0    0    0    0  0.00000000000E+00  0.00000000000E+00  0.12525980253E-10  0.17130000000E+03  0.17130000000E+03 0.  1.
       11    1    1    2    0    0  0.24454458143E-02  0.28979984706E-02  0.10105384663E+01  0.10105457098E+01  0.51109989000E-03 0.  1.
     -623    1    1    2    0    0  0.42340972355E-03 -0.29468435547E-02  0.10119032913E-04  0.17130000003E+03  0.17130000000E+03 0.  1.
      622    1    1    2    0    0 -0.28688555386E-02  0.48845089032E-04  0.29894513888E+01  0.29894542710E+01  0.30000000000E-02 0.  1.
</event>
<event>
 5   0  0.3294100E+10  0.9118800E+02  0.7818608E-02  0.1180000E+00
       11   -1    0    0    0    0  0.00000000000E+00  0.00000000000E+00  0.39999999673E+01  0.40000000000E+01  0.51109989000E-03 0.  1.
     -623   -1    0    0    0    0  0.00000000000E+00  0.00000000000E+00  0.12525980253E-10  0.17130000000E+03  0.17130000000E+03 0.  1.
       11    1    1    2    0    0 -0.60367519766E-03  0.19079132088E-03  0.89859291503E-01  0.89862975232E-01  0.51109989000E-03 0.  1.
     -623    1    1    2    0    0  0.30990543268E-05 -0.28339653486E-04  0.48514437903E-05  0.17130000000E+03  0.17130000000E+03 0.  1.
      622    1    1    2    0    0  0.60057614331E-03 -0.16245166718E-03  0.39101358550E+01  0.39101370554E+01  0.30000000000E-02 0.  1.
</event>
<event>
 5   0  0.3294100E+10  0.9118800E+02  0.7818608E-02  0.1180000E+00
       11   -1    0    0    0    0  0.00000000000E+00  0.00000000000E+00  0.39999999673E+01  0.40000000000E+01  0.51109989000E-03 0.  1.
     -623   -1    0    0    0    0  0.00000000000E+00  0.00000000000E+00  0.12525980253E-10  0.17130000000E+03  0.17130000000E+03 0.  1.
       11    1    1    2    0    0  0.54400624088E-03 -0.41654090206E-03  0.62480456495E+00  0.62480514967E+00  0.51109989000E-03 0.  1.
     -623    1    1    2    0    0 -0.43901240349E-04 -0.32042111998E-03  0.20031471948E-05  0.17130000000E+03  0.17130000000E+03 0.  1.
      622    1    1    2    0    0 -0.50010500053E-03  0.73696202203E-03  0.33751933993E+01  0.33751948500E+01  0.30000000000E-02 0.  1.
</event>
<event>
 5   0  0.3294100E+10  0.9118800E+02  0.7818608E-02  0.1180000E+00
       11   -1    0    0    0    0  0.00000000000E+00  0.00000000000E+00  0.39999999673E+01  0.40000000000E+01  0.51109989000E-03 0.  1.
     -623   -1    0    0    0    0  0.00000000000E+00  0.00000000000E+00  0.12525980253E-10  0.17130000000E+03  0.17130000000E+03 0.  1.
       11    1    1    2    0    0 -0.11260783964E-02 -0.18122525192E-02  0.44464156473E+00  0.44464697752E+00  0.51109989000E-03 0.  1.
     -623    1    1    2    0    0  0.75968604709E-04 -0.23317035306E-04  0.72747863271E-05  0.17130000000E+03  0.17130000000E+03 0.  1.
      622    1    1    2    0    0  0.10501097907E-02  0.18355695548E-02  0.35553511802E+01  0.35553530748E+01  0.30000000000E-02 0.  1.
</event>
<event>
 5   0  0.3294100E+10  0.9118800E+02  0.7818608E-02  0.1180000E+00
       11   -1    0    0    0    0  0.00000000000E+00  0.00000000000E+00  0.39999999673E+01  0.40000000000E+01  0.51109989000E-03 0.  1.
     -623   -1    0    0    0    0  0.00000000000E+00  0.00000000000E+00  0.12525980253E-10  0.17130000000E+03  0.17130000000E+03 0.  1.
       11    1    1    2    0    0  0.93183763566E-03 -0.13390111602E-02  0.16140641257E+00  0.16141546553E+00  0.51109989000E-03 0.  1.
     -623    1    1    2    0    0 -0.44208299802E-04 -0.98441215775E-05  0.10532248547E-04  0.17130000000E+03  0.17130000000E+03 0.  1.
      622    1    1    2    0    0 -0.88762933586E-03  0.13488552818E-02  0.38385830225E+01  0.38385845345E+01  0.30000000000E-02 0.  1.
</event>
<event>
 5   0  0.3294100E+10  0.9118800E+02  0.7818608E-02  0.1180000E+00
       11   -1    0    0    0    0  0.00000000000E+00  0.00000000000E+00  0.39999999673E+01  0.40000000000E+01  0.51109989000E-03 0.  1.
     -623   -1    0    0    0    0  0.00000000000E+00  0.00000000000E+00  0.12525980253E-10  0.17130000000E+03  0.17130000000E+03 0. -1.
       11    1    1    2    0    0 -0.32797811916E-04  0.34188715891E-03  0.69247905301E-02  0.69521154701E-02  0.51109989000E-03 0.  1.
     -623    1    1    2    0    0 -0.93731236892E-04 -0.24123042461E-03  0.28422730006E-04  0.17130000000E+03  0.17130000000E+03 0. -1.
      622    1    1    2    0    0  0.12652904853E-03 -0.10065673501E-03  0.39930467423E+01  0.39930478725E+01  0.30000000000E-02 0.  1.
</event>
<event>
 5   0  0.3294100E+10  0.9118800E+02  0.7818608E-02  0.1180000E+00
       11   -1    0    0    0    0  0.00000000000E+00  0.00000000000E+00  0.39999999673E+01  0.40000000000E+01  0.51109989000E-03 0. -1.
     -623   -1    0    0    0    0  0.00000000000E+00  0.00000000000E+00  0.12525980253E-10  0.17130000000E+03  0.17130000000E+03 0.  1.
       11    1    1    2    0    0 -0.26702096644E-03  0.76225720334E-03  0.14448915969E-01  0.14480494881E-01  0.51109989000E-03 0. -1.
     -623    1    1    2    0    0  0.61618180756E-03 -0.37025291486E-04  0.32757754091E-04  0.17130000000E+03  0.17130000000E+03 0.  1.
      622    1    1    2    0    0 -0.34916084101E-03 -0.72523191186E-03  0.39855182930E+01  0.39855195034E+01  0.30000000000E-02 0. -1.
</event>
<event>
 5   0  0.3294100E+10  0.9118800E+02  0.7818608E-02  0.1180000E+00
       11   -1    0    0    0    0  0.00000000000E+00  0.00000000000E+00  0.39999999673E+01  0.40000000000E+01  0.51109989000E-03 0. -1.
     -623   -1    0    0    0    0  0.00000000000E+00  0.00000000000E+00  0.12525980253E-10  0.17130000000E+03  0.17130000000E+03 0. -1.
       11    1    1    2    0    0  0.43457976975E-04  0.24567703013E-02  0.62025590897E+00  0.62026098655E+00  0.51109989000E-03 0. -1.
     -623    1    1    2    0    0 -0.49298640521E-05  0.98956961709E-04  0.73429679466E-05  0.17130000000E+03  0.17130000000E+03 0. -1.
      622    1    1    2    0    0 -0.38528112857E-04 -0.25557272643E-02  0.33797367696E+01  0.33797390676E+01  0.30000000000E-02 0. -1.
</event>
<event>
 5   0  0.3294100E+10  0.9118800E+02  0.7818608E-02  0.1180000E+00
       11   -1    0    0    0    0  0.00000000000E+00  0.00000000000E+00  0.39999999673E+01  0.40000000000E+01  0.51109989000E-03 0. -1.
     -623   -1    0    0    0    0  0.00000000000E+00  0.00000000000E+00  0.12525980253E-10  0.17130000000E+03  0.17130000000E+03 0.  1.
       11    1    1    2    0    0 -0.43929714434E-02 -0.17875983705E-03  0.54827016121E-01  0.55005391285E-01  0.51109989000E-03 0.  1.
     -623    1    1    2    0    0  0.36876091130E-02 -0.33026695842E-03  0.17961921454E-03  0.17130000004E+03  0.17130000000E+03 0.  1.
      622    1    1    2    0    0  0.70536233041E-03  0.50902679547E-03  0.39449933320E+01  0.39449945686E+01  0.30000000000E-02 0. -1.
</event>
<event>
 5   0  0.3294100E+10  0.9118800E+02  0.7818608E-02  0.1180000E+00
       11   -1    0    0    0    0  0.00000000000E+00  0.00000000000E+00  0.39999999673E+01  0.40000000000E+01  0.51109989000E-03 0. -1.
     -623   -1    0    0    0    0  0.00000000000E+00  0.00000000000E+00  0.12525980253E-10  0.17130000000E+03  0.17130000000E+03 0. -1.
       11    1    1    2    0    0  0.32903795778E-04 -0.46674996455E-03  0.24809998505E+00  0.24810095272E+00  0.51109989000E-03 0. -1.
     -623    1    1    2    0    0 -0.58284098495E-03  0.10578219259E-02  0.22255442973E-05  0.17130000000E+03  0.17130000000E+03 0. -1.
      622    1    1    2    0    0  0.54993718917E-03 -0.59107196133E-03  0.37518977568E+01  0.37518990430E+01  0.30000000000E-02 0. -1.
</event>
<event>
 5   0  0.3294100E+10  0.9118800E+02  0.7818608E-02  0.1180000E+00
       11   -1    0    0    0    0  0.00000000000E+00  0.00000000000E+00  0.39999999673E+01  0.40000000000E+01  0.51109989000E-03 0.  1.
     -623   -1    0    0    0    0  0.00000000000E+00  0.00000000000E+00  0.12525980253E-10  0.17130000000E+03  0.17130000000E+03 0. -1.
       11    1    1    2    0    0  0.11141707334E-01 -0.69890500516E-02  0.78857104455E+00  0.78868088476E+00  0.51109989000E-03 0.  1.
     -623    1    1    2    0    0 -0.43254306718E-02  0.31976504530E-03  0.12542330127E-03  0.17130000005E+03  0.17130000000E+03 0. -1.
      622    1    1    2    0    0 -0.68162766620E-02  0.66692850063E-02  0.32113034995E+01  0.32113190603E+01  0.30000000000E-02 0.  1.
</event>
<event>
 5   0  0.3294100E+10  0.9118800E+02  0.7818608E-02  0.1180000E+00
       11   -1    0    0    0    0  0.00000000000E+00  0.00000000000E+00  0.39999999673E+01  0.40000000000E+01  0.51109989000E-03 0. -1.
     -623   -1    0    0    0    0  0.00000000000E+00  0.00000000000E+00  0.12525980253E-10  0.17130000000E+03  0.17130000000E+03 0. -1.
       11    1    1    2    0    0  0.11356077952E-01  0.61429139575E-02  0.88564102790E+00  0.88573528067E+00  0.51109989000E-03 0. -1.
     -623    1    1    2    0    0 -0.15727939639E-01 -0.97850572320E-02  0.10186503542E-03  0.17130000100E+03  0.17130000000E+03 0. -1.
      622    1    1    2    0    0  0.43718617179E-02  0.36421432935E-02  0.31142570822E+01  0.31142637256E+01  0.30000000000E-02 0. -1.
</event>
<event>
 5   0  0.3294100E+10  0.9118800E+02  0.7818608E-02  0.1180000E+00
       11   -1    0    0    0    0  0.00000000000E+00  0.00000000000E+00  0.39999999673E+01  0.40000000000E+01  0.51109989000E-03 0. -1.
     -623   -1    0    0    0    0  0.00000000000E+00  0.00000000000E+00  0.12525980253E-10  0.17130000000E+03  0.17130000000E+03 0. -1.
       11    1    1    2    0    0  0.30574930868E-03 -0.78599028711E-03  0.27259105485E+00  0.27259283863E+00  0.51109989000E-03 0. -1.
     -623    1    1    2    0    0 -0.15357959606E-03  0.69689132632E-03  0.29640681083E-05  0.17130000000E+03  0.17130000000E+03 0. -1.
      622    1    1    2    0    0 -0.15216971509E-03  0.89098972011E-04  0.37274058841E+01  0.37274070955E+01  0.30000000000E-02 0.  0.
</event>
<event>
 5   0  0.3294100E+10  0.9118800E+02  0.7818608E-02  0.1180000E+00
       11   -1    0    0    0    0  0.00000000000E+00  0.00000000000E+00  0.39999999673E+01  0.40000000000E+01  0.51109989000E-03 0. -1.
     -623   -1    0    0    0    0  0.00000000000E+00  0.00000000000E+00  0.12525980253E-10  0.17130000000E+03  0.17130000000E+03 0. -1.
       11    1    1    2    0    0 -0.15486076371E-03 -0.32380035700E-04  0.59175276926E-01  0.59177695568E-01  0.51109989000E-03 0. -1.
     -623    1    1    2    0    0  0.31805124167E-03  0.21077815104E-03  0.35357370147E-05  0.17130000000E+03  0.17130000000E+03 0. -1.
      622    1    1    2    0    0 -0.16319048543E-03 -0.17839812029E-03  0.39408212487E+01  0.39408223980E+01  0.30000000000E-02 0. -1.
</event>
<event>
 5   0  0.3294100E+10  0.9118800E+02  0.7818608E-02  0.1180000E+00
       11   -1    0    0    0    0  0.00000000000E+00  0.00000000000E+00  0.39999999673E+01  0.40000000000E+01  0.51109989000E-03 0. -1.
     -623   -1    0    0    0    0  0.00000000000E+00  0.00000000000E+00  0.12525980253E-10  0.17130000000E+03  0.17130000000E+03 0.  1.
       11    1    1    2    0    0 -0.65933271776E-03  0.42517299155E-03  0.47030054106E+00  0.47030147313E+00  0.51109989000E-03 0. -1.
     -623    1    1    2    0    0  0.88278267348E-03 -0.14973377771E-02  0.23530641027E-05  0.17130000001E+03  0.17130000000E+03 0.  1.
      622    1    1    2    0    0 -0.22344995572E-03  0.10721647855E-02  0.35296970732E+01  0.35296985180E+01  0.30000000000E-02 0. -1.
</event>
<event>
 5   0  0.3294100E+10  0.9118800E+02  0.7818608E-02  0.1180000E+00
       11   -1    0    0    0    0  0.00000000000E+00  0.00000000000E+00  0.39999999673E+01  0.40000000000E+01  0.51109989000E-03 0. -1.
     -623   -1    0    0    0    0  0.00000000000E+00  0.00000000000E+00  0.12525980253E-10  0.17130000000E+03  0.17130000000E+03 0. -1.
       11    1    1    2    0    0  0.14341401223E-03 -0.18761488956E-02  0.81787806786E+00  0.81788039199E+00  0.51109989000E-03 0. -1.
     -623    1    1    2    0    0 -0.66498514327E-03  0.50958199721E-03  0.40438786781E-05  0.17130000000E+03  0.17130000000E+03 0. -1.
      622    1    1    2    0    0  0.52157114459E-03  0.13665668880E-02  0.31821179372E+01  0.31821196875E+01  0.30000000000E-02 0. -1.
</event>
<event>
 5   0  0.3294100E+10  0.9118800E+02  0.7818608E-02  0.1180000E+00
       11   -1    0    0    0    0  0.00000000000E+00  0.00000000000E+00  0.39999999673E+01  0.40000000000E+01  0.51109989000E-03 0.  1.
     -623   -1    0    0    0    0  0.00000000000E+00  0.00000000000E+00  0.12525980253E-10  0.17130000000E+03  0.17130000000E+03 0. -1.
       11    1    1    2    0    0  0.13626665123E-02  0.31669371611E-03  0.95104291407E-01  0.95115953548E-01  0.51109989000E-03 0.  1.
     -623    1    1    2    0    0 -0.26179847090E-02 -0.43258724467E-03  0.13005951857E-04  0.17130000002E+03  0.17130000000E+03 0. -1.
      622    1    1    2    0    0  0.12553181967E-02  0.11589352856E-03  0.39048826700E+01  0.39048840259E+01  0.30000000000E-02 0.  1.
</event>
<event>
 5   0  0.3294100E+10  0.9118800E+02  0.7818608E-02  0.1180000E+00
       11   -1    0    0    0    0  0.00000000000E+00  0.00000000000E+00  0.39999999673E+01  0.40000000000E+01  0.51109989000E-03 0.  1.
     -623   -1    0    0    0    0  0.00000000000E+00  0.00000000000E+00  0.12525980253E-10  0.17130000000E+03  0.17130000000E+03 0. -1.
       11    1    1    2    0    0 -0.46701156096E-03  0.10803193792E-03  0.65663455073E-02  0.66036268154E-02  0.51109989000E-03 0.  1.
     -623    1    1    2    0    0  0.69093659798E-04 -0.13585765917E-03  0.38395522559E-04  0.17130000000E+03  0.17130000000E+03 0. -1.
      622    1    1    2    0    0  0.39791790116E-03  0.27825721251E-04  0.39933952266E+01  0.39933963734E+01  0.30000000000E-02 0.  1.
</event>
<event>
 5   0  0.3294100E+10  0.9118800E+02  0.7818608E-02  0.1180000E+00
       11   -1    0    0    0    0  0.00000000000E+00  0.00000000000E+00  0.39999999673E+01  0.40000000000E+01  0.51109989000E-03 0.  1.
     -623   -1    0    0    0    0  0.00000000000E+00  0.00000000000E+00  0.12525980253E-10  0.17130000000E+03  0.17130000000E+03 0.  1.
       11    1    1    2    0    0  0.11271984458E-02 -0.18208403203E-03  0.40279361730E+00  0.40279555992E+00  0.51109989000E-03 0.  1.
     -623    1    1    2    0    0 -0.18846841705E-02 -0.17992183814E-02  0.38061635692E-05  0.17130000002E+03  0.17130000000E+03 0.  1.
      622    1    1    2    0    0  0.75748574152E-03  0.19813024294E-02  0.35972025795E+01  0.35972044559E+01  0.30000000000E-02 0.  1.
</event>
<event>
 5   0  0.3294100E+10  0.9118800E+02  0.7818608E-02  0.1180000E+00
       11   -1    0    0    0    0  0.00000000000E+00  0.00000000000E+00  0.39999999673E+01  0.40000000000E+01  0.51109989000E-03 0.  1.
     -623   -1    0    0    0    0  0.00000000000E+00  0.00000000000E+00  0.12525980253E-10  0.17130000000E+03  0.17130000000E+03 0.  1.
       11    1    1    2    0    0  0.16297872044E-03 -0.24586973144E-03  0.75931098643E-01  0.75933391721E-01  0.51109989000E-03 0.  1.
     -623    1    1    2    0    0  0.16246307227E-03 -0.12535487601E-03  0.34383848604E-05  0.17130000000E+03  0.17130000000E+03 0.  1.
      622    1    1    2    0    0 -0.32544179109E-03  0.37122460620E-03  0.39240653905E+01  0.39240665684E+01  0.30000000000E-02 0.  1.
</event>
<event>
 5   0  0.3294100E+10  0.9118800E+02  0.7818608E-02  0.1180000E+00
       11   -1    0    0    0    0  0.00000000000E+00  0.00000000000E+00  0.39999999673E+01  0.40000000000E+01  0.51109989000E-03 0.  1.
     -623   -1    0    0    0    0  0.00000000000E+00  0.00000000000E+00  0.12525980253E-10  0.17130000000E+03  0.17130000000E+03 0. -1.
       11    1    1    2    0    0 -0.22555033859E-03  0.37540460439E-03  0.10413959203E+00  0.10414176709E+00  0.51109989000E-03 0.  1.
     -623    1    1    2    0    0 -0.68458379496E-04 -0.29577325942E-03  0.33096707552E-05  0.17130000000E+03  0.17130000000E+03 0. -1.
      622    1    1    2    0    0  0.29400871878E-03 -0.79631341981E-04  0.38958571060E+01  0.38958582730E+01  0.30000000000E-02 0.  1.
</event>
<event>
 5   0  0.3294100E+10  0.9118800E+02  0.7818608E-02  0.1180000E+00
       11   -1    0    0    0    0  0.00000000000E+00  0.00000000000E+00  0.39999999673E+01  0.40000000000E+01  0.51109989000E-03 0.  1.
     -623   -1    0    0    0    0  0.00000000000E+00  0.00000000000E+00  0.12525980253E-10  0.17130000000E+03  0.17130000000E+03 0.  1.
       11    1    1    2    0    0  0.24354841372E-02  0.45661846249E-02  0.11312494997E+01  0.11312614523E+01  0.51109989000E-03 0.  1.
     -623    1    1    2    0    0 -0.80768811814E-03 -0.21113938310E-02  0.15015608064E-04  0.17130000001E+03  0.17130000000E+03 0.  1.
      622    1    1    2    0    0 -0.16277960150E-02 -0.24547907831E-02  0.28687354725E+01  0.28687385532E+01  0.30000000000E-02 0.  1.
</event>
<event>
 5   0  0.3294100E+10  0.9118800E+02  0.7818608E-02  0.1180000E+00
       11   -1    0    0    0    0  0.00000000000E+00  0.00000000000E+00  0.39999999673E+01  0.40000000000E+01  0.51109989000E-03 0.  1.
     -623   -1    0    0    0    0  0.00000000000E+00  0.00000000000E+00  0.12525980253E-10  0.17130000000E+03  0.17130000000E+03 0.  1.
       11    1    1    2    0    0  0.64536348266E-03 -0.39206372975E-03  0.22032113271E+00  0.22032301956E+00  0.51109989000E-03 0. -1.
     -623    1    1    2    0    0  0.24521928341E-03  0.46149849165E-04  0.31657238693E-05  0.17130000000E+03  0.17130000000E+03 0.  1.
      622    1    1    2    0    0 -0.89058276668E-03  0.34591388047E-03  0.37796756788E+01  0.37796769901E+01  0.30000000000E-02 0.  1.
</event>
<event>
 5   0  0.3294100E+10  0.9118800E+02  0.7818608E-02  0.1180000E+00
       11   -1    0    0    0    0  0.00000000000E+00  0.00000000000E+00  0.39999999673E+01  0.40000000000E+01  0.51109989000E-03 0.  1.
     -623   -1    0    0    0    0  0.00000000000E+00  0.00000000000E+00  0.12525980253E-10  0.17130000000E+03  0.17130000000E+03 0. -1.
       11    1    1    2    0    0 -0.65737641213E-04  0.20764702631E-02  0.57392616600E+00  0.57393015367E+00  0.51109989000E-03 0.  1.
     -623    1    1    2    0    0  0.51412774106E-03 -0.81575120646E-03  0.55325023731E-05  0.17130000000E+03  0.17130000000E+03 0. -1.
      622    1    1    2    0    0 -0.44839009985E-03 -0.12607190567E-02  0.34260682689E+01  0.34260698436E+01  0.30000000000E-02 0.  1.
</event>
<event>
 5   0  0.3294100E+10  0.9118800E+02  0.7818608E-02  0.1180000E+00
       11   -1    0    0    0    0  0.00000000000E+00  0.00000000000E+00  0.39999999673E+01  0.40000000000E+01  0.51109989000E-03 0. -1.
     -623   -1    0    0    0    0  0.00000000000E+00  0.00000000000E+00  0.12525980253E-10  0.17130000000E+03  0.17130000000E+03 0.  1.
       11    1    1    2    0    0  0.22763052199E-02  0.12529659624E-04  0.31107554644E+00  0.31108429490E+00  0.51109989000E-03 0.  1.
     -623    1    1    2    0    0 -0.10552927730E-02  0.35786406378E-03  0.10159991289E-04  0.17130000000E+03  0.17130000000E+03 0.  1.
      622    1    1    2    0    0 -0.12210124469E-02 -0.37039372340E-03  0.36889142609E+01  0.36889157015E+01  0.30000000000E-02 0. -1.
</event>
<event>
 5   0  0.3294100E+10  0.9118800E+02  0.7818608E-02  0.1180000E+00
       11   -1    0    0    0    0  0.00000000000E+00  0.00000000000E+00  0.39999999673E+01  0.40000000000E+01  0.51109989000E-03 0.  1.
     -623   -1    0    0    0    0  0.00000000000E+00  0.00000000000E+00  0.12525980253E-10  0.17130000000E+03  0.17130000000E+03 0.  1.
       11    1    1    2    0    0  0.44089950410E-03  0.22051889793E-03  0.10849481304E+00  0.10849713683E+00  0.51109989000E-03 0.  1.
     -623    1    1    2    0    0 -0.37619485580E-04  0.35550891393E-03  0.35114187011E-05  0.17130000000E+03  0.17130000000E+03 0.  1.
      622    1    1    2    0    0 -0.40328001787E-03 -0.57602781793E-03  0.38915017112E+01  0.38915029311E+01  0.30000000000E-02 0.  1.
</event>
<event>
 5   0  0.3294100E+10  0.9118800E+02  0.7818608E-02  0.1180000E+00
       11   -1    0    0    0    0  0.00000000000E+00  0.00000000000E+00  0.39999999673E+01  0.40000000000E+01  0.51109989000E-03 0.  1.
     -623   -1    0    0    0    0  0.00000000000E+00  0.00000000000E+00  0.12525980253E-10  0.17130000000E+03  0.17130000000E+03 0.  1.
       11    1    1    2    0    0 -0.29503540962E-03  0.51813553921E-03  0.11453418268E+01  0.11453420960E+01  0.51109989000E-03 0.  1.
     -623    1    1    2    0    0 -0.44325725387E-04  0.26633168804E-04  0.18851266534E-05  0.17130000000E+03  0.17130000000E+03 0.  1.
      622    1    1    2    0    0  0.33936113622E-03 -0.54476870874E-03  0.28546563648E+01  0.28546580134E+01  0.30000000000E-02 0.  1.
</event>
<event>
 5   0  0.3294100E+10  0.9118800E+02  0.7818608E-02  0.1180000E+00
       11   -1    0    0    0    0  0.00000000000E+00  0.00000000000E+00  0.39999999673E+01  0.40000000000E+01  0.51109989000E-03 0. -1.
     -623   -1    0    0    0    0  0.00000000000E+00  0.00000000000E+00  0.12525980253E-10  0.17130000000E+03  0.17130000000E+03 0. -1.
       11    1    1    2    0    0  0.14490109224E-02  0.13554030621E-02  0.84924449996E+00  0.84924697155E+00  0.51109989000E-03 0. -1.
     -623    1    1    2    0    0  0.75694649626E-03 -0.64694261248E-03  0.47219582817E-05  0.17130000000E+03  0.17130000000E+03 0. -1.
      622    1    1    2    0    0 -0.22059574186E-02 -0.70846044961E-03  0.31507507454E+01  0.31507530256E+01  0.30000000000E-02 0. -1.
</event>
<event>
 5   0  0.3294100E+10  0.9118800E+02  0.7818608E-02  0.1180000E+00
       11   -1    0    0    0    0  0.00000000000E+00  0.00000000000E+00  0.39999999673E+01  0.40000000000E+01  0.51109989000E-03 0. -1.
     -623   -1    0    0    0    0  0.00000000000E+00  0.00000000000E+00  0.12525980253E-10  0.17130000000E+03  0.17130000000E+03 0. -1.
       11    1    1    2    0    0 -0.53675477561E-03  0.36511988370E-02  0.83812070494E+00  0.83812898568E+00  0.51109989000E-03 0. -1.
     -623    1    1    2    0    0 -0.55068128103E-04 -0.78232895244E-03  0.11029997695E-04  0.17130000000E+03  0.17130000000E+03 0. -1.
      622    1    1    2    0    0  0.59182290371E-03 -0.28688698846E-02  0.31618682324E+01  0.31618710125E+01  0.30000000000E-02 0.  0.
</event>
<event>
 5   0  0.3294100E+10  0.9118800E+02  0.7818608E-02  0.1180000E+00
       11   -1    0    0    0    0  0.00000000000E+00  0.00000000000E+00  0.39999999673E+01  0.40000000000E+01  0.51109989000E-03 0. -1.
     -623   -1    0    0    0    0  0.00000000000E+00  0.00000000000E+00  0.12525980253E-10  0.17130000000E+03  0.17130000000E+03 0.  1.
       11    1    1    2    0    0 -0.48608024256E-03  0.78165330969E-03  0.17651324972E+00  0.17651638962E+00  0.51109989000E-03 0. -1.
     -623    1    1    2    0    0 -0.11589075461E-03 -0.91141889903E-03  0.43362539035E-05  0.17130000000E+03  0.17130000000E+03 0.  1.
      622    1    1    2    0    0  0.60197099943E-03  0.12976560711E-03  0.38234824594E+01  0.38234836859E+01  0.30000000000E-02 0. -1.
</event>
<event>
 5   0  0.3294100E+10  0.9118800E+02  0.7818608E-02  0.1180000E+00
       11   -1    0    0    0    0  0.00000000000E+00  0.00000000000E+00  0.39999999673E+01  0.40000000000E+01  0.51109989000E-03 0. -1.
     -623   -1    0    0    0    0  0.00000000000E+00  0.00000000000E+00  0.12525980253E-10  0.17130000000E+03  0.17130000000E+03 0.  1.
       11    1    1    2    0    0  0.19663191562E-02 -0.46309205113E-04  0.67329836566E+00  0.67330143248E+00  0.51109989000E-03 0.  1.
     -623    1    1    2    0    0 -0.12931980215E-03  0.51004149614E-03  0.49271952549E-05  0.17130000000E+03  0.17130000000E+03 0.  1.
      622    1    1    2    0    0 -0.18369993540E-02 -0.46373229102E-03  0.33266966745E+01  0.33266985667E+01  0.30000000000E-02 0. -1.
</event>
<event>
 5   0  0.3294100E+10  0.9118800E+02  0.7818608E-02  0.1180000E+00
       11   -1    0    0    0    0  0.00000000000E+00  0.00000000000E+00  0.39999999673E+01  0.40000000000E+01  0.51109989000E-03 0. -1.
     -623   -1    0    0    0    0  0.00000000000E+00  0.00000000000E+00  0.12525980253E-10  0.17130000000E+03  0.17130000000E+03 0. -1.
       11    1    1    2    0    0 -0.28430241409E-03  0.64071780123E-03  0.10419558330E+00  0.10419919457E+00  0.51109989000E-03 0. -1.
     -623    1    1    2    0    0 -0.23693292402E-02  0.14234475117E-02  0.62066280599E-05  0.17130000002E+03  0.17130000000E+03 0. -1.
      622    1    1    2    0    0  0.26536316864E-02 -0.20641653322E-02  0.38957982316E+01  0.38958008373E+01  0.30000000000E-02 0. -1.
</event>
<event>
 5   0  0.3294100E+10  0.9118800E+02  0.7818608E-02  0.1180000E+00
       11   -1    0    0    0    0  0.00000000000E+00  0.00000000000E+00  0.39999999673E+01  0.40000000000E+01  0.51109989000E-03 0. -1.
     -623   -1    0    0    0    0  0.00000000000E+00  0.00000000000E+00  0.12525980253E-10  0.17130000000E+03  0.17130000000E+03 0.  1.
       11    1    1    2    0    0  0.53394480029E-04 -0.29673286448E-03  0.44981239748E+00  0.44981278890E+00  0.51109989000E-03 0. -1.
     -623    1    1    2    0    0 -0.33296063421E-05  0.18007853494E-04  0.16376066374E-05  0.17130000000E+03  0.17130000000E+03 0.  1.
      622    1    1    2    0    0 -0.50064873677E-04  0.27872501093E-03  0.35501859446E+01  0.35501872234E+01  0.30000000000E-02 0. -1.
</event>
<event>
 5   0  0.3294100E+10  0.9118800E+02  0.7818608E-02  0.1180000E+00
       11   -1    0    0    0    0  0.00000000000E+00  0.00000000000E+00  0.39999999673E+01  0.40000000000E+01  0.51109989000E-03 0. -1.
     -623   -1    0    0    0    0  0.00000000000E+00  0.00000000000E+00  0.12525980253E-10  0.17130000000E+03  0.17130000000E+03 0.  1.
       11    1    1    2    0    0 -0.67205707578E-03  0.61584126803E-03  0.47057114511E+00  0.47057230555E+00  0.51109989000E-03 0. -1.
     -623    1    1    2    0    0  0.15138071527E-02 -0.16677435796E-03  0.25385111049E-05  0.17130000001E+03  0.17130000000E+03 0.  1.
      622    1    1    2    0    0 -0.84175007692E-03 -0.44906691008E-03  0.35294262837E+01  0.35294276877E+01  0.30000000000E-02 0. -1.
</event>
<event>
 5   0  0.3294100E+10  0.9118800E+02  0.7818608E-02  0.1180000E+00
       11   -1    0    0    0    0  0.00000000000E+00  0.00000000000E+00  0.39999999673E+01  0.40000000000E+01  0.51109989000E-03 0. -1.
     -623   -1    0    0    0    0  0.00000000000E+00  0.00000000000E+00  0.12525980253E-10  0.17130000000E+03  0.17130000000E+03 0. -1.
       11    1    1    2    0    0  0.48865597108E-03  0.49093254895E-04  0.38375693975E-01  0.38382239460E-01  0.51109989000E-03 0. -1.
     -623    1    1    2    0    0 -0.27049553562E-03 -0.76955388284E-04  0.76550804873E-05  0.17130000000E+03  0.17130000000E+03 0. -1.
      622    1    1    2    0    0 -0.21816043373E-03  0.27862133882E-04  0.39616166439E+01  0.39616177859E+01  0.30000000000E-02 0. -1.
</event>
<event>
 5   0  0.3294100E+10  0.9118800E+02  0.7818608E-02  0.1180000E+00
       11   -1    0    0    0    0  0.00000000000E+00  0.00000000000E+00  0.39999999673E+01  0.40000000000E+01  0.51109989000E-03 0. -1.
     -623   -1    0    0    0    0  0.00000000000E+00  0.00000000000E+00  0.12525980253E-10  0.17130000000E+03  0.17130000000E+03 0.  1.
       11    1    1    2    0    0 -0.71716434672E-02  0.12402736219E-01  0.80383793047E+00  0.80396575799E+00  0.51109989000E-03 0. -1.
     -623    1    1    2    0    0 -0.35199785443E-03 -0.21769447542E-03  0.16128720356E-03  0.17130000000E+03  0.17130000000E+03 0.  1.
      622    1    1    2    0    0  0.75236413216E-02 -0.12185041743E-01  0.31960007500E+01  0.31960342417E+01  0.30000000000E-02 0. -1.
</event>
<event>
 5   0  0.3294100E+10  0.9118800E+02  0.7818608E-02  0.1180000E+00
       11   -1    0    0    0    0  0.00000000000E+00  0.00000000000E+00  0.39999999673E+01  0.40000000000E+01  0.51109989000E-03 0.  1.
     -623   -1    0    0    0    0  0.00000000000E+00  0.00000000000E+00  0.12525980253E-10  0.17130000000E+03  0.17130000000E+03 0.  1.
       11    1    1    2    0    0 -0.12069228027E-03 -0.14104721132E-03  0.89280564868E-02  0.89446004199E-02  0.51109989000E-03 0.  1.
     -623    1    1    2    0    0 -0.10973196396E-04  0.30702051407E-04  0.17642515624E-04  0.17130000000E+03  0.17130000000E+03 0.  1.
      622    1    1    2    0    0  0.13166547671E-03  0.11034515979E-03  0.39910542842E+01  0.39910554154E+01  0.30000000000E-02 0.  1.
</event>
<event>
 5   0  0.3294100E+10  0.9118800E+02  0.7818608E-02  0.1180000E+00
       11   -1    0    0    0    0  0.00000000000E+00  0.00000000000E+00  0.39999999673E+01  0.40000000000E+01  0.51109989000E-03 0. -1.
     -623   -1    0    0    0    0  0.00000000000E+00  0.00000000000E+00  0.12525980253E-10  0.17130000000E+03  0.17130000000E+03 0.  1.
       11    1    1    2    0    0 -0.79233373252E-03 -0.33021759370E-02  0.37357211719E+00  0.37358790147E+00  0.51109989000E-03 0. -1.
     -623    1    1    2    0    0  0.14013826353E-02  0.75353423112E-03  0.17946660526E-04  0.17130000001E+03  0.17130000000E+03 0.  1.
      622    1    1    2    0    0 -0.60904890278E-03  0.25486417059E-02  0.36264099035E+01  0.36264120911E+01  0.30000000000E-02 0. -1.
</event>
<event>
 5   0  0.3294100E+10  0.9118800E+02  0.7818608E-02  0.1180000E+00
       11   -1    0    0    0    0  0.00000000000E+00  0.00000000000E+00  0.39999999673E+01  0.40000000000E+01  0.51109989000E-03 0. -1.
     -623   -1    0    0    0    0  0.00000000000E+00  0.00000000000E+00  0.12525980253E-10  0.17130000000E+03  0.17130000000E+03 0.  1.
       11    1    1    2    0    0 -0.75195337068E-03  0.45444927811E-03  0.50987627329E+00  0.50987728646E+00  0.51109989000E-03 0.  1.
     -623    1    1    2    0    0  0.22359801117E-03 -0.17108103771E-03  0.23216081506E-05  0.17130000000E+03  0.17130000000E+03 0.  1.
      622    1    1    2    0    0  0.52835535477E-03 -0.28336823678E-03  0.34901214572E+01  0.34901227980E+01  0.30000000000E-02 0. -1.
</event>
<event>
 5   0  0.3294100E+10  0.9118800E+02  0.7818608E-02  0.1180000E+00
       11   -1    0    0    0    0  0.00000000000E+00  0.00000000000E+00  0.39999999673E+01  0.40000000000E+01  0.51109989000E-03 0.  1.
     -623   -1    0    0    0    0  0.00000000000E+00  0.00000000000E+00  0.12525980253E-10  0.17130000000E+03  0.17130000000E+03 0.  1.
       11    1    1    2    0    0 -0.64375449914E-03  0.93973746742E-03  0.12541749772E+00  0.12542371181E+00  0.51109989000E-03 0.  1.
     -623    1    1    2    0    0 -0.25817432084E-03  0.11798710151E-02  0.80318721007E-05  0.17130000000E+03  0.17130000000E+03 0.  1.
      622    1    1    2    0    0  0.90192881765E-03 -0.21196084719E-02  0.38745744016E+01  0.38745762478E+01  0.30000000000E-02 0.  1.
</event>
<event>
 5   0  0.3294100E+10  0.9118800E+02  0.7818608E-02  0.1180000E+00
       11   -1    0    0    0    0  0.00000000000E+00  0.00000000000E+00  0.39999999673E+01  0.40000000000E+01  0.51109989000E-03 0. -1.
     -623   -1    0    0    0    0  0.00000000000E+00  0.00000000000E+00  0.12525980253E-10  0.17130000000E+03  0.17130000000E+03 0. -1.
       11    1    1    2    0    0 -0.52100536865E-03 -0.17017451808E-02  0.70457828516E-01  0.70482155227E-01  0.51109989000E-03 0. -1.
     -623    1    1    2    0    0  0.18427893739E-03 -0.27921879138E-03  0.25953332285E-04  0.17130000000E+03  0.17130000000E+03 0. -1.
      622    1    1    2    0    0  0.33672643168E-03  0.19809639715E-02  0.39295161763E+01  0.39295178352E+01  0.30000000000E-02 0. -1.
</event>
<event>
 5   0  0.3294100E+10  0.9118800E+02  0.7818608E-02  0.1180000E+00
       11   -1    0    0    0    0  0.00000000000E+00  0.00000000000E+00  0.39999999673E+01  0.40000000000E+01  0.51109989000E-03 0. -1.
     -623   -1    0    0    0    0  0.00000000000E+00  0.00000000000E+00  0.12525980253E-10  0.17130000000E+03  0.17130000000E+03 0. -1.
       11    1    1    2    0    0  0.53277256689E-03 -0.51005212000E-03  0.64074231814E+00  0.64074294649E+00  0.51109989000E-03 0. -1.
     -623    1    1    2    0    0  0.36139864848E-03  0.73491288622E-03  0.20637826994E-05  0.17130000000E+03  0.17130000000E+03 0. -1.
      622    1    1    2    0    0 -0.89417121586E-03 -0.22486076721E-03  0.33592555908E+01  0.33592570569E+01  0.30000000000E-02 0. -1.
</event>
<event>
 5   0  0.3294100E+10  0.9118800E+02  0.7818608E-02  0.1180000E+00
       11   -1    0    0    0    0  0.00000000000E+00  0.00000000000E+00  0.39999999673E+01  0.40000000000E+01  0.51109989000E-03 0.  1.
     -623   -1    0    0    0    0  0.00000000000E+00  0.00000000000E+00  0.12525980253E-10  0.17130000000E+03  0.17130000000E+03 0. -1.
       11    1    1    2    0    0  0.34414181354E-03 -0.36207241334E-03  0.61919402302E+00  0.61919443546E+00  0.51109989000E-03 0.  1.
     -623    1    1    2    0    0  0.25053714542E-04  0.28829983643E-04  0.17474234890E-05  0.17130000000E+03  0.17130000000E+03 0. -1.
      622    1    1    2    0    0 -0.36919552809E-03  0.33324242970E-03  0.33808041969E+01  0.33808055645E+01  0.30000000000E-02 0.  1.
</event>
<event>
 5   0  0.3294100E+10  0.9118800E+02  0.7818608E-02  0.1180000E+00
       11   -1    0    0    0    0  0.00000000000E+00  0.00000000000E+00  0.39999999673E+01  0.40000000000E+01  0.51109989000E-03 0.  1.
     -623   -1    0    0    0    0  0.00000000000E+00  0.00000000000E+00  0.12525980253E-10  0.17130000000E+03  0.17130000000E+03 0.  1.
       11    1    1    2    0    0  0.27224405136E-02  0.72959274561E-03  0.64755005278E-01  0.64818330120E-01  0.51109989000E-03 0.  1.
     -623    1    1    2    0    0  0.69447238181E-04  0.11704947670E-02  0.65888862375E-04  0.17130000000E+03  0.17130000000E+03 0.  1.
      622    1    1    2    0    0 -0.27918877520E-02 -0.19000875148E-02  0.39351790807E+01  0.39351816734E+01  0.30000000000E-02 0.  1.
</event>
<event>
 5   0  0.3294100E+10  0.9118800E+02  0.7818608E-02  0.1180000E+00
       11   -1    0    0    0    0  0.00000000000E+00  0.00000000000E+00  0.39999999673E+01  0.40000000000E+01  0.51109989000E-03 0. -1.
     -623   -1    0    0    0    0  0.00000000000E+00  0.00000000000E+00  0.12525980253E-10  0.17130000000E+03  0.17130000000E+03 0. -1.
       11    1    1    2    0    0  0.57103314561E-03  0.20544876819E-02  0.98292282261E-01  0.98316738011E-01  0.51109989000E-03 0. -1.
     -623    1    1    2    0    0 -0.44086963287E-03  0.39809895182E-04  0.26141279774E-04  0.17130000000E+03  0.17130000000E+03 0. -1.
      622    1    1    2    0    0 -0.13016351274E-03 -0.20942975771E-02  0.39016815438E+01  0.39016832614E+01  0.30000000000E-02 0. -1.
</event>
<event>
 5   0  0.3294100E+10  0.9118800E+02  0.7818608E-02  0.1180000E+00
       11   -1    0    0    0    0  0.00000000000E+00  0.00000000000E+00  0.39999999673E+01  0.40000000000E+01  0.51109989000E-03 0. -1.
     -623   -1    0    0    0    0  0.00000000000E+00  0.00000000000E+00  0.12525980253E-10  0.17130000000E+03  0.17130000000E+03 0.  1.
       11    1    1    2    0    0 -0.70030720539E-03  0.11730473505E-02  0.61813061053E+00  0.61813233160E+00  0.51109989000E-03 0. -1.
     -623    1    1    2    0    0 -0.32867574884E-03 -0.82401695391E-04  0.33517968521E-05  0.17130000000E+03  0.17130000000E+03 0.  1.
      622    1    1    2    0    0  0.10289829582E-02 -0.10906456541E-02  0.33818660537E+01  0.33818677168E+01  0.30000000000E-02 0. -1.
</event>
<event>
 5   0  0.3294100E+10  0.9118800E+02  0.7818608E-02  0.1180000E+00
       11   -1    0    0    0    0  0.00000000000E+00  0.00000000000E+00  0.39999999673E+01  0.40000000000E+01  0.51109989000E-03 0. -1.
     -623   -1    0    0    0    0  0.00000000000E+00  0.00000000000E+00  0.12525980253E-10  0.17130000000E+03  0.17130000000E+03 0. -1.
       11    1    1    2    0    0 -0.38875274246E-02 -0.10262639047E-02  0.10729988749E+01  0.10730065298E+01  0.51109989000E-03 0. -1.
     -623    1    1    2    0    0  0.53940562973E-02 -0.80592486135E-03  0.10207575527E-04  0.17130000009E+03  0.17130000000E+03 0. -1.
      622    1    1    2    0    0 -0.15065288727E-02  0.18321887661E-02  0.29269908848E+01  0.29269933834E+01  0.30000000000E-02 0. -1.
</event>
<event>
 5   0  0.3294100E+10  0.9118800E+02  0.7818608E-02  0.1180000E+00
       11   -1    0    0    0    0  0.00000000000E+00  0.00000000000E+00  0.39999999673E+01  0.40000000000E+01  0.51109989000E-03 0.  1.
     -623   -1    0    0    0    0  0.00000000000E+00  0.00000000000E+00  0.12525980253E-10  0.17130000000E+03  0.17130000000E+03 0. -1.
       11    1    1    2    0    0 -0.66928281759E-03 -0.19524844451E-02  0.60441334372E-01  0.60478725671E-01  0.51109989000E-03 0.  1.
     -623    1    1    2    0    0 -0.97283056306E-03  0.13863111716E-02  0.38892231949E-04  0.17130000001E+03  0.17130000000E+03 0. -1.
      622    1    1    2    0    0  0.16421133815E-02  0.56617327235E-03  0.39395197440E+01  0.39395212692E+01  0.30000000000E-02 0.  1.
</event>
<event>
 5   0  0.3294100E+10  0.9118800E+02  0.7818608E-02  0.1180000E+00
       11   -1    0    0    0    0  0.00000000000E+00  0.00000000000E+00  0.39999999673E+01  0.40000000000E+01  0.51109989000E-03 0. -1.
     -623   -1    0    0    0    0  0.00000000000E+00  0.00000000000E+00  0.12525980253E-10  0.17130000000E+03  0.17130000000E+03 0.  1.
       11    1    1    2    0    0 -0.76133229109E-03 -0.52509921641E-03  0.17250095848E-01  0.17282429977E-01  0.51109989000E-03 0. -1.
     -623    1    1    2    0    0  0.85509635366E-05  0.61377254205E-04  0.33529523976E-04  0.17130000000E+03  0.17130000000E+03 0.  1.
      622    1    1    2    0    0  0.75278132754E-03  0.46372196216E-03  0.39827163446E+01  0.39827175727E+01  0.30000000000E-02 0. -1.
</event>
<event>
 5   0  0.3294100E+10  0.9118800E+02  0.7818608E-02  0.1180000E+00
       11   -1    0    0    0    0  0.00000000000E+00  0.00000000000E+00  0.39999999673E+01  0.40000000000E+01  0.51109989000E-03 0. -1.
     -623   -1    0    0    0    0  0.00000000000E+00  0.00000000000E+00  0.12525980253E-10  0.17130000000E+03  0.17130000000E+03 0.  1.
       11    1    1    2    0    0  0.58656210444E-03 -0.54898887756E-04  0.84262646544E-01  0.84266255967E-01  0.51109989000E-03 0. -1.
     -623    1    1    2    0    0 -0.36795784199E-04  0.39345416520E-04  0.47646256949E-05  0.17130000000E+03  0.17130000000E+03 0.  1.
      622    1    1    2    0    0 -0.54976631993E-03  0.15553470905E-04  0.39157325898E+01  0.39157337776E+01  0.30000000000E-02 0. -1.
</event>
<event>
 5   0  0.3294100E+10  0.9118800E+02  0.7818608E-02  0.1180000E+00
       11   -1    0    0    0    0  0.00000000000E+00  0.00000000000E+00  0.39999999673E+01  0.40000000000E+01  0.51109989000E-03 0.  1.
     -623   -1    0    0    0    0  0.00000000000E+00  0.00000000000E+00  0.12525980253E-10  0.17130000000E+03  0.17130000000E+03 0. -1.
       11    1    1    2    0    0 -0.38209306929E-03 -0.54168177965E-03  0.31493766825E+00  0.31493878060E+00  0.51109989000E-03 0.  1.
     -623    1    1    2    0    0  0.25818337163E-04  0.89308944670E-04  0.23458617791E-05  0.17130000000E+03  0.17130000000E+03 0. -1.
      622    1    1    2    0    0  0.35627473285E-03  0.45237283747E-03  0.36850598420E+01  0.36850611081E+01  0.30000000000E-02 0.  1.
</event>
<event>
 5   0  0.3294100E+10  0.9118800E+02  0.7818608E-02  0.1180000E+00
       11   -1    0    0    0    0  0.00000000000E+00  0.00000000000E+00  0.39999999673E+01  0.40000000000E+01  0.51109989000E-03 0.  1.
     -623   -1    0    0    0    0  0.00000000000E+00  0.00000000000E+00  0.12525980253E-10  0.17130000000E+03  0.17130000000E+03 0. -1.
       11    1    1    2    0    0 -0.11776504876E-02 -0.12518402593E-02  0.54396550610E+00  0.54396846142E+00  0.51109989000E-03 0.  1.
     -623    1    1    2    0    0  0.88354060585E-03 -0.25524547920E-04  0.44756016804E-05  0.17130000000E+03  0.17130000000E+03 0. -1.
      622    1    1    2    0    0  0.29410986843E-03  0.12773648076E-02  0.34560300458E+01  0.34560315964E+01  0.30000000000E-02 0.  1.
</event>
<event>
 5   0  0.3294100E+10  0.9118800E+02  0.7818608E-02  0.1180000E+00
       11   -1    0    0    0    0  0.00000000000E+00  0.00000000000E+00  0.39999999673E+01  0.40000000000E+01  0.51109989000E-03 0. -1.
     -623   -1    0    0    0    0  0.00000000000E+00  0.00000000000E+00  0.12525980253E-10  0.17130000000E+03  0.17130000000E+03 0.  1.
       11    1    1    2    0    0  0.12652814918E-02  0.61422474547E-03  0.96164076568E+00  0.96164193006E+00  0.51109989000E-03 0. -1.
     -623    1    1    2    0    0 -0.12149746274E-03  0.39589135936E-04  0.28984842286E-05  0.17130000000E+03  0.17130000000E+03 0.  1.
      622    1    1    2    0    0 -0.11437840290E-02 -0.65381388141E-03  0.30383563032E+01  0.30383580699E+01  0.30000000000E-02 0.  0.
</event>
<event>
 5   0  0.3294100E+10  0.9118800E+02  0.7818608E-02  0.1180000E+00
       11   -1    0    0    0    0  0.00000000000E+00  0.00000000000E+00  0.39999999673E+01  0.40000000000E+01  0.51109989000E-03 0. -1.
     -623   -1    0    0    0    0  0.00000000000E+00  0.00000000000E+00  0.12525980253E-10  0.17130000000E+03  0.17130000000E+03 0.  1.
       11    1    1    2    0    0  0.19169347101E-03 -0.25222737076E-03  0.35211702768E+00  0.35211754112E+00  0.51109989000E-03 0. -1.
     -623    1    1    2    0    0  0.84462433957E-05  0.40388902881E-04  0.17260468321E-05  0.17130000000E+03  0.17130000000E+03 0.  1.
      622    1    1    2    0    0 -0.20013971507E-03  0.21183846470E-03  0.36478815277E+01  0.36478827730E+01  0.30000000000E-02 0. -1.
</event>
<event>
 5   0  0.3294100E+10  0.9118800E+02  0.7818608E-02  0.1180000E+00
       11   -1    0    0    0    0  0.00000000000E+00  0.00000000000E+00  0.39999999673E+01  0.40000000000E+01  0.51109989000E-03 0.  1.
     -623   -1    0    0    0    0  0.00000000000E+00  0.00000000000E+00  0.12525980253E-10  0.17130000000E+03  0.17130000000E+03 0. -1.
       11    1    1    2    0    0 -0.91452214559E-03 -0.64336691619E-03  0.80179537355E+00  0.80179631612E+00  0.51109989000E-03 0.  1.
     -623    1    1    2    0    0  0.67929356076E-04 -0.57751213601E-04  0.25058923190E-05  0.17130000000E+03  0.17130000000E+03 0. -1.
      622    1    1    2    0    0  0.84659278737E-03  0.70111813161E-03  0.31982022141E+01  0.31982038100E+01  0.30000000000E-02 0.  1.
</event>
<event>
 5   0  0.3294100E+10  0.9118800E+02  0.7818608E-02  0.1180000E+00
       11   -1    0    0    0    0  0.00000000000E+00  0.00000000000E+00  0.39999999673E+01  0.40000000000E+01  0.51109989000E-03 0. -1.
     -623   -1    0    0    0    0  0.00000000000E+00  0.00000000000E+00  0.12525980253E-10  0.17130000000E+03  0.17130000000E+03 0. -1.
       11    1    1    2    0    0 -0.17731395820E-02 -0.44085653906E-02  0.95136870019E+00  0.95138070423E+00  0.51109989000E-03 0. -1.
     -623    1    1    2    0    0  0.20725040752E-02  0.23661603369E-02  0.14175212482E-04  0.17130000003E+03  0.17130000000E+03 0. -1.
      622    1    1    2    0    0 -0.29936449312E-03  0.20424050537E-02  0.30486170920E+01  0.30486192669E+01  0.30000000000E-02 0. -1.
</event>
<event>
 5   0  0.3294100E+10  0.9118800E+02  0.7818608E-02  0.1180000E+00
       11   -1    0    0    0    0  0.00000000000E+00  0.00000000000E+00  0.39999999673E+01  0.40000000000E+01  0.51109989000E-03 0. -1.
     -623   -1    0    0    0    0  0.00000000000E+00  0.00000000000E+00  0.12525980253E-10  0.17130000000E+03  0.17130000000E+03 0. -1.
       11    1    1    2    0    0 -0.40996102963E-03 -0.13361995936E-02  0.73543872900E-01  0.73558928491E-01  0.51109989000E-03 0. -1.
     -623    1    1    2    0    0 -0.73236253201E-03  0.15184344843E-02  0.16347720604E-04  0.17130000001E+03  0.17130000000E+03 0. -1.
      622    1    1    2    0    0  0.11423235616E-02 -0.18223489073E-03  0.39264397467E+01  0.39264410632E+01  0.30000000000E-02 0. -1.
</event>
<event>
 5   0  0.3294100E+10  0.9118800E+02  0.7818608E-02  0.1180000E+00
       11   -1    0    0    0    0  0.00000000000E+00  0.00000000000E+00  0.39999999673E+01  0.40000000000E+01  0.51109989000E-03 0. -1.
     -623   -1    0    0    0    0  0.00000000000E+00  0.00000000000E+00  0.12525980253E-10  0.17130000000E+03  0.17130000000E+03 0. -1.
       11    1    1    2    0    0  0.94697774443E-04 -0.19774107382E-02  0.15574145714E-01  0.15707780196E-01  0.51109989000E-03 0. -1.
     -623    1    1    2    0    0 -0.46668138400E-03 -0.52714853681E-03  0.13553733695E-03  0.17130000000E+03  0.17130000000E+03 0. -1.
      622    1    1    2    0    0  0.37198360976E-03  0.25045592752E-02  0.39842902860E+01  0.39842922200E+01  0.30000000000E-02 0. -1.
</event>
<event>
 5   0  0.3294100E+10  0.9118800E+02  0.7818608E-02  0.1180000E+00
       11   -1    0    0    0    0  0.00000000000E+00  0.00000000000E+00  0.39999999673E+01  0.40000000000E+01  0.51109989000E-03 0. -1.
     -623   -1    0    0    0    0  0.00000000000E+00  0.00000000000E+00  0.12525980253E-10  0.17130000000E+03  0.17130000000E+03 0. -1.
       11    1    1    2    0    0 -0.94152239869E-03 -0.12688958789E-02  0.67809303056E+00  0.67809506404E+00  0.51109989000E-03 0. -1.
     -623    1    1    2    0    0  0.37073300554E-03  0.19174842122E-03  0.35796682258E-05  0.17130000000E+03  0.17130000000E+03 0. -1.
      622    1    1    2    0    0  0.57078939315E-03  0.10771474577E-02  0.33219033571E+01  0.33219049355E+01  0.30000000000E-02 0. -1.
</event>
<event>
 5   0  0.3294100E+10  0.9118800E+02  0.7818608E-02  0.1180000E+00
       11   -1    0    0    0    0  0.00000000000E+00  0.00000000000E+00  0.39999999673E+01  0.40000000000E+01  0.51109989000E-03 0.  1.
     -623   -1    0    0    0    0  0.00000000000E+00  0.00000000000E+00  0.12525980253E-10  0.17130000000E+03  0.17130000000E+03 0.  1.
       11    1    1    2    0    0 -0.72221786048E-03  0.92895362682E-03  0.29225065040E+00  0.29225346608E+00  0.51109989000E-03 0.  1.
     -623    1    1    2    0    0 -0.17169995435E-03 -0.80769063130E-03  0.41084479148E-05  0.17130000000E+03  0.17130000000E+03 0.  1.
      622    1    1    2    0    0  0.89391781713E-03 -0.12126298471E-03  0.37077452620E+01  0.37077465855E+01  0.30000000000E-02 0. -1.
</event>
<event>
 5   0  0.3294100E+10  0.9118800E+02  0.7818608E-02  0.1180000E+00
       11   -1    0    0    0    0  0.00000000000E+00  0.00000000000E+00  0.39999999673E+01  0.40000000000E+01  0.51109989000E-03 0.  1.
     -623   -1    0    0    0    0  0.00000000000E+00  0.00000000000E+00  0.12525980253E-10  0.17130000000E+03  0.17130000000E+03 0.  1.
       11    1    1    2    0    0  0.21432461602E-02  0.18715942738E-02  0.62946416047E-01  0.63012767626E-01  0.51109989000E-03 0.  1.
     -623    1    1    2    0    0  0.68745897779E-03 -0.33169638613E-03  0.68782457254E-04  0.17130000000E+03  0.17130000000E+03 0.  1.
      622    1    1    2    0    0 -0.28307051380E-02 -0.15398978877E-02  0.39369847689E+01  0.39369872307E+01  0.30000000000E-02 0.  1.
</event>
<event>
 5   0  0.3294100E+10  0.9118800E+02  0.7818608E-02  0.1180000E+00
       11   -1    0    0    0    0  0.00000000000E+00  0.00000000000E+00  0.39999999673E+01  0.40000000000E+01  0.51109989000E-03 0.  1.
     -623   -1    0    0    0    0  0.00000000000E+00  0.00000000000E+00  0.12525980253E-10  0.17130000000E+03  0.17130000000E+03 0. -1.
       11    1    1    2    0    0 -0.12994985031E-03  0.14538215887E-03  0.73560915659E+00  0.73560935999E+00  0.51109989000E-03 0.  1.
     -623    1    1    2    0    0  0.19672454650E-03  0.11504665948E-03  0.15604944714E-05  0.17130000000E+03  0.17130000000E+03 0. -1.
      622    1    1    2    0    0 -0.66774709102E-04 -0.26042882590E-03  0.32643895128E+01  0.32643909024E+01  0.30000000000E-02 0.  1.
</event>
<event>
 5   0  0.3294100E+10  0.9118800E+02  0.7818608E-02  0.1180000E+00
       11   -1    0    0    0    0  0.00000000000E+00  0.00000000000E+00  0.39999999673E+01  0.40000000000E+01  0.51109989000E-03 0.  1.
     -623   -1    0    0    0    0  0.00000000000E+00  0.00000000000E+00  0.12525980253E-10  0.17130000000E+03  0.17130000000E+03 0. -1.
       11    1    1    2    0    0 -0.30810357188E-04  0.27913667530E-02  0.14157720663E+00  0.14160564726E+00  0.51109989000E-03 0.  1.
     -623    1    1    2    0    0  0.16945050762E-03 -0.40716031711E-03  0.30313971553E-04  0.17130000000E+03  0.17130000000E+03 0. -1.
      622    1    1    2    0    0 -0.13864015043E-03 -0.23842064359E-02  0.38583924468E+01  0.38583943522E+01  0.30000000000E-02 0.  1.
</event>
<event>
 5   0  0.3294100E+10  0.9118800E+02  0.7818608E-02  0.1180000E+00
       11   -1    0    0    0    0  0.00000000000E+00  0.00000000000E+00  0.39999999673E+01  0.40000000000E+01  0.51109989000E-03 0.  1.
     -623   -1    0    0    0    0  0.00000000000E+00  0.00000000000E+00  0.12525980253E-10  0.17130000000E+03  0.17130000000E+03 0. -1.
       11    1    1    2    0    0  0.25113398675E-02  0.87605578821E-03  0.24400597371E+00  0.24402100469E+00  0.51109989000E-03 0.  1.
     -623    1    1    2    0    0 -0.13864065611E-02 -0.11716038229E-02  0.16386136249E-04  0.17130000001E+03  0.17130000000E+03 0. -1.
      622    1    1    2    0    0 -0.11249333064E-02  0.29554803473E-03  0.37559776075E+01  0.37559789857E+01  0.30000000000E-02 0.  1.
</event>
<event>
 5   0  0.3294100E+10  0.9118800E+02  0.7818608E-02  0.1180000E+00
       11   -1    0    0    0    0  0.00000000000E+00  0.00000000000E+00  0.39999999673E+01  0.40000000000E+01  0.51109989000E-03 0.  1.
     -623   -1    0    0    0    0  0.00000000000E+00  0.00000000000E+00  0.12525980253E-10  0.17130000000E+03  0.17130000000E+03 0. -1.
       11    1    1    2    0    0  0.47325021448E-03 -0.54784007396E-03  0.48490481914E+00  0.48490562891E+00  0.51109989000E-03 0.  1.
     -623    1    1    2    0    0 -0.26019259541E-04 -0.69468028676E-04  0.21399890198E-05  0.17130000000E+03  0.17130000000E+03 0. -1.
      622    1    1    2    0    0 -0.44723095423E-03  0.61730810454E-03  0.35150931181E+01  0.35150944810E+01  0.30000000000E-02 0.  1.
</event>
<event>
 5   0  0.3294100E+10  0.9118800E+02  0.7818608E-02  0.1180000E+00
       11   -1    0    0    0    0  0.00000000000E+00  0.00000000000E+00  0.39999999673E+01  0.40000000000E+01  0.51109989000E-03 0.  1.
     -623   -1    0    0    0    0  0.00000000000E+00  0.00000000000E+00  0.12525980253E-10  0.17130000000E+03  0.17130000000E+03 0.  1.
       11    1    1    2    0    0 -0.13625721194E-02  0.21575211064E-02  0.73035582670E+00  0.73036046327E+00  0.51109989000E-03 0.  1.
     -623    1    1    2    0    0  0.13402438979E-02 -0.38580892786E-02  0.64712399799E-05  0.17130000005E+03  0.17130000000E+03 0.  1.
      622    1    1    2    0    0  0.22328221460E-04  0.17005681722E-02  0.32696376694E+01  0.32696394880E+01  0.30000000000E-02 0.  1.
</event>
<event>
 5   0  0.3294100E+10  0.9118800E+02  0.7818608E-02  0.1180000E+00
       11   -1    0    0    0    0  0.00000000000E+00  0.00000000000E+00  0.39999999673E+01  0.40000000000E+01  0.51109989000E-03 0. -1.
     -623   -1    0    0    0    0  0.00000000000E+00  0.00000000000E+00  0.12525980253E-10  0.17130000000E+03  0.17130000000E+03 0. -1.
       11    1    1    2    0    0 -0.20946915641E-03 -0.14638194984E-03  0.43075480125E+00  0.43075518026E+00  0.51109989000E-03 0. -1.
     -623    1    1    2    0    0 -0.10406660676E-03  0.74970256668E-03  0.16735804582E-05  0.17130000000E+03  0.17130000000E+03 0. -1.
      622    1    1    2    0    0  0.31353576317E-03 -0.60332061683E-03  0.35692434925E+01  0.35692448181E+01  0.30000000000E-02 0. -1.
</event>
<event>
 5   0  0.3294100E+10  0.9118800E+02  0.7818608E-02  0.1180000E+00
       11   -1    0    0    0    0  0.00000000000E+00  0.00000000000E+00  0.39999999673E+01  0.40000000000E+01  0.51109989000E-03 0. -1.
     -623   -1    0    0    0    0  0.00000000000E+00  0.00000000000E+00  0.12525980253E-10  0.17130000000E+03  0.17130000000E+03 0. -1.
       11    1    1    2    0    0 -0.11913225251E-02 -0.32844500736E-02  0.13972115200E+00  0.13976576262E+00  0.51109989000E-03 0. -1.
     -623    1    1    2    0    0  0.19932016630E-02  0.32797358494E-02  0.45870000624E-04  0.17130000004E+03  0.17130000000E+03 0. -1.
      622    1    1    2    0    0 -0.80187913795E-03  0.47142242145E-05  0.38602329454E+01  0.38602341944E+01  0.30000000000E-02 0. -1.
</event>
<event>
 5   0  0.3294100E+10  0.9118800E+02  0.7818608E-02  0.1180000E+00
       11   -1    0    0    0    0  0.00000000000E+00  0.00000000000E+00  0.39999999673E+01  0.40000000000E+01  0.51109989000E-03 0. -1.
     -623   -1    0    0    0    0  0.00000000000E+00  0.00000000000E+00  0.12525980253E-10  0.17130000000E+03  0.17130000000E+03 0. -1.
       11    1    1    2    0    0 -0.61902581399E-03  0.56495206490E-03  0.64500073610E+00  0.64500148306E+00  0.51109989000E-03 0. -1.
     -623    1    1    2    0    0  0.11363733260E-03 -0.18757429488E-02  0.23600402947E-05  0.17130000001E+03  0.17130000000E+03 0. -1.
      622    1    1    2    0    0  0.50538848139E-03  0.13107908839E-02  0.33549968712E+01  0.33549985066E+01  0.30000000000E-02 0. -1.
</event>
<event>
 5   0  0.3294100E+10  0.9118800E+02  0.7818608E-02  0.1180000E+00
       11   -1    0    0    0    0  0.00000000000E+00  0.00000000000E+00  0.39999999673E+01  0.40000000000E+01  0.51109989000E-03 0. -1.
     -623   -1    0    0    0    0  0.00000000000E+00  0.00000000000E+00  0.12525980253E-10  0.17130000000E+03  0.17130000000E+03 0. -1.
       11    1    1    2    0    0  0.11209985925E-02 -0.57946360785E-04  0.89892257761E-01  0.89900718708E-01  0.51109989000E-03 0. -1.
     -623    1    1    2    0    0 -0.68556437351E-04 -0.10835497869E-03  0.97243947472E-05  0.17130000000E+03  0.17130000000E+03 0. -1.
      622    1    1    2    0    0 -0.10524421552E-02  0.16630133944E-03  0.39100979839E+01  0.39100992799E+01  0.30000000000E-02 0. -1.
</event>
<event>
 5   0  0.3294100E+10  0.9118800E+02  0.7818608E-02  0.1180000E+00
       11   -1    0    0    0    0  0.00000000000E+00  0.00000000000E+00  0.39999999673E+01  0.40000000000E+01  0.51109989000E-03 0. -1.
     -623   -1    0    0    0    0  0.00000000000E+00  0.00000000000E+00  0.12525980253E-10  0.17130000000E+03  0.17130000000E+03 0.  1.
       11    1    1    2    0    0  0.99936308559E-04 -0.61641326051E-03  0.85169180266E+00  0.85169218494E+00  0.51109989000E-03 0. -1.
     -623    1    1    2    0    0 -0.45891759631E-04 -0.15028305198E-04  0.18427763631E-05  0.17130000000E+03  0.17130000000E+03 0.  1.
      622    1    1    2    0    0 -0.54044548397E-04  0.63144156588E-03  0.31483063683E+01  0.31483078614E+01  0.30000000000E-02 0. -1.
</event>
<event>
 5   0  0.3294100E+10  0.9118800E+02  0.7818608E-02  0.1180000E+00
       11   -1    0    0    0    0  0.00000000000E+00  0.00000000000E+00  0.39999999673E+01  0.40000000000E+01  0.51109989000E-03 0. -1.
     -623   -1    0    0    0    0  0.00000000000E+00  0.00000000000E+00  0.12525980253E-10  0.17130000000E+03  0.17130000000E+03 0.  1.
       11    1    1    2    0    0 -0.42261228585E-03  0.60562824627E-03  0.11944893242E+01  0.11944896618E+01  0.51109989000E-03 0. -1.
     -623    1    1    2    0    0 -0.99084538927E-06 -0.21274686832E-03  0.19686057779E-05  0.17130000000E+03  0.17130000000E+03 0.  1.
      622    1    1    2    0    0  0.42360313127E-03 -0.39288137289E-03  0.28055087696E+01  0.28055104330E+01  0.30000000000E-02 0. -1.
</event>
<event>
 5   0  0.3294100E+10  0.9118800E+02  0.7818608E-02  0.1180000E+00
       11   -1    0    0    0    0  0.00000000000E+00  0.00000000000E+00  0.39999999673E+01  0.40000000000E+01  0.51109989000E-03 0. -1.
     -623   -1    0    0    0    0  0.00000000000E+00  0.00000000000E+00  0.12525980253E-10  0.17130000000E+03  0.17130000000E+03 0.  1.
       11    1    1    2    0    0  0.29097080420E-03  0.15334631452E-02  0.48584109749E+00  0.48584387349E+00  0.51109989000E-03 0. -1.
     -623    1    1    2    0    0 -0.43771501232E-03 -0.17991204112E-02  0.40470062568E-05  0.17130000001E+03  0.17130000000E+03 0.  1.
      622    1    1    2    0    0  0.14674421430E-03  0.26565729136E-03  0.35141548794E+01  0.35141561730E+01  0.30000000000E-02 0. -1.
</event>
<event>
 5   0  0.3294100E+10  0.9118800E+02  0.7818608E-02  0.1180000E+00
       11   -1    0    0    0    0  0.00000000000E+00  0.00000000000E+00  0.39999999673E+01  0.40000000000E+01  0.51109989000E-03 0. -1.
     -623   -1    0    0    0    0  0.00000000000E+00  0.00000000000E+00  0.12525980253E-10  0.17130000000E+03  0.17130000000E+03 0. -1.
       11    1    1    2    0    0 -0.57290525814E-03 -0.29959404937E-03  0.20304595441E+00  0.20304762693E+00  0.51109989000E-03 0. -1.
     -623    1    1    2    0    0  0.20688801721E-03 -0.34105973557E-03  0.28971943169E-05  0.17130000000E+03  0.17130000000E+03 0. -1.
      622    1    1    2    0    0  0.36601724093E-03  0.64065378493E-03  0.37969511158E+01  0.37969523726E+01  0.30000000000E-02 0. -1.
</event>
<event>
 5   0  0.3294100E+10  0.9118800E+02  0.7818608E-02  0.1180000E+00
       11   -1    0    0    0    0  0.00000000000E+00  0.00000000000E+00  0.39999999673E+01  0.40000000000E+01  0.51109989000E-03 0.  1.
     -623   -1    0    0    0    0  0.00000000000E+00  0.00000000000E+00  0.12525980253E-10  0.17130000000E+03  0.17130000000E+03 0. -1.
       11    1    1    2    0    0  0.30682623470E-04  0.43495492781E-04  0.61666048587E+00  0.61666069997E+00  0.51109989000E-03 0.  1.
     -623    1    1    2    0    0 -0.11213303828E-03 -0.29532064575E-03  0.15221520386E-05  0.17130000000E+03  0.17130000000E+03 0. -1.
      622    1    1    2    0    0  0.81450414810E-04  0.25182515296E-03  0.33833379593E+01  0.33833392997E+01  0.30000000000E-02 0.  1.
</event>
<event>
 5   0  0.3294100E+10  0.9118800E+02  0.7818608E-02  0.1180000E+00
       11   -1    0    0    0    0  0.00000000000E+00  0.00000000000E+00  0.39999999673E+01  0.40000000000E+01  0.51109989000E-03 0.  1.
     -623   -1    0    0    0    0  0.00000000000E+00  0.00000000000E+00  0.12525980253E-10  0.17130000000E+03  0.17130000000E+03 0.  1.
       11    1    1    2    0    0  0.57857267241E-02  0.24269071698E-02  0.95276358725E+00  0.95278438218E+00  0.51109989000E-03 0.  1.
     -623    1    1    2    0    0  0.29805500578E-04  0.23808859308E-03  0.28953984555E-04  0.17130000000E+03  0.17130000000E+03 0.  1.
      622    1    1    2    0    0 -0.58155322246E-02 -0.26649957622E-02  0.30472074150E+01  0.30472156066E+01  0.30000000000E-02 0.  1.
</event>
<event>
 5   0  0.3294100E+10  0.9118800E+02  0.7818608E-02  0.1180000E+00
       11   -1    0    0    0    0  0.00000000000E+00  0.00000000000E+00  0.39999999673E+01  0.40000000000E+01  0.51109989000E-03 0.  1.
     -623   -1    0    0    0    0  0.00000000000E+00  0.00000000000E+00  0.12525980253E-10  0.17130000000E+03  0.17130000000E+03 0.  1.
       11    1    1    2    0    0 -0.28718233137E-03 -0.64386222822E-03  0.76368463105E+00  0.76368512750E+00  0.51109989000E-03 0.  1.
     -623    1    1    2    0    0 -0.13301561175E-03 -0.76672964366E-04  0.19618335521E-05  0.17130000000E+03  0.17130000000E+03 0.  1.
      622    1    1    2    0    0  0.42019794979E-03  0.72053519643E-03  0.32363135749E+01  0.32363150728E+01  0.30000000000E-02 0.  1.
</event>
<event>
 5   0  0.3294100E+10  0.9118800E+02  0.7818608E-02  0.1180000E+00
       11   -1    0    0    0    0  0.00000000000E+00  0.00000000000E+00  0.39999999673E+01  0.40000000000E+01  0.51109989000E-03 0. -1.
     -623   -1    0    0    0    0  0.00000000000E+00  0.00000000000E+00  0.12525980253E-10  0.17130000000E+03  0.17130000000E+03 0. -1.
       11    1    1    2    0    0  0.11638065511E-02 -0.16765520482E-03  0.63437650531E-01  0.63450605056E-01  0.51109989000E-03 0. -1.
     -623    1    1    2    0    0 -0.16005392770E-03 -0.28409158332E-04  0.14197948230E-04  0.17130000000E+03  0.17130000000E+03 0. -1.
      622    1    1    2    0    0 -0.10037526238E-02  0.19606436309E-03  0.39365481102E+01  0.39365493862E+01  0.30000000000E-02 0. -1.
</event>
<event>
 5   0  0.3294100E+10  0.9118800E+02  0.7818608E-02  0.1180000E+00
       11   -1    0    0    0    0  0.00000000000E+00  0.00000000000E+00  0.39999999673E+01  0.40000000000E+01  0.51109989000E-03 0.  1.
     -623   -1    0    0    0    0  0.00000000000E+00  0.00000000000E+00  0.12525980253E-10  0.17130000000E+03  0.17130000000E+03 0. -1.
       11    1    1    2    0    0  0.10646029059E-01  0.31782426733E-02  0.60939327957E+00  0.60949476582E+00  0.51109989000E-03 0.  1.
     -623    1    1    2    0    0 -0.25517082811E-01 -0.65925748284E-02  0.13914054357E-03  0.17130000203E+03  0.17130000000E+03 0. -1.
      622    1    1    2    0    0  0.14871053769E-01  0.34143321595E-02  0.33904675499E+01  0.33905032094E+01  0.30000000000E-02 0.  1.
</event>
<event>
 5   0  0.3294100E+10  0.9118800E+02  0.7818608E-02  0.1180000E+00
       11   -1    0    0    0    0  0.00000000000E+00  0.00000000000E+00  0.39999999673E+01  0.40000000000E+01  0.51109989000E-03 0. -1.
     -623   -1    0    0    0    0  0.00000000000E+00  0.00000000000E+00  0.12525980253E-10  0.17130000000E+03  0.17130000000E+03 0. -1.
       11    1    1    2    0    0  0.25321231883E-02  0.15701178348E-02  0.40831481888E+00  0.40832600879E+00  0.51109989000E-03 0. -1.
     -623    1    1    2    0    0 -0.31804442793E-02 -0.13630395239E-02  0.12509603133E-04  0.17130000003E+03  0.17130000000E+03 0. -1.
      622    1    1    2    0    0  0.64832108957E-03 -0.20707831148E-03  0.35916726371E+01  0.35916739545E+01  0.30000000000E-02 0. -1.
</event>
<event>
 5   0  0.3294100E+10  0.9118800E+02  0.7818608E-02  0.1180000E+00
       11   -1    0    0    0    0  0.00000000000E+00  0.00000000000E+00  0.39999999673E+01  0.40000000000E+01  0.51109989000E-03 0.  1.
     -623   -1    0    0    0    0  0.00000000000E+00  0.00000000000E+00  0.12525980253E-10  0.17130000000E+03  0.17130000000E+03 0. -1.
       11    1    1    2    0    0 -0.67714530616E-03  0.12376794931E-02  0.69459947790E+00  0.69460109869E+00  0.51109989000E-03 0.  1.
     -623    1    1    2    0    0  0.27814027577E-04  0.28181160699E-03  0.33628254177E-05  0.17130000000E+03  0.17130000000E+03 0. -1.
      622    1    1    2    0    0  0.64933127889E-03 -0.15194910970E-02  0.33053970833E+01  0.33053988577E+01  0.30000000000E-02 0.  0.
</event>
<event>
 5   0  0.3294100E+10  0.9118800E+02  0.7818608E-02  0.1180000E+00
       11   -1    0    0    0    0  0.00000000000E+00  0.00000000000E+00  0.39999999673E+01  0.40000000000E+01  0.51109989000E-03 0.  1.
     -623   -1    0    0    0    0  0.00000000000E+00  0.00000000000E+00  0.12525980253E-10  0.17130000000E+03  0.17130000000E+03 0.  1.
       11    1    1    2    0    0  0.16262096976E-02  0.22278330497E-03  0.57328915699E+00  0.57329173458E+00  0.51109989000E-03 0.  1.
     -623    1    1    2    0    0 -0.29256330621E-03  0.69930173668E-03  0.42434223606E-05  0.17130000000E+03  0.17130000000E+03 0.  1.
      622    1    1    2    0    0 -0.13336463888E-02 -0.92208504787E-03  0.34267066026E+01  0.34267082994E+01  0.30000000000E-02 0.  1.
</event>
<event>
 5   0  0.3294100E+10  0.9118800E+02  0.7818608E-02  0.1180000E+00
       11   -1    0    0    0    0  0.00000000000E+00  0.00000000000E+00  0.39999999673E+01  0.40000000000E+01  0.51109989000E-03 0. -1.
     -623   -1    0    0    0    0  0.00000000000E+00  0.00000000000E+00  0.12525980253E-10  0.17130000000E+03  0.17130000000E+03 0. -1.
       11    1    1    2    0    0  0.82364236798E-03  0.10093192928E-02  0.36890578205E+00  0.36890843629E+00  0.51109989000E-03 0. -1.
     -623    1    1    2    0    0  0.97911134243E-05 -0.77861094753E-03  0.39656426760E-05  0.17130000000E+03  0.17130000000E+03 0. -1.
      622    1    1    2    0    0 -0.83343348150E-03 -0.23070833806E-03  0.36310902567E+01  0.36310915990E+01  0.30000000000E-02 0. -1.
</event>
<event>
 5   0  0.3294100E+10  0.9118800E+02  0.7818608E-02  0.1180000E+00
       11   -1    0    0    0    0  0.00000000000E+00  0.00000000000E+00  0.39999999673E+01  0.40000000000E+01  0.51109989000E-03 0. -1.
     -623   -1    0    0    0    0  0.00000000000E+00  0.00000000000E+00  0.12525980253E-10  0.17130000000E+03  0.17130000000E+03 0. -1.
       11    1    1    2    0    0  0.15351513076E-03 -0.19403809472E-02  0.26205897884E+00  0.26206670574E+00  0.51109989000E-03 0. -1.
     -623    1    1    2    0    0 -0.34785183027E-04 -0.63710536514E-04  0.94372826926E-05  0.17130000000E+03  0.17130000000E+03 0. -1.
      622    1    1    2    0    0 -0.11872994773E-03  0.20040914837E-02  0.37379315512E+01  0.37379332942E+01  0.30000000000E-02 0. -1.
</event>
<event>
 5   0  0.3294100E+10  0.9118800E+02  0.7818608E-02  0.1180000E+00
       11   -1    0    0    0    0  0.00000000000E+00  0.00000000000E+00  0.39999999673E+01  0.40000000000E+01  0.51109989000E-03 0.  1.
     -623   -1    0    0    0    0  0.00000000000E+00  0.00000000000E+00  0.12525980253E-10  0.17130000000E+03  0.17130000000E+03 0. -1.
       11    1    1    2    0    0 -0.21873327182E-02 -0.25255282980E-03  0.44735208170E+00  0.44735779241E+00  0.51109989000E-03 0.  1.
     -623    1    1    2    0    0  0.13147028145E-02 -0.84131730763E-03  0.72274208009E-05  0.17130000001E+03  0.17130000000E+03 0. -1.
      622    1    1    2    0    0  0.87262990045E-03  0.10938701395E-02  0.35526406682E+01  0.35526422104E+01  0.30000000000E-02 0.  1.
</event>
<event>
 5   0  0.3294100E+10  0.9118800E+02  0.7818608E-02  0.1180000E+00
       11   -1    0    0    0    0  0.00000000000E+00  0.00000000000E+00  0.39999999673E+01  0.40000000000E+01  0.51109989000E-03 0.  1.
     -623   -1    0    0    0    0  0.00000000000E+00  0.00000000000E+00  0.12525980253E-10  0.17130000000E+03  0.17130000000E+03 0. -1.
       11    1    1    2    0    0 -0.31947326373E-03  0.27988133716E-03  0.24313606704E+00  0.24313697522E+00  0.51109989000E-03 0.  1.
     -623    1    1    2    0    0  0.27988884072E-03 -0.11672595588E-02  0.21825547258E-05  0.17130000000E+03  0.17130000000E+03 0. -1.
      622    1    1    2    0    0  0.39584411647E-04  0.88737826901E-03  0.37568618801E+01  0.37568631829E+01  0.30000000000E-02 0. -1.
</event>
<event>
 5   0  0.3294100E+10  0.9118800E+02  0.7818608E-02  0.1180000E+00
       11   -1    0    0    0    0  0.00000000000E+00  0.00000000000E+00  0.39999999673E+01  0.40000000000E+01  0.51109989000E-03 0.  1.
     -623   -1    0    0    0    0  0.00000000000E+00  0.00000000000E+00  0.12525980253E-10  0.17130000000E+03  0.17130000000E+03 0. -1.
       11    1    1    2    0    0 -0.28256375517E-03  0.38556593702E-03  0.73364276091E-01  0.73367613651E-01  0.51109989000E-03 0.  1.
     -623    1    1    2    0    0  0.30785332183E-03 -0.32277704652E-03  0.44521042217E-05  0.17130000000E+03  0.17130000000E+03 0. -1.
      622    1    1    2    0    0 -0.25289573134E-04 -0.62788883715E-04  0.39266313232E+01  0.39266324699E+01  0.30000000000E-02 0.  1.
</event>
<event>
 5   0  0.3294100E+10  0.9118800E+02  0.7818608E-02  0.1180000E+00
       11   -1    0    0    0    0  0.00000000000E+00  0.00000000000E+00  0.39999999673E+01  0.40000000000E+01  0.51109989000E-03 0. -1.
     -623   -1    0    0    0    0  0.00000000000E+00  0.00000000000E+00  0.12525980253E-10  0.17130000000E+03  0.17130000000E+03 0.  1.
       11    1    1    2    0    0  0.58976952275E-03  0.22946409289E-02  0.62132650956E-01  0.62179906258E-01  0.51109989000E-03 0. -1.
     -623    1    1    2    0    0  0.14893792179E-03 -0.10839720518E-03  0.49041713130E-04  0.17130000000E+03  0.17130000000E+03 0.  1.
      622    1    1    2    0    0 -0.73870744455E-03 -0.21862437238E-02  0.39378182747E+01  0.39378200936E+01  0.30000000000E-02 0. -1.
</event>
<event>
 5   0  0.3294100E+10  0.9118800E+02  0.7818608E-02  0.1180000E+00
       11   -1    0    0    0    0  0.00000000000E+00  0.00000000000E+00  0.39999999673E+01  0.40000000000E+01  0.51109989000E-03 0. -1.
     -623   -1    0    0    0    0  0.00000000000E+00  0.00000000000E+00  0.12525980253E-10  0.17130000000E+03  0.17130000000E+03 0.  1.
       11    1    1    2    0    0  0.21448675526E-03 -0.82950829135E-04  0.32669384870E+00  0.32669432944E+00  0.51109989000E-03 0. -1.
     -623    1    1    2    0    0 -0.74011794080E-04 -0.99364136967E-04  0.16804076299E-05  0.17130000000E+03  0.17130000000E+03 0.  1.
      622    1    1    2    0    0 -0.14047495539E-03  0.18231497388E-03  0.36733047515E+01  0.36733059838E+01  0.30000000000E-02 0. -1.
</event>
<event>
 5   0  0.3294100E+10  0.9118800E+02  0.7818608E-02  0.1180000E+00
       11   -1    0    0    0    0  0.00000000000E+00  0.00000000000E+00  0.39999999673E+01  0.40000000000E+01  0.51109989000E-03 0.  1.
     -623   -1    0    0    0    0  0.00000000000E+00  0.00000000000E+00  0.12525980253E-10  0.17130000000E+03  0.17130000000E+03 0.  1.
       11    1    1    2    0    0 -0.14892031562E-02 -0.73434510446E-06  0.14966037599E-01  0.15048628877E-01  0.51109989000E-03 0.  1.
     -623    1    1    2    0    0  0.11212477338E-03  0.25839318098E-04  0.83925963580E-04  0.17130000000E+03  0.17130000000E+03 0.  1.
      622    1    1    2    0    0  0.13770783829E-02 -0.25104972989E-04  0.39849500030E+01  0.39849513702E+01  0.30000000000E-02 0.  1.
</event>
<event>
 5   0  0.3294100E+10  0.9118800E+02  0.7818608E-02  0.1180000E+00
       11   -1    0    0    0    0  0.00000000000E+00  0.00000000000E+00  0.39999999673E+01  0.40000000000E+01  0.51109989000E-03 0. -1.
     -623   -1    0    0    0    0  0.00000000000E+00  0.00000000000E+00  0.12525980253E-10  0.17130000000E+03  0.17130000000E+03 0. -1.
       11    1    1    2    0    0  0.43022953969E-03  0.17447919877E-03  0.91342682965E-01  0.91345292680E-01  0.51109989000E-03 0. -1.
     -623    1    1    2    0    0 -0.49422545752E-03  0.58904368328E-04  0.37365808616E-05  0.17130000000E+03  0.17130000000E+03 0. -1.
      622    1    1    2    0    0  0.63995923440E-04 -0.23338356777E-03  0.39086535932E+01  0.39086547520E+01  0.30000000000E-02 0. -1.
</event>
<event>
 5   0  0.3294100E+10  0.9118800E+02  0.7818608E-02  0.1180000E+00
       11   -1    0    0    0    0  0.00000000000E+00  0.00000000000E+00  0.39999999673E+01  0.40000000000E+01  0.51109989000E-03 0. -1.
     -623   -1    0    0    0    0  0.00000000000E+00  0.00000000000E+00  0.12525980253E-10  0.17130000000E+03  0.17130000000E+03 0. -1.
       11    1    1    2    0    0 -0.82890647722E-03  0.44657755541E-03  0.10215652225E+00  0.10216213965E+00  0.51109989000E-03 0. -1.
     -623    1    1    2    0    0  0.28315245137E-04  0.52513283550E-04  0.68534275703E-05  0.17130000000E+03  0.17130000000E+03 0. -1.
      622    1    1    2    0    0  0.80059123208E-03 -0.49909083896E-03  0.38978365917E+01  0.38978378603E+01  0.30000000000E-02 0. -1.
</event>
<event>
 5   0  0.3294100E+10  0.9118800E+02  0.7818608E-02  0.1180000E+00
       11   -1    0    0    0    0  0.00000000000E+00  0.00000000000E+00  0.39999999673E+01  0.40000000000E+01  0.51109989000E-03 0. -1.
     -623   -1    0    0    0    0  0.00000000000E+00  0.00000000000E+00  0.12525980253E-10  0.17130000000E+03  0.17130000000E+03 0.  1.
       11    1    1    2    0    0  0.31948248169E-03  0.74036392347E-03  0.12343861857E+00  0.12344231035E+00  0.51109989000E-03 0.  1.
     -623    1    1    2    0    0  0.22970085677E-04  0.10904443179E-04  0.49078921172E-05  0.17130000000E+03  0.17130000000E+03 0.  1.
      622    1    1    2    0    0 -0.34245256746E-03 -0.75126836670E-03  0.38765564580E+01  0.38765577067E+01  0.30000000000E-02 0. -1.
</event>
<event>
 5   0  0.3294100E+10  0.9118800E+02  0.7818608E-02  0.1180000E+00
       11   -1    0    0    0    0  0.00000000000E+00  0.00000000000E+00  0.39999999673E+01  0.40000000000E+01  0.51109989000E-03 0. -1.
     -623   -1    0    0    0    0  0.00000000000E+00  0.00000000000E+00  0.12525980253E-10  0.17130000000E+03  0.17130000000E+03 0.  1.
       11    1    1    2    0    0 -0.29114050480E-02  0.13183134163E-02  0.23055258938E+00  0.23057530641E+00  0.51109989000E-03 0. -1.
     -623    1    1    2    0    0  0.18733628877E-02  0.24599989971E-02  0.25942650223E-04  0.17130000003E+03  0.17130000000E+03 0.  1.
      622    1    1    2    0    0  0.10380421614E-02 -0.37783124118E-02  0.37694214328E+01  0.37694246632E+01  0.30000000000E-02 0. -1.
</event>
<event>
 5   0  0.3294100E+10  0.9118800E+02  0.7818608E-02  0.1180000E+00
       11   -1    0    0    0    0  0.00000000000E+00  0.00000000000E+00  0.39999999673E+01  0.40000000000E+01  0.51109989000E-03 0. -1.
     -623   -1    0    0    0    0  0.00000000000E+00  0.00000000000E+00  0.12525980253E-10  0.17130000000E+03  0.17130000000E+03 0. -1.
       11    1    1    2    0    0  0.87618163856E-02  0.15328112114E-02  0.84130954606E+00  0.84135672128E+00  0.51109989000E-03 0. -1.
     -623    1    1    2    0    0  0.14075639277E-03 -0.16233489240E-03  0.61410598633E-04  0.17130000000E+03  0.17130000000E+03 0. -1.
      622    1    1    2    0    0 -0.89025727784E-02 -0.13704763190E-02  0.31586290110E+01  0.31586432788E+01  0.30000000000E-02 0. -1.
</event>
<event>
 5   0  0.3294100E+10  0.9118800E+02  0.7818608E-02  0.1180000E+00
       11   -1    0    0    0    0  0.00000000000E+00  0.00000000000E+00  0.39999999673E+01  0.40000000000E+01  0.51109989000E-03 0.  1.
     -623   -1    0    0    0    0  0.00000000000E+00  0.00000000000E+00  0.12525980253E-10  0.17130000000E+03  0.17130000000E+03 0.  1.
       11    1    1    2    0    0  0.15706293552E-04 -0.12843389630E-02  0.37699635493E+00  0.37699888942E+00  0.51109989000E-03 0.  1.
     -623    1    1    2    0    0 -0.71932789326E-05  0.53138086268E-04  0.39531353742E-05  0.17130000000E+03  0.17130000000E+03 0.  1.
      622    1    1    2    0    0 -0.85130143005E-05  0.12312008744E-02  0.36229998364E+01  0.36230012876E+01  0.30000000000E-02 0.  0.
</event>
<event>
 5   0  0.3294100E+10  0.9118800E+02  0.7818608E-02  0.1180000E+00
       11   -1    0    0    0    0  0.00000000000E+00  0.00000000000E+00  0.39999999673E+01  0.40000000000E+01  0.51109989000E-03 0. -1.
     -623   -1    0    0    0    0  0.00000000000E+00  0.00000000000E+00  0.12525980253E-10  0.17130000000E+03  0.17130000000E+03 0.  1.
       11    1    1    2    0    0  0.79015966391E-03 -0.34666678079E-03  0.28460950583E-02  0.30176166638E-02  0.51109989000E-03 0. -1.
     -623    1    1    2    0    0 -0.56150530240E-04  0.17614734725E-02  0.17294176379E-03  0.17130000001E+03  0.17130000000E+03 0.  1.
      622    1    1    2    0    0 -0.73400913367E-03 -0.14148066916E-02  0.39969809304E+01  0.39969823741E+01  0.30000000000E-02 0. -1.
</event>
<event>
 5   0  0.3294100E+10  0.9118800E+02  0.7818608E-02  0.1180000E+00
       11   -1    0    0    0    0  0.00000000000E+00  0.00000000000E+00  0.39999999673E+01  0.40000000000E+01  0.51109989000E-03 0. -1.
     -623   -1    0    0    0    0  0.00000000000E+00  0.00000000000E+00  0.12525980253E-10  0.17130000000E+03  0.17130000000E+03 0. -1.
       11    1    1    2    0    0  0.39175863319E-03  0.28666411891E-03  0.20306622298E+00  0.20306744641E+00  0.51109989000E-03 0.  1.
     -623    1    1    2    0    0  0.55681665425E-03  0.53039852999E-03  0.25840805868E-05  0.17130000000E+03  0.17130000000E+03 0. -1.
      622    1    1    2    0    0 -0.94857528179E-03 -0.81706264352E-03  0.37969311198E+01  0.37969325113E+01  0.30000000000E-02 0. -1.
</event>
<event>
 5   0  0.3294100E+10  0.9118800E+02  0.7818608E-02  0.1180000E+00
       11   -1    0    0    0    0  0.00000000000E+00  0.00000000000E+00  0.39999999673E+01  0.40000000000E+01  0.51109989000E-03 0.  1.
     -623   -1    0    0    0    0  0.00000000000E+00  0.00000000000E+00  0.12525980253E-10  0.17130000000E+03  0.17130000000E+03 0.  1.
       11    1    1    2    0    0 -0.24627356969E-02 -0.15609508399E-03  0.14251899089E+00  0.14254126918E+00  0.51109989000E-03 0.  1.
     -623    1    1    2    0    0  0.28094377934E-02 -0.13110261887E-02  0.23734859104E-04  0.17130000003E+03  0.17130000000E+03 0.  1.
      622    1    1    2    0    0 -0.34670209625E-03  0.14671212726E-02  0.38574572414E+01  0.38574587025E+01  0.30000000000E-02 0.  1.
</event>
<event>
 5   0  0.3294100E+10  0.9118800E+02  0.7818608E-02  0.1180000E+00
       11   -1    0    0    0    0  0.00000000000E+00  0.00000000000E+00  0.39999999673E+01  0.40000000000E+01  0.51109989000E-03 0. -1.
     -623   -1    0    0    0    0  0.00000000000E+00  0.00000000000E+00  0.12525980253E-10  0.17130000000E+03  0.17130000000E+03 0. -1.
       11    1    1    2    0    0  0.28500193136E-03 -0.57608800446E-03  0.62266763465E+00  0.62266817613E+00  0.51109989000E-03 0. -1.
     -623    1    1    2    0    0  0.15389369057E-03  0.19850103620E-03  0.18910639747E-05  0.17130000000E+03  0.17130000000E+03 0. -1.
      622    1    1    2    0    0 -0.43889562127E-03  0.37758696911E-03  0.33773304245E+01  0.33773318065E+01  0.30000000000E-02 0. -1.
</event>
<event>
 5   0  0.3294100E+10  0.9118800E+02  0.7818608E-02  0.1180000E+00
       11   -1    0    0    0    0  0.00000000000E+00  0.00000000000E+00  0.39999999673E+01  0.40000000000E+01  0.51109989000E-03 0. -1.
     -623   -1    0    0    0    0  0.00000000000E+00  0.00000000000E+00  0.12525980253E-10  0.17130000000E+03  0.17130000000E+03 0.  1.
       11    1    1    2    0    0  0.27695051751E-03 -0.10920547245E-02  0.71702574828E+00  0.71702681554E+00  0.51109989000E-03 0. -1.
     -623    1    1    2    0    0  0.53661291465E-04 -0.28447104473E-04  0.26132052535E-05  0.17130000000E+03  0.17130000000E+03 0.  1.
      622    1    1    2    0    0 -0.33061181035E-03  0.11205018297E-02  0.32829717086E+01  0.32829732872E+01  0.30000000000E-02 0.  0.
</event>
<event>
 5   0  0.3294100E+10  0.9118800E+02  0.7818608E-02  0.1180000E+00
       11   -1    0    0    0    0  0.00000000000E+00  0.00000000000E+00  0.39999999673E+01  0.40000000000E+01  0.51109989000E-03 0.  1.
     -623   -1    0    0    0    0  0.00000000000E+00  0.00000000000E+00  0.12525980253E-10  0.17130000000E+03  0.17130000000E+03 0.  1.
       11    1    1    2    0    0  0.72726377602E-03 -0.41580103965E-03  0.97183101740E-01  0.97188056314E-01  0.51109989000E-03 0.  1.
     -623    1    1    2    0    0  0.92410312262E-04  0.79568846869E-04  0.61755499674E-05  0.17130000000E+03  0.17130000000E+03 0.  1.
      622    1    1    2    0    0 -0.81967408812E-03  0.33623219292E-03  0.39028106830E+01  0.39028119366E+01  0.30000000000E-02 0.  1.
</event>
<event>
 5   0  0.3294100E+10  0.9118800E+02  0.7818608E-02  0.1180000E+00
       11   -1    0    0    0    0  0.00000000000E+00  0.00000000000E+00  0.39999999673E+01  0.40000000000E+01  0.51109989000E-03 0. -1.
     -623   -1    0    0    0    0  0.00000000000E+00  0.00000000000E+00  0.12525980253E-10  0.17130000000E+03  0.17130000000E+03 0. -1.
       11    1    1    2    0    0  0.55244268074E-03  0.73959332337E-03  0.74160972268E+00  0.74161047335E+00  0.51109989000E-03 0. -1.
     -623    1    1    2    0    0  0.13900876549E-04 -0.10639864937E-04  0.22298427957E-05  0.17130000000E+03  0.17130000000E+03 0. -1.
      622    1    1    2    0    0 -0.56634355697E-03 -0.72895345868E-03  0.32583879212E+01  0.32583894330E+01  0.30000000000E-02 0. -1.
</event>
<event>
 5   0  0.3294100E+10  0.9118800E+02  0.7818608E-02  0.1180000E+00
       11   -1    0    0    0    0  0.00000000000E+00  0.00000000000E+00  0.39999999673E+01  0.40000000000E+01  0.51109989000E-03 0.  1.
     -623   -1    0    0    0    0  0.00000000000E+00  0.00000000000E+00  0.12525980253E-10  0.17130000000E+03  0.17130000000E+03 0. -1.
       11    1    1    2    0    0  0.58780423224E-03 -0.14224215808E-02  0.75988127964E+00  0.75988301018E+00  0.51109989000E-03 0.  1.
     -623    1    1    2    0    0  0.59970286121E-03  0.13595917603E-03  0.35608470896E-05  0.17130000000E+03  0.17130000000E+03 0. -1.
      622    1    1    2    0    0 -0.11875070935E-02  0.12864624047E-02  0.32401151269E+01  0.32401169887E+01  0.30000000000E-02 0.  1.
</event>
<event>
 5   0  0.3294100E+10  0.9118800E+02  0.7818608E-02  0.1180000E+00
       11   -1    0    0    0    0  0.00000000000E+00  0.00000000000E+00  0.39999999673E+01  0.40000000000E+01  0.51109989000E-03 0.  1.
     -623   -1    0    0    0    0  0.00000000000E+00  0.00000000000E+00  0.12525980253E-10  0.17130000000E+03  0.17130000000E+03 0.  1.
       11    1    1    2    0    0  0.32026295104E-02 -0.12994303183E-02  0.11606350749E+01  0.11606403335E+01  0.51109989000E-03 0.  1.
     -623    1    1    2    0    0 -0.95341391171E-02  0.78162261827E-03  0.14184467057E-04  0.17130000027E+03  0.17130000000E+03 0.  1.
      622    1    1    2    0    0  0.63315097221E-02  0.51780769052E-03  0.28393507564E+01  0.28393594479E+01  0.30000000000E-02 0.  1.
</event>
<event>
 5   0  0.3294100E+10  0.9118800E+02  0.7818608E-02  0.1180000E+00
       11   -1    0    0    0    0  0.00000000000E+00  0.00000000000E+00  0.39999999673E+01  0.40000000000E+01  0.51109989000E-03 0. -1.
     -623   -1    0    0    0    0  0.00000000000E+00  0.00000000000E+00  0.12525980253E-10  0.17130000000E+03  0.17130000000E+03 0. -1.
       11    1    1    2    0    0 -0.27533912919E-02 -0.20194110084E-02  0.34062149323E+00  0.34063899080E+00  0.51109989000E-03 0. -1.
     -623    1    1    2    0    0 -0.12513927300E-04  0.60009460115E-04  0.20264548650E-04  0.17130000000E+03  0.17130000000E+03 0. -1.
      622    1    1    2    0    0  0.27659052192E-02  0.19594015483E-02  0.36593582092E+01  0.36593610088E+01  0.30000000000E-02 0. -1.
</event>
<event>
 5   0  0.3294100E+10  0.9118800E+02  0.7818608E-02  0.1180000E+00
       11   -1    0    0    0    0  0.00000000000E+00  0.00000000000E+00  0.39999999673E+01  0.40000000000E+01  0.51109989000E-03 0. -1.
     -623   -1    0    0    0    0  0.00000000000E+00  0.00000000000E+00  0.12525980253E-10  0.17130000000E+03  0.17130000000E+03 0. -1.
       11    1    1    2    0    0  0.11255461626E-04  0.32321782991E-03  0.10937473015E+00  0.10937640246E+00  0.51109989000E-03 0.  1.
     -623    1    1    2    0    0  0.32537730829E-04 -0.82754064407E-04  0.28039966469E-05  0.17130000000E+03  0.17130000000E+03 0. -1.
      622    1    1    2    0    0 -0.43793194334E-04 -0.24046376072E-03  0.38906226642E+01  0.38906238285E+01  0.30000000000E-02 0. -1.
</event>
<event>
 5   0  0.3294100E+10  0.9118800E+02  0.7818608E-02  0.1180000E+00
       11   -1    0    0    0    0  0.00000000000E+00  0.00000000000E+00  0.39999999673E+01  0.40000000000E+01  0.51109989000E-03 0.  1.
     -623   -1    0    0    0    0  0.00000000000E+00  0.00000000000E+00  0.12525980253E-10  0.17130000000E+03  0.17130000000E+03 0.  1.
       11    1    1    2    0    0 -0.25537026113E-02 -0.15389345724E-02  0.76510135260E+00  0.76510733279E+00  0.51109989000E-03 0.  1.
     -623    1    1    2    0    0  0.31053231593E-02  0.89610143683E-03  0.74800264698E-05  0.17130000003E+03  0.17130000000E+03 0.  1.
      622    1    1    2    0    0 -0.55162053561E-03  0.64283313919E-03  0.32348911187E+01  0.32348926207E+01  0.30000000000E-02 0.  1.
</event>
<event>
 5   0  0.3294100E+10  0.9118800E+02  0.7818608E-02  0.1180000E+00
       11   -1    0    0    0    0  0.00000000000E+00  0.00000000000E+00  0.39999999673E+01  0.40000000000E+01  0.51109989000E-03 0.  1.
     -623   -1    0    0    0    0  0.00000000000E+00  0.00000000000E+00  0.12525980253E-10  0.17130000000E+03  0.17130000000E+03 0. -1.
       11    1    1    2    0    0 -0.16738682710E-02 -0.91068314441E-03  0.36485289975E-01  0.36538593100E-01  0.51109989000E-03 0.  1.
     -623    1    1    2    0    0  0.42610216403E-04  0.64512361518E-05  0.54844708935E-04  0.17130000000E+03  0.17130000000E+03 0. -1.
      622    1    1    2    0    0  0.16312580546E-02  0.90423190825E-03  0.39634598327E+01  0.39634614069E+01  0.30000000000E-02 0.  1.
</event>
<event>
 5   0  0.3294100E+10  0.9118800E+02  0.7818608E-02  0.1180000E+00
       11   -1    0    0    0    0  0.00000000000E+00  0.00000000000E+00  0.39999999673E+01  0.40000000000E+01  0.51109989000E-03 0.  1.
     -623   -1    0    0    0    0  0.00000000000E+00  0.00000000000E+00  0.12525980253E-10  0.17130000000E+03  0.17130000000E+03 0.  1.
       11    1    1    2    0    0  0.33234007440E-04 -0.27877870364E-03  0.10050117288E-01  0.10067020546E-01  0.51109989000E-03 0.  1.
     -623    1    1    2    0    0 -0.38793810963E-04  0.14010766752E-04  0.18007250751E-04  0.17130000000E+03  0.17130000000E+03 0.  1.
      622    1    1    2    0    0  0.55598035582E-05  0.26476793687E-03  0.39899318465E+01  0.39899329831E+01  0.30000000000E-02 0.  1.
</event>
<event>
 5   0  0.3294100E+10  0.9118800E+02  0.7818608E-02  0.1180000E+00
       11   -1    0    0    0    0  0.00000000000E+00  0.00000000000E+00  0.39999999673E+01  0.40000000000E+01  0.51109989000E-03 0.  1.
     -623   -1    0    0    0    0  0.00000000000E+00  0.00000000000E+00  0.12525980253E-10  0.17130000000E+03  0.17130000000E+03 0.  1.
       11    1    1    2    0    0 -0.22585936892E-03 -0.34580476706E-03  0.12759720933E+00  0.12759890142E+00  0.51109989000E-03 0.  1.
     -623    1    1    2    0    0  0.33106068737E-04  0.47726938365E-05  0.28413439588E-05  0.17130000000E+03  0.17130000000E+03 0.  1.
      622    1    1    2    0    0  0.19275330081E-03  0.34103207332E-03  0.38723998412E+01  0.38724010230E+01  0.30000000000E-02 0.  1.
</event>
<event>
 5   0  0.3294100E+10  0.9118800E+02  0.7818608E-02  0.1180000E+00
       11   -1    0    0    0    0  0.00000000000E+00  0.00000000000E+00  0.39999999673E+01  0.40000000000E+01  0.51109989000E-03 0. -1.
     -623   -1    0    0    0    0  0.00000000000E+00  0.00000000000E+00  0.12525980253E-10  0.17130000000E+03  0.17130000000E+03 0. -1.
       11    1    1    2    0    0  0.88150472321E-04 -0.43135630507E-03  0.74530071757E+00  0.74530102286E+00  0.51109989000E-03 0. -1.
     -623    1    1    2    0    0 -0.70086532402E-03  0.34138205432E-03  0.17159547570E-05  0.17130000000E+03  0.17130000000E+03 0. -1.
      622    1    1    2    0    0  0.61271489403E-03  0.89974230131E-04  0.32546977755E+01  0.32546992170E+01  0.30000000000E-02 0. -1.
</event>
<event>
 5   0  0.3294100E+10  0.9118800E+02  0.7818608E-02  0.1180000E+00
       11   -1    0    0    0    0  0.00000000000E+00  0.00000000000E+00  0.39999999673E+01  0.40000000000E+01  0.51109989000E-03 0.  1.
     -623   -1    0    0    0    0  0.00000000000E+00  0.00000000000E+00  0.12525980253E-10  0.17130000000E+03  0.17130000000E+03 0.  1.
       11    1    1    2    0    0 -0.82510526166E-04  0.48956739409E-03  0.30716933804E+00  0.30717016447E+00  0.51109989000E-03 0.  1.
     -623    1    1    2    0    0 -0.23516026628E-03 -0.37682909717E-04  0.20538405274E-05  0.17130000000E+03  0.17130000000E+03 0.  1.
      622    1    1    2    0    0  0.31767079244E-03 -0.45188448437E-03  0.36928285755E+01  0.36928298354E+01  0.30000000000E-02 0.  1.
</event>
<event>
 5   0  0.3294100E+10  0.9118800E+02  0.7818608E-02  0.1180000E+00
       11   -1    0    0    0    0  0.00000000000E+00  0.00000000000E+00  0.39999999673E+01  0.40000000000E+01  0.51109989000E-03 0. -1.
     -623   -1    0    0    0    0  0.00000000000E+00  0.00000000000E+00  0.12525980253E-10  0.17130000000E+03  0.17130000000E+03 0.  1.
       11    1    1    2    0    0  0.27455887194E-03  0.53167044712E-02  0.76607144408E+00  0.76609011310E+00  0.51109989000E-03 0. -1.
     -623    1    1    2    0    0 -0.47459400828E-03 -0.52400650185E-03  0.23586954898E-04  0.17130000000E+03  0.17130000000E+03 0.  1.
      622    1    1    2    0    0  0.20003513809E-03 -0.47926979674E-02  0.32339049511E+01  0.32339099003E+01  0.30000000000E-02 0. -1.
</event>
<event>
 5   0  0.3294100E+10  0.9118800E+02  0.7818608E-02  0.1180000E+00
       11   -1    0    0    0    0  0.00000000000E+00  0.00000000000E+00  0.39999999673E+01  0.40000000000E+01  0.51109989000E-03 0.  1.
     -623   -1    0    0    0    0  0.00000000000E+00  0.00000000000E+00  0.12525980253E-10  0.17130000000E+03  0.17130000000E+03 0. -1.
       11    1    1    2    0    0 -0.12843426970E-02  0.37129268193E-03  0.33423461930E+00  0.33423768392E+00  0.51109989000E-03 0.  1.
     -623    1    1    2    0    0  0.13524592878E-02 -0.81199079841E-03  0.42939469909E-05  0.17130000001E+03  0.17130000000E+03 0. -1.
      622    1    1    2    0    0 -0.68116590830E-04  0.44069811648E-03  0.36657610541E+01  0.36657623088E+01  0.30000000000E-02 0.  1.
</event>
<event>
 5   0  0.3294100E+10  0.9118800E+02  0.7818608E-02  0.1180000E+00
       11   -1    0    0    0    0  0.00000000000E+00  0.00000000000E+00  0.39999999673E+01  0.40000000000E+01  0.51109989000E-03 0. -1.
     -623   -1    0    0    0    0  0.00000000000E+00  0.00000000000E+00  0.12525980253E-10  0.17130000000E+03  0.17130000000E+03 0.  1.
       11    1    1    2    0    0 -0.10674616575E-02 -0.23105728097E-02  0.38839830254E+00  0.38840697839E+00  0.51109989000E-03 0.  1.
     -623    1    1    2    0    0  0.22343572690E-04 -0.26434347250E-03  0.10958521150E-04  0.17130000000E+03  0.17130000000E+03 0.  1.
      622    1    1    2    0    0  0.10451180848E-02  0.25749162822E-02  0.36115907063E+01  0.36115930214E+01  0.30000000000E-02 0. -1.
</event>
<event>
 5   0  0.3294100E+10  0.9118800E+02  0.7818608E-02  0.1180000E+00
       11   -1    0    0    0    0  0.00000000000E+00  0.00000000000E+00  0.39999999673E+01  0.40000000000E+01  0.51109989000E-03 0.  1.
     -623   -1    0    0    0    0  0.00000000000E+00  0.00000000000E+00  0.12525980253E-10  0.17130000000E+03  0.17130000000E+03 0. -1.
       11    1    1    2    0    0 -0.58913230511E-04  0.73056937038E-03  0.16224379340E+00  0.16224625395E+00  0.51109989000E-03 0.  1.
     -623    1    1    2    0    0 -0.21804999533E-03  0.31245282516E-04  0.36862233812E-05  0.17130000000E+03  0.17130000000E+03 0. -1.
      622    1    1    2    0    0  0.27696322339E-03 -0.76181465254E-03  0.38377524429E+01  0.38377537010E+01  0.30000000000E-02 0.  1.
</event>
<event>
 5   0  0.3294100E+10  0.9118800E+02  0.7818608E-02  0.1180000E+00
       11   -1    0    0    0    0  0.00000000000E+00  0.00000000000E+00  0.39999999673E+01  0.40000000000E+01  0.51109989000E-03 0.  1.
     -623   -1    0    0    0    0  0.00000000000E+00  0.00000000000E+00  0.12525980253E-10  0.17130000000E+03  0.17130000000E+03 0. -1.
       11    1    1    2    0    0  0.22892141534E-02 -0.63158738718E-03  0.89968217041E+00  0.89968544968E+00  0.51109989000E-03 0.  1.
     -623    1    1    2    0    0  0.30165244128E-04 -0.48830882140E-04  0.56403554645E-05  0.17130000000E+03  0.17130000000E+03 0. -1.
      622    1    1    2    0    0 -0.23193793976E-02  0.68041826932E-03  0.31003121566E+01  0.31003145503E+01  0.30000000000E-02 0.  1.
</event>
<event>
 5   0  0.3294100E+10  0.9118800E+02  0.7818608E-02  0.1180000E+00
       11   -1    0    0    0    0  0.00000000000E+00  0.00000000000E+00  0.39999999673E+01  0.40000000000E+01  0.51109989000E-03 0. -1.
     -623   -1    0    0    0    0  0.00000000000E+00  0.00000000000E+00  0.12525980253E-10  0.17130000000E+03  0.17130000000E+03 0. -1.
       11    1    1    2    0    0  0.35540559750E-03 -0.13277616014E-03  0.24986198197E-01  0.24994304673E-01  0.51109989000E-03 0.  1.
     -623    1    1    2    0    0  0.84262604302E-04 -0.62480696660E-03  0.93035783935E-05  0.17130000000E+03  0.17130000000E+03 0. -1.
      622    1    1    2    0    0 -0.43966820194E-03  0.75758312775E-03  0.39750044721E+01  0.39750057007E+01  0.30000000000E-02 0. -1.
</event>
<event>
 5   0  0.3294100E+10  0.9118800E+02  0.7818608E-02  0.1180000E+00
       11   -1    0    0    0    0  0.00000000000E+00  0.00000000000E+00  0.39999999673E+01  0.40000000000E+01  0.51109989000E-03 0.  1.
     -623   -1    0    0    0    0  0.00000000000E+00  0.00000000000E+00  0.12525980253E-10  0.17130000000E+03  0.17130000000E+03 0.  1.
       11    1    1    2    0    0  0.35081707131E-03  0.57711528895E-03  0.21513282192E+00  0.21513448915E+00  0.51109989000E-03 0.  1.
     -623    1    1    2    0    0  0.51498531397E-04 -0.97584680023E-03  0.28687156788E-05  0.17130000000E+03  0.17130000000E+03 0.  1.
      622    1    1    2    0    0 -0.40231560530E-03  0.39873156045E-03  0.37848644783E+01  0.37848657096E+01  0.30000000000E-02 0.  1.
</event>
<event>
 5   0  0.3294100E+10  0.9118800E+02  0.7818608E-02  0.1180000E+00
       11   -1    0    0    0    0  0.00000000000E+00  0.00000000000E+00  0.39999999673E+01  0.40000000000E+01  0.51109989000E-03 0.  1.
     -623   -1    0    0    0    0  0.00000000000E+00  0.00000000000E+00  0.12525980253E-10  0.17130000000E+03  0.17130000000E+03 0. -1.
       11    1    1    2    0    0 -0.91377882534E-03  0.60167375783E-04  0.43595126566E-01  0.43607738938E-01  0.51109989000E-03 0.  1.
     -623    1    1    2    0    0  0.86741929569E-03 -0.41550718684E-03  0.13736061184E-04  0.17130000000E+03  0.17130000000E+03 0. -1.
      622    1    1    2    0    0  0.46359531497E-04  0.35533981017E-03  0.39563910962E+01  0.39563922498E+01  0.30000000000E-02 0.  1.
</event>
<event>
 5   0  0.3294100E+10  0.9118800E+02  0.7818608E-02  0.1180000E+00
       11   -1    0    0    0    0  0.00000000000E+00  0.00000000000E+00  0.39999999673E+01  0.40000000000E+01  0.51109989000E-03 0.  1.
     -623   -1    0    0    0    0  0.00000000000E+00  0.00000000000E+00  0.12525980253E-10  0.17130000000E+03  0.17130000000E+03 0.  1.
       11    1    1    2    0    0  0.56134327622E-03 -0.60553984108E-02  0.37857117205E+00  0.37862035931E+00  0.51109989000E-03 0.  1.
     -623    1    1    2    0    0  0.24648194353E-04 -0.45138567442E-04  0.55583126366E-04  0.17130000000E+03  0.17130000000E+03 0.  1.
      622    1    1    2    0    0 -0.58599147055E-03  0.61005369782E-02  0.36213732079E+01  0.36213796364E+01  0.30000000000E-02 0.  1.
</event>
<event>
 5   0  0.3294100E+10  0.9118800E+02  0.7818608E-02  0.1180000E+00
       11   -1    0    0    0    0  0.00000000000E+00  0.00000000000E+00  0.39999999673E+01  0.40000000000E+01  0.51109989000E-03 0.  1.
     -623   -1    0    0    0    0  0.00000000000E+00  0.00000000000E+00  0.12525980253E-10  0.17130000000E+03  0.17130000000E+03 0.  1.
       11    1    1    2    0    0 -0.30099981487E-03  0.70438415954E-03  0.34987267812E+00  0.34987388996E+00  0.51109989000E-03 0.  1.
     -623    1    1    2    0    0  0.71295677599E-04  0.73225135376E-05  0.24886617469E-05  0.17130000000E+03  0.17130000000E+03 0.  1.
      622    1    1    2    0    0  0.22970413387E-03 -0.71170667342E-03  0.36501249910E+01  0.36501263005E+01  0.30000000000E-02 0.  1.
</event>
<event>
 5   0  0.3294100E+10  0.9118800E+02  0.7818608E-02  0.1180000E+00
       11   -1    0    0    0    0  0.00000000000E+00  0.00000000000E+00  0.39999999673E+01  0.40000000000E+01  0.51109989000E-03 0. -1.
     -623   -1    0    0    0    0  0.00000000000E+00  0.00000000000E+00  0.12525980253E-10  0.17130000000E+03  0.17130000000E+03 0. -1.
       11    1    1    2    0    0  0.10364796653E-02  0.17172565604E-02  0.76058174932E+00  0.76058456589E+00  0.51109989000E-03 0. -1.
     -623    1    1    2    0    0  0.62331618170E-04 -0.35077828616E-03  0.46480169238E-05  0.17130000000E+03  0.17130000000E+03 0. -1.
      622    1    1    2    0    0 -0.10988112825E-02 -0.13664782797E-02  0.32394135071E+01  0.32394153708E+01  0.30000000000E-02 0.  0.
</event>
<event>
 5   0  0.3294100E+10  0.9118800E+02  0.7818608E-02  0.1180000E+00
       11   -1    0    0    0    0  0.00000000000E+00  0.00000000000E+00  0.39999999673E+01  0.40000000000E+01  0.51109989000E-03 0. -1.
     -623   -1    0    0    0    0  0.00000000000E+00  0.00000000000E+00  0.12525980253E-10  0.17130000000E+03  0.17130000000E+03 0. -1.
       11    1    1    2    0    0 -0.12578311921E-02  0.33258383882E-03  0.10281207530E+01  0.10281217033E+01  0.51109989000E-03 0. -1.
     -623    1    1    2    0    0  0.97571757005E-05  0.10856695400E-04  0.27137346281E-05  0.17130000000E+03  0.17130000000E+03 0. -1.
      622    1    1    2    0    0  0.12480740164E-02 -0.34344053422E-03  0.29718765006E+01  0.29718782967E+01  0.30000000000E-02 0. -1.
</event>
<event>
 5   0  0.3294100E+10  0.9118800E+02  0.7818608E-02  0.1180000E+00
       11   -1    0    0    0    0  0.00000000000E+00  0.00000000000E+00  0.39999999673E+01  0.40000000000E+01  0.51109989000E-03 0.  1.
     -623   -1    0    0    0    0  0.00000000000E+00  0.00000000000E+00  0.12525980253E-10  0.17130000000E+03  0.17130000000E+03 0.  1.
       11    1    1    2    0    0  0.98244528487E-03  0.18014936172E-03  0.74098825074E-01  0.74107319159E-01  0.51109989000E-03 0.  1.
     -623    1    1    2    0    0 -0.24727228388E-03  0.46113990624E-04  0.96832216752E-05  0.17130000000E+03  0.17130000000E+03 0.  1.
      622    1    1    2    0    0 -0.73517299753E-03 -0.22626335299E-03  0.39258915150E+01  0.39258927366E+01  0.30000000000E-02 0.  1.
</event>
<event>
 5   0  0.3294100E+10  0.9118800E+02  0.7818608E-02  0.1180000E+00
       11   -1    0    0    0    0  0.00000000000E+00  0.00000000000E+00  0.39999999673E+01  0.40000000000E+01  0.51109989000E-03 0. -1.
     -623   -1    0    0    0    0  0.00000000000E+00  0.00000000000E+00  0.12525980253E-10  0.17130000000E+03  0.17130000000E+03 0. -1.
       11    1    1    2    0    0  0.13630585350E-04 -0.17793950216E-02  0.25425995699E+00  0.25426669735E+00  0.51109989000E-03 0. -1.
     -623    1    1    2    0    0  0.84569617420E-04  0.30636965882E-04  0.83186193431E-05  0.17130000000E+03  0.17130000000E+03 0. -1.
      622    1    1    2    0    0 -0.98200202770E-04  0.17487580558E-02  0.37457316918E+01  0.37457333026E+01  0.30000000000E-02 0. -1.
</event>
<event>
 5   0  0.3294100E+10  0.9118800E+02  0.7818608E-02  0.1180000E+00
       11   -1    0    0    0    0  0.00000000000E+00  0.00000000000E+00  0.39999999673E+01  0.40000000000E+01  0.51109989000E-03 0. -1.
     -623   -1    0    0    0    0  0.00000000000E+00  0.00000000000E+00  0.12525980253E-10  0.17130000000E+03  0.17130000000E+03 0.  1.
       11    1    1    2    0    0 -0.31511162029E-03  0.19065919895E-02  0.51817629374E+00  0.51818014918E+00  0.51109989000E-03 0. -1.
     -623    1    1    2    0    0 -0.62659258290E-04 -0.19869113641E-03  0.55547290367E-05  0.17130000000E+03  0.17130000000E+03 0.  1.
      622    1    1    2    0    0  0.37777087926E-03 -0.17079008509E-02  0.34818181624E+01  0.34818198942E+01  0.30000000000E-02 0.  0.
</event>
<event>
 5   0  0.3294100E+10  0.9118800E+02  0.7818608E-02  0.1180000E+00
       11   -1    0    0    0    0  0.00000000000E+00  0.00000000000E+00  0.39999999673E+01  0.40000000000E+01  0.51109989000E-03 0. -1.
     -623   -1    0    0    0    0  0.00000000000E+00  0.00000000000E+00  0.12525980253E-10  0.17130000000E+03  0.17130000000E+03 0.  1.
       11    1    1    2    0    0  0.87376421057E-03  0.10502468719E-02  0.96401735520E+00  0.96401845877E+00  0.51109989000E-03 0. -1.
     -623    1    1    2    0    0  0.20202024122E-03  0.64528903140E-05  0.29277586209E-05  0.17130000000E+03  0.17130000000E+03 0.  1.
      622    1    1    2    0    0 -0.10757844518E-02 -0.10566997622E-02  0.30359796844E+01  0.30359815411E+01  0.30000000000E-02 0.  0.
</event>
<event>
 5   0  0.3294100E+10  0.9118800E+02  0.7818608E-02  0.1180000E+00
       11   -1    0    0    0    0  0.00000000000E+00  0.00000000000E+00  0.39999999673E+01  0.40000000000E+01  0.51109989000E-03 0. -1.
     -623   -1    0    0    0    0  0.00000000000E+00  0.00000000000E+00  0.12525980253E-10  0.17130000000E+03  0.17130000000E+03 0.  1.
       11    1    1    2    0    0  0.21086056382E-02 -0.20625535413E-02  0.11489515275E+00  0.11493414502E+00  0.51109989000E-03 0. -1.
     -623    1    1    2    0    0 -0.51143446800E-05  0.32848174677E-04  0.41217564494E-04  0.17130000000E+03  0.17130000000E+03 0.  1.
      622    1    1    2    0    0 -0.21034912935E-02  0.20297053666E-02  0.38850635970E+01  0.38850658550E+01  0.30000000000E-02 0. -1.
</event>
</LesHouchesEvents>
