<LesHouchesEvents version="1.0">
<header>
<!--
#*********************************************************************
#                                                                    *
#                       MadGraph/MadEvent                            *
#                                                                    *
#                      The new web generation                        *
#                                                                    *
#                   http://madgraph.hep.uiuc.edu                     *
#                   http://madgraph.phys.ucl.ac.be                   *
#                   http://madgraph.roma2.infn.it                    *
#                                                                    *
#            CP3 team                      Tim Stelzer               *
#      Universite de Louvain          University of Illinois         *
#                                                                    *
#....................................................................*
#                                                                    *
# This file contains all the information necessary to reproduce      *
# the events generated:                                              *
#                                                                    *
# 1. software version                                                *
# 2. proc_card.dat      : code generation info including model       *
# 3. param_card.dat     : model primary parameters in the LH format  *
# 4. run_card.dat       : running parameters (collider and cuts)     *
# 5. pythia_card.dat    : present only in the pythia event file      *
# 6. pgs_card.dat       : present only in the pgs event file         *
#                                                                    *
#                                                                    *
#*********************************************************************
-->
<MGVersion>
# MG/ME version    : 4.4.17
# madgraph version : 4.4.2
# template version : 2.4.8
# helas version    : 3.5
# model version    : usrmod_1.0.4
</MGVersion>
<MGProcCard>
#*********************************************************************
#                        MadGraph/MadEvent                           *
#                   http://madgraph.hep.uiuc.edu                     *
#                                                                    *
#                          proc_card.dat                             *
#                                                                    *
# This file is used to generate the code for a specific process.     *
# Some notation/conventions:                                         *
#                                                                    *
# 0. Do not modify the TAGS and their order.                         *
# 1. hash/pound is a comment.                                        *
# 2. The number after the @ is used as an identifier for the class   *
#    of processes. It can be any positive integer.                   *
# 3. The number of lines for the max couplings depends on how many   *
#    different classes of couplings are present in the model         *
#    In the SM these are just two: QED (which include EW) and QCD    *
# 4. Write "end_coup" after  the couplings list,                     *
#    to tell MG that the couplings input is over.                    *
# 5. Write "done" after the proc list to                             *
#    to tell MG that the proc input is over.                         *
# 6. Some model names available at present are:                      *
#    sm     =  Standard Model                                        *
#    smckm =  Standard Model with Cabibbo matrix                     *
#    mssm   =  Minimal Supersymmetric Standard Model                 *
#    2hdm   =  Generic Two Higgs Doublet model                       *
#    heft   =  Higgs EFT (+Standard Model)                           *
#    usrmod =  User Model                                            *
# 7. Don't leave spaces between the particles name in the            *
#    definition of the multiparticles.                               *
#*********************************************************************
#*********************************************************************
# Process(es) requested : mg2 input                                  *
#*********************************************************************
# Begin PROCESS # This is TAG. Do not modify this line
e- N+ > e- N+ x      # Radiative
QCD=0             # Max QCD couplings
QED=1             # Max QED couplings
QFD=0 
QND=1
QWD=9
QDS=2
end_coup           # End the couplings input
done               # this tells MG there are no more procs
# End PROCESS  # This is TAG. Do not modify this line
#*********************************************************************
# Model information                                                  *
#*********************************************************************
# Begin MODEL  # This is TAG. Do not modify this line
fixedAP2     
# End   MODEL  # This is TAG. Do not modify this line
#*********************************************************************
# Start multiparticle definitions                                    *
#*********************************************************************
# Begin MULTIPARTICLES # This is TAG. Do not modify this line
P uu~cc~dd~ss~gf+f-
J uu~cc~dd~ss~gf+f-
L+ e+mu+
L- e-mu-
vl vevm
vl~ ve~vm~
# End  MULTIPARTICLES # This is TAG. Do not modify this line
</MGProcCard>
<slha>
#*********************************************************************
#                        MadGraph/MadEvent                           *
#                   http://madgraph.hep.uiuc.edu                     *
#                                                                    *
#                         param_card.dat                             *
#                                                                    *
#   Les Houches friendly file for the SM parameters of MadGraph      *
#        Spectrum and decay widths produced by SMCalc                *
#                                                                    *
#  Please note the following IMPORTANT issues:                       *
#                                                                    *
# 0. REFRAIN from editing this file by hand! Some of the parame-     *
#    ters are not independent                                        *
#    (such as G_Fermi, alpha_em, sin(theta_W),MZ,MW) and serious     *
#    problems might be encountered (such as violation of unitarity   *
#    or gauge invariance).  Always use a calculator.                 *
#                                                                    *
# 1. alpha_S(MZ) has been used in the calculation of the parameters  *
#    but, for consistency, it will be reset by madgraph to the       *
#    value expected IF the pdfs for collisions with hadrons are      *
#    used. This value is KEPT by madgraph when no pdf are used       *
#    lpp(i)=0 .                                                      *
#                                                                    *
#  2. Values of the charm and bottom kinematic (pole) masses are     *
#     those used in the matrix elements and phase space UNLESS they  *
#     are set to ZERO from the start in the model (particles.dat)    *
#     This happens, for example,  when using 5-flavor QCD where      *
#     charm and bottom are treated as partons in the initial state   *
#     and a zero mass might be hardwired in the model definition.    *
#                                                                    *
##********************************************************************
Block MODSEL # Select Model
     0   1   #  0 1 = SM
Block SMINPUTS      # Standard Model inputs
     1         1.27900000E+02   # alpha_em(MZ)(-1) SM MSbar
     2         1.16600000E-05   # G_Fermi
     3         1.18000000E-01   # alpha_s(MZ) SM MSbar
     4         9.15445065E+01   # Z mass (as input parameter)
Block MGYUKAWA     # Yukawa masses m/v=y/sqrt(2)
#    PDG          YMASS
     5         4.20000000E+00   # mbottom for the Yukawa  y_b
     4         1.25000000E+00   # mcharm  for the Yukawa  y_c
     6         1.74300000E+02   # mtop    for the Yukawa  y_t
    15         1.77700000E+00   # mtau    for the Yukawa  y_ta
Block MGCKM     # CKM elements for MadGraph
     1   1     9.75000000E-01   # Vud for Cabibbo matrix
#===========================================================
# QUANTUM NUMBERS OF NEW STATE(S) (NON SM PDG CODE) IF ANY
# (see below for masses and decay tables)
# These blocks are automatically created by the MadGraph
# qnumbers.pl script from the particles.dat model file
#===========================================================
BLOCK QNUMBERS 611 # f-
         1  -3 # 3 times electric charge
         2  2 # number of spin states (2S+1)
         3  1 # colour rep (1: singlet, 3: triplet, 8: octet)
         4  1 # Particle/Antiparticle distinction (0=own anti)
BLOCK QNUMBERS 622 # x
         1  0 # 3 times electric charge
         2  3 # number of spin states (2S+1)
         3  1 # colour rep (1: singlet, 3: triplet, 8: octet)
         4  0 # Particle/Antiparticle distinction (0=own anti)
BLOCK QNUMBERS 623 # N-
         1  0 # 3 times electric charge
         2  2 # number of spin states (2S+1)
         3  1 # colour rep (1: singlet, 3: triplet, 8: octet)
         4  1 # Particle/Antiparticle distinction (0=own anti)
# END of QNUMBERS blocks
#===========================================================
Block MASS      #  Mass spectrum (kinematic masses)
#       PDG       Mass
         4     1.40000000E+00   # charm    pole mass
         5     4.20000000E+00   # bottom   pole mass
         6     1.74300000E+02   # top      pole mass
        11     0.51109989E-03   # electron mass
        13     0.10565837E+00   # muon     mass
        15     1.77700000E+00   # tau      mass
        23     9.15445065E+01   # Z        mass
        24     8.02673592E+01   # W        mass
        25     1.20000000E+02   # H        mass
       611 0.3 # FMASS
       622 0.9 # APMASS
       623     1.71300000e+02   # HPMASS (tungsten)
#            PDG       Width
DECAY       611     0.00000000e+00   # ELWIDTH
DECAY 622 0.027329719725 # APWIDTH
DECAY       623     0.00000000e+00   # HPWIDTH
DECAY         6     1.51013490E+00   # top width
DECAY        23     2.44639985E+00   # Z   width
DECAY        24     2.03535570E+00   # W   width
DECAY        25     6.79485838E-03   # H   width
#        BR           NDA        ID1       ID2
     7.00588389E-02    2           4        -4   # BR( H -> c  cbar  )
     7.61074375E-01    2           5        -5   # BR( H -> b  bbar  )
     0.00000000E+00    2           6        -6   # BR( H -> t  tbar  )
     3.65529942E-02    2          15       -15   # BR( H -> tau- tau+)
     5.84716539E-03    2          23        23   # BR( H -> Z   Z^(*))
     6.31545979E-02    2          24       -24   # BR( H -> W   W^(*))
     2.55499652E-02    2          21        21   # BR( H -> g   g    )
     1.20906932E-03    2          22        22   # BR( H -> A   A    )
BLOCK MGUSER
         1     1.00000000e-00   # epsilon ,mixing coefficient
         2     74.0000000e+00   # Znuc    ,nuclear charge
</slha>
<MGRunCard>
#*********************************************************************
#                       MadGraph/MadEvent                            *
#                  http://madgraph.hep.uiuc.edu                      *
#                                                                    *
#                        run_card.dat                                *
#                                                                    *
#  This file is used to set the parameters of the run.               *
#                                                                    *
#  Some notation/conventions:                                        *
#                                                                    *
#   Lines starting with a '# ' are info or comments                  *
#                                                                    *
#   mind the format:   value    = variable     ! comment             *
#*********************************************************************
#
#*******************                                                 
# Running parameters
#*******************                                                 
#                                                                    
#*********************************************************************
# Tag name for the run (one word)                                    *
#*********************************************************************
  'HPS'     = run_tag ! name of the run 
#*********************************************************************
# Run to generate the grid pack                                      *
#*********************************************************************
  .false.     = gridpack  !True = setting up the grid pack
#*********************************************************************
# Number of events and rnd seed                                      *
#*********************************************************************
   1000      = nevents ! Number of unweighted events requested 
188717 = iseed ! rnd seed (0=assigned automatically=default))
#*********************************************************************
# Collider type and energy                                           *
#*********************************************************************
        0     = lpp1  ! beam 1 type (0=NO PDF)
        0     = lpp2  ! beam 2 type (0=NO PDF)
4 = ebeam1  ! beam 1 energy in GeV
    171.3    = ebeam2  ! beam 2 energy in GeV
    0.000511  = mbeam1  ! beam 1 energy in GeV
    171.3    = mbeam2  ! beam 2 energy in GeV
#*********************************************************************
# Beam polarization from -100 (left-handed) to 100 (right-handed)    *
#*********************************************************************
        0     = polbeam1 ! beam polarization for beam 1
        0     = polbeam2 ! beam polarization for beam 2
#*********************************************************************
# PDF CHOICE: this automatically fixes also alpha_s and its evol.    *
#*********************************************************************
 'cteq6l1'    = pdlabel     ! PDF set                                     
#*********************************************************************
# Renormalization and factorization scales                           *
#*********************************************************************
 F        = fixed_ren_scale  ! if .true. use fixed ren scale
 F        = fixed_fac_scale  ! if .true. use fixed fac scale
 91.1880  = scale            ! fixed ren scale
 91.1880  = dsqrt_q2fact1    ! fixed fact scale for pdf1
 91.1880  = dsqrt_q2fact2    ! fixed fact scale for pdf2
 1        = scalefact        ! scale factor for event-by-event scales
 F        = fixed_couplings  ! if .false. calc. coupl. for every event
#*********************************************************************
# Matching - Warning! ickkw > 0 is still beta
#*********************************************************************
 0        = ickkw            ! 0 no matching, 1 MLM, 2 CKKW matching
#*********************************************************************
#                                                                    
#**********************************
32.9311829414 = bwcutoff*Gamma)
#**********************************
32.9311829414 = bwcutoff
#*******************                                                 
# Fixed-Target Cuts
#*******************                                                 
#
 0.0 = ef        ! minimum E for all f's
 100.0 = efmax     ! maximum E for all f's
 0.0 = thetafmin ! min angle for both f's
 100.0 = thetafmax ! max angle for both f's
 0.0 = thetaxfmin ! min angle (x direction) for both f's
 100.0 = thetaxfmax ! max angle (x direction) for both f's 
 0.0 = thetayfmin ! min angle (y direction) for both f's
 100.0 = thetayfmax ! max angle (y direction) for both f's 
 0.0 = xthetaxfmin ! min angle (x direction) for >=1 f's
 100.0 = xthetaxfmax ! max angle (x direction) for >=1 f's 
 0.0 = xthetayfmin ! min angle (y direction) for >=1 f's
 100.0 = xthetayfmax ! max angle (y direction) for >=1 f's 
 0.0 = mmff      ! min invariant mass of f+f- lepton pair
 100.0 = mmffmax  ! max invariant mass of f+f- lepton pair
 0.0 = xef       ! min. energy for at least one f
 0.0 = xthetaf   ! minimum angle for at least one f
 0.0 = eftot     ! minimum energy for the two f's
 0d0 = efrat     ! min. ratio Emin/Emax for the two f's
 0.0  = el     !!! 0.2 = el  !!! was 0.05 with normal cuts! minimum E for the charged leptons 
 0.0  = drll  !!! was 0.1  ! min distance between leptons 
 0.0  = mmll    ! min invariant mass of l+l- (same flavour) lepton pair
#
#*******************                                                 
# Standard Cuts
#*******************                                                 
#                                                                    
#*********************************************************************
# Minimum and maximum pt's                                           *
#*********************************************************************
  0  = ptj       ! minimum pt for the jets 
  0  = ptb       ! minimum pt for the b 
  0  = pta       ! minimum pt for the photons 
  0  = ptl       ! minimum pt for the charged leptons 
  0  = misset    ! minimum missing Et (sum of neutrino's momenta)
  0  = ptheavy   ! minimum pt for one heavy final state
 1.0 = ptonium   ! minimum pt for the quarkonium states
 1d5 = ptjmax    ! maximum pt for the jets
 1d5 = ptbmax    ! maximum pt for the b
 1d5 = ptamax    ! maximum pt for the photons
 1d9 = ptlmax    ! maximum pt for the charged leptons
 1d9 = missetmax ! maximum missing Et (sum of neutrino's momenta)
#*********************************************************************
# Minimum and maximum E's (in the lab frame)                         *
#*********************************************************************
  0  = ej     ! minimum E for the jets 
  0  = eb     ! minimum E for the b 
  0  = ea     ! minimum E for the photons 
 1d5  = ejmax ! maximum E for the jets
 1d5  = ebmax ! maximum E for the b
 1d5  = eamax ! maximum E for the photons
 1.2  = elmax ! maximum E for the charged leptons
#*********************************************************************
# Maximum and minimum rapidity                                       *
#*********************************************************************
 1d5  = etaj    ! max rap for the jets 
 1d5  = etab    ! max rap for the b 
 1d5  = etaa    ! max rap for the photons 
 1d5  = etal     !!! 1(2) wth cuts ! max rap for the charged leptons 
 1d5  = etafl     !!! 0(1) wth cuts ! max rap for the charged leptons 
 0.0  = etaonium ! max rap for the quarkonium states
 0d0  = etajmin ! min rap for the jets
 0d0  = etabmin ! min rap for the b
 0d0  = etaamin ! min rap for the photons
 0d0  = etalmin ! main rap for the charged lepton
#*********************************************************************
# Minimum and maximum DeltaR distance                                *
#*********************************************************************
 0   = drjj    ! min distance between jets 
 0   = drbb    ! min distance between b's 
 0   = draa    ! min distance between gammas 
 0   = drbj    ! min distance between b and jet 
 0   = draj    ! min distance between gamma and jet 
 0   = drjl    ! min distance between jet and lepton 
 0   = drab    ! min distance between gamma and b 
 0   = drbl    ! min distance between b and lepton 
 0   = dral    ! min distance between gamma and lepton 
 1d2 = drjjmax ! max distance between jets
 1d2 = drbbmax ! max distance between b's
 1d9 = drllmax ! max distance between leptons
 1d2 = draamax ! max distance between gammas
 1d2 = drbjmax ! max distance between b and jet
 1d2 = drajmax ! max distance between gamma and jet
 1d2 = drjlmax ! max distance between jet and lepton
 1d2 = drabmax ! max distance between gamma and b
 1d2 = drblmax ! max distance between b and lepton
 1d2 = dralmax ! maxdistance between gamma and lepton
#*********************************************************************
# Minimum and maximum invariant mass for pairs                       *
#*********************************************************************
 0   = mmjj    ! min invariant mass of a jet pair 
 0   = mmbb    ! min invariant mass of a b pair 
 0   = mmaa    ! min invariant mass of gamma gamma pair
 1d5 = mmjjmax ! max invariant mass of a jet pair
 1d5 = mmbbmax ! max invariant mass of a b pair
 1d5 = mmaamax ! max invariant mass of gamma gamma pair
 1d5 = mmllmax ! max invariant mass of l+l- (same flavour) lepton pair
#*********************************************************************
# Minimum and maximum invariant mass for all letpons                 *
#*********************************************************************
 0   = mmnl    ! min invariant mass for all letpons (l+- and vl) 
 1d9 = mmnlmax ! max invariant mass for all letpons (l+- and vl) 
#*********************************************************************
# Inclusive cuts                                                     *
#*********************************************************************
 0  = xptj ! minimum pt for at least one jet  
 0  = xptb ! minimum pt for at least one b 
 0  = xpta ! minimum pt for at least one photon 
 0  = xptl ! minimum pt for at least one charged lepton 
#*********************************************************************
# Control the pt's of the jets sorted by pt                          *
#*********************************************************************
 0   = ptj1min ! minimum pt for the leading jet in pt
 0   = ptj2min ! minimum pt for the second jet in pt
 0   = ptj3min ! minimum pt for the third jet in pt
 0   = ptj4min ! minimum pt for the fourth jet in pt
 1d5 = ptj1max ! maximum pt for the leading jet in pt 
 1d5 = ptj2max ! maximum pt for the second jet in pt
 1d5 = ptj3max ! maximum pt for the third jet in pt
 1d5 = ptj4max ! maximum pt for the fourth jet in pt
 0   = cutuse  ! reject event if fails any (0) / all (1) jet pt cuts
#*********************************************************************
# Control the Ht(k)=Sum of k leading jets                            *
#*********************************************************************
 0   = htjmin ! minimum jet HT=Sum(jet pt)
 1d5 = htjmax ! maximum jet HT=Sum(jet pt)
 0   = ht2min ! minimum Ht for the two leading jets
 0   = ht3min ! minimum Ht for the three leading jets
 0   = ht4min ! minimum Ht for the four leading jets
 1d5 = ht2max ! maximum Ht for the two leading jets
 1d5 = ht3max ! maximum Ht for the three leading jets
 1d5 = ht4max ! maximum Ht for the four leading jets
#*********************************************************************
# WBF cuts                                                           *
#*********************************************************************
 0   = xetamin ! minimum rapidity for two jets in the WBF case  
 0   = deltaeta ! minimum rapidity for two jets in the WBF case 
#*********************************************************************
# maximal pdg code for quark to be considered as a jet               *
# otherwise b cuts are applied                                       *
#*********************************************************************
 4 = maxjetflavor
#*********************************************************************
# Jet measure cuts                                                   *
#*********************************************************************
 0   = xqcut   ! minimum kt jet measure between partons
#*********************************************************************
</MGRunCard>
<MGGenerationInfo>
#  Number of Events        :        1000
#  Integrated weight (pb)  :  .48574E+05
#  Truncated wgt (pb)      :  .94130E+02
#  Unit wgt                :  .48574E+02
</MGGenerationInfo>
</header>
<init>
       11     -623  0.40000000000E+01  0.17130000000E+03 0 0     0     0 3  1
  0.48573625270E+05  0.60802530928E+03  0.48574000000E+02   0
</init>
<event>
 5   0  0.4857400E+02  0.9118800E+02  0.7818608E-02  0.1180000E+00
       11   -1    0    0    0    0  0.00000000000E+00  0.00000000000E+00  0.39999999673E+01  0.40000000000E+01  0.51109989000E-03 0.  1.
     -623   -1    0    0    0    0  0.00000000000E+00  0.00000000000E+00  0.12525980253E-10  0.17130000000E+03  0.17130000000E+03 0.  1.
       11    1    1    2    0    0 -0.11602263933E+00 -0.37188688892E-01  0.15076998594E-01  0.12276737567E+00  0.51109989000E-03 0.  1.
     -623    1    1    2    0    0  0.93199173670E-01 -0.25211475562E-01  0.21434379811E+00  0.17130016131E+03  0.17130000000E+03 0.  1.
      622    1    1    2    0    0  0.22823465662E-01  0.62400164454E-01  0.37705791707E+01  0.38770713139E+01  0.90000000000E+00 0.  1.
</event>
<event>
 5   0  0.4857400E+02  0.9118800E+02  0.7818608E-02  0.1180000E+00
       11   -1    0    0    0    0  0.00000000000E+00  0.00000000000E+00  0.39999999673E+01  0.40000000000E+01  0.51109989000E-03 0. -1.
     -623   -1    0    0    0    0  0.00000000000E+00  0.00000000000E+00  0.12525980253E-10  0.17130000000E+03  0.17130000000E+03 0.  1.
       11    1    1    2    0    0  0.12576801698E+00  0.74893840381E-01  0.42637518400E+00  0.45080232938E+00  0.51109989000E-03 0. -1.
     -623    1    1    2    0    0 -0.11703518005E+00 -0.38635694313E-01  0.14074143728E+00  0.17130010215E+03  0.17130000000E+03 0.  1.
      622    1    1    2    0    0 -0.87328369329E-02 -0.36258146067E-01  0.34328833461E+01  0.35490955162E+01  0.90000000000E+00 0. -1.
</event>
<event>
 5   0  0.4857400E+02  0.9118800E+02  0.7818608E-02  0.1180000E+00
       11   -1    0    0    0    0  0.00000000000E+00  0.00000000000E+00  0.39999999673E+01  0.40000000000E+01  0.51109989000E-03 0. -1.
     -623   -1    0    0    0    0  0.00000000000E+00  0.00000000000E+00  0.12525980253E-10  0.17130000000E+03  0.17130000000E+03 0. -1.
       11    1    1    2    0    0 -0.18118169003E+00  0.33173261131E-01  0.16358955214E+00  0.24635152293E+00  0.51109989000E-03 0. -1.
     -623    1    1    2    0    0  0.10362211405E+00 -0.28156500170E-01  0.19322974135E+00  0.17130014264E+03  0.17130000000E+03 0. -1.
      622    1    1    2    0    0  0.77559575985E-01 -0.50167609601E-02  0.36431806739E+01  0.37535058383E+01  0.90000000000E+00 0. -1.
</event>
<event>
 5   0  0.4857400E+02  0.9118800E+02  0.7818608E-02  0.1180000E+00
       11   -1    0    0    0    0  0.00000000000E+00  0.00000000000E+00  0.39999999673E+01  0.40000000000E+01  0.51109989000E-03 0. -1.
     -623   -1    0    0    0    0  0.00000000000E+00  0.00000000000E+00  0.12525980253E-10  0.17130000000E+03  0.17130000000E+03 0.  1.
       11    1    1    2    0    0  0.36617538744E-01  0.12921758870E+00  0.23413695568E+00  0.26992296051E+00  0.51109989000E-03 0. -1.
     -623    1    1    2    0    0  0.17377436299E-01 -0.17902608705E+00  0.14689851370E+00  0.17130015742E+03  0.17130000000E+03 0.  1.
      622    1    1    2    0    0 -0.53994975043E-01  0.49808498350E-01  0.36189644980E+01  0.37299196213E+01  0.90000000000E+00 0. -1.
</event>
<event>
 5   0  0.4857400E+02  0.9118800E+02  0.7818608E-02  0.1180000E+00
       11   -1    0    0    0    0  0.00000000000E+00  0.00000000000E+00  0.39999999673E+01  0.40000000000E+01  0.51109989000E-03 0.  1.
     -623   -1    0    0    0    0  0.00000000000E+00  0.00000000000E+00  0.12525980253E-10  0.17130000000E+03  0.17130000000E+03 0.  1.
       11    1    1    2    0    0 -0.46686191594E-01  0.52153766459E-01  0.11030793805E+00  0.13064347769E+00  0.51109989000E-03 0.  1.
     -623    1    1    2    0    0  0.12255364319E+00 -0.53206677415E-01  0.12732661379E+00  0.17130009942E+03  0.17130000000E+03 0.  1.
      622    1    1    2    0    0 -0.75867451599E-01  0.10529109567E-02  0.37623654155E+01  0.38692570991E+01  0.90000000000E+00 0.  1.
</event>
<event>
 5   0  0.4857400E+02  0.9118800E+02  0.7818608E-02  0.1180000E+00
       11   -1    0    0    0    0  0.00000000000E+00  0.00000000000E+00  0.39999999673E+01  0.40000000000E+01  0.51109989000E-03 0.  1.
     -623   -1    0    0    0    0  0.00000000000E+00  0.00000000000E+00  0.12525980253E-10  0.17130000000E+03  0.17130000000E+03 0.  1.
       11    1    1    2    0    0 -0.78234418784E-01  0.84772666982E-02  0.10304660170E+00  0.12965859661E+00  0.51109989000E-03 0.  1.
     -623    1    1    2    0    0 -0.58346545781E-01 -0.81172043159E-01  0.13597474741E+00  0.17130008314E+03  0.17130000000E+03 0.  1.
      622    1    1    2    0    0  0.13658096456E+00  0.72694776461E-01  0.37609786183E+01  0.38702582675E+01  0.90000000000E+00 0.  1.
</event>
<event>
 5   0  0.4857400E+02  0.9118800E+02  0.7818608E-02  0.1180000E+00
       11   -1    0    0    0    0  0.00000000000E+00  0.00000000000E+00  0.39999999673E+01  0.40000000000E+01  0.51109989000E-03 0.  1.
     -623   -1    0    0    0    0  0.00000000000E+00  0.00000000000E+00  0.12525980253E-10  0.17130000000E+03  0.17130000000E+03 0.  1.
       11    1    1    2    0    0  0.67057493343E-01  0.59849153457E-01 -0.93563449897E-02  0.90368307471E-01  0.51109989000E-03 0.  1.
     -623    1    1    2    0    0 -0.14304906562E+00 -0.21291999325E+00  0.20889357497E+00  0.17130031942E+03  0.17130000000E+03 0.  1.
      622    1    1    2    0    0  0.75991572277E-01  0.15307083979E+00  0.38004627374E+01  0.39093122693E+01  0.90000000000E+00 0.  1.
</event>
<event>
 5   0  0.4857400E+02  0.9118800E+02  0.7818608E-02  0.1180000E+00
       11   -1    0    0    0    0  0.00000000000E+00  0.00000000000E+00  0.39999999673E+01  0.40000000000E+01  0.51109989000E-03 0. -1.
     -623   -1    0    0    0    0  0.00000000000E+00  0.00000000000E+00  0.12525980253E-10  0.17130000000E+03  0.17130000000E+03 0. -1.
       11    1    1    2    0    0  0.12747439008E+00 -0.59595661726E-01  0.10878214813E+01  0.10968852262E+01  0.51109989000E-03 0. -1.
     -623    1    1    2    0    0  0.67472467896E-01 -0.14613511449E+00  0.16684879484E+00  0.17130015688E+03  0.17130000000E+03 0. -1.
      622    1    1    2    0    0 -0.19494685798E+00  0.20573077621E+00  0.27453296912E+01  0.29029578955E+01  0.90000000000E+00 0. -1.
</event>
<event>
 5   0  0.4857400E+02  0.9118800E+02  0.7818608E-02  0.1180000E+00
       11   -1    0    0    0    0  0.00000000000E+00  0.00000000000E+00  0.39999999673E+01  0.40000000000E+01  0.51109989000E-03 0. -1.
     -623   -1    0    0    0    0  0.00000000000E+00  0.00000000000E+00  0.12525980253E-10  0.17130000000E+03  0.17130000000E+03 0.  1.
       11    1    1    2    0    0  0.23460113323E-01 -0.74363227055E-02  0.34505572662E-01  0.42385983300E-01  0.51109989000E-03 0. -1.
     -623    1    1    2    0    0  0.14482328214E-02  0.30013258000E-01  0.11175995459E+00  0.17130003909E+03  0.17130000000E+03 0.  1.
      622    1    1    2    0    0 -0.24908346144E-01 -0.22576935295E-01  0.38537344401E+01  0.39575749239E+01  0.90000000000E+00 0. -1.
</event>
<event>
 5   0  0.4857400E+02  0.9118800E+02  0.7818608E-02  0.1180000E+00
       11   -1    0    0    0    0  0.00000000000E+00  0.00000000000E+00  0.39999999673E+01  0.40000000000E+01  0.51109989000E-03 0. -1.
     -623   -1    0    0    0    0  0.00000000000E+00  0.00000000000E+00  0.12525980253E-10  0.17130000000E+03  0.17130000000E+03 0.  1.
       11    1    1    2    0    0 -0.25249994153E+00 -0.57273127123E-01  0.14589903957E+00  0.29719223162E+00  0.51109989000E-03 0. -1.
     -623    1    1    2    0    0 -0.39391208230E-02  0.48174243323E-01  0.27174207698E+00  0.17130022236E+03  0.17130000000E+03 0.  1.
      622    1    1    2    0    0  0.25643906235E+00  0.90988838005E-02  0.35823588508E+01  0.37025854100E+01  0.90000000000E+00 0. -1.
</event>
<event>
 5   0  0.4857400E+02  0.9118800E+02  0.7818608E-02  0.1180000E+00
       11   -1    0    0    0    0  0.00000000000E+00  0.00000000000E+00  0.39999999673E+01  0.40000000000E+01  0.51109989000E-03 0.  1.
     -623   -1    0    0    0    0  0.00000000000E+00  0.00000000000E+00  0.12525980253E-10  0.17130000000E+03  0.17130000000E+03 0.  1.
       11    1    1    2    0    0  0.19825622334E+00 -0.10258752858E+00  0.75818187269E-01  0.23575069428E+00  0.51109989000E-03 0.  1.
     -623    1    1    2    0    0 -0.33210220492E+00 -0.31932636079E+00  0.29691753443E+00  0.17130087688E+03  0.17130000000E+03 0.  1.
      622    1    1    2    0    0  0.13384598158E+00  0.42191388936E+00  0.36272642457E+01  0.37633724217E+01  0.90000000000E+00 0.  1.
</event>
<event>
 5   0  0.4857400E+02  0.9118800E+02  0.7818608E-02  0.1180000E+00
       11   -1    0    0    0    0  0.00000000000E+00  0.00000000000E+00  0.39999999673E+01  0.40000000000E+01  0.51109989000E-03 0. -1.
     -623   -1    0    0    0    0  0.00000000000E+00  0.00000000000E+00  0.12525980253E-10  0.17130000000E+03  0.17130000000E+03 0. -1.
       11    1    1    2    0    0  0.59072815299E-01  0.12142121591E+00  0.68425460308E+00  0.69745059483E+00  0.51109989000E-03 0. -1.
     -623    1    1    2    0    0  0.71081575118E-01 -0.22424156096E-01  0.14248308499E+00  0.17130007547E+03  0.17130000000E+03 0. -1.
      622    1    1    2    0    0 -0.13015439042E+00 -0.98997059811E-01  0.31732622793E+01  0.33024739327E+01  0.90000000000E+00 0. -1.
</event>
<event>
 5   0  0.4857400E+02  0.9118800E+02  0.7818608E-02  0.1180000E+00
       11   -1    0    0    0    0  0.00000000000E+00  0.00000000000E+00  0.39999999673E+01  0.40000000000E+01  0.51109989000E-03 0.  1.
     -623   -1    0    0    0    0  0.00000000000E+00  0.00000000000E+00  0.12525980253E-10  0.17130000000E+03  0.17130000000E+03 0.  1.
       11    1    1    2    0    0  0.36962969210E+00  0.31902142712E-01  0.10037283304E+01  0.10701003124E+01  0.51109989000E-03 0.  1.
     -623    1    1    2    0    0  0.26872601154E+00 -0.29078762965E+00  0.29523094909E+00  0.17130071200E+03  0.17130000000E+03 0.  1.
      622    1    1    2    0    0 -0.63835570363E+00  0.25888548693E+00  0.27010406878E+01  0.29291876855E+01  0.90000000000E+00 0.  1.
</event>
<event>
 5   0  0.4857400E+02  0.9118800E+02  0.7818608E-02  0.1180000E+00
       11   -1    0    0    0    0  0.00000000000E+00  0.00000000000E+00  0.39999999673E+01  0.40000000000E+01  0.51109989000E-03 0. -1.
     -623   -1    0    0    0    0  0.00000000000E+00  0.00000000000E+00  0.12525980253E-10  0.17130000000E+03  0.17130000000E+03 0.  1.
       11    1    1    2    0    0  0.34409118526E-02 -0.65897668996E-01  0.52120575656E-01  0.84090179470E-01  0.51109989000E-03 0. -1.
     -623    1    1    2    0    0  0.78734919091E-01  0.77177847449E-01  0.13779307977E+00  0.17130009090E+03  0.17130000000E+03 0.  1.
      622    1    1    2    0    0 -0.82175830944E-01 -0.11280178453E-01  0.38100863119E+01  0.39158189200E+01  0.90000000000E+00 0. -1.
</event>
<event>
 5   0  0.4857400E+02  0.9118800E+02  0.7818608E-02  0.1180000E+00
       11   -1    0    0    0    0  0.00000000000E+00  0.00000000000E+00  0.39999999673E+01  0.40000000000E+01  0.51109989000E-03 0. -1.
     -623   -1    0    0    0    0  0.00000000000E+00  0.00000000000E+00  0.12525980253E-10  0.17130000000E+03  0.17130000000E+03 0. -1.
       11    1    1    2    0    0 -0.23977052751E-01 -0.15637093445E+00  0.16949593683E+00  0.23185319066E+00  0.51109989000E-03 0. -1.
     -623    1    1    2    0    0 -0.12209655001E-01  0.29463012262E+00  0.17456060592E+00  0.17130034275E+03  0.17130000000E+03 0. -1.
      622    1    1    2    0    0  0.36186707752E-01 -0.13825918818E+00  0.36559434246E+01  0.37678040561E+01  0.90000000000E+00 0. -1.
</event>
<event>
 5   0  0.4857400E+02  0.9118800E+02  0.7818608E-02  0.1180000E+00
       11   -1    0    0    0    0  0.00000000000E+00  0.00000000000E+00  0.39999999673E+01  0.40000000000E+01  0.51109989000E-03 0.  1.
     -623   -1    0    0    0    0  0.00000000000E+00  0.00000000000E+00  0.12525980253E-10  0.17130000000E+03  0.17130000000E+03 0.  1.
       11    1    1    2    0    0  0.61786725212E-01  0.34626121785E-01  0.30991878155E+00  0.31790954705E+00  0.51109989000E-03 0.  1.
     -623    1    1    2    0    0 -0.23135289770E+00  0.40023669706E-01  0.12469962299E+00  0.17130020629E+03  0.17130000000E+03 0.  1.
      622    1    1    2    0    0  0.16956617248E+00 -0.74649791492E-01  0.35653815628E+01  0.36818841599E+01  0.90000000000E+00 0.  1.
</event>
<event>
 5   0  0.4857400E+02  0.9118800E+02  0.7818608E-02  0.1180000E+00
       11   -1    0    0    0    0  0.00000000000E+00  0.00000000000E+00  0.39999999673E+01  0.40000000000E+01  0.51109989000E-03 0. -1.
     -623   -1    0    0    0    0  0.00000000000E+00  0.00000000000E+00  0.12525980253E-10  0.17130000000E+03  0.17130000000E+03 0. -1.
       11    1    1    2    0    0  0.18069098897E+00 -0.64479598948E-01 -0.30533490903E-01  0.19426633127E+00  0.51109989000E-03 0. -1.
     -623    1    1    2    0    0 -0.66394624217E-01  0.10758213159E-01  0.33525787937E+00  0.17130034128E+03  0.17130000000E+03 0. -1.
      622    1    1    2    0    0 -0.11429636476E+00  0.53721385789E-01  0.36952755789E+01  0.38053923911E+01  0.90000000000E+00 0. -1.
</event>
<event>
 5   0  0.4857400E+02  0.9118800E+02  0.7818608E-02  0.1180000E+00
       11   -1    0    0    0    0  0.00000000000E+00  0.00000000000E+00  0.39999999673E+01  0.40000000000E+01  0.51109989000E-03 0. -1.
     -623   -1    0    0    0    0  0.00000000000E+00  0.00000000000E+00  0.12525980253E-10  0.17130000000E+03  0.17130000000E+03 0.  1.
       11    1    1    2    0    0 -0.17248349757E+00 -0.42383333933E-02  0.35379291922E+00  0.39362191418E+00  0.51109989000E-03 0. -1.
     -623    1    1    2    0    0  0.24028332652E+00  0.40838713948E-01  0.15503677357E+00  0.17130024355E+03  0.17130000000E+03 0.  1.
      622    1    1    2    0    0 -0.67799828952E-01 -0.36600380554E-01  0.34911702746E+01  0.36061345359E+01  0.90000000000E+00 0. -1.
</event>
<event>
 5   0  0.4857400E+02  0.9118800E+02  0.7818608E-02  0.1180000E+00
       11   -1    0    0    0    0  0.00000000000E+00  0.00000000000E+00  0.39999999673E+01  0.40000000000E+01  0.51109989000E-03 0.  1.
     -623   -1    0    0    0    0  0.00000000000E+00  0.00000000000E+00  0.12525980253E-10  0.17130000000E+03  0.17130000000E+03 0.  1.
       11    1    1    2    0    0  0.45965674721E-01  0.38399762272E-01  0.38026150395E-01  0.70948110137E-01  0.51109989000E-03 0.  1.
     -623    1    1    2    0    0 -0.12657794709E-01  0.96868545852E-01  0.14001446640E+00  0.17130008508E+03  0.17130000000E+03 0.  1.
      622    1    1    2    0    0 -0.33307880011E-01 -0.13526830812E+00  0.38219593506E+01  0.39289668117E+01  0.90000000000E+00 0.  1.
</event>
<event>
 5   0  0.4857400E+02  0.9118800E+02  0.7818608E-02  0.1180000E+00
       11   -1    0    0    0    0  0.00000000000E+00  0.00000000000E+00  0.39999999673E+01  0.40000000000E+01  0.51109989000E-03 0.  1.
     -623   -1    0    0    0    0  0.00000000000E+00  0.00000000000E+00  0.12525980253E-10  0.17130000000E+03  0.17130000000E+03 0. -1.
       11    1    1    2    0    0  0.13175770072E-01  0.69782050387E-01  0.75499039752E-01  0.10365086444E+00  0.51109989000E-03 0.  1.
     -623    1    1    2    0    0 -0.69510931089E-03  0.87174621538E-01  0.13687020956E+00  0.17130007686E+03  0.17130000000E+03 0. -1.
      622    1    1    2    0    0 -0.12480660761E-01 -0.15695667193E+00  0.37876307180E+01  0.38962722723E+01  0.90000000000E+00 0.  1.
</event>
<event>
 5   0  0.4857400E+02  0.9118800E+02  0.7818608E-02  0.1180000E+00
       11   -1    0    0    0    0  0.00000000000E+00  0.00000000000E+00  0.39999999673E+01  0.40000000000E+01  0.51109989000E-03 0. -1.
     -623   -1    0    0    0    0  0.00000000000E+00  0.00000000000E+00  0.12525980253E-10  0.17130000000E+03  0.17130000000E+03 0.  1.
       11    1    1    2    0    0  0.26953087334E+00 -0.25991582993E+00  0.66007749130E+00  0.75888450114E+00  0.51109989000E-03 0. -1.
     -623    1    1    2    0    0  0.48083332805E-01  0.16840626100E+00  0.24414004539E+00  0.17130026351E+03  0.17130000000E+03 0.  1.
      622    1    1    2    0    0 -0.31761420615E+00  0.91509568922E-01  0.30957824307E+01  0.32408519934E+01  0.90000000000E+00 0. -1.
</event>
<event>
 5   0  0.4857400E+02  0.9118800E+02  0.7818608E-02  0.1180000E+00
       11   -1    0    0    0    0  0.00000000000E+00  0.00000000000E+00  0.39999999673E+01  0.40000000000E+01  0.51109989000E-03 0.  1.
     -623   -1    0    0    0    0  0.00000000000E+00  0.00000000000E+00  0.12525980253E-10  0.17130000000E+03  0.17130000000E+03 0. -1.
       11    1    1    2    0    0 -0.37382545916E+00 -0.12596023553E-01  0.50009219336E+00  0.62449707509E+00  0.51109989000E-03 0.  1.
     -623    1    1    2    0    0  0.99963678620E-01 -0.34537740687E+00  0.27860397928E+00  0.17130060391E+03  0.17130000000E+03 0. -1.
      622    1    1    2    0    0  0.27386178054E+00  0.35797343042E+00  0.32213037947E+01  0.33748990192E+01  0.90000000000E+00 0.  1.
</event>
<event>
 5   0  0.4857400E+02  0.9118800E+02  0.7818608E-02  0.1180000E+00
       11   -1    0    0    0    0  0.00000000000E+00  0.00000000000E+00  0.39999999673E+01  0.40000000000E+01  0.51109989000E-03 0.  1.
     -623   -1    0    0    0    0  0.00000000000E+00  0.00000000000E+00  0.12525980253E-10  0.17130000000E+03  0.17130000000E+03 0.  1.
       11    1    1    2    0    0  0.14981059341E-01 -0.55739479785E-02  0.11292769687E+00  0.11405449126E+00  0.51109989000E-03 0.  1.
     -623    1    1    2    0    0  0.10686803838E-01  0.45666217992E-01  0.10712570481E+00  0.17130003992E+03  0.17130000000E+03 0.  1.
      622    1    1    2    0    0 -0.25667863178E-01 -0.40092270014E-01  0.37799465657E+01  0.38859055918E+01  0.90000000000E+00 0.  1.
</event>
<event>
 5   0  0.4857400E+02  0.9118800E+02  0.7818608E-02  0.1180000E+00
       11   -1    0    0    0    0  0.00000000000E+00  0.00000000000E+00  0.39999999673E+01  0.40000000000E+01  0.51109989000E-03 0. -1.
     -623   -1    0    0    0    0  0.00000000000E+00  0.00000000000E+00  0.12525980253E-10  0.17130000000E+03  0.17130000000E+03 0.  1.
       11    1    1    2    0    0  0.11849403782E-01  0.23908302247E+00  0.38482604600E+00  0.45320243480E+00  0.51109989000E-03 0. -1.
     -623    1    1    2    0    0 -0.29524274771E+00 -0.22902083237E+00  0.19674329864E+00  0.17130052051E+03  0.17130000000E+03 0.  1.
      622    1    1    2    0    0  0.28339334393E+00 -0.10062190100E-01  0.34184306227E+01  0.35462770559E+01  0.90000000000E+00 0. -1.
</event>
<event>
 5   0  0.4857400E+02  0.9118800E+02  0.7818608E-02  0.1180000E+00
       11   -1    0    0    0    0  0.00000000000E+00  0.00000000000E+00  0.39999999673E+01  0.40000000000E+01  0.51109989000E-03 0.  1.
     -623   -1    0    0    0    0  0.00000000000E+00  0.00000000000E+00  0.12525980253E-10  0.17130000000E+03  0.17130000000E+03 0.  1.
       11    1    1    2    0    0  0.49654459329E-01 -0.72083550454E-01  0.52444041874E+00  0.53169504193E+00  0.51109989000E-03 0.  1.
     -623    1    1    2    0    0 -0.12237618592E+00  0.13438106313E+00  0.12757933930E+00  0.17130014393E+03  0.17130000000E+03 0.  1.
      622    1    1    2    0    0  0.72721726596E-01 -0.62297512674E-01  0.33479802093E+01  0.34681610273E+01  0.90000000000E+00 0.  1.
</event>
<event>
 5   0  0.4857400E+02  0.9118800E+02  0.7818608E-02  0.1180000E+00
       11   -1    0    0    0    0  0.00000000000E+00  0.00000000000E+00  0.39999999673E+01  0.40000000000E+01  0.51109989000E-03 0.  1.
     -623   -1    0    0    0    0  0.00000000000E+00  0.00000000000E+00  0.12525980253E-10  0.17130000000E+03  0.17130000000E+03 0. -1.
       11    1    1    2    0    0  0.82501257093E-01 -0.10658876881E+00  0.54491519359E+00  0.56133809107E+00  0.51109989000E-03 0.  1.
     -623    1    1    2    0    0 -0.17369647902E+00  0.19414743119E+00  0.13896312799E+00  0.17130025445E+03  0.17130000000E+03 0. -1.
      622    1    1    2    0    0  0.91195221928E-01 -0.87558662377E-01  0.33161216458E+01  0.34384074595E+01  0.90000000000E+00 0.  1.
</event>
<event>
 5   0  0.4857400E+02  0.9118800E+02  0.7818608E-02  0.1180000E+00
       11   -1    0    0    0    0  0.00000000000E+00  0.00000000000E+00  0.39999999673E+01  0.40000000000E+01  0.51109989000E-03 0.  1.
     -623   -1    0    0    0    0  0.00000000000E+00  0.00000000000E+00  0.12525980253E-10  0.17130000000E+03  0.17130000000E+03 0. -1.
       11    1    1    2    0    0  0.14885184250E+00  0.23856211880E+00  0.68728201032E+00  0.74258035153E+00  0.51109989000E-03 0.  1.
     -623    1    1    2    0    0 -0.16845267921E+00 -0.82038738738E-01  0.18628683522E+00  0.17130020376E+03  0.17130000000E+03 0. -1.
      622    1    1    2    0    0  0.19600836709E-01 -0.15652338006E+00  0.31264311218E+01  0.32572158849E+01  0.90000000000E+00 0.  1.
</event>
<event>
 5   0  0.4857400E+02  0.9118800E+02  0.7818608E-02  0.1180000E+00
       11   -1    0    0    0    0  0.00000000000E+00  0.00000000000E+00  0.39999999673E+01  0.40000000000E+01  0.51109989000E-03 0. -1.
     -623   -1    0    0    0    0  0.00000000000E+00  0.00000000000E+00  0.12525980253E-10  0.17130000000E+03  0.17130000000E+03 0. -1.
       11    1    1    2    0    0 -0.97822580741E-01  0.65416649088E-01 -0.16939554997E-01  0.11889409164E+00  0.51109989000E-03 0. -1.
     -623    1    1    2    0    0  0.31764600120E+00 -0.26530264383E-01  0.24872440246E+00  0.17130047713E+03  0.17130000000E+03 0. -1.
      622    1    1    2    0    0 -0.21982342045E+00 -0.38886384706E-01  0.37682151199E+01  0.38806287734E+01  0.90000000000E+00 0. -1.
</event>
<event>
 5   0  0.4857400E+02  0.9118800E+02  0.7818608E-02  0.1180000E+00
       11   -1    0    0    0    0  0.00000000000E+00  0.00000000000E+00  0.39999999673E+01  0.40000000000E+01  0.51109989000E-03 0. -1.
     -623   -1    0    0    0    0  0.00000000000E+00  0.00000000000E+00  0.12525980253E-10  0.17130000000E+03  0.17130000000E+03 0. -1.
       11    1    1    2    0    0  0.12065600973E+00 -0.22539269594E-01  0.30550681813E+00  0.32924241602E+00  0.51109989000E-03 0. -1.
     -623    1    1    2    0    0  0.82446416028E-01 -0.15430991149E+00  0.14613839266E+00  0.17130015168E+03  0.17130000000E+03 0. -1.
      622    1    1    2    0    0 -0.20310242576E+00  0.17684918109E+00  0.35483547566E+01  0.36706059046E+01  0.90000000000E+00 0. -1.
</event>
<event>
 5   0  0.4857400E+02  0.9118800E+02  0.7818608E-02  0.1180000E+00
       11   -1    0    0    0    0  0.00000000000E+00  0.00000000000E+00  0.39999999673E+01  0.40000000000E+01  0.51109989000E-03 0.  1.
     -623   -1    0    0    0    0  0.00000000000E+00  0.00000000000E+00  0.12525980253E-10  0.17130000000E+03  0.17130000000E+03 0. -1.
       11    1    1    2    0    0  0.30493577006E+00 -0.17813362708E+00  0.53965234062E-01  0.35725330043E+00  0.51109989000E-03 0.  1.
     -623    1    1    2    0    0  0.94090944141E-01  0.22048073733E+00  0.43986130733E+00  0.17130073246E+03  0.17130000000E+03 0. -1.
      622    1    1    2    0    0 -0.39902671420E+00 -0.42347110254E-01  0.35061734260E+01  0.36420142352E+01  0.90000000000E+00 0.  1.
</event>
<event>
 5   0  0.4857400E+02  0.9118800E+02  0.7818608E-02  0.1180000E+00
       11   -1    0    0    0    0  0.00000000000E+00  0.00000000000E+00  0.39999999673E+01  0.40000000000E+01  0.51109989000E-03 0.  1.
     -623   -1    0    0    0    0  0.00000000000E+00  0.00000000000E+00  0.12525980253E-10  0.17130000000E+03  0.17130000000E+03 0.  1.
       11    1    1    2    0    0 -0.13995324317E-01 -0.39409533592E-01 -0.21857977291E-02  0.41881014485E-01  0.51109989000E-03 0.  1.
     -623    1    1    2    0    0 -0.11660547745E+00  0.53048439130E-01  0.15010015569E+00  0.17130011366E+03  0.17130000000E+03 0.  1.
      622    1    1    2    0    0  0.13060080176E+00 -0.13638905538E-01  0.38520856094E+01  0.39580053223E+01  0.90000000000E+00 0.  1.
</event>
<event>
 5   0  0.4857400E+02  0.9118800E+02  0.7818608E-02  0.1180000E+00
       11   -1    0    0    0    0  0.00000000000E+00  0.00000000000E+00  0.39999999673E+01  0.40000000000E+01  0.51109989000E-03 0. -1.
     -623   -1    0    0    0    0  0.00000000000E+00  0.00000000000E+00  0.12525980253E-10  0.17130000000E+03  0.17130000000E+03 0.  1.
       11    1    1    2    0    0  0.14197105456E+00 -0.13034317234E+00  0.31444751598E+00  0.36881245158E+00  0.51109989000E-03 0. -1.
     -623    1    1    2    0    0  0.76340995642E-01  0.61696856547E-03  0.17695634216E+00  0.17130010841E+03  0.17130000000E+03 0.  1.
      622    1    1    2    0    0 -0.21831205020E+00  0.12972620378E+00  0.35085961092E+01  0.36310791367E+01  0.90000000000E+00 0. -1.
</event>
<event>
 5   0  0.4857400E+02  0.9118800E+02  0.7818608E-02  0.1180000E+00
       11   -1    0    0    0    0  0.00000000000E+00  0.00000000000E+00  0.39999999673E+01  0.40000000000E+01  0.51109989000E-03 0. -1.
     -623   -1    0    0    0    0  0.00000000000E+00  0.00000000000E+00  0.12525980253E-10  0.17130000000E+03  0.17130000000E+03 0.  1.
       11    1    1    2    0    0  0.21073299247E-01 -0.13551516305E-01  0.10572809905E+00  0.10865734989E+00  0.51109989000E-03 0. -1.
     -623    1    1    2    0    0 -0.22403527552E-01 -0.72152376508E-01  0.10946026747E+00  0.17130005163E+03  0.17130000000E+03 0.  1.
      622    1    1    2    0    0  0.13302283049E-02  0.85703892813E-01  0.37848116008E+01  0.38912910172E+01  0.90000000000E+00 0. -1.
</event>
<event>
 5   0  0.4857400E+02  0.9118800E+02  0.7818608E-02  0.1180000E+00
       11   -1    0    0    0    0  0.00000000000E+00  0.00000000000E+00  0.39999999673E+01  0.40000000000E+01  0.51109989000E-03 0. -1.
     -623   -1    0    0    0    0  0.00000000000E+00  0.00000000000E+00  0.12525980253E-10  0.17130000000E+03  0.17130000000E+03 0. -1.
       11    1    1    2    0    0  0.42806050432E+00 -0.30174566128E-01  0.31908768148E+00  0.53475556051E+00  0.51109989000E-03 0. -1.
     -623    1    1    2    0    0  0.48780639971E-01 -0.67360153302E-01  0.37060862872E+00  0.17130042110E+03  0.17130000000E+03 0. -1.
      622    1    1    2    0    0 -0.47684114430E+00  0.97534719431E-01  0.33103036572E+01  0.34648233434E+01  0.90000000000E+00 0. -1.
</event>
<event>
 5   0  0.4857400E+02  0.9118800E+02  0.7818608E-02  0.1180000E+00
       11   -1    0    0    0    0  0.00000000000E+00  0.00000000000E+00  0.39999999673E+01  0.40000000000E+01  0.51109989000E-03 0. -1.
     -623   -1    0    0    0    0  0.00000000000E+00  0.00000000000E+00  0.12525980253E-10  0.17130000000E+03  0.17130000000E+03 0. -1.
       11    1    1    2    0    0  0.36985177295E-01  0.68468311026E-01  0.11552147657E+00  0.13928849818E+00  0.51109989000E-03 0. -1.
     -623    1    1    2    0    0  0.10517597896E-02 -0.11606125287E+00  0.13072134992E+00  0.17130008920E+03  0.17130000000E+03 0. -1.
      622    1    1    2    0    0 -0.38036937085E-01  0.47592941842E-01  0.37537571409E+01  0.38606223034E+01  0.90000000000E+00 0. -1.
</event>
<event>
 5   0  0.4857400E+02  0.9118800E+02  0.7818608E-02  0.1180000E+00
       11   -1    0    0    0    0  0.00000000000E+00  0.00000000000E+00  0.39999999673E+01  0.40000000000E+01  0.51109989000E-03 0.  1.
     -623   -1    0    0    0    0  0.00000000000E+00  0.00000000000E+00  0.12525980253E-10  0.17130000000E+03  0.17130000000E+03 0.  1.
       11    1    1    2    0    0 -0.62673151859E-01  0.18090414442E+00  0.46195705184E+00  0.50005880894E+00  0.51109989000E-03 0.  1.
     -623    1    1    2    0    0  0.18560764971E+00 -0.51895179827E-01  0.16068511192E+00  0.17130018378E+03  0.17130000000E+03 0.  1.
      622    1    1    2    0    0 -0.12293449785E+00 -0.12900896459E+00  0.33773578036E+01  0.34997574112E+01  0.90000000000E+00 0.  1.
</event>
<event>
 5   0  0.4857400E+02  0.9118800E+02  0.7818608E-02  0.1180000E+00
       11   -1    0    0    0    0  0.00000000000E+00  0.00000000000E+00  0.39999999673E+01  0.40000000000E+01  0.51109989000E-03 0. -1.
     -623   -1    0    0    0    0  0.00000000000E+00  0.00000000000E+00  0.12525980253E-10  0.17130000000E+03  0.17130000000E+03 0. -1.
       11    1    1    2    0    0 -0.11296017543E+00  0.24754733975E-01 -0.24862546999E-02  0.11566866807E+00  0.51109989000E-03 0. -1.
     -623    1    1    2    0    0 -0.20769796062E-01  0.34654416851E-01  0.22685212629E+00  0.17130015497E+03  0.17130000000E+03 0. -1.
      622    1    1    2    0    0  0.13372997149E+00 -0.59409150827E-01  0.37756340958E+01  0.38841763577E+01  0.90000000000E+00 0. -1.
</event>
<event>
 5   0  0.4857400E+02  0.9118800E+02  0.7818608E-02  0.1180000E+00
       11   -1    0    0    0    0  0.00000000000E+00  0.00000000000E+00  0.39999999673E+01  0.40000000000E+01  0.51109989000E-03 0.  1.
     -623   -1    0    0    0    0  0.00000000000E+00  0.00000000000E+00  0.12525980253E-10  0.17130000000E+03  0.17130000000E+03 0.  1.
       11    1    1    2    0    0 -0.81024352711E-01  0.50437571459E-02  0.15478614313E+00  0.17478385665E+00  0.51109989000E-03 0.  1.
     -623    1    1    2    0    0  0.69635368138E-01 -0.35908383577E-01  0.12759421071E+00  0.17130006544E+03  0.17130000000E+03 0.  1.
      622    1    1    2    0    0  0.11388984573E-01  0.30864626431E-01  0.37176196135E+01  0.38251507062E+01  0.90000000000E+00 0.  1.
</event>
<event>
 5   0  0.4857400E+02  0.9118800E+02  0.7818608E-02  0.1180000E+00
       11   -1    0    0    0    0  0.00000000000E+00  0.00000000000E+00  0.39999999673E+01  0.40000000000E+01  0.51109989000E-03 0. -1.
     -623   -1    0    0    0    0  0.00000000000E+00  0.00000000000E+00  0.12525980253E-10  0.17130000000E+03  0.17130000000E+03 0.  1.
       11    1    1    2    0    0 -0.38926545526E+00 -0.53250104675E-01  0.10020116681E+01  0.10762856556E+01  0.51109989000E-03 0. -1.
     -623    1    1    2    0    0 -0.94550624512E-01 -0.15107781981E-01  0.25973211460E+00  0.17130022367E+03  0.17130000000E+03 0.  1.
      622    1    1    2    0    0  0.48381607977E+00  0.68357886656E-01  0.27382561847E+01  0.29234906760E+01  0.90000000000E+00 0. -1.
</event>
<event>
 5   0  0.4857400E+02  0.9118800E+02  0.7818608E-02  0.1180000E+00
       11   -1    0    0    0    0  0.00000000000E+00  0.00000000000E+00  0.39999999673E+01  0.40000000000E+01  0.51109989000E-03 0. -1.
     -623   -1    0    0    0    0  0.00000000000E+00  0.00000000000E+00  0.12525980253E-10  0.17130000000E+03  0.17130000000E+03 0. -1.
       11    1    1    2    0    0 -0.62739091081E-01 -0.86536973505E-01  0.25959061338E+00  0.28073544327E+00  0.51109989000E-03 0. -1.
     -623    1    1    2    0    0 -0.11407431951E+00 -0.38691632356E-01  0.13829144997E+00  0.17130009817E+03  0.17130000000E+03 0. -1.
      622    1    1    2    0    0  0.17681341059E+00  0.12522860586E+00  0.36021179040E+01  0.37191663825E+01  0.90000000000E+00 0. -1.
</event>
<event>
 5   0  0.4857400E+02  0.9118800E+02  0.7818608E-02  0.1180000E+00
       11   -1    0    0    0    0  0.00000000000E+00  0.00000000000E+00  0.39999999673E+01  0.40000000000E+01  0.51109989000E-03 0.  1.
     -623   -1    0    0    0    0  0.00000000000E+00  0.00000000000E+00  0.12525980253E-10  0.17130000000E+03  0.17130000000E+03 0.  1.
       11    1    1    2    0    0 -0.81060566685E-01 -0.12872639712E+00  0.62550496330E-01  0.16448138679E+00  0.51109989000E-03 0.  1.
     -623    1    1    2    0    0  0.57876151431E-01  0.10953914100E-01  0.21109471863E+00  0.17130014019E+03  0.17130000000E+03 0.  1.
      622    1    1    2    0    0  0.23184415254E-01  0.11777248302E+00  0.37263547524E+01  0.38353784188E+01  0.90000000000E+00 0.  1.
</event>
<event>
 5   0  0.4857400E+02  0.9118800E+02  0.7818608E-02  0.1180000E+00
       11   -1    0    0    0    0  0.00000000000E+00  0.00000000000E+00  0.39999999673E+01  0.40000000000E+01  0.51109989000E-03 0.  1.
     -623   -1    0    0    0    0  0.00000000000E+00  0.00000000000E+00  0.12525980253E-10  0.17130000000E+03  0.17130000000E+03 0.  1.
       11    1    1    2    0    0 -0.44641864824E+00 -0.20333461480E+00  0.52616855985E+00  0.71936651970E+00  0.51109989000E-03 0.  1.
     -623    1    1    2    0    0  0.44357304122E+00 -0.35922957817E-01  0.32908377753E+00  0.17130089417E+03  0.17130000000E+03 0.  1.
      622    1    1    2    0    0  0.28456070209E-02  0.23925757262E+00  0.31447476300E+01  0.32797393097E+01  0.90000000000E+00 0.  1.
</event>
<event>
 5   0  0.4857400E+02  0.9118800E+02  0.7818608E-02  0.1180000E+00
       11   -1    0    0    0    0  0.00000000000E+00  0.00000000000E+00  0.39999999673E+01  0.40000000000E+01  0.51109989000E-03 0.  1.
     -623   -1    0    0    0    0  0.00000000000E+00  0.00000000000E+00  0.12525980253E-10  0.17130000000E+03  0.17130000000E+03 0. -1.
       11    1    1    2    0    0  0.17008986868E+00 -0.13119236440E+00  0.72598117200E+00  0.75709373477E+00  0.51109989000E-03 0.  1.
     -623    1    1    2    0    0 -0.67613124254E-01  0.16707921415E-01  0.16238870208E+00  0.17130009113E+03  0.17130000000E+03 0. -1.
      622    1    1    2    0    0 -0.10247674443E+00  0.11448444299E+00  0.31116300933E+01  0.32428151363E+01  0.90000000000E+00 0.  1.
</event>
<event>
 5   0  0.4857400E+02  0.9118800E+02  0.7818608E-02  0.1180000E+00
       11   -1    0    0    0    0  0.00000000000E+00  0.00000000000E+00  0.39999999673E+01  0.40000000000E+01  0.51109989000E-03 0. -1.
     -623   -1    0    0    0    0  0.00000000000E+00  0.00000000000E+00  0.12525980253E-10  0.17130000000E+03  0.17130000000E+03 0. -1.
       11    1    1    2    0    0 -0.49015116134E-01 -0.15364238864E+00  0.33675991778E+00  0.37338447831E+00  0.51109989000E-03 0. -1.
     -623    1    1    2    0    0 -0.21961424735E+00  0.11147032761E+00  0.16087400449E+00  0.17130025259E+03  0.17130000000E+03 0. -1.
      622    1    1    2    0    0  0.26862936348E+00  0.42172061038E-01  0.35023660451E+01  0.36263629343E+01  0.90000000000E+00 0. -1.
</event>
<event>
 5   0  0.4857400E+02  0.9118800E+02  0.7818608E-02  0.1180000E+00
       11   -1    0    0    0    0  0.00000000000E+00  0.00000000000E+00  0.39999999673E+01  0.40000000000E+01  0.51109989000E-03 0. -1.
     -623   -1    0    0    0    0  0.00000000000E+00  0.00000000000E+00  0.12525980253E-10  0.17130000000E+03  0.17130000000E+03 0.  1.
       11    1    1    2    0    0  0.78628104773E-01 -0.19063452172E+00  0.33727310780E+00  0.39531925099E+00  0.51109989000E-03 0. -1.
     -623    1    1    2    0    0  0.98640034419E-01  0.10939552526E+00  0.17781974416E+00  0.17130015562E+03  0.17130000000E+03 0.  1.
      622    1    1    2    0    0 -0.17726813919E+00  0.81238996460E-01  0.34849071154E+01  0.36045251242E+01  0.90000000000E+00 0. -1.
</event>
<event>
 5   0  0.4857400E+02  0.9118800E+02  0.7818608E-02  0.1180000E+00
       11   -1    0    0    0    0  0.00000000000E+00  0.00000000000E+00  0.39999999673E+01  0.40000000000E+01  0.51109989000E-03 0. -1.
     -623   -1    0    0    0    0  0.00000000000E+00  0.00000000000E+00  0.12525980253E-10  0.17130000000E+03  0.17130000000E+03 0.  1.
       11    1    1    2    0    0 -0.40262907802E-01  0.16971943101E-02  0.10259286251E-01  0.41587214268E-01  0.51109989000E-03 0. -1.
     -623    1    1    2    0    0  0.84021267053E-01 -0.19954906205E-01  0.13536811599E+00  0.17130007525E+03  0.17130000000E+03 0.  1.
      622    1    1    2    0    0 -0.43758359252E-01  0.18257711895E-01  0.38543725651E+01  0.39583375309E+01  0.90000000000E+00 0. -1.
</event>
<event>
 5   0  0.4857400E+02  0.9118800E+02  0.7818608E-02  0.1180000E+00
       11   -1    0    0    0    0  0.00000000000E+00  0.00000000000E+00  0.39999999673E+01  0.40000000000E+01  0.51109989000E-03 0. -1.
     -623   -1    0    0    0    0  0.00000000000E+00  0.00000000000E+00  0.12525980253E-10  0.17130000000E+03  0.17130000000E+03 0.  1.
       11    1    1    2    0    0 -0.63164597285E-01  0.71180832572E-02  0.80530716403E-01  0.10259576486E+00  0.51109989000E-03 0. -1.
     -623    1    1    2    0    0  0.94531263553E-01  0.68540650927E-01  0.12837884164E+00  0.17130008790E+03  0.17130000000E+03 0.  1.
      622    1    1    2    0    0 -0.31366666268E-01 -0.75658734185E-01  0.37910904093E+01  0.38973163335E+01  0.90000000000E+00 0. -1.
</event>
<event>
 5   0  0.4857400E+02  0.9118800E+02  0.7818608E-02  0.1180000E+00
       11   -1    0    0    0    0  0.00000000000E+00  0.00000000000E+00  0.39999999673E+01  0.40000000000E+01  0.51109989000E-03 0.  1.
     -623   -1    0    0    0    0  0.00000000000E+00  0.00000000000E+00  0.12525980253E-10  0.17130000000E+03  0.17130000000E+03 0.  1.
       11    1    1    2    0    0 -0.15913627412E+00  0.86157060532E-01  0.29113237142E+00  0.34279106133E+00  0.51109989000E-03 0.  1.
     -623    1    1    2    0    0  0.23618902264E+00 -0.26081579537E-01  0.16572786066E+00  0.17130024498E+03  0.17130000000E+03 0.  1.
      622    1    1    2    0    0 -0.77052748523E-01 -0.60075480994E-01  0.35431397353E+01  0.36569639557E+01  0.90000000000E+00 0.  1.
</event>
<event>
 5   0  0.4857400E+02  0.9118800E+02  0.7818608E-02  0.1180000E+00
       11   -1    0    0    0    0  0.00000000000E+00  0.00000000000E+00  0.39999999673E+01  0.40000000000E+01  0.51109989000E-03 0.  1.
     -623   -1    0    0    0    0  0.00000000000E+00  0.00000000000E+00  0.12525980253E-10  0.17130000000E+03  0.17130000000E+03 0. -1.
       11    1    1    2    0    0  0.75722301530E-01 -0.11357464162E-01  0.24534643089E+00  0.25701749224E+00  0.51109989000E-03 0.  1.
     -623    1    1    2    0    0 -0.84612564119E-01  0.12696094725E+00  0.12345081309E+00  0.17130011243E+03  0.17130000000E+03 0. -1.
      622    1    1    2    0    0  0.88902625886E-02 -0.11560348308E+00  0.36312027234E+01  0.37428700779E+01  0.90000000000E+00 0.  1.
</event>
<event>
 5   0  0.4857400E+02  0.9118800E+02  0.7818608E-02  0.1180000E+00
       11   -1    0    0    0    0  0.00000000000E+00  0.00000000000E+00  0.39999999673E+01  0.40000000000E+01  0.51109989000E-03 0. -1.
     -623   -1    0    0    0    0  0.00000000000E+00  0.00000000000E+00  0.12525980253E-10  0.17130000000E+03  0.17130000000E+03 0. -1.
       11    1    1    2    0    0 -0.56696023713E-01 -0.18420316284E-01  0.11362788469E-02  0.59626332333E-01  0.51109989000E-03 0. -1.
     -623    1    1    2    0    0  0.30517797982E-01  0.55890559771E-01  0.16301296222E+00  0.17130008940E+03  0.17130000000E+03 0. -1.
      622    1    1    2    0    0  0.26178225731E-01 -0.37470243487E-01  0.38358507263E+01  0.39402842681E+01  0.90000000000E+00 0. -1.
</event>
<event>
 5   0  0.4857400E+02  0.9118800E+02  0.7818608E-02  0.1180000E+00
       11   -1    0    0    0    0  0.00000000000E+00  0.00000000000E+00  0.39999999673E+01  0.40000000000E+01  0.51109989000E-03 0. -1.
     -623   -1    0    0    0    0  0.00000000000E+00  0.00000000000E+00  0.12525980253E-10  0.17130000000E+03  0.17130000000E+03 0.  1.
       11    1    1    2    0    0  0.57977648479E-01 -0.67669690172E-01  0.17670970360E+00  0.19790698639E+00  0.51109989000E-03 0. -1.
     -623    1    1    2    0    0 -0.72585587759E-01 -0.59574675837E-01  0.13155260569E+00  0.17130007625E+03  0.17130000000E+03 0.  1.
      622    1    1    2    0    0  0.14607939280E-01  0.12724436601E+00  0.36917376581E+01  0.38020167617E+01  0.90000000000E+00 0. -1.
</event>
<event>
 5   0  0.4857400E+02  0.9118800E+02  0.7818608E-02  0.1180000E+00
       11   -1    0    0    0    0  0.00000000000E+00  0.00000000000E+00  0.39999999673E+01  0.40000000000E+01  0.51109989000E-03 0. -1.
     -623   -1    0    0    0    0  0.00000000000E+00  0.00000000000E+00  0.12525980253E-10  0.17130000000E+03  0.17130000000E+03 0.  1.
       11    1    1    2    0    0  0.93406355933E-01 -0.70807573122E-01 -0.10429812827E-01  0.11767540931E+00  0.51109989000E-03 0. -1.
     -623    1    1    2    0    0 -0.16201082963E+00  0.15635978202E-01  0.23513637054E+00  0.17130023871E+03  0.17130000000E+03 0.  1.
      622    1    1    2    0    0  0.68604473696E-01  0.55171594920E-01  0.37752934097E+01  0.38820858836E+01  0.90000000000E+00 0. -1.
</event>
<event>
 5   0  0.4857400E+02  0.9118800E+02  0.7818608E-02  0.1180000E+00
       11   -1    0    0    0    0  0.00000000000E+00  0.00000000000E+00  0.39999999673E+01  0.40000000000E+01  0.51109989000E-03 0. -1.
     -623   -1    0    0    0    0  0.00000000000E+00  0.00000000000E+00  0.12525980253E-10  0.17130000000E+03  0.17130000000E+03 0. -1.
       11    1    1    2    0    0  0.13942893369E-02 -0.51377705676E-01 -0.11763248534E+00  0.12837163049E+00  0.51109989000E-03 0. -1.
     -623    1    1    2    0    0  0.25853649554E+00  0.25936823343E+00  0.36761949406E+00  0.17130078592E+03  0.17130000000E+03 0. -1.
      622    1    1    2    0    0 -0.25993078488E+00 -0.20799052775E+00  0.37500129586E+01  0.38708424487E+01  0.90000000000E+00 0. -1.
</event>
<event>
 5   0  0.4857400E+02  0.9118800E+02  0.7818608E-02  0.1180000E+00
       11   -1    0    0    0    0  0.00000000000E+00  0.00000000000E+00  0.39999999673E+01  0.40000000000E+01  0.51109989000E-03 0.  1.
     -623   -1    0    0    0    0  0.00000000000E+00  0.00000000000E+00  0.12525980253E-10  0.17130000000E+03  0.17130000000E+03 0.  1.
       11    1    1    2    0    0  0.31048951247E+00 -0.63755249646E-01  0.75049637386E+00  0.81468615897E+00  0.51109989000E-03 0.  1.
     -623    1    1    2    0    0 -0.87499501188E-02 -0.16916218522E+00  0.21808328179E+00  0.17130022257E+03  0.17130000000E+03 0.  1.
      622    1    1    2    0    0 -0.30173956235E+00  0.23291743487E+00  0.30314203117E+01  0.31850912705E+01  0.90000000000E+00 0.  1.
</event>
<event>
 5   0  0.4857400E+02  0.9118800E+02  0.7818608E-02  0.1180000E+00
       11   -1    0    0    0    0  0.00000000000E+00  0.00000000000E+00  0.39999999673E+01  0.40000000000E+01  0.51109989000E-03 0. -1.
     -623   -1    0    0    0    0  0.00000000000E+00  0.00000000000E+00  0.12525980253E-10  0.17130000000E+03  0.17130000000E+03 0. -1.
       11    1    1    2    0    0 -0.12653651538E-01  0.35150491191E-02  0.28384754805E-01  0.31279801674E-01  0.51109989000E-03 0. -1.
     -623    1    1    2    0    0  0.18868597227E-01 -0.18248889597E-01  0.10635891393E+00  0.17130003503E+03  0.17130000000E+03 0. -1.
      622    1    1    2    0    0 -0.62149456890E-02  0.14733840478E-01  0.38652562986E+01  0.39686851684E+01  0.90000000000E+00 0. -1.
</event>
<event>
 5   0  0.4857400E+02  0.9118800E+02  0.7818608E-02  0.1180000E+00
       11   -1    0    0    0    0  0.00000000000E+00  0.00000000000E+00  0.39999999673E+01  0.40000000000E+01  0.51109989000E-03 0. -1.
     -623   -1    0    0    0    0  0.00000000000E+00  0.00000000000E+00  0.12525980253E-10  0.17130000000E+03  0.17130000000E+03 0.  1.
       11    1    1    2    0    0 -0.99266947762E-04 -0.34104870404E-01  0.10952400449E+00  0.11471233944E+00  0.51109989000E-03 0. -1.
     -623    1    1    2    0    0 -0.70454846305E-01  0.46064888221E-01  0.11160098760E+00  0.17130005704E+03  0.17130000000E+03 0.  1.
      622    1    1    2    0    0  0.70554113253E-01 -0.11960017817E-01  0.37788749753E+01  0.38852306243E+01  0.90000000000E+00 0. -1.
</event>
<event>
 5   0  0.4857400E+02  0.9118800E+02  0.7818608E-02  0.1180000E+00
       11   -1    0    0    0    0  0.00000000000E+00  0.00000000000E+00  0.39999999673E+01  0.40000000000E+01  0.51109989000E-03 0.  1.
     -623   -1    0    0    0    0  0.00000000000E+00  0.00000000000E+00  0.12525980253E-10  0.17130000000E+03  0.17130000000E+03 0. -1.
       11    1    1    2    0    0  0.72288312010E-01 -0.11901621094E+00  0.21866285939E+00  0.25923766281E+00  0.51109989000E-03 0.  1.
     -623    1    1    2    0    0 -0.78896920167E-01  0.41936241743E+00  0.16353510533E+00  0.17130060955E+03  0.17130000000E+03 0. -1.
      622    1    1    2    0    0  0.66086081574E-02 -0.30034620649E+00  0.36178020026E+01  0.37401527840E+01  0.90000000000E+00 0.  1.
</event>
<event>
 5   0  0.4857400E+02  0.9118800E+02  0.7818608E-02  0.1180000E+00
       11   -1    0    0    0    0  0.00000000000E+00  0.00000000000E+00  0.39999999673E+01  0.40000000000E+01  0.51109989000E-03 0.  1.
     -623   -1    0    0    0    0  0.00000000000E+00  0.00000000000E+00  0.12525980253E-10  0.17130000000E+03  0.17130000000E+03 0. -1.
       11    1    1    2    0    0  0.99835360924E-01  0.11024976897E+00  0.33115070576E+00  0.36301950635E+00  0.51109989000E-03 0.  1.
     -623    1    1    2    0    0 -0.20404074202E+00 -0.11568692190E+00  0.14675990171E+00  0.17130022345E+03  0.17130000000E+03 0. -1.
      622    1    1    2    0    0  0.10420538110E+00  0.54371529300E-02  0.35220893599E+01  0.36367570421E+01  0.90000000000E+00 0.  1.
</event>
<event>
 5   0  0.4857400E+02  0.9118800E+02  0.7818608E-02  0.1180000E+00
       11   -1    0    0    0    0  0.00000000000E+00  0.00000000000E+00  0.39999999673E+01  0.40000000000E+01  0.51109989000E-03 0. -1.
     -623   -1    0    0    0    0  0.00000000000E+00  0.00000000000E+00  0.12525980253E-10  0.17130000000E+03  0.17130000000E+03 0.  1.
       11    1    1    2    0    0  0.13682083876E+00  0.32399246560E-01  0.21948983586E+00  0.26066396445E+00  0.51109989000E-03 0. -1.
     -623    1    1    2    0    0 -0.11418209701E+00 -0.71414274993E-01  0.15150167888E+00  0.17130011994E+03  0.17130000000E+03 0.  1.
      622    1    1    2    0    0 -0.22638741743E-01  0.39015028433E-01  0.36290084526E+01  0.37392160989E+01  0.90000000000E+00 0. -1.
</event>
<event>
 5   0  0.4857400E+02  0.9118800E+02  0.7818608E-02  0.1180000E+00
       11   -1    0    0    0    0  0.00000000000E+00  0.00000000000E+00  0.39999999673E+01  0.40000000000E+01  0.51109989000E-03 0.  1.
     -623   -1    0    0    0    0  0.00000000000E+00  0.00000000000E+00  0.12525980253E-10  0.17130000000E+03  0.17130000000E+03 0.  1.
       11    1    1    2    0    0 -0.30649844386E-01 -0.32948056207E-01  0.16216316112E+00  0.16829182813E+00  0.51109989000E-03 0.  1.
     -623    1    1    2    0    0  0.59474425394E-01 -0.34733488279E-01  0.11410500517E+00  0.17130005185E+03  0.17130000000E+03 0.  1.
      622    1    1    2    0    0 -0.28824581008E-01  0.67681544487E-01  0.37237318011E+01  0.38316563226E+01  0.90000000000E+00 0.  1.
</event>
<event>
 5   0  0.4857400E+02  0.9118800E+02  0.7818608E-02  0.1180000E+00
       11   -1    0    0    0    0  0.00000000000E+00  0.00000000000E+00  0.39999999673E+01  0.40000000000E+01  0.51109989000E-03 0. -1.
     -623   -1    0    0    0    0  0.00000000000E+00  0.00000000000E+00  0.12525980253E-10  0.17130000000E+03  0.17130000000E+03 0.  1.
       11    1    1    2    0    0  0.11935234569E-01 -0.60365288776E-01  0.21654664890E+00  0.22512025739E+00  0.51109989000E-03 0. -1.
     -623    1    1    2    0    0  0.25870799557E-01  0.46215214634E-01  0.11770367651E+00  0.17130004863E+03  0.17130000000E+03 0.  1.
      622    1    1    2    0    0 -0.37806034125E-01  0.14150074142E-01  0.36657496420E+01  0.37748311165E+01  0.90000000000E+00 0. -1.
</event>
<event>
 5   0  0.4857400E+02  0.9118800E+02  0.7818608E-02  0.1180000E+00
       11   -1    0    0    0    0  0.00000000000E+00  0.00000000000E+00  0.39999999673E+01  0.40000000000E+01  0.51109989000E-03 0. -1.
     -623   -1    0    0    0    0  0.00000000000E+00  0.00000000000E+00  0.12525980253E-10  0.17130000000E+03  0.17130000000E+03 0.  1.
       11    1    1    2    0    0  0.12106913153E+00 -0.86721283833E-01  0.22121452213E+00  0.26667291145E+00  0.51109989000E-03 0. -1.
     -623    1    1    2    0    0 -0.13632733440E+00  0.53530140429E-01  0.15588610904E+00  0.17130013354E+03  0.17130000000E+03 0.  1.
      622    1    1    2    0    0  0.15258202869E-01  0.33191143404E-01  0.36228993362E+01  0.37331935477E+01  0.90000000000E+00 0. -1.
</event>
<event>
 5   0  0.4857400E+02  0.9118800E+02  0.7818608E-02  0.1180000E+00
       11   -1    0    0    0    0  0.00000000000E+00  0.00000000000E+00  0.39999999673E+01  0.40000000000E+01  0.51109989000E-03 0.  1.
     -623   -1    0    0    0    0  0.00000000000E+00  0.00000000000E+00  0.12525980253E-10  0.17130000000E+03  0.17130000000E+03 0. -1.
       11    1    1    2    0    0 -0.11711155584E-01 -0.22516183748E-01  0.20261521672E-01  0.32479534753E-01  0.51109989000E-03 0.  1.
     -623    1    1    2    0    0  0.22929607305E+00  0.33474103261E-01  0.12199726716E+00  0.17130020018E+03  0.17130000000E+03 0. -1.
      622    1    1    2    0    0 -0.21758491747E+00 -0.10957919513E-01  0.38577411785E+01  0.39673202887E+01  0.90000000000E+00 0.  1.
</event>
<event>
 5   0  0.4857400E+02  0.9118800E+02  0.7818608E-02  0.1180000E+00
       11   -1    0    0    0    0  0.00000000000E+00  0.00000000000E+00  0.39999999673E+01  0.40000000000E+01  0.51109989000E-03 0.  1.
     -623   -1    0    0    0    0  0.00000000000E+00  0.00000000000E+00  0.12525980253E-10  0.17130000000E+03  0.17130000000E+03 0.  1.
       11    1    1    2    0    0  0.68007582504E-01 -0.80679757837E-01  0.98691369069E-01  0.14448010988E+00  0.51109989000E-03 0.  1.
     -623    1    1    2    0    0 -0.10625370668E+00  0.32788604962E-01  0.15291257750E+00  0.17130010434E+03  0.17130000000E+03 0.  1.
      622    1    1    2    0    0  0.38246124178E-01  0.47891152875E-01  0.37483960208E+01  0.38554155492E+01  0.90000000000E+00 0.  1.
</event>
<event>
 5   0  0.4857400E+02  0.9118800E+02  0.7818608E-02  0.1180000E+00
       11   -1    0    0    0    0  0.00000000000E+00  0.00000000000E+00  0.39999999673E+01  0.40000000000E+01  0.51109989000E-03 0. -1.
     -623   -1    0    0    0    0  0.00000000000E+00  0.00000000000E+00  0.12525980253E-10  0.17130000000E+03  0.17130000000E+03 0.  1.
       11    1    1    2    0    0 -0.22158926063E-01 -0.93893573724E-02  0.82907031255E-02  0.25459281560E-01  0.51109989000E-03 0. -1.
     -623    1    1    2    0    0 -0.37411331415E-03  0.11071529021E+00  0.12188108145E+00  0.17130007914E+03  0.17130000000E+03 0.  1.
      622    1    1    2    0    0  0.22533039378E-01 -0.10132593284E+00  0.38698281828E+01  0.39744615795E+01  0.90000000000E+00 0. -1.
</event>
<event>
 5   0  0.4857400E+02  0.9118800E+02  0.7818608E-02  0.1180000E+00
       11   -1    0    0    0    0  0.00000000000E+00  0.00000000000E+00  0.39999999673E+01  0.40000000000E+01  0.51109989000E-03 0. -1.
     -623   -1    0    0    0    0  0.00000000000E+00  0.00000000000E+00  0.12525980253E-10  0.17130000000E+03  0.17130000000E+03 0. -1.
       11    1    1    2    0    0  0.97448804433E-01 -0.41655569729E-01  0.30286722028E+00  0.32087422819E+00  0.51109989000E-03 0. -1.
     -623    1    1    2    0    0 -0.12595930320E+00 -0.10457047356E+00  0.13303176081E+00  0.17130012988E+03  0.17130000000E+03 0. -1.
      622    1    1    2    0    0  0.28510498769E-01  0.14622604329E+00  0.35641009863E+01  0.36789958881E+01  0.90000000000E+00 0. -1.
</event>
<event>
 5   0  0.4857400E+02  0.9118800E+02  0.7818608E-02  0.1180000E+00
       11   -1    0    0    0    0  0.00000000000E+00  0.00000000000E+00  0.39999999673E+01  0.40000000000E+01  0.51109989000E-03 0. -1.
     -623   -1    0    0    0    0  0.00000000000E+00  0.00000000000E+00  0.12525980253E-10  0.17130000000E+03  0.17130000000E+03 0. -1.
       11    1    1    2    0    0  0.14500512576E+00 -0.40294068821E+00  0.10864487978E+01  0.11678008974E+01  0.51109989000E-03 0. -1.
     -623    1    1    2    0    0  0.49155938977E-01  0.62117569798E+00  0.24547834894E+00  0.17130130920E+03  0.17130000000E+03 0. -1.
      622    1    1    2    0    0 -0.19416106474E+00 -0.21823500978E+00  0.26680728207E+01  0.28308898981E+01  0.90000000000E+00 0. -1.
</event>
<event>
 5   0  0.4857400E+02  0.9118800E+02  0.7818608E-02  0.1180000E+00
       11   -1    0    0    0    0  0.00000000000E+00  0.00000000000E+00  0.39999999673E+01  0.40000000000E+01  0.51109989000E-03 0. -1.
     -623   -1    0    0    0    0  0.00000000000E+00  0.00000000000E+00  0.12525980253E-10  0.17130000000E+03  0.17130000000E+03 0. -1.
       11    1    1    2    0    0  0.10428752721E-01  0.49333929910E-01 -0.84606134641E-01  0.98493932634E-01  0.51109989000E-03 0. -1.
     -623    1    1    2    0    0  0.18151464286E-01 -0.41385462292E-01  0.28869713861E+00  0.17130024924E+03  0.17130000000E+03 0. -1.
      622    1    1    2    0    0 -0.28580217006E-01 -0.79484676189E-02  0.37959089634E+01  0.39012568315E+01  0.90000000000E+00 0. -1.
</event>
<event>
 5   0  0.4857400E+02  0.9118800E+02  0.7818608E-02  0.1180000E+00
       11   -1    0    0    0    0  0.00000000000E+00  0.00000000000E+00  0.39999999673E+01  0.40000000000E+01  0.51109989000E-03 0. -1.
     -623   -1    0    0    0    0  0.00000000000E+00  0.00000000000E+00  0.12525980253E-10  0.17130000000E+03  0.17130000000E+03 0. -1.
       11    1    1    2    0    0 -0.11320820293E+00  0.85268581950E-01  0.28813682512E+00  0.32110733328E+00  0.51109989000E-03 0. -1.
     -623    1    1    2    0    0  0.13346416053E+00  0.28965601537E-01  0.14676449713E+00  0.17130011731E+03  0.17130000000E+03 0. -1.
      622    1    1    2    0    0 -0.20255957603E-01 -0.11423418349E+00  0.35650986451E+01  0.36787753535E+01  0.90000000000E+00 0. -1.
</event>
<event>
 5   0  0.4857400E+02  0.9118800E+02  0.7818608E-02  0.1180000E+00
       11   -1    0    0    0    0  0.00000000000E+00  0.00000000000E+00  0.39999999673E+01  0.40000000000E+01  0.51109989000E-03 0.  1.
     -623   -1    0    0    0    0  0.00000000000E+00  0.00000000000E+00  0.12525980253E-10  0.17130000000E+03  0.17130000000E+03 0. -1.
       11    1    1    2    0    0 -0.17891874235E-01 -0.24612882596E-01  0.10335782795E-01  0.32140360608E-01  0.51109989000E-03 0.  1.
     -623    1    1    2    0    0 -0.31399121353E-01  0.52404602248E-01  0.12569527578E+00  0.17130005701E+03  0.17130000000E+03 0. -1.
      622    1    1    2    0    0  0.49290995588E-01 -0.27791719652E-01  0.38639689088E+01  0.39678026299E+01  0.90000000000E+00 0.  1.
</event>
<event>
 5   0  0.4857400E+02  0.9118800E+02  0.7818608E-02  0.1180000E+00
       11   -1    0    0    0    0  0.00000000000E+00  0.00000000000E+00  0.39999999673E+01  0.40000000000E+01  0.51109989000E-03 0.  1.
     -623   -1    0    0    0    0  0.00000000000E+00  0.00000000000E+00  0.12525980253E-10  0.17130000000E+03  0.17130000000E+03 0. -1.
       11    1    1    2    0    0 -0.14904864806E-01 -0.23312407625E-01  0.12304816262E-01  0.30286846493E-01  0.51109989000E-03 0.  1.
     -623    1    1    2    0    0  0.12244250884E-01  0.46160576351E-02  0.12144113033E+00  0.17130004355E+03  0.17130000000E+03 0. -1.
      622    1    1    2    0    0  0.26606139221E-02  0.18696349990E-01  0.38662540208E+01  0.39696696066E+01  0.90000000000E+00 0.  1.
</event>
<event>
 5   0  0.4857400E+02  0.9118800E+02  0.7818608E-02  0.1180000E+00
       11   -1    0    0    0    0  0.00000000000E+00  0.00000000000E+00  0.39999999673E+01  0.40000000000E+01  0.51109989000E-03 0. -1.
     -623   -1    0    0    0    0  0.00000000000E+00  0.00000000000E+00  0.12525980253E-10  0.17130000000E+03  0.17130000000E+03 0. -1.
       11    1    1    2    0    0  0.47691276418E-01  0.78582322061E-01  0.78485355512E-01  0.12087121841E+00  0.51109989000E-03 0. -1.
     -623    1    1    2    0    0 -0.28683544896E-01 -0.71865632857E-01  0.14837273882E+00  0.17130008173E+03  0.17130000000E+03 0. -1.
      622    1    1    2    0    0 -0.19007731522E-01 -0.67166892041E-02  0.37731418730E+01  0.38790470481E+01  0.90000000000E+00 0. -1.
</event>
<event>
 5   0  0.4857400E+02  0.9118800E+02  0.7818608E-02  0.1180000E+00
       11   -1    0    0    0    0  0.00000000000E+00  0.00000000000E+00  0.39999999673E+01  0.40000000000E+01  0.51109989000E-03 0. -1.
     -623   -1    0    0    0    0  0.00000000000E+00  0.00000000000E+00  0.12525980253E-10  0.17130000000E+03  0.17130000000E+03 0.  1.
       11    1    1    2    0    0  0.31542396980E-01 -0.74948484671E-01  0.18776713620E+00  0.20461905293E+00  0.51109989000E-03 0. -1.
     -623    1    1    2    0    0 -0.73892408196E-01  0.61901994878E-01  0.12544584759E+00  0.17130007305E+03  0.17130000000E+03 0.  1.
      622    1    1    2    0    0  0.42350011216E-01  0.13046489794E-01  0.36867869836E+01  0.37953078922E+01  0.90000000000E+00 0. -1.
</event>
<event>
 5   0  0.4857400E+02  0.9118800E+02  0.7818608E-02  0.1180000E+00
       11   -1    0    0    0    0  0.00000000000E+00  0.00000000000E+00  0.39999999673E+01  0.40000000000E+01  0.51109989000E-03 0.  1.
     -623   -1    0    0    0    0  0.00000000000E+00  0.00000000000E+00  0.12525980253E-10  0.17130000000E+03  0.17130000000E+03 0. -1.
       11    1    1    2    0    0  0.32752018792E-02  0.47628196779E-01  0.22613313976E+00  0.23111821692E+00  0.51109989000E-03 0.  1.
     -623    1    1    2    0    0  0.14168898989E+00 -0.60636969607E-01  0.11702910423E+00  0.17130010931E+03  0.17130000000E+03 0. -1.
      622    1    1    2    0    0 -0.14496419177E+00  0.13008772828E-01  0.36568377234E+01  0.37687724766E+01  0.90000000000E+00 0.  1.
</event>
<event>
 5   0  0.4857400E+02  0.9118800E+02  0.7818608E-02  0.1180000E+00
       11   -1    0    0    0    0  0.00000000000E+00  0.00000000000E+00  0.39999999673E+01  0.40000000000E+01  0.51109989000E-03 0. -1.
     -623   -1    0    0    0    0  0.00000000000E+00  0.00000000000E+00  0.12525980253E-10  0.17130000000E+03  0.17130000000E+03 0. -1.
       11    1    1    2    0    0  0.12160600484E+00 -0.86221781036E-01  0.98735397892E-01  0.17880479848E+00  0.51109989000E-03 0. -1.
     -623    1    1    2    0    0 -0.77310703406E-01  0.14990724022E+00  0.18857187373E+00  0.17130018683E+03  0.17130000000E+03 0. -1.
      622    1    1    2    0    0 -0.44295301439E-01 -0.63685459180E-01  0.37126926957E+01  0.38210083701E+01  0.90000000000E+00 0.  1.
</event>
<event>
 5   0  0.4857400E+02  0.9118800E+02  0.7818608E-02  0.1180000E+00
       11   -1    0    0    0    0  0.00000000000E+00  0.00000000000E+00  0.39999999673E+01  0.40000000000E+01  0.51109989000E-03 0. -1.
     -623   -1    0    0    0    0  0.00000000000E+00  0.00000000000E+00  0.12525980253E-10  0.17130000000E+03  0.17130000000E+03 0. -1.
       11    1    1    2    0    0 -0.24912456955E-01  0.87687733210E-01  0.13352879517E+00  0.16167859917E+00  0.51109989000E-03 0. -1.
     -623    1    1    2    0    0 -0.41363730523E-01 -0.63195622963E-01  0.13589787272E+00  0.17130007056E+03  0.17130000000E+03 0. -1.
      622    1    1    2    0    0  0.66276187478E-01 -0.24492110247E-01  0.37305732995E+01  0.38382508437E+01  0.90000000000E+00 0. -1.
</event>
<event>
 5   0  0.4857400E+02  0.9118800E+02  0.7818608E-02  0.1180000E+00
       11   -1    0    0    0    0  0.00000000000E+00  0.00000000000E+00  0.39999999673E+01  0.40000000000E+01  0.51109989000E-03 0. -1.
     -623   -1    0    0    0    0  0.00000000000E+00  0.00000000000E+00  0.12525980253E-10  0.17130000000E+03  0.17130000000E+03 0. -1.
       11    1    1    2    0    0  0.87037753993E-01 -0.17397436434E+00  0.19486542303E+00  0.27534604480E+00  0.51109989000E-03 0. -1.
     -623    1    1    2    0    0 -0.20205779025E+00  0.50112512072E-01  0.19505058113E+00  0.17130023755E+03  0.17130000000E+03 0. -1.
      622    1    1    2    0    0  0.11502003626E+00  0.12386185227E+00  0.36100839632E+01  0.37244164091E+01  0.90000000000E+00 0. -1.
</event>
<event>
 5   0  0.4857400E+02  0.9118800E+02  0.7818608E-02  0.1180000E+00
       11   -1    0    0    0    0  0.00000000000E+00  0.00000000000E+00  0.39999999673E+01  0.40000000000E+01  0.51109989000E-03 0. -1.
     -623   -1    0    0    0    0  0.00000000000E+00  0.00000000000E+00  0.12525980253E-10  0.17130000000E+03  0.17130000000E+03 0. -1.
       11    1    1    2    0    0  0.20181572389E-01  0.34828152475E-01  0.32112703498E+00  0.32364043302E+00  0.51109989000E-03 0. -1.
     -623    1    1    2    0    0  0.28436656033E+00 -0.24829920726E-02  0.12785370594E+00  0.17130028376E+03  0.17130000000E+03 0. -1.
      622    1    1    2    0    0 -0.30454813272E+00 -0.32345160403E-01  0.35510192264E+01  0.36760758046E+01  0.90000000000E+00 0. -1.
</event>
<event>
 5   0  0.4857400E+02  0.9118800E+02  0.7818608E-02  0.1180000E+00
       11   -1    0    0    0    0  0.00000000000E+00  0.00000000000E+00  0.39999999673E+01  0.40000000000E+01  0.51109989000E-03 0. -1.
     -623   -1    0    0    0    0  0.00000000000E+00  0.00000000000E+00  0.12525980253E-10  0.17130000000E+03  0.17130000000E+03 0. -1.
       11    1    1    2    0    0 -0.11587794670E+00 -0.76553908993E-01  0.91268750395E+00  0.92319388029E+00  0.51109989000E-03 0. -1.
     -623    1    1    2    0    0  0.11434632148E+00  0.33096395920E-01  0.14550856261E+00  0.17130010316E+03  0.17130000000E+03 0. -1.
      622    1    1    2    0    0  0.15316252192E-02  0.43457513073E-01  0.29418039008E+01  0.30767029581E+01  0.90000000000E+00 0. -1.
</event>
<event>
 5   0  0.4857400E+02  0.9118800E+02  0.7818608E-02  0.1180000E+00
       11   -1    0    0    0    0  0.00000000000E+00  0.00000000000E+00  0.39999999673E+01  0.40000000000E+01  0.51109989000E-03 0.  1.
     -623   -1    0    0    0    0  0.00000000000E+00  0.00000000000E+00  0.12525980253E-10  0.17130000000E+03  0.17130000000E+03 0. -1.
       11    1    1    2    0    0  0.12851619053E+00 -0.31562874361E-01  0.11654783938E-01  0.13284849068E+00  0.51109989000E-03 0.  1.
     -623    1    1    2    0    0  0.47962282407E-01  0.37716888464E+00  0.24807510321E+00  0.17130060157E+03  0.17130000000E+03 0. -1.
      622    1    1    2    0    0 -0.17647847293E+00 -0.34560601028E+00  0.37402700802E+01  0.38665499400E+01  0.90000000000E+00 0.  1.
</event>
<event>
 5   0  0.4857400E+02  0.9118800E+02  0.7818608E-02  0.1180000E+00
       11   -1    0    0    0    0  0.00000000000E+00  0.00000000000E+00  0.39999999673E+01  0.40000000000E+01  0.51109989000E-03 0.  1.
     -623   -1    0    0    0    0  0.00000000000E+00  0.00000000000E+00  0.12525980253E-10  0.17130000000E+03  0.17130000000E+03 0.  1.
       11    1    1    2    0    0  0.17670230282E+00 -0.12917459664E+00  0.10928772397E+01  0.11145809538E+01  0.51109989000E-03 0.  1.
     -623    1    1    2    0    0 -0.14457857061E+00  0.19057120840E+00  0.16679259785E+00  0.17130024822E+03  0.17130000000E+03 0.  1.
      622    1    1    2    0    0 -0.32123732213E-01 -0.61396611764E-01  0.27403301298E+01  0.28851708265E+01  0.90000000000E+00 0.  1.
</event>
<event>
 5   0  0.4857400E+02  0.9118800E+02  0.7818608E-02  0.1180000E+00
       11   -1    0    0    0    0  0.00000000000E+00  0.00000000000E+00  0.39999999673E+01  0.40000000000E+01  0.51109989000E-03 0. -1.
     -623   -1    0    0    0    0  0.00000000000E+00  0.00000000000E+00  0.12525980253E-10  0.17130000000E+03  0.17130000000E+03 0.  1.
       11    1    1    2    0    0 -0.24252075744E-01  0.30047561516E-01  0.49692245254E-01  0.62933294777E-01  0.51109989000E-03 0. -1.
     -623    1    1    2    0    0  0.86888284512E-01  0.20097708469E-01  0.11839547968E+00  0.17130006413E+03  0.17130000000E+03 0.  1.
      622    1    1    2    0    0 -0.62636208769E-01 -0.50145269985E-01  0.38319122424E+01  0.39370025751E+01  0.90000000000E+00 0. -1.
</event>
<event>
 5   0  0.4857400E+02  0.9118800E+02  0.7818608E-02  0.1180000E+00
       11   -1    0    0    0    0  0.00000000000E+00  0.00000000000E+00  0.39999999673E+01  0.40000000000E+01  0.51109989000E-03 0. -1.
     -623   -1    0    0    0    0  0.00000000000E+00  0.00000000000E+00  0.12525980253E-10  0.17130000000E+03  0.17130000000E+03 0. -1.
       11    1    1    2    0    0 -0.28595728906E+00  0.72886864179E-01  0.33786755758E+00  0.44859649333E+00  0.51109989000E-03 0. -1.
     -623    1    1    2    0    0 -0.15410442560E+00 -0.19565744141E+00  0.25756507868E+00  0.17130037469E+03  0.17130000000E+03 0. -1.
      622    1    1    2    0    0  0.44006171466E+00  0.12277057723E+00  0.34045673311E+01  0.35510288142E+01  0.90000000000E+00 0. -1.
</event>
<event>
 5   0  0.4857400E+02  0.9118800E+02  0.7818608E-02  0.1180000E+00
       11   -1    0    0    0    0  0.00000000000E+00  0.00000000000E+00  0.39999999673E+01  0.40000000000E+01  0.51109989000E-03 0. -1.
     -623   -1    0    0    0    0  0.00000000000E+00  0.00000000000E+00  0.12525980253E-10  0.17130000000E+03  0.17130000000E+03 0. -1.
       11    1    1    2    0    0  0.18360205743E+00 -0.12188507378E+00  0.15438526782E+00  0.26907389105E+00  0.51109989000E-03 0. -1.
     -623    1    1    2    0    0  0.16403536257E+00  0.56804335319E-04  0.24391594230E+00  0.17130025220E+03  0.17130000000E+03 0. -1.
      622    1    1    2    0    0 -0.34763742000E+00  0.12182826945E+00  0.36016987572E+01  0.37306739124E+01  0.90000000000E+00 0. -1.
</event>
<event>
 5   0  0.4857400E+02  0.9118800E+02  0.7818608E-02  0.1180000E+00
       11   -1    0    0    0    0  0.00000000000E+00  0.00000000000E+00  0.39999999673E+01  0.40000000000E+01  0.51109989000E-03 0.  1.
     -623   -1    0    0    0    0  0.00000000000E+00  0.00000000000E+00  0.12525980253E-10  0.17130000000E+03  0.17130000000E+03 0.  1.
       11    1    1    2    0    0  0.30598457373E+00  0.23838704539E+00  0.29820456736E+00  0.48926594812E+00  0.51109989000E-03 0.  1.
     -623    1    1    2    0    0 -0.23401541116E+00  0.95449678882E-01  0.32612680560E+00  0.17130049688E+03  0.17130000000E+03 0.  1.
      622    1    1    2    0    0 -0.71969162566E-01 -0.33383672427E+00  0.33756685944E+01  0.35102371683E+01  0.90000000000E+00 0.  1.
</event>
<event>
 5   0  0.4857400E+02  0.9118800E+02  0.7818608E-02  0.1180000E+00
       11   -1    0    0    0    0  0.00000000000E+00  0.00000000000E+00  0.39999999673E+01  0.40000000000E+01  0.51109989000E-03 0.  1.
     -623   -1    0    0    0    0  0.00000000000E+00  0.00000000000E+00  0.12525980253E-10  0.17130000000E+03  0.17130000000E+03 0. -1.
       11    1    1    2    0    0  0.43371754728E-01  0.78228687896E-02  0.41176978526E+00  0.41412187054E+00  0.51109989000E-03 0.  1.
     -623    1    1    2    0    0 -0.18718429784E-01 -0.10759283436E+00  0.11873232726E+00  0.17130007596E+03  0.17130000000E+03 0. -1.
      622    1    1    2    0    0 -0.24653324943E-01  0.99769965572E-01  0.34694978548E+01  0.35858021693E+01  0.90000000000E+00 0.  1.
</event>
<event>
 5   0  0.4857400E+02  0.9118800E+02  0.7818608E-02  0.1180000E+00
       11   -1    0    0    0    0  0.00000000000E+00  0.00000000000E+00  0.39999999673E+01  0.40000000000E+01  0.51109989000E-03 0. -1.
     -623   -1    0    0    0    0  0.00000000000E+00  0.00000000000E+00  0.12525980253E-10  0.17130000000E+03  0.17130000000E+03 0. -1.
       11    1    1    2    0    0 -0.11110735321E-01 -0.70536378903E-01 -0.45459507802E-01  0.84650205316E-01  0.51109989000E-03 0. -1.
     -623    1    1    2    0    0  0.13451016794E+00 -0.76872088252E-01  0.24004994521E+00  0.17130023826E+03  0.17130000000E+03 0. -1.
      622    1    1    2    0    0 -0.12339943262E+00  0.14740846715E+00  0.38054095300E+01  0.39151115395E+01  0.90000000000E+00 0. -1.
</event>
<event>
 5   0  0.4857400E+02  0.9118800E+02  0.7818608E-02  0.1180000E+00
       11   -1    0    0    0    0  0.00000000000E+00  0.00000000000E+00  0.39999999673E+01  0.40000000000E+01  0.51109989000E-03 0.  1.
     -623   -1    0    0    0    0  0.00000000000E+00  0.00000000000E+00  0.12525980253E-10  0.17130000000E+03  0.17130000000E+03 0. -1.
       11    1    1    2    0    0 -0.18977355362E-01 -0.29994088570E-01 -0.19958825048E-01  0.40723473398E-01  0.51109989000E-03 0.  1.
     -623    1    1    2    0    0  0.54755336775E-01  0.14551683675E-01  0.16461813895E+00  0.17130008847E+03  0.17130000000E+03 0. -1.
      622    1    1    2    0    0 -0.35777981413E-01  0.15442404895E-01  0.38553406535E+01  0.39591880589E+01  0.90000000000E+00 0.  1.
</event>
<event>
 5   0  0.4857400E+02  0.9118800E+02  0.7818608E-02  0.1180000E+00
       11   -1    0    0    0    0  0.00000000000E+00  0.00000000000E+00  0.39999999673E+01  0.40000000000E+01  0.51109989000E-03 0. -1.
     -623   -1    0    0    0    0  0.00000000000E+00  0.00000000000E+00  0.12525980253E-10  0.17130000000E+03  0.17130000000E+03 0. -1.
       11    1    1    2    0    0 -0.33554681418E-01 -0.18155747015E+00  0.14740809201E+00  0.23625926104E+00  0.51109989000E-03 0. -1.
     -623    1    1    2    0    0  0.12430629976E+00 -0.46725466808E-02  0.20408920368E+00  0.17130016674E+03  0.17130000000E+03 0. -1.
      622    1    1    2    0    0 -0.90751618344E-01  0.18623001683E+00  0.36485026717E+01  0.37635739956E+01  0.90000000000E+00 0. -1.
</event>
<event>
 5   0  0.4857400E+02  0.9118800E+02  0.7818608E-02  0.1180000E+00
       11   -1    0    0    0    0  0.00000000000E+00  0.00000000000E+00  0.39999999673E+01  0.40000000000E+01  0.51109989000E-03 0. -1.
     -623   -1    0    0    0    0  0.00000000000E+00  0.00000000000E+00  0.12525980253E-10  0.17130000000E+03  0.17130000000E+03 0.  1.
       11    1    1    2    0    0  0.50512345157E-01 -0.48785372436E-01  0.55832950999E-01  0.89716716487E-01  0.51109989000E-03 0. -1.
     -623    1    1    2    0    0 -0.14002164605E+00  0.39162891390E-01  0.14005338085E+00  0.17130011896E+03  0.17130000000E+03 0.  1.
      622    1    1    2    0    0  0.89509300895E-01  0.96224810458E-02  0.38041136355E+01  0.39101643263E+01  0.90000000000E+00 0. -1.
</event>
<event>
 5   0  0.4857400E+02  0.9118800E+02  0.7818608E-02  0.1180000E+00
       11   -1    0    0    0    0  0.00000000000E+00  0.00000000000E+00  0.39999999673E+01  0.40000000000E+01  0.51109989000E-03 0. -1.
     -623   -1    0    0    0    0  0.00000000000E+00  0.00000000000E+00  0.12525980253E-10  0.17130000000E+03  0.17130000000E+03 0.  1.
       11    1    1    2    0    0  0.21673545189E-01 -0.21005874917E-01  0.18468327613E-01  0.35388270492E-01  0.51109989000E-03 0. -1.
     -623    1    1    2    0    0 -0.53218249457E-01  0.59701260607E-01  0.12081047221E+00  0.17130006127E+03  0.17130000000E+03 0.  1.
      622    1    1    2    0    0  0.31544704268E-01 -0.38695385690E-01  0.38607211675E+01  0.39645504581E+01  0.90000000000E+00 0. -1.
</event>
<event>
 5   0  0.4857400E+02  0.9118800E+02  0.7818608E-02  0.1180000E+00
       11   -1    0    0    0    0  0.00000000000E+00  0.00000000000E+00  0.39999999673E+01  0.40000000000E+01  0.51109989000E-03 0.  1.
     -623   -1    0    0    0    0  0.00000000000E+00  0.00000000000E+00  0.12525980253E-10  0.17130000000E+03  0.17130000000E+03 0.  1.
       11    1    1    2    0    0  0.18911549522E+00 -0.15468437702E+00  0.74050802894E+00  0.77977197255E+00  0.51109989000E-03 0.  1.
     -623    1    1    2    0    0 -0.75770949549E-02  0.23492336900E+00  0.17422615895E+00  0.17130024986E+03  0.17130000000E+03 0.  1.
      622    1    1    2    0    0 -0.18153840027E+00 -0.80238991983E-01  0.30852657795E+01  0.32199781702E+01  0.90000000000E+00 0.  1.
</event>
<event>
 5   0  0.4857400E+02  0.9118800E+02  0.7818608E-02  0.1180000E+00
       11   -1    0    0    0    0  0.00000000000E+00  0.00000000000E+00  0.39999999673E+01  0.40000000000E+01  0.51109989000E-03 0. -1.
     -623   -1    0    0    0    0  0.00000000000E+00  0.00000000000E+00  0.12525980253E-10  0.17130000000E+03  0.17130000000E+03 0.  1.
       11    1    1    2    0    0 -0.21996626378E+00 -0.17605833917E+00  0.37402679770E+00  0.46827129168E+00  0.51109989000E-03 0. -1.
     -623    1    1    2    0    0  0.31118721539E+00  0.30832732706E+00  0.21534577763E+00  0.17130069549E+03  0.17130000000E+03 0.  1.
      622    1    1    2    0    0 -0.91220951607E-01 -0.13226898790E+00  0.34106273920E+01  0.35310332134E+01  0.90000000000E+00 0. -1.
</event>
<event>
 5   0  0.4857400E+02  0.9118800E+02  0.7818608E-02  0.1180000E+00
       11   -1    0    0    0    0  0.00000000000E+00  0.00000000000E+00  0.39999999673E+01  0.40000000000E+01  0.51109989000E-03 0.  1.
     -623   -1    0    0    0    0  0.00000000000E+00  0.00000000000E+00  0.12525980253E-10  0.17130000000E+03  0.17130000000E+03 0.  1.
       11    1    1    2    0    0  0.13419028581E+00 -0.91198688852E-01  0.15146493815E+00  0.22195973141E+00  0.51109989000E-03 0.  1.
     -623    1    1    2    0    0  0.18852459902E+00  0.19755183548E-01  0.19439856662E+00  0.17130021519E+03  0.17130000000E+03 0.  1.
      622    1    1    2    0    0 -0.32271488483E+00  0.71443505304E-01  0.36541364626E+01  0.37778250831E+01  0.90000000000E+00 0.  1.
</event>
<event>
 5   0  0.4857400E+02  0.9118800E+02  0.7818608E-02  0.1180000E+00
       11   -1    0    0    0    0  0.00000000000E+00  0.00000000000E+00  0.39999999673E+01  0.40000000000E+01  0.51109989000E-03 0.  1.
     -623   -1    0    0    0    0  0.00000000000E+00  0.00000000000E+00  0.12525980253E-10  0.17130000000E+03  0.17130000000E+03 0. -1.
       11    1    1    2    0    0  0.83812219971E-02 -0.26901954850E-01  0.33631766150E-01  0.43878434047E-01  0.51109989000E-03 0.  1.
     -623    1    1    2    0    0  0.35807394417E-01  0.18934169359E-01  0.11428536292E+00  0.17130004291E+03  0.17130000000E+03 0. -1.
      622    1    1    2    0    0 -0.44188616414E-01  0.79677854911E-02  0.38520828383E+01  0.39560786535E+01  0.90000000000E+00 0.  1.
</event>
<event>
 5   0  0.4857400E+02  0.9118800E+02  0.7818608E-02  0.1180000E+00
       11   -1    0    0    0    0  0.00000000000E+00  0.00000000000E+00  0.39999999673E+01  0.40000000000E+01  0.51109989000E-03 0.  1.
     -623   -1    0    0    0    0  0.00000000000E+00  0.00000000000E+00  0.12525980253E-10  0.17130000000E+03  0.17130000000E+03 0. -1.
       11    1    1    2    0    0  0.11990602402E+00 -0.86466278696E-01  0.46048982391E+00  0.48363727223E+00  0.51109989000E-03 0.  1.
     -623    1    1    2    0    0 -0.17372405646E+00 -0.12450604515E+00  0.14745809653E+00  0.17130019681E+03  0.17130000000E+03 0. -1.
      622    1    1    2    0    0  0.53818032432E-01  0.21097232385E+00  0.33920520469E+01  0.35161659220E+01  0.90000000000E+00 0.  1.
</event>
<event>
 5   0  0.4857400E+02  0.9118800E+02  0.7818608E-02  0.1180000E+00
       11   -1    0    0    0    0  0.00000000000E+00  0.00000000000E+00  0.39999999673E+01  0.40000000000E+01  0.51109989000E-03 0.  1.
     -623   -1    0    0    0    0  0.00000000000E+00  0.00000000000E+00  0.12525980253E-10  0.17130000000E+03  0.17130000000E+03 0.  1.
       11    1    1    2    0    0  0.30619707050E-01  0.45869507402E-01  0.10715246578E-01  0.56184124995E-01  0.51109989000E-03 0.  1.
     -623    1    1    2    0    0  0.12281324307E-01 -0.47858888685E-03  0.15011025581E+00  0.17130006621E+03  0.17130000000E+03 0.  1.
      622    1    1    2    0    0 -0.42901031357E-01 -0.45390918515E-01  0.38391744650E+01  0.39437496633E+01  0.90000000000E+00 0.  1.
</event>
<event>
 5   0  0.4857400E+02  0.9118800E+02  0.7818608E-02  0.1180000E+00
       11   -1    0    0    0    0  0.00000000000E+00  0.00000000000E+00  0.39999999673E+01  0.40000000000E+01  0.51109989000E-03 0. -1.
     -623   -1    0    0    0    0  0.00000000000E+00  0.00000000000E+00  0.12525980253E-10  0.17130000000E+03  0.17130000000E+03 0. -1.
       11    1    1    2    0    0 -0.35278099304E+00 -0.35038895609E-01  0.90521263775E+00  0.97215859510E+00  0.51109989000E-03 0. -1.
     -623    1    1    2    0    0  0.10293523536E+00 -0.14035126063E+00  0.22020101464E+00  0.17130022995E+03  0.17130000000E+03 0. -1.
      622    1    1    2    0    0  0.24984575768E+00  0.17539015624E+00  0.28745863150E+01  0.30276114499E+01  0.90000000000E+00 0.  0.
</event>
<event>
 5   0  0.4857400E+02  0.9118800E+02  0.7818608E-02  0.1180000E+00
       11   -1    0    0    0    0  0.00000000000E+00  0.00000000000E+00  0.39999999673E+01  0.40000000000E+01  0.51109989000E-03 0.  1.
     -623   -1    0    0    0    0  0.00000000000E+00  0.00000000000E+00  0.12525980253E-10  0.17130000000E+03  0.17130000000E+03 0.  1.
       11    1    1    2    0    0 -0.70414501609E-01 -0.74710195773E-01  0.13681434388E+00  0.17105040574E+00  0.51109989000E-03 0.  1.
     -623    1    1    2    0    0  0.19097249835E-01 -0.70722533423E-01  0.14478780604E+00  0.17130007685E+03  0.17130000000E+03 0.  1.
      622    1    1    2    0    0  0.51317251774E-01  0.14543272920E+00  0.37183978174E+01  0.38288727411E+01  0.90000000000E+00 0.  1.
</event>
<event>
 5   0  0.4857400E+02  0.9118800E+02  0.7818608E-02  0.1180000E+00
       11   -1    0    0    0    0  0.00000000000E+00  0.00000000000E+00  0.39999999673E+01  0.40000000000E+01  0.51109989000E-03 0.  1.
     -623   -1    0    0    0    0  0.00000000000E+00  0.00000000000E+00  0.12525980253E-10  0.17130000000E+03  0.17130000000E+03 0. -1.
       11    1    1    2    0    0 -0.43798508908E-01  0.45258335195E-01  0.13435619930E+00  0.14838623858E+00  0.51109989000E-03 0.  1.
     -623    1    1    2    0    0  0.12362356374E+00 -0.26347324920E-01  0.12164764851E+00  0.17130008983E+03  0.17130000000E+03 0. -1.
      622    1    1    2    0    0 -0.79825054832E-01 -0.18911010275E-01  0.37439961195E+01  0.38515239333E+01  0.90000000000E+00 0.  1.
</event>
<event>
 5   0  0.4857400E+02  0.9118800E+02  0.7818608E-02  0.1180000E+00
       11   -1    0    0    0    0  0.00000000000E+00  0.00000000000E+00  0.39999999673E+01  0.40000000000E+01  0.51109989000E-03 0. -1.
     -623   -1    0    0    0    0  0.00000000000E+00  0.00000000000E+00  0.12525980253E-10  0.17130000000E+03  0.17130000000E+03 0.  1.
       11    1    1    2    0    0  0.19201215227E-01  0.20034332775E+00  0.45466198672E+00  0.49721616932E+00  0.51109989000E-03 0. -1.
     -623    1    1    2    0    0 -0.10657983450E-01 -0.66396384653E-01  0.16290621196E+00  0.17130009066E+03  0.17130000000E+03 0.  1.
      622    1    1    2    0    0 -0.85432317774E-02 -0.13394694309E+00  0.33824317687E+01  0.35026931696E+01  0.90000000000E+00 0. -1.
</event>
<event>
 5   0  0.4857400E+02  0.9118800E+02  0.7818608E-02  0.1180000E+00
       11   -1    0    0    0    0  0.00000000000E+00  0.00000000000E+00  0.39999999673E+01  0.40000000000E+01  0.51109989000E-03 0. -1.
     -623   -1    0    0    0    0  0.00000000000E+00  0.00000000000E+00  0.12525980253E-10  0.17130000000E+03  0.17130000000E+03 0.  1.
       11    1    1    2    0    0  0.97715394586E-01  0.12914285316E+00  0.33690981634E+00  0.37381099560E+00  0.51109989000E-03 0. -1.
     -623    1    1    2    0    0  0.12786561446E+00 -0.10636779323E+00  0.15784719385E+00  0.17130015347E+03  0.17130000000E+03 0.  1.
      622    1    1    2    0    0 -0.22558100904E+00 -0.22775059928E-01  0.35052429572E+01  0.36260355326E+01  0.90000000000E+00 0. -1.
</event>
<event>
 5   0  0.4857400E+02  0.9118800E+02  0.7818608E-02  0.1180000E+00
       11   -1    0    0    0    0  0.00000000000E+00  0.00000000000E+00  0.39999999673E+01  0.40000000000E+01  0.51109989000E-03 0. -1.
     -623   -1    0    0    0    0  0.00000000000E+00  0.00000000000E+00  0.12525980253E-10  0.17130000000E+03  0.17130000000E+03 0. -1.
       11    1    1    2    0    0 -0.14091213431E+00  0.44808383850E-01  0.47042259929E+00  0.49311429101E+00  0.51109989000E-03 0. -1.
     -623    1    1    2    0    0  0.33338656676E-01 -0.68188485491E-01  0.14201218280E+00  0.17130007568E+03  0.17130000000E+03 0. -1.
      622    1    1    2    0    0  0.10757347763E+00  0.23380101641E-01  0.33875651853E+01  0.35068100272E+01  0.90000000000E+00 0. -1.
</event>
<event>
 5   0  0.4857400E+02  0.9118800E+02  0.7818608E-02  0.1180000E+00
       11   -1    0    0    0    0  0.00000000000E+00  0.00000000000E+00  0.39999999673E+01  0.40000000000E+01  0.51109989000E-03 0.  1.
     -623   -1    0    0    0    0  0.00000000000E+00  0.00000000000E+00  0.12525980253E-10  0.17130000000E+03  0.17130000000E+03 0.  1.
       11    1    1    2    0    0 -0.73188290138E-01 -0.51040770761E-01  0.65083872242E-01  0.11044391220E+00  0.51109989000E-03 0.  1.
     -623    1    1    2    0    0 -0.14289538350E+00  0.13185274045E+00  0.15814530505E+00  0.17130018335E+03  0.17130000000E+03 0.  1.
      622    1    1    2    0    0  0.21608367363E+00 -0.80811969688E-01  0.37767707901E+01  0.38893727424E+01  0.90000000000E+00 0.  1.
</event>
<event>
 5   0  0.4857400E+02  0.9118800E+02  0.7818608E-02  0.1180000E+00
       11   -1    0    0    0    0  0.00000000000E+00  0.00000000000E+00  0.39999999673E+01  0.40000000000E+01  0.51109989000E-03 0. -1.
     -623   -1    0    0    0    0  0.00000000000E+00  0.00000000000E+00  0.12525980253E-10  0.17130000000E+03  0.17130000000E+03 0.  1.
       11    1    1    2    0    0  0.70170205265E-01  0.32961460170E-01  0.57358836929E-01  0.96439685600E-01  0.51109989000E-03 0. -1.
     -623    1    1    2    0    0 -0.26688570827E+00 -0.25673140204E-01  0.14963642444E+00  0.17130027518E+03  0.17130000000E+03 0.  1.
      622    1    1    2    0    0  0.19671550301E+00 -0.72883199656E-02  0.37930047060E+01  0.39032851303E+01  0.90000000000E+00 0. -1.
</event>
<event>
 5   0  0.4857400E+02  0.9118800E+02  0.7818608E-02  0.1180000E+00
       11   -1    0    0    0    0  0.00000000000E+00  0.00000000000E+00  0.39999999673E+01  0.40000000000E+01  0.51109989000E-03 0.  1.
     -623   -1    0    0    0    0  0.00000000000E+00  0.00000000000E+00  0.12525980253E-10  0.17130000000E+03  0.17130000000E+03 0.  1.
       11    1    1    2    0    0  0.28610701821E+00 -0.95570234008E-03  0.53860476765E+00  0.60987990309E+00  0.51109989000E-03 0.  1.
     -623    1    1    2    0    0 -0.47611656357E-01  0.13671637280E+00  0.20465455350E+00  0.17130018343E+03  0.17130000000E+03 0.  1.
      622    1    1    2    0    0 -0.23849536186E+00 -0.13576067046E+00  0.32567406462E+01  0.33899366711E+01  0.90000000000E+00 0.  1.
</event>
<event>
 5   0  0.4857400E+02  0.9118800E+02  0.7818608E-02  0.1180000E+00
       11   -1    0    0    0    0  0.00000000000E+00  0.00000000000E+00  0.39999999673E+01  0.40000000000E+01  0.51109989000E-03 0.  1.
     -623   -1    0    0    0    0  0.00000000000E+00  0.00000000000E+00  0.12525980253E-10  0.17130000000E+03  0.17130000000E+03 0. -1.
       11    1    1    2    0    0 -0.74842161045E-01 -0.74663584245E-01  0.46727736461E+00  0.47908704489E+00  0.51109989000E-03 0.  1.
     -623    1    1    2    0    0 -0.22273513416E+00  0.18605836073E+00  0.14396031041E+00  0.17130030634E+03  0.17130000000E+03 0. -1.
      622    1    1    2    0    0  0.29757729520E+00 -0.11139477648E+00  0.33887622923E+01  0.35206066121E+01  0.90000000000E+00 0.  1.
</event>
<event>
 5   0  0.4857400E+02  0.9118800E+02  0.7818608E-02  0.1180000E+00
       11   -1    0    0    0    0  0.00000000000E+00  0.00000000000E+00  0.39999999673E+01  0.40000000000E+01  0.51109989000E-03 0.  1.
     -623   -1    0    0    0    0  0.00000000000E+00  0.00000000000E+00  0.12525980253E-10  0.17130000000E+03  0.17130000000E+03 0. -1.
       11    1    1    2    0    0  0.26516862874E-01 -0.16586562164E+00  0.24872232366E+00  0.30012931208E+00  0.51109989000E-03 0.  1.
     -623    1    1    2    0    0 -0.12530499663E+00  0.26668443849E+00  0.16566030472E+00  0.17130033352E+03  0.17130000000E+03 0. -1.
      622    1    1    2    0    0  0.98788133758E-01 -0.10081881685E+00  0.35856173390E+01  0.36995371644E+01  0.90000000000E+00 0.  1.
</event>
<event>
 5   0  0.4857400E+02  0.9118800E+02  0.7818608E-02  0.1180000E+00
       11   -1    0    0    0    0  0.00000000000E+00  0.00000000000E+00  0.39999999673E+01  0.40000000000E+01  0.51109989000E-03 0. -1.
     -623   -1    0    0    0    0  0.00000000000E+00  0.00000000000E+00  0.12525980253E-10  0.17130000000E+03  0.17130000000E+03 0. -1.
       11    1    1    2    0    0  0.13871050792E-01  0.60786251568E-01  0.34913689163E-01  0.71460487991E-01  0.51109989000E-03 0. -1.
     -623    1    1    2    0    0  0.11501820626E-02 -0.45012784066E-01  0.14115573329E+00  0.17130006408E+03  0.17130000000E+03 0. -1.
      622    1    1    2    0    0 -0.15021232854E-01 -0.15773467502E-01  0.38239305449E+01  0.39284754361E+01  0.90000000000E+00 0. -1.
</event>
<event>
 5   0  0.4857400E+02  0.9118800E+02  0.7818608E-02  0.1180000E+00
       11   -1    0    0    0    0  0.00000000000E+00  0.00000000000E+00  0.39999999673E+01  0.40000000000E+01  0.51109989000E-03 0. -1.
     -623   -1    0    0    0    0  0.00000000000E+00  0.00000000000E+00  0.12525980253E-10  0.17130000000E+03  0.17130000000E+03 0. -1.
       11    1    1    2    0    0 -0.13655487552E-01 -0.16712626954E+00  0.20069477172E+00  0.26152689141E+00  0.51109989000E-03 0. -1.
     -623    1    1    2    0    0 -0.37296593214E-01  0.18183297814E-01  0.17429478084E+00  0.17130009370E+03  0.17130000000E+03 0. -1.
      622    1    1    2    0    0  0.50952080766E-01  0.14894297173E+00  0.36250104148E+01  0.37383794124E+01  0.90000000000E+00 0. -1.
</event>
<event>
 5   0  0.4857400E+02  0.9118800E+02  0.7818608E-02  0.1180000E+00
       11   -1    0    0    0    0  0.00000000000E+00  0.00000000000E+00  0.39999999673E+01  0.40000000000E+01  0.51109989000E-03 0.  1.
     -623   -1    0    0    0    0  0.00000000000E+00  0.00000000000E+00  0.12525980253E-10  0.17130000000E+03  0.17130000000E+03 0.  1.
       11    1    1    2    0    0 -0.60930985482E-01 -0.29842704344E-01  0.30624488491E-01  0.74439858355E-01  0.51109989000E-03 0.  1.
     -623    1    1    2    0    0  0.16708457509E+00  0.13794192301E+00  0.15159261331E+00  0.17130020410E+03  0.17130000000E+03 0.  1.
      622    1    1    2    0    0 -0.10615358961E+00 -0.10809921866E+00  0.38177828656E+01  0.39253560392E+01  0.90000000000E+00 0.  1.
</event>
<event>
 5   0  0.4857400E+02  0.9118800E+02  0.7818608E-02  0.1180000E+00
       11   -1    0    0    0    0  0.00000000000E+00  0.00000000000E+00  0.39999999673E+01  0.40000000000E+01  0.51109989000E-03 0. -1.
     -623   -1    0    0    0    0  0.00000000000E+00  0.00000000000E+00  0.12525980253E-10  0.17130000000E+03  0.17130000000E+03 0. -1.
       11    1    1    2    0    0  0.47088576464E-01  0.40710065748E-01  0.47650383510E+00  0.48055260854E+00  0.51109989000E-03 0. -1.
     -623    1    1    2    0    0 -0.14281240340E+00 -0.22873766362E-01  0.12257121177E+00  0.17130010491E+03  0.17130000000E+03 0. -1.
      622    1    1    2    0    0  0.95723826939E-01 -0.17836299387E-01  0.34009249205E+01  0.35193424811E+01  0.90000000000E+00 0. -1.
</event>
<event>
 5   0  0.4857400E+02  0.9118800E+02  0.7818608E-02  0.1180000E+00
       11   -1    0    0    0    0  0.00000000000E+00  0.00000000000E+00  0.39999999673E+01  0.40000000000E+01  0.51109989000E-03 0.  1.
     -623   -1    0    0    0    0  0.00000000000E+00  0.00000000000E+00  0.12525980253E-10  0.17130000000E+03  0.17130000000E+03 0. -1.
       11    1    1    2    0    0 -0.63998851116E-01 -0.11725595005E+00  0.73540580278E+00  0.74744014259E+00  0.51109989000E-03 0.  1.
     -623    1    1    2    0    0  0.17345802450E+00  0.37802060405E-01  0.14211606143E+00  0.17130015094E+03  0.17130000000E+03 0. -1.
      622    1    1    2    0    0 -0.10945917338E+00  0.79453889642E-01  0.31224781031E+01  0.32524089128E+01  0.90000000000E+00 0.  1.
</event>
<event>
 5   0  0.4857400E+02  0.9118800E+02  0.7818608E-02  0.1180000E+00
       11   -1    0    0    0    0  0.00000000000E+00  0.00000000000E+00  0.39999999673E+01  0.40000000000E+01  0.51109989000E-03 0. -1.
     -623   -1    0    0    0    0  0.00000000000E+00  0.00000000000E+00  0.12525980253E-10  0.17130000000E+03  0.17130000000E+03 0.  1.
       11    1    1    2    0    0  0.28447420359E-01  0.12291668144E-01  0.24279441775E-01  0.39371224829E-01  0.51109989000E-03 0. -1.
     -623    1    1    2    0    0  0.50326568503E-02 -0.83820745638E-01  0.11957616269E+00  0.17130006232E+03  0.17130000000E+03 0.  1.
      622    1    1    2    0    0 -0.33480077209E-01  0.71529077493E-01  0.38561443629E+01  0.39605664585E+01  0.90000000000E+00 0. -1.
</event>
<event>
 5   0  0.4857400E+02  0.9118800E+02  0.7818608E-02  0.1180000E+00
       11   -1    0    0    0    0  0.00000000000E+00  0.00000000000E+00  0.39999999673E+01  0.40000000000E+01  0.51109989000E-03 0.  1.
     -623   -1    0    0    0    0  0.00000000000E+00  0.00000000000E+00  0.12525980253E-10  0.17130000000E+03  0.17130000000E+03 0.  1.
       11    1    1    2    0    0  0.43820639571E-01 -0.52006694196E-01  0.41063980625E+00  0.41623341575E+00  0.51109989000E-03 0.  1.
     -623    1    1    2    0    0 -0.67117175841E-01  0.74620846717E-01  0.12066971141E+00  0.17130007190E+03  0.17130000000E+03 0.  1.
      622    1    1    2    0    0  0.23296536270E-01 -0.22614152521E-01  0.34686904497E+01  0.35836946807E+01  0.90000000000E+00 0.  1.
</event>
<event>
 5   0  0.4857400E+02  0.9118800E+02  0.7818608E-02  0.1180000E+00
       11   -1    0    0    0    0  0.00000000000E+00  0.00000000000E+00  0.39999999673E+01  0.40000000000E+01  0.51109989000E-03 0.  1.
     -623   -1    0    0    0    0  0.00000000000E+00  0.00000000000E+00  0.12525980253E-10  0.17130000000E+03  0.17130000000E+03 0.  1.
       11    1    1    2    0    0 -0.55235712007E-01 -0.16328401160E-01  0.66926493611E+00  0.67173909853E+00  0.51109989000E-03 0.  1.
     -623    1    1    2    0    0  0.14085471803E+00  0.92818121161E-01  0.12866306973E+00  0.17130013138E+03  0.17130000000E+03 0.  1.
      622    1    1    2    0    0 -0.85619006026E-01 -0.76489720001E-01  0.32020719615E+01  0.33281295255E+01  0.90000000000E+00 0.  1.
</event>
<event>
 5   0  0.4857400E+02  0.9118800E+02  0.7818608E-02  0.1180000E+00
       11   -1    0    0    0    0  0.00000000000E+00  0.00000000000E+00  0.39999999673E+01  0.40000000000E+01  0.51109989000E-03 0. -1.
     -623   -1    0    0    0    0  0.00000000000E+00  0.00000000000E+00  0.12525980253E-10  0.17130000000E+03  0.17130000000E+03 0.  1.
       11    1    1    2    0    0 -0.21695562016E-01  0.15913986395E+00  0.16228571301E+00  0.22832675616E+00  0.51109989000E-03 0. -1.
     -623    1    1    2    0    0  0.19290411564E+00 -0.69426554051E-01  0.18032216933E+00  0.17130021760E+03  0.17130000000E+03 0.  1.
      622    1    1    2    0    0 -0.17120855363E+00 -0.89713309901E-01  0.36573920850E+01  0.37714556487E+01  0.90000000000E+00 0. -1.
</event>
<event>
 5   0  0.4857400E+02  0.9118800E+02  0.7818608E-02  0.1180000E+00
       11   -1    0    0    0    0  0.00000000000E+00  0.00000000000E+00  0.39999999673E+01  0.40000000000E+01  0.51109989000E-03 0.  1.
     -623   -1    0    0    0    0  0.00000000000E+00  0.00000000000E+00  0.12525980253E-10  0.17130000000E+03  0.17130000000E+03 0.  1.
       11    1    1    2    0    0 -0.10395384146E+00  0.23271527561E+00  0.17376604063E+00  0.30847641523E+00  0.51109989000E-03 0.  1.
     -623    1    1    2    0    0  0.97145678470E-01 -0.22642932037E+00  0.24647930089E+00  0.17130035452E+03  0.17130000000E+03 0.  1.
      622    1    1    2    0    0  0.68081629882E-02 -0.62859552355E-02  0.35797546258E+01  0.36911690622E+01  0.90000000000E+00 0.  1.
</event>
<event>
 5   0  0.4857400E+02  0.9118800E+02  0.7818608E-02  0.1180000E+00
       11   -1    0    0    0    0  0.00000000000E+00  0.00000000000E+00  0.39999999673E+01  0.40000000000E+01  0.51109989000E-03 0.  1.
     -623   -1    0    0    0    0  0.00000000000E+00  0.00000000000E+00  0.12525980253E-10  0.17130000000E+03  0.17130000000E+03 0.  1.
       11    1    1    2    0    0  0.15268629342E+00 -0.25239198691E+00  0.77483873363E+00  0.82908994905E+00  0.51109989000E-03 0.  1.
     -623    1    1    2    0    0 -0.34583195961E+00 -0.82126843836E-01  0.20981563759E+00  0.17130049728E+03  0.17130000000E+03 0.  1.
      622    1    1    2    0    0  0.19314566619E+00  0.33451883075E+00  0.30153455961E+01  0.31704127745E+01  0.90000000000E+00 0.  1.
</event>
<event>
 5   0  0.4857400E+02  0.9118800E+02  0.7818608E-02  0.1180000E+00
       11   -1    0    0    0    0  0.00000000000E+00  0.00000000000E+00  0.39999999673E+01  0.40000000000E+01  0.51109989000E-03 0.  1.
     -623   -1    0    0    0    0  0.00000000000E+00  0.00000000000E+00  0.12525980253E-10  0.17130000000E+03  0.17130000000E+03 0. -1.
       11    1    1    2    0    0  0.40694009991E-01 -0.11276903669E+00  0.37704382419E+00  0.39564525104E+00  0.51109989000E-03 0.  1.
     -623    1    1    2    0    0 -0.77165238135E-01 -0.42903833345E-01  0.13651773090E+00  0.17130007715E+03  0.17130000000E+03 0. -1.
      622    1    1    2    0    0  0.36471228144E-01  0.15567287004E+00  0.34864384123E+01  0.36042775969E+01  0.90000000000E+00 0.  1.
</event>
<event>
 5   0  0.4857400E+02  0.9118800E+02  0.7818608E-02  0.1180000E+00
       11   -1    0    0    0    0  0.00000000000E+00  0.00000000000E+00  0.39999999673E+01  0.40000000000E+01  0.51109989000E-03 0.  1.
     -623   -1    0    0    0    0  0.00000000000E+00  0.00000000000E+00  0.12525980253E-10  0.17130000000E+03  0.17130000000E+03 0.  1.
       11    1    1    2    0    0  0.13312673497E+00  0.77955977110E-01  0.33611840448E+00  0.36983199562E+00  0.51109989000E-03 0.  1.
     -623    1    1    2    0    0  0.55919708903E-01 -0.19279504100E+00  0.15420418178E+00  0.17130018703E+03  0.17130000000E+03 0.  1.
      622    1    1    2    0    0 -0.18904644387E+00  0.11483906389E+00  0.35096773811E+01  0.36299809763E+01  0.90000000000E+00 0.  1.
</event>
<event>
 5   0  0.4857400E+02  0.9118800E+02  0.7818608E-02  0.1180000E+00
       11   -1    0    0    0    0  0.00000000000E+00  0.00000000000E+00  0.39999999673E+01  0.40000000000E+01  0.51109989000E-03 0.  1.
     -623   -1    0    0    0    0  0.00000000000E+00  0.00000000000E+00  0.12525980253E-10  0.17130000000E+03  0.17130000000E+03 0.  1.
       11    1    1    2    0    0  0.50128054875E-01  0.77243817152E-01  0.81629941856E-01  0.12305745733E+00  0.51109989000E-03 0.  1.
     -623    1    1    2    0    0  0.34961824099E-01 -0.86271530649E-01  0.14840090674E+00  0.17130008957E+03  0.17130000000E+03 0.  1.
      622    1    1    2    0    0 -0.85089878974E-01  0.90277134969E-02  0.37699691188E+01  0.38768529690E+01  0.90000000000E+00 0.  1.
</event>
<event>
 5   0  0.4857400E+02  0.9118800E+02  0.7818608E-02  0.1180000E+00
       11   -1    0    0    0    0  0.00000000000E+00  0.00000000000E+00  0.39999999673E+01  0.40000000000E+01  0.51109989000E-03 0. -1.
     -623   -1    0    0    0    0  0.00000000000E+00  0.00000000000E+00  0.12525980253E-10  0.17130000000E+03  0.17130000000E+03 0. -1.
       11    1    1    2    0    0 -0.46375234120E-01  0.11907955318E+00 -0.17836575648E-01  0.12903103107E+00  0.51109989000E-03 0. -1.
     -623    1    1    2    0    0 -0.32170435297E+00  0.56040900644E-01  0.27562798964E+00  0.17130053300E+03  0.17130000000E+03 0. -1.
      622    1    1    2    0    0  0.36807958709E+00 -0.17512045383E+00  0.37422085534E+01  0.38704359719E+01  0.90000000000E+00 0. -1.
</event>
<event>
 5   0  0.4857400E+02  0.9118800E+02  0.7818608E-02  0.1180000E+00
       11   -1    0    0    0    0  0.00000000000E+00  0.00000000000E+00  0.39999999673E+01  0.40000000000E+01  0.51109989000E-03 0. -1.
     -623   -1    0    0    0    0  0.00000000000E+00  0.00000000000E+00  0.12525980253E-10  0.17130000000E+03  0.17130000000E+03 0.  1.
       11    1    1    2    0    0  0.24572413768E-01 -0.38218076454E-01  0.77137426526E-01  0.89525798965E-01  0.51109989000E-03 0. -1.
     -623    1    1    2    0    0  0.60741291754E-01  0.56237379364E-02  0.11851475518E+00  0.17130005186E+03  0.17130000000E+03 0.  1.
      622    1    1    2    0    0 -0.85313705521E-01  0.32594338518E-01  0.38043477857E+01  0.39104223421E+01  0.90000000000E+00 0. -1.
</event>
<event>
 5   0  0.4857400E+02  0.9118800E+02  0.7818608E-02  0.1180000E+00
       11   -1    0    0    0    0  0.00000000000E+00  0.00000000000E+00  0.39999999673E+01  0.40000000000E+01  0.51109989000E-03 0. -1.
     -623   -1    0    0    0    0  0.00000000000E+00  0.00000000000E+00  0.12525980253E-10  0.17130000000E+03  0.17130000000E+03 0.  1.
       11    1    1    2    0    0  0.51881978602E-02  0.76890656151E-01  0.14260539616E+00  0.16209765772E+00  0.51109989000E-03 0. -1.
     -623    1    1    2    0    0  0.50692319040E-01 -0.12262454322E+00  0.12731111683E+00  0.17130009870E+03  0.17130000000E+03 0.  1.
      622    1    1    2    0    0 -0.55880516901E-01  0.45733887065E-01  0.37300834544E+01  0.38378036423E+01  0.90000000000E+00 0. -1.
</event>
<event>
 5   0  0.4857400E+02  0.9118800E+02  0.7818608E-02  0.1180000E+00
       11   -1    0    0    0    0  0.00000000000E+00  0.00000000000E+00  0.39999999673E+01  0.40000000000E+01  0.51109989000E-03 0. -1.
     -623   -1    0    0    0    0  0.00000000000E+00  0.00000000000E+00  0.12525980253E-10  0.17130000000E+03  0.17130000000E+03 0. -1.
       11    1    1    2    0    0 -0.76767534564E-01 -0.87771911735E-02  0.10751865506E+00  0.13240398730E+00  0.51109989000E-03 0. -1.
     -623    1    1    2    0    0  0.19987381142E+00  0.14294694827E+00  0.13570567799E+00  0.17130023000E+03  0.17130000000E+03 0. -1.
      622    1    1    2    0    0 -0.12310627685E+00 -0.13416975710E+00  0.37567756343E+01  0.38673660088E+01  0.90000000000E+00 0. -1.
</event>
<event>
 5   0  0.4857400E+02  0.9118800E+02  0.7818608E-02  0.1180000E+00
       11   -1    0    0    0    0  0.00000000000E+00  0.00000000000E+00  0.39999999673E+01  0.40000000000E+01  0.51109989000E-03 0.  1.
     -623   -1    0    0    0    0  0.00000000000E+00  0.00000000000E+00  0.12525980253E-10  0.17130000000E+03  0.17130000000E+03 0.  1.
       11    1    1    2    0    0  0.99246794362E-01  0.32415388534E-01  0.74434206741E+00  0.75162893647E+00  0.51109989000E-03 0.  1.
     -623    1    1    2    0    0 -0.12751999334E+00 -0.92134568123E-01  0.13528413511E+00  0.17130012566E+03  0.17130000000E+03 0.  1.
      622    1    1    2    0    0  0.28273198980E-01  0.59719179589E-01  0.31203737648E+01  0.32482454012E+01  0.90000000000E+00 0.  1.
</event>
<event>
 5   0  0.4857400E+02  0.9118800E+02  0.7818608E-02  0.1180000E+00
       11   -1    0    0    0    0  0.00000000000E+00  0.00000000000E+00  0.39999999673E+01  0.40000000000E+01  0.51109989000E-03 0.  1.
     -623   -1    0    0    0    0  0.00000000000E+00  0.00000000000E+00  0.12525980253E-10  0.17130000000E+03  0.17130000000E+03 0. -1.
       11    1    1    2    0    0  0.66357304167E-01  0.43280051917E-01 -0.10225698124E-01  0.79882919548E-01  0.51109989000E-03 0.  1.
     -623    1    1    2    0    0 -0.38021778847E+00 -0.12026786684E+00  0.20914128564E+00  0.17130059186E+03  0.17130000000E+03 0. -1.
      622    1    1    2    0    0  0.31386048430E+00  0.76987814920E-01  0.38010843798E+01  0.39195252251E+01  0.90000000000E+00 0.  1.
</event>
<event>
 5   0  0.4857400E+02  0.9118800E+02  0.7818608E-02  0.1180000E+00
       11   -1    0    0    0    0  0.00000000000E+00  0.00000000000E+00  0.39999999673E+01  0.40000000000E+01  0.51109989000E-03 0.  1.
     -623   -1    0    0    0    0  0.00000000000E+00  0.00000000000E+00  0.12525980253E-10  0.17130000000E+03  0.17130000000E+03 0.  1.
       11    1    1    2    0    0  0.31710030968E-01  0.38042936037E-01  0.28885037737E+00  0.29306585058E+00  0.51109989000E-03 0.  1.
     -623    1    1    2    0    0  0.57931906155E-02 -0.13623390781E+00  0.11676293163E+00  0.17130009407E+03  0.17130000000E+03 0.  1.
      622    1    1    2    0    0 -0.37503221584E-01  0.98190971776E-01  0.35943866584E+01  0.37068400840E+01  0.90000000000E+00 0.  1.
</event>
<event>
 5   0  0.4857400E+02  0.9118800E+02  0.7818608E-02  0.1180000E+00
       11   -1    0    0    0    0  0.00000000000E+00  0.00000000000E+00  0.39999999673E+01  0.40000000000E+01  0.51109989000E-03 0.  1.
     -623   -1    0    0    0    0  0.00000000000E+00  0.00000000000E+00  0.12525980253E-10  0.17130000000E+03  0.17130000000E+03 0. -1.
       11    1    1    2    0    0  0.12214913029E-01  0.40834293148E-01 -0.50073920949E-03  0.42628107629E-01  0.51109989000E-03 0.  1.
     -623    1    1    2    0    0  0.15118821871E+00 -0.19424821030E-01  0.15049117674E+00  0.17130013393E+03  0.17130000000E+03 0. -1.
      622    1    1    2    0    0 -0.16340313174E+00 -0.21409472117E-01  0.38500095298E+01  0.39572379672E+01  0.90000000000E+00 0.  1.
</event>
<event>
 5   0  0.4857400E+02  0.9118800E+02  0.7818608E-02  0.1180000E+00
       11   -1    0    0    0    0  0.00000000000E+00  0.00000000000E+00  0.39999999673E+01  0.40000000000E+01  0.51109989000E-03 0. -1.
     -623   -1    0    0    0    0  0.00000000000E+00  0.00000000000E+00  0.12525980253E-10  0.17130000000E+03  0.17130000000E+03 0. -1.
       11    1    1    2    0    0 -0.77203352922E-02  0.27045273017E-01  0.62407592652E+00  0.62470959145E+00  0.51109989000E-03 0. -1.
     -623    1    1    2    0    0 -0.15922785901E+00 -0.54032500126E-01  0.12736919251E+00  0.17130012988E+03  0.17130000000E+03 0. -1.
      622    1    1    2    0    0  0.16694819430E+00  0.26987227110E-01  0.32485548483E+01  0.33751605314E+01  0.90000000000E+00 0. -1.
</event>
<event>
 5   0  0.4857400E+02  0.9118800E+02  0.7818608E-02  0.1180000E+00
       11   -1    0    0    0    0  0.00000000000E+00  0.00000000000E+00  0.39999999673E+01  0.40000000000E+01  0.51109989000E-03 0.  1.
     -623   -1    0    0    0    0  0.00000000000E+00  0.00000000000E+00  0.12525980253E-10  0.17130000000E+03  0.17130000000E+03 0.  1.
       11    1    1    2    0    0 -0.25752742714E-01  0.23316047046E-01  0.54706923167E-01  0.64807024871E-01  0.51109989000E-03 0.  1.
     -623    1    1    2    0    0  0.11048251973E-01 -0.14588512404E-01  0.11447816910E+00  0.17130003923E+03  0.17130000000E+03 0.  1.
      622    1    1    2    0    0  0.14704490741E-01 -0.87275346419E-02  0.38308148751E+01  0.39351537453E+01  0.90000000000E+00 0.  1.
</event>
<event>
 5   0  0.4857400E+02  0.9118800E+02  0.7818608E-02  0.1180000E+00
       11   -1    0    0    0    0  0.00000000000E+00  0.00000000000E+00  0.39999999673E+01  0.40000000000E+01  0.51109989000E-03 0.  1.
     -623   -1    0    0    0    0  0.00000000000E+00  0.00000000000E+00  0.12525980253E-10  0.17130000000E+03  0.17130000000E+03 0. -1.
       11    1    1    2    0    0  0.83769542059E-01 -0.15445048783E+00  0.58379914913E-01  0.18515065503E+00  0.51109989000E-03 0.  1.
     -623    1    1    2    0    0  0.23001282775E+00  0.55423148452E-01  0.24944216318E+00  0.17130034501E+03  0.17130000000E+03 0. -1.
      622    1    1    2    0    0 -0.31378236981E+00  0.99027339381E-01  0.36921778893E+01  0.38145043394E+01  0.90000000000E+00 0.  1.
</event>
<event>
 5   0  0.4857400E+02  0.9118800E+02  0.7818608E-02  0.1180000E+00
       11   -1    0    0    0    0  0.00000000000E+00  0.00000000000E+00  0.39999999673E+01  0.40000000000E+01  0.51109989000E-03 0. -1.
     -623   -1    0    0    0    0  0.00000000000E+00  0.00000000000E+00  0.12525980253E-10  0.17130000000E+03  0.17130000000E+03 0.  1.
       11    1    1    2    0    0 -0.86206875611E-01 -0.30264756399E+00  0.29814698800E+00  0.43349632186E+00  0.51109989000E-03 0. -1.
     -623    1    1    2    0    0  0.22446755813E+00 -0.23900026897E+00  0.29694824918E+00  0.17130057118E+03  0.17130000000E+03 0.  1.
      622    1    1    2    0    0 -0.13826068251E+00  0.54164783296E+00  0.34049047302E+01  0.35659325026E+01  0.90000000000E+00 0. -1.
</event>
<event>
 5   0  0.4857400E+02  0.9118800E+02  0.7818608E-02  0.1180000E+00
       11   -1    0    0    0    0  0.00000000000E+00  0.00000000000E+00  0.39999999673E+01  0.40000000000E+01  0.51109989000E-03 0.  1.
     -623   -1    0    0    0    0  0.00000000000E+00  0.00000000000E+00  0.12525980253E-10  0.17130000000E+03  0.17130000000E+03 0.  1.
       11    1    1    2    0    0  0.27093178347E-01 -0.11966733372E+00  0.40230375872E+00  0.42059824843E+00  0.51109989000E-03 0.  1.
     -623    1    1    2    0    0  0.95408524070E-01 -0.18453213403E+00  0.14904327764E+00  0.17130019080E+03  0.17130000000E+03 0.  1.
      622    1    1    2    0    0 -0.12250170242E+00  0.30419946776E+00  0.34486529310E+01  0.35792109496E+01  0.90000000000E+00 0.  0.
</event>
<event>
 5   0  0.4857400E+02  0.9118800E+02  0.7818608E-02  0.1180000E+00
       11   -1    0    0    0    0  0.00000000000E+00  0.00000000000E+00  0.39999999673E+01  0.40000000000E+01  0.51109989000E-03 0.  1.
     -623   -1    0    0    0    0  0.00000000000E+00  0.00000000000E+00  0.12525980253E-10  0.17130000000E+03  0.17130000000E+03 0. -1.
       11    1    1    2    0    0 -0.28269799417E-01 -0.72845234163E-01  0.27736806414E-01  0.82916833951E-01  0.51109989000E-03 0.  1.
     -623    1    1    2    0    0  0.35545116339E-01  0.10024939768E+00  0.16019139738E+00  0.17130010792E+03  0.17130000000E+03 0. -1.
      622    1    1    2    0    0 -0.72753169222E-02 -0.27404163516E-01  0.38120717636E+01  0.39169752423E+01  0.90000000000E+00 0.  1.
</event>
<event>
 5   0  0.4857400E+02  0.9118800E+02  0.7818608E-02  0.1180000E+00
       11   -1    0    0    0    0  0.00000000000E+00  0.00000000000E+00  0.39999999673E+01  0.40000000000E+01  0.51109989000E-03 0. -1.
     -623   -1    0    0    0    0  0.00000000000E+00  0.00000000000E+00  0.12525980253E-10  0.17130000000E+03  0.17130000000E+03 0. -1.
       11    1    1    2    0    0  0.24151469745E-01  0.29406100223E-01  0.85667110331E-01  0.93739678014E-01  0.51109989000E-03 0. -1.
     -623    1    1    2    0    0 -0.61029321514E-01 -0.75906973757E-01  0.11369655574E+00  0.17130006542E+03  0.17130000000E+03 0. -1.
      622    1    1    2    0    0  0.36877851769E-01  0.46500873534E-01  0.38006363013E+01  0.39061949007E+01  0.90000000000E+00 0. -1.
</event>
<event>
 5   0  0.4857400E+02  0.9118800E+02  0.7818608E-02  0.1180000E+00
       11   -1    0    0    0    0  0.00000000000E+00  0.00000000000E+00  0.39999999673E+01  0.40000000000E+01  0.51109989000E-03 0. -1.
     -623   -1    0    0    0    0  0.00000000000E+00  0.00000000000E+00  0.12525980253E-10  0.17130000000E+03  0.17130000000E+03 0. -1.
       11    1    1    2    0    0  0.27305211754E-01  0.25614282398E-01  0.61106470103E-01  0.71665388879E-01  0.51109989000E-03 0. -1.
     -623    1    1    2    0    0 -0.62117813468E-01  0.18623323460E-01  0.11551259767E+00  0.17130005122E+03  0.17130000000E+03 0. -1.
      622    1    1    2    0    0  0.34812601714E-01 -0.44237605857E-01  0.38233808996E+01  0.39282833893E+01  0.90000000000E+00 0. -1.
</event>
<event>
 5   0  0.4857400E+02  0.9118800E+02  0.7818608E-02  0.1180000E+00
       11   -1    0    0    0    0  0.00000000000E+00  0.00000000000E+00  0.39999999673E+01  0.40000000000E+01  0.51109989000E-03 0. -1.
     -623   -1    0    0    0    0  0.00000000000E+00  0.00000000000E+00  0.12525980253E-10  0.17130000000E+03  0.17130000000E+03 0.  1.
       11    1    1    2    0    0 -0.17026765170E+00  0.11309059399E+00  0.41716914315E+00  0.46455452951E+00  0.51109989000E-03 0. -1.
     -623    1    1    2    0    0  0.43198888557E-01  0.13749257340E+00  0.17557806327E+00  0.17130015061E+03  0.17130000000E+03 0.  1.
      622    1    1    2    0    0  0.12706876314E+00 -0.25058316740E+00  0.34072527609E+01  0.35352948634E+01  0.90000000000E+00 0. -1.
</event>
<event>
 5   0  0.4857400E+02  0.9118800E+02  0.7818608E-02  0.1180000E+00
       11   -1    0    0    0    0  0.00000000000E+00  0.00000000000E+00  0.39999999673E+01  0.40000000000E+01  0.51109989000E-03 0.  1.
     -623   -1    0    0    0    0  0.00000000000E+00  0.00000000000E+00  0.12525980253E-10  0.17130000000E+03  0.17130000000E+03 0. -1.
       11    1    1    2    0    0 -0.31118996015E-01 -0.35490156186E+00  0.65763554905E+00  0.74793601807E+00  0.51109989000E-03 0.  1.
     -623    1    1    2    0    0 -0.42489806181E+00  0.32396985115E+00  0.25199432408E+00  0.17130101867E+03  0.17130000000E+03 0. -1.
      622    1    1    2    0    0  0.45601705783E+00  0.30931710707E-01  0.30903700942E+01  0.32510453161E+01  0.90000000000E+00 0.  1.
</event>
<event>
 5   0  0.4857400E+02  0.9118800E+02  0.7818608E-02  0.1180000E+00
       11   -1    0    0    0    0  0.00000000000E+00  0.00000000000E+00  0.39999999673E+01  0.40000000000E+01  0.51109989000E-03 0.  1.
     -623   -1    0    0    0    0  0.00000000000E+00  0.00000000000E+00  0.12525980253E-10  0.17130000000E+03  0.17130000000E+03 0. -1.
       11    1    1    2    0    0  0.25691133693E+00  0.32293972520E+00  0.96495998507E+00  0.10494958481E+01  0.51109989000E-03 0.  1.
     -623    1    1    2    0    0 -0.30659312383E+00 -0.24312872776E+00  0.22735240647E+00  0.17130059778E+03  0.17130000000E+03 0. -1.
      622    1    1    2    0    0  0.49681786904E-01 -0.79810997443E-01  0.28076875758E+01  0.29499063712E+01  0.90000000000E+00 0.  1.
</event>
<event>
 5   0  0.4857400E+02  0.9118800E+02  0.7818608E-02  0.1180000E+00
       11   -1    0    0    0    0  0.00000000000E+00  0.00000000000E+00  0.39999999673E+01  0.40000000000E+01  0.51109989000E-03 0. -1.
     -623   -1    0    0    0    0  0.00000000000E+00  0.00000000000E+00  0.12525980253E-10  0.17130000000E+03  0.17130000000E+03 0. -1.
       11    1    1    2    0    0  0.94012799034E-01  0.78037540389E-01  0.30919887223E+00  0.33246423553E+00  0.51109989000E-03 0. -1.
     -623    1    1    2    0    0  0.81792591609E-01 -0.20058681832E+00  0.14207513694E+00  0.17130019589E+03  0.17130000000E+03 0. -1.
      622    1    1    2    0    0 -0.17580539064E+00  0.12254927793E+00  0.35487259582E+01  0.36673398789E+01  0.90000000000E+00 0. -1.
</event>
<event>
 5   0  0.4857400E+02  0.9118800E+02  0.7818608E-02  0.1180000E+00
       11   -1    0    0    0    0  0.00000000000E+00  0.00000000000E+00  0.39999999673E+01  0.40000000000E+01  0.51109989000E-03 0.  1.
     -623   -1    0    0    0    0  0.00000000000E+00  0.00000000000E+00  0.12525980253E-10  0.17130000000E+03  0.17130000000E+03 0.  1.
       11    1    1    2    0    0  0.68961588225E-01  0.28324927275E+00  0.83989140410E+00  0.88904650220E+00  0.51109989000E-03 0.  1.
     -623    1    1    2    0    0 -0.30309582953E+00 -0.30917266580E-01  0.20255709888E+00  0.17130039070E+03  0.17130000000E+03 0.  1.
      622    1    1    2    0    0  0.23413424131E+00 -0.25233200617E+00  0.29575514644E+01  0.31105628026E+01  0.90000000000E+00 0.  1.
</event>
<event>
 5   0  0.4857400E+02  0.9118800E+02  0.7818608E-02  0.1180000E+00
       11   -1    0    0    0    0  0.00000000000E+00  0.00000000000E+00  0.39999999673E+01  0.40000000000E+01  0.51109989000E-03 0. -1.
     -623   -1    0    0    0    0  0.00000000000E+00  0.00000000000E+00  0.12525980253E-10  0.17130000000E+03  0.17130000000E+03 0.  1.
       11    1    1    2    0    0 -0.20882431987E-01  0.21236664915E-01  0.17558014026E+00  0.17808907540E+00  0.51109989000E-03 0. -1.
     -623    1    1    2    0    0 -0.12427194046E+00 -0.86182417095E-01  0.11350111581E+00  0.17130010436E+03  0.17130000000E+03 0.  1.
      622    1    1    2    0    0  0.14515437244E+00  0.64945752180E-01  0.37109187113E+01  0.38218065655E+01  0.90000000000E+00 0. -1.
</event>
<event>
 5   0  0.4857400E+02  0.9118800E+02  0.7818608E-02  0.1180000E+00
       11   -1    0    0    0    0  0.00000000000E+00  0.00000000000E+00  0.39999999673E+01  0.40000000000E+01  0.51109989000E-03 0.  1.
     -623   -1    0    0    0    0  0.00000000000E+00  0.00000000000E+00  0.12525980253E-10  0.17130000000E+03  0.17130000000E+03 0. -1.
       11    1    1    2    0    0 -0.10487757767E+00 -0.14972190867E+00  0.14432774662E+00  0.23290924391E+00  0.51109989000E-03 0.  1.
     -623    1    1    2    0    0  0.93231127389E-01 -0.55972396508E-01  0.20363785362E+00  0.17130015556E+03  0.17130000000E+03 0. -1.
      622    1    1    2    0    0  0.11646450280E-01  0.20569430518E+00  0.36520343671E+01  0.37669352006E+01  0.90000000000E+00 0.  1.
</event>
<event>
 5   0  0.4857400E+02  0.9118800E+02  0.7818608E-02  0.1180000E+00
       11   -1    0    0    0    0  0.00000000000E+00  0.00000000000E+00  0.39999999673E+01  0.40000000000E+01  0.51109989000E-03 0. -1.
     -623   -1    0    0    0    0  0.00000000000E+00  0.00000000000E+00  0.12525980253E-10  0.17130000000E+03  0.17130000000E+03 0.  1.
       11    1    1    2    0    0 -0.51415416285E-01 -0.71927789890E-01  0.59332805226E-01  0.10647908240E+00  0.51109989000E-03 0. -1.
     -623    1    1    2    0    0  0.25303741988E-01  0.10759032188E+00  0.15295781798E+00  0.17130010395E+03  0.17130000000E+03 0.  1.
      622    1    1    2    0    0  0.26111674297E-01 -0.35662531988E-01  0.37877093442E+01  0.38934169712E+01  0.90000000000E+00 0. -1.
</event>
<event>
 5   0  0.4857400E+02  0.9118800E+02  0.7818608E-02  0.1180000E+00
       11   -1    0    0    0    0  0.00000000000E+00  0.00000000000E+00  0.39999999673E+01  0.40000000000E+01  0.51109989000E-03 0.  1.
     -623   -1    0    0    0    0  0.00000000000E+00  0.00000000000E+00  0.12525980253E-10  0.17130000000E+03  0.17130000000E+03 0. -1.
       11    1    1    2    0    0  0.16878905265E+00  0.71932398499E-01  0.35093129247E-01  0.18680418408E+00  0.51109989000E-03 0.  1.
     -623    1    1    2    0    0 -0.16141301831E+00 -0.14545478630E+00  0.26052555759E+00  0.17130033592E+03  0.17130000000E+03 0. -1.
      622    1    1    2    0    0 -0.73760343436E-02  0.73522387803E-01  0.37043812805E+01  0.38128599002E+01  0.90000000000E+00 0.  1.
</event>
<event>
 5   0  0.4857400E+02  0.9118800E+02  0.7818608E-02  0.1180000E+00
       11   -1    0    0    0    0  0.00000000000E+00  0.00000000000E+00  0.39999999673E+01  0.40000000000E+01  0.51109989000E-03 0. -1.
     -623   -1    0    0    0    0  0.00000000000E+00  0.00000000000E+00  0.12525980253E-10  0.17130000000E+03  0.17130000000E+03 0.  1.
       11    1    1    2    0    0  0.18856380527E+00 -0.19181599496E+00  0.33164090111E+00  0.42700776701E+00  0.51109989000E-03 0. -1.
     -623    1    1    2    0    0 -0.14270997624E+00  0.18655535779E+00  0.21118357542E+00  0.17130029121E+03  0.17130000000E+03 0.  1.
      622    1    1    2    0    0 -0.45853829033E-01  0.52606371717E-02  0.34571754908E+01  0.35727010262E+01  0.90000000000E+00 0. -1.
</event>
<event>
 5   0  0.4857400E+02  0.9118800E+02  0.7818608E-02  0.1180000E+00
       11   -1    0    0    0    0  0.00000000000E+00  0.00000000000E+00  0.39999999673E+01  0.40000000000E+01  0.51109989000E-03 0. -1.
     -623   -1    0    0    0    0  0.00000000000E+00  0.00000000000E+00  0.12525980253E-10  0.17130000000E+03  0.17130000000E+03 0.  1.
       11    1    1    2    0    0  0.52106559156E-03  0.12856816485E+00  0.18337805159E+00  0.22395940603E+00  0.51109989000E-03 0. -1.
     -623    1    1    2    0    0  0.84289652230E-01 -0.17829668804E+00  0.15090814515E+00  0.17130018000E+03  0.17130000000E+03 0.  1.
      622    1    1    2    0    0 -0.84810717822E-01  0.49728523193E-01  0.36657137706E+01  0.37758605949E+01  0.90000000000E+00 0. -1.
</event>
<event>
 5   0  0.4857400E+02  0.9118800E+02  0.7818608E-02  0.1180000E+00
       11   -1    0    0    0    0  0.00000000000E+00  0.00000000000E+00  0.39999999673E+01  0.40000000000E+01  0.51109989000E-03 0.  1.
     -623   -1    0    0    0    0  0.00000000000E+00  0.00000000000E+00  0.12525980253E-10  0.17130000000E+03  0.17130000000E+03 0. -1.
       11    1    1    2    0    0 -0.24882905894E-01 -0.19317493118E-02  0.40573959813E-01  0.47638199999E-01  0.51109989000E-03 0.  1.
     -623    1    1    2    0    0  0.73723883017E-01 -0.43597005863E-01  0.11153708031E+00  0.17130005772E+03  0.17130000000E+03 0. -1.
      622    1    1    2    0    0 -0.48840977124E-01  0.45528755175E-01  0.38478889272E+01  0.39523040755E+01  0.90000000000E+00 0.  1.
</event>
<event>
 5   0  0.4857400E+02  0.9118800E+02  0.7818608E-02  0.1180000E+00
       11   -1    0    0    0    0  0.00000000000E+00  0.00000000000E+00  0.39999999673E+01  0.40000000000E+01  0.51109989000E-03 0.  1.
     -623   -1    0    0    0    0  0.00000000000E+00  0.00000000000E+00  0.12525980253E-10  0.17130000000E+03  0.17130000000E+03 0.  1.
       11    1    1    2    0    0  0.96825068495E-03 -0.36277236466E-01 -0.28146445631E-01  0.45928847359E-01  0.51109989000E-03 0.  1.
     -623    1    1    2    0    0 -0.21164710924E+00 -0.19053493676E+00  0.19068133573E+00  0.17130034284E+03  0.17130000000E+03 0.  1.
      622    1    1    2    0    0  0.21067885855E+00  0.22681217322E+00  0.38374650773E+01  0.39537283117E+01  0.90000000000E+00 0.  1.
</event>
<event>
 5   0  0.4857400E+02  0.9118800E+02  0.7818608E-02  0.1180000E+00
       11   -1    0    0    0    0  0.00000000000E+00  0.00000000000E+00  0.39999999673E+01  0.40000000000E+01  0.51109989000E-03 0.  1.
     -623   -1    0    0    0    0  0.00000000000E+00  0.00000000000E+00  0.12525980253E-10  0.17130000000E+03  0.17130000000E+03 0. -1.
       11    1    1    2    0    0  0.46816978029E-01 -0.88716792391E-02  0.22627361511E-01  0.52752202194E-01  0.51109989000E-03 0.  1.
     -623    1    1    2    0    0 -0.26601135661E-01  0.16491870738E+00  0.13746018390E+00  0.17130013661E+03  0.17130000000E+03 0. -1.
      622    1    1    2    0    0 -0.20215842367E-01 -0.15604702814E+00  0.38399124220E+01  0.39471111922E+01  0.90000000000E+00 0.  1.
</event>
<event>
 5   0  0.4857400E+02  0.9118800E+02  0.7818608E-02  0.1180000E+00
       11   -1    0    0    0    0  0.00000000000E+00  0.00000000000E+00  0.39999999673E+01  0.40000000000E+01  0.51109989000E-03 0.  1.
     -623   -1    0    0    0    0  0.00000000000E+00  0.00000000000E+00  0.12525980253E-10  0.17130000000E+03  0.17130000000E+03 0.  1.
       11    1    1    2    0    0 -0.21357081387E+00 -0.59686154197E-01  0.20670333988E+00  0.30315253830E+00  0.51109989000E-03 0.  1.
     -623    1    1    2    0    0  0.23520887431E+00  0.59561457211E-01  0.20804790381E+00  0.17130029817E+03  0.17130000000E+03 0.  1.
      622    1    1    2    0    0 -0.21638060441E-01  0.12469698624E-03  0.35852487237E+01  0.36965492871E+01  0.90000000000E+00 0.  1.
</event>
<event>
 5   0  0.4857400E+02  0.9118800E+02  0.7818608E-02  0.1180000E+00
       11   -1    0    0    0    0  0.00000000000E+00  0.00000000000E+00  0.39999999673E+01  0.40000000000E+01  0.51109989000E-03 0.  1.
     -623   -1    0    0    0    0  0.00000000000E+00  0.00000000000E+00  0.12525980253E-10  0.17130000000E+03  0.17130000000E+03 0. -1.
       11    1    1    2    0    0  0.67892540540E-01  0.77818632526E-01  0.62524548983E-01  0.12072579293E+00  0.51109989000E-03 0.  1.
     -623    1    1    2    0    0 -0.11133782605E+00 -0.62884641224E-01  0.16445605519E+00  0.17130012667E+03  0.17130000000E+03 0. -1.
      622    1    1    2    0    0  0.43445285509E-01 -0.14933991302E-01  0.37730193632E+01  0.38791475393E+01  0.90000000000E+00 0.  1.
</event>
<event>
 5   0  0.4857400E+02  0.9118800E+02  0.7818608E-02  0.1180000E+00
       11   -1    0    0    0    0  0.00000000000E+00  0.00000000000E+00  0.39999999673E+01  0.40000000000E+01  0.51109989000E-03 0.  1.
     -623   -1    0    0    0    0  0.00000000000E+00  0.00000000000E+00  0.12525980253E-10  0.17130000000E+03  0.17130000000E+03 0. -1.
       11    1    1    2    0    0  0.27105832392E+00 -0.93645650721E-01  0.36399694721E+00  0.46339633325E+00  0.51109989000E-03 0.  1.
     -623    1    1    2    0    0 -0.16185969145E+00  0.26153471449E+00  0.22213676880E+00  0.17130042015E+03  0.17130000000E+03 0. -1.
      622    1    1    2    0    0 -0.10919863248E+00 -0.16788906377E+00  0.34138662513E+01  0.35361835163E+01  0.90000000000E+00 0.  1.
</event>
<event>
 5   0  0.4857400E+02  0.9118800E+02  0.7818608E-02  0.1180000E+00
       11   -1    0    0    0    0  0.00000000000E+00  0.00000000000E+00  0.39999999673E+01  0.40000000000E+01  0.51109989000E-03 0. -1.
     -623   -1    0    0    0    0  0.00000000000E+00  0.00000000000E+00  0.12525980253E-10  0.17130000000E+03  0.17130000000E+03 0.  1.
       11    1    1    2    0    0 -0.38469406351E-01  0.93417370134E-02 -0.95476994375E-02  0.40725705188E-01  0.51109989000E-03 0. -1.
     -623    1    1    2    0    0  0.74949485856E-01 -0.16635929295E+00  0.15746705347E+00  0.17130016955E+03  0.17130000000E+03 0.  1.
      622    1    1    2    0    0 -0.36480079505E-01  0.15701755593E+00  0.38520806133E+01  0.39591047423E+01  0.90000000000E+00 0. -1.
</event>
<event>
 5   0  0.4857400E+02  0.9118800E+02  0.7818608E-02  0.1180000E+00
       11   -1    0    0    0    0  0.00000000000E+00  0.00000000000E+00  0.39999999673E+01  0.40000000000E+01  0.51109989000E-03 0. -1.
     -623   -1    0    0    0    0  0.00000000000E+00  0.00000000000E+00  0.12525980253E-10  0.17130000000E+03  0.17130000000E+03 0.  1.
       11    1    1    2    0    0 -0.99871429167E-02 -0.57788934373E-01  0.28587788090E+00  0.29183167746E+00  0.51109989000E-03 0. -1.
     -623    1    1    2    0    0  0.22264711135E+00  0.19974271302E+00  0.12624590393E+00  0.17130030767E+03  0.17130000000E+03 0.  1.
      622    1    1    2    0    0 -0.21265996843E+00 -0.14195377865E+00  0.35878761825E+01  0.37078606552E+01  0.90000000000E+00 0. -1.
</event>
<event>
 5   0  0.4857400E+02  0.9118800E+02  0.7818608E-02  0.1180000E+00
       11   -1    0    0    0    0  0.00000000000E+00  0.00000000000E+00  0.39999999673E+01  0.40000000000E+01  0.51109989000E-03 0. -1.
     -623   -1    0    0    0    0  0.00000000000E+00  0.00000000000E+00  0.12525980253E-10  0.17130000000E+03  0.17130000000E+03 0.  1.
       11    1    1    2    0    0 -0.15001510848E+00 -0.12906334347E+00  0.57684058875E+00  0.60984195120E+00  0.51109989000E-03 0. -1.
     -623    1    1    2    0    0  0.18710432929E-01 -0.35635774569E-01  0.16152535951E+00  0.17130008088E+03  0.17130000000E+03 0.  1.
      622    1    1    2    0    0  0.13130467555E+00  0.16469911804E+00  0.32616340191E+01  0.33900771661E+01  0.90000000000E+00 0. -1.
</event>
<event>
 5   0  0.4857400E+02  0.9118800E+02  0.7818608E-02  0.1180000E+00
       11   -1    0    0    0    0  0.00000000000E+00  0.00000000000E+00  0.39999999673E+01  0.40000000000E+01  0.51109989000E-03 0.  1.
     -623   -1    0    0    0    0  0.00000000000E+00  0.00000000000E+00  0.12525980253E-10  0.17130000000E+03  0.17130000000E+03 0.  1.
       11    1    1    2    0    0 -0.12237312331E-01  0.27120664037E+00  0.82237411749E+00  0.86602669932E+00  0.51109989000E-03 0.  1.
     -623    1    1    2    0    0 -0.46569814671E+00  0.12983694398E+00  0.24212207375E+00  0.17130085334E+03  0.17130000000E+03 0.  1.
      622    1    1    2    0    0  0.47793545904E+00 -0.40104358435E+00  0.29355037761E+01  0.31331199593E+01  0.90000000000E+00 0.  1.
</event>
<event>
 5   0  0.4857400E+02  0.9118800E+02  0.7818608E-02  0.1180000E+00
       11   -1    0    0    0    0  0.00000000000E+00  0.00000000000E+00  0.39999999673E+01  0.40000000000E+01  0.51109989000E-03 0.  1.
     -623   -1    0    0    0    0  0.00000000000E+00  0.00000000000E+00  0.12525980253E-10  0.17130000000E+03  0.17130000000E+03 0. -1.
       11    1    1    2    0    0 -0.17171928042E-01  0.10155809440E+00  0.36136119532E+00  0.37575403705E+00  0.51109989000E-03 0.  1.
     -623    1    1    2    0    0 -0.32493922944E+00 -0.11101380856E+00  0.14506042573E+00  0.17130040558E+03  0.17130000000E+03 0. -1.
      622    1    1    2    0    0  0.34211115748E+00  0.94557141555E-02  0.34935783463E+01  0.36238403823E+01  0.90000000000E+00 0.  1.
</event>
<event>
 5   0  0.4857400E+02  0.9118800E+02  0.7818608E-02  0.1180000E+00
       11   -1    0    0    0    0  0.00000000000E+00  0.00000000000E+00  0.39999999673E+01  0.40000000000E+01  0.51109989000E-03 0.  1.
     -623   -1    0    0    0    0  0.00000000000E+00  0.00000000000E+00  0.12525980253E-10  0.17130000000E+03  0.17130000000E+03 0. -1.
       11    1    1    2    0    0  0.49625176714E-01 -0.50756000103E-01  0.30310903636E+00  0.31131042201E+00  0.51109989000E-03 0.  1.
     -623    1    1    2    0    0 -0.11060695385E+00 -0.54896984492E-01  0.12185227141E+00  0.17130008784E+03  0.17130000000E+03 0. -1.
      622    1    1    2    0    0  0.60981777139E-01  0.10565298459E+00  0.35750386596E+01  0.36886017334E+01  0.90000000000E+00 0.  1.
</event>
<event>
 5   0  0.4857400E+02  0.9118800E+02  0.7818608E-02  0.1180000E+00
       11   -1    0    0    0    0  0.00000000000E+00  0.00000000000E+00  0.39999999673E+01  0.40000000000E+01  0.51109989000E-03 0.  1.
     -623   -1    0    0    0    0  0.00000000000E+00  0.00000000000E+00  0.12525980253E-10  0.17130000000E+03  0.17130000000E+03 0. -1.
       11    1    1    2    0    0 -0.94590271924E-01  0.14481939502E+00  0.11656652053E+00  0.20858569378E+00  0.51109989000E-03 0.  1.
     -623    1    1    2    0    0 -0.17147419203E+00 -0.24411916669E+00  0.21175677509E+00  0.17130039065E+03  0.17130000000E+03 0. -1.
      622    1    1    2    0    0  0.26606446395E+00  0.99299771679E-01  0.36716766717E+01  0.37910236514E+01  0.90000000000E+00 0.  1.
</event>
<event>
 5   0  0.4857400E+02  0.9118800E+02  0.7818608E-02  0.1180000E+00
       11   -1    0    0    0    0  0.00000000000E+00  0.00000000000E+00  0.39999999673E+01  0.40000000000E+01  0.51109989000E-03 0. -1.
     -623   -1    0    0    0    0  0.00000000000E+00  0.00000000000E+00  0.12525980253E-10  0.17130000000E+03  0.17130000000E+03 0. -1.
       11    1    1    2    0    0 -0.63656195793E-01  0.73416351626E-02  0.43051468929E-01  0.77199100187E-01  0.51109989000E-03 0. -1.
     -623    1    1    2    0    0  0.38571724299E-01  0.12520553688E-01  0.13898265759E+00  0.17130006118E+03  0.17130000000E+03 0. -1.
      622    1    1    2    0    0  0.25084471494E-01 -0.19862188851E-01  0.38179658408E+01  0.39227397185E+01  0.90000000000E+00 0. -1.
</event>
<event>
 5   0  0.4857400E+02  0.9118800E+02  0.7818608E-02  0.1180000E+00
       11   -1    0    0    0    0  0.00000000000E+00  0.00000000000E+00  0.39999999673E+01  0.40000000000E+01  0.51109989000E-03 0. -1.
     -623   -1    0    0    0    0  0.00000000000E+00  0.00000000000E+00  0.12525980253E-10  0.17130000000E+03  0.17130000000E+03 0.  1.
       11    1    1    2    0    0  0.68856278444E-02 -0.41109051738E-01  0.16064219702E+00  0.16596247375E+00  0.51109989000E-03 0. -1.
     -623    1    1    2    0    0 -0.26982221724E-01  0.13389224331E+00  0.11375392594E+00  0.17130009222E+03  0.17130000000E+03 0.  1.
      622    1    1    2    0    0  0.20096593880E-01 -0.92783191571E-01  0.37256038444E+01  0.38339453047E+01  0.90000000000E+00 0. -1.
</event>
<event>
 5   0  0.4857400E+02  0.9118800E+02  0.7818608E-02  0.1180000E+00
       11   -1    0    0    0    0  0.00000000000E+00  0.00000000000E+00  0.39999999673E+01  0.40000000000E+01  0.51109989000E-03 0.  1.
     -623   -1    0    0    0    0  0.00000000000E+00  0.00000000000E+00  0.12525980253E-10  0.17130000000E+03  0.17130000000E+03 0.  1.
       11    1    1    2    0    0  0.17596572894E+00  0.33596381342E-01  0.31914303025E+00  0.36598523136E+00  0.51109989000E-03 0.  1.
     -623    1    1    2    0    0  0.69831748229E-01  0.10875920949E+00  0.17166867373E+00  0.17130013478E+03  0.17130000000E+03 0.  1.
      622    1    1    2    0    0 -0.24579747716E+00 -0.14235559083E+00  0.35091882634E+01  0.36338799900E+01  0.90000000000E+00 0.  1.
</event>
<event>
 5   0  0.4857400E+02  0.9118800E+02  0.7818608E-02  0.1180000E+00
       11   -1    0    0    0    0  0.00000000000E+00  0.00000000000E+00  0.39999999673E+01  0.40000000000E+01  0.51109989000E-03 0. -1.
     -623   -1    0    0    0    0  0.00000000000E+00  0.00000000000E+00  0.12525980253E-10  0.17130000000E+03  0.17130000000E+03 0.  1.
       11    1    1    2    0    0 -0.11598347479E+00 -0.44455586536E-01  0.18298695553E+00  0.22116272904E+00  0.51109989000E-03 0. -1.
     -623    1    1    2    0    0  0.89006443928E-01  0.74698099191E-03  0.14736465056E+00  0.17130008651E+03  0.17130000000E+03 0.  1.
      622    1    1    2    0    0  0.26977030863E-01  0.43708605544E-01  0.36696483613E+01  0.37787507589E+01  0.90000000000E+00 0. -1.
</event>
<event>
 5   0  0.4857400E+02  0.9118800E+02  0.7818608E-02  0.1180000E+00
       11   -1    0    0    0    0  0.00000000000E+00  0.00000000000E+00  0.39999999673E+01  0.40000000000E+01  0.51109989000E-03 0. -1.
     -623   -1    0    0    0    0  0.00000000000E+00  0.00000000000E+00  0.12525980253E-10  0.17130000000E+03  0.17130000000E+03 0. -1.
       11    1    1    2    0    0  0.87404956145E-02 -0.43611545990E-01  0.23614136620E-01  0.50361214030E-01  0.51109989000E-03 0. -1.
     -623    1    1    2    0    0  0.10045492761E-01  0.83774748891E-02  0.13091406715E+00  0.17130005052E+03  0.17130000000E+03 0. -1.
      622    1    1    2    0    0 -0.18785988375E-01  0.35234071100E-01  0.38454717636E+01  0.39495882618E+01  0.90000000000E+00 0. -1.
</event>
<event>
 5   0  0.4857400E+02  0.9118800E+02  0.7818608E-02  0.1180000E+00
       11   -1    0    0    0    0  0.00000000000E+00  0.00000000000E+00  0.39999999673E+01  0.40000000000E+01  0.51109989000E-03 0. -1.
     -623   -1    0    0    0    0  0.00000000000E+00  0.00000000000E+00  0.12525980253E-10  0.17130000000E+03  0.17130000000E+03 0. -1.
       11    1    1    2    0    0 -0.25001533891E-01 -0.19082507604E+00  0.31052144274E+00  0.36532603790E+00  0.51109989000E-03 0. -1.
     -623    1    1    2    0    0  0.30168686269E-01  0.28769034767E+00  0.16966900267E+00  0.17130032826E+03  0.17130000000E+03 0. -1.
      622    1    1    2    0    0 -0.51671523776E-02 -0.96865271627E-01  0.35198095220E+01  0.36343456978E+01  0.90000000000E+00 0. -1.
</event>
<event>
 5   0  0.4857400E+02  0.9118800E+02  0.7818608E-02  0.1180000E+00
       11   -1    0    0    0    0  0.00000000000E+00  0.00000000000E+00  0.39999999673E+01  0.40000000000E+01  0.51109989000E-03 0.  1.
     -623   -1    0    0    0    0  0.00000000000E+00  0.00000000000E+00  0.12525980253E-10  0.17130000000E+03  0.17130000000E+03 0. -1.
       11    1    1    2    0    0 -0.21140030105E-01 -0.69963337986E-01  0.79091339340E-01  0.10769155360E+00  0.51109989000E-03 0.  1.
     -623    1    1    2    0    0  0.53126200602E-01  0.69601549742E-01  0.13429301373E+00  0.17130007502E+03  0.17130000000E+03 0. -1.
      622    1    1    2    0    0 -0.31986170497E-01  0.36178824383E-03  0.37866156143E+01  0.38922334278E+01  0.90000000000E+00 0.  1.
</event>
<event>
 5   0  0.4857400E+02  0.9118800E+02  0.7818608E-02  0.1180000E+00
       11   -1    0    0    0    0  0.00000000000E+00  0.00000000000E+00  0.39999999673E+01  0.40000000000E+01  0.51109989000E-03 0.  1.
     -623   -1    0    0    0    0  0.00000000000E+00  0.00000000000E+00  0.12525980253E-10  0.17130000000E+03  0.17130000000E+03 0.  1.
       11    1    1    2    0    0  0.55693347929E-01 -0.42530874295E-01  0.36331540271E+00  0.37001211783E+00  0.51109989000E-03 0.  1.
     -623    1    1    2    0    0  0.10414013160E+00  0.31302628533E+00  0.13448408648E+00  0.17130037045E+03  0.17130000000E+03 0.  1.
      622    1    1    2    0    0 -0.15983347953E+00 -0.27049541104E+00  0.35022004782E+01  0.36296174313E+01  0.90000000000E+00 0.  1.
</event>
<event>
 5   0  0.4857400E+02  0.9118800E+02  0.7818608E-02  0.1180000E+00
       11   -1    0    0    0    0  0.00000000000E+00  0.00000000000E+00  0.39999999673E+01  0.40000000000E+01  0.51109989000E-03 0. -1.
     -623   -1    0    0    0    0  0.00000000000E+00  0.00000000000E+00  0.12525980253E-10  0.17130000000E+03  0.17130000000E+03 0. -1.
       11    1    1    2    0    0  0.54610992628E-02  0.16322456535E+00  0.77845545415E+00  0.79540256327E+00  0.51109989000E-03 0. -1.
     -623    1    1    2    0    0 -0.38791800150E+00 -0.36656070243E+00  0.17754907599E+00  0.17130092344E+03  0.17130000000E+03 0. -1.
      622    1    1    2    0    0  0.38245690224E+00  0.20333613708E+00  0.30439954372E+01  0.32036739985E+01  0.90000000000E+00 0. -1.
</event>
<event>
 5   0  0.4857400E+02  0.9118800E+02  0.7818608E-02  0.1180000E+00
       11   -1    0    0    0    0  0.00000000000E+00  0.00000000000E+00  0.39999999673E+01  0.40000000000E+01  0.51109989000E-03 0. -1.
     -623   -1    0    0    0    0  0.00000000000E+00  0.00000000000E+00  0.12525980253E-10  0.17130000000E+03  0.17130000000E+03 0.  1.
       11    1    1    2    0    0 -0.12553332918E-01 -0.10652082707E-01  0.55507652697E-01  0.57900032484E-01  0.51109989000E-03 0. -1.
     -623    1    1    2    0    0  0.77867768679E-02  0.85964395369E-01  0.10730310038E+00  0.17130005535E+03  0.17130000000E+03 0.  1.
      622    1    1    2    0    0  0.47665560504E-02 -0.75312312663E-01  0.38371892143E+01  0.39420446130E+01  0.90000000000E+00 0. -1.
</event>
<event>
 5   0  0.4857400E+02  0.9118800E+02  0.7818608E-02  0.1180000E+00
       11   -1    0    0    0    0  0.00000000000E+00  0.00000000000E+00  0.39999999673E+01  0.40000000000E+01  0.51109989000E-03 0.  1.
     -623   -1    0    0    0    0  0.00000000000E+00  0.00000000000E+00  0.12525980253E-10  0.17130000000E+03  0.17130000000E+03 0.  1.
       11    1    1    2    0    0  0.80098577280E-01 -0.45322728292E-02  0.21826580612E+00  0.23254364520E+00  0.51109989000E-03 0.  1.
     -623    1    1    2    0    0 -0.93834411380E-01  0.35452121288E-01  0.12358907696E+00  0.17130007395E+03  0.17130000000E+03 0.  1.
      622    1    1    2    0    0  0.13735834100E-01 -0.30919848458E-01  0.36581450843E+01  0.37673824027E+01  0.90000000000E+00 0.  1.
</event>
<event>
 5   0  0.4857400E+02  0.9118800E+02  0.7818608E-02  0.1180000E+00
       11   -1    0    0    0    0  0.00000000000E+00  0.00000000000E+00  0.39999999673E+01  0.40000000000E+01  0.51109989000E-03 0. -1.
     -623   -1    0    0    0    0  0.00000000000E+00  0.00000000000E+00  0.12525980253E-10  0.17130000000E+03  0.17130000000E+03 0.  1.
       11    1    1    2    0    0 -0.34019713496E-01  0.26922135619E-02 -0.14578787625E-01  0.37113221239E-01  0.51109989000E-03 0. -1.
     -623    1    1    2    0    0  0.15363690964E-01 -0.18736737231E-01  0.15539568986E+00  0.17130007220E+03  0.17130000000E+03 0.  1.
      622    1    1    2    0    0  0.18656022532E-01  0.16044523669E-01  0.38591830651E+01  0.39628145811E+01  0.90000000000E+00 0. -1.
</event>
<event>
 5   0  0.4857400E+02  0.9118800E+02  0.7818608E-02  0.1180000E+00
       11   -1    0    0    0    0  0.00000000000E+00  0.00000000000E+00  0.39999999673E+01  0.40000000000E+01  0.51109989000E-03 0. -1.
     -623   -1    0    0    0    0  0.00000000000E+00  0.00000000000E+00  0.12525980253E-10  0.17130000000E+03  0.17130000000E+03 0. -1.
       11    1    1    2    0    0 -0.14594450145E+00  0.12166671984E+00  0.35209132172E+00  0.40008892546E+00  0.51109989000E-03 0. -1.
     -623    1    1    2    0    0 -0.18386275896E+00 -0.11618192625E+00  0.17819749601E+00  0.17130023076E+03  0.17130000000E+03 0. -1.
      622    1    1    2    0    0  0.32980726041E+00 -0.54847935891E-02  0.34697111496E+01  0.35996803155E+01  0.90000000000E+00 0. -1.
</event>
<event>
 5   0  0.4857400E+02  0.9118800E+02  0.7818608E-02  0.1180000E+00
       11   -1    0    0    0    0  0.00000000000E+00  0.00000000000E+00  0.39999999673E+01  0.40000000000E+01  0.51109989000E-03 0.  1.
     -623   -1    0    0    0    0  0.00000000000E+00  0.00000000000E+00  0.12525980253E-10  0.17130000000E+03  0.17130000000E+03 0.  1.
       11    1    1    2    0    0 -0.11211009795E-01  0.16158060033E-01  0.20631273406E-01  0.28507548301E-01  0.51109989000E-03 0.  1.
     -623    1    1    2    0    0 -0.12561323369E-01 -0.15338662731E-01  0.11130843820E+00  0.17130003731E+03  0.17130000000E+03 0.  1.
      622    1    1    2    0    0  0.23772333164E-01 -0.81939730180E-03  0.38680602558E+01  0.39714551411E+01  0.90000000000E+00 0.  1.
</event>
<event>
 5   0  0.4857400E+02  0.9118800E+02  0.7818608E-02  0.1180000E+00
       11   -1    0    0    0    0  0.00000000000E+00  0.00000000000E+00  0.39999999673E+01  0.40000000000E+01  0.51109989000E-03 0. -1.
     -623   -1    0    0    0    0  0.00000000000E+00  0.00000000000E+00  0.12525980253E-10  0.17130000000E+03  0.17130000000E+03 0.  1.
       11    1    1    2    0    0 -0.77464527373E-01 -0.30316055510E-02  0.41484487277E+00  0.42202662632E+00  0.51109989000E-03 0. -1.
     -623    1    1    2    0    0 -0.21379353627E-01  0.67789966663E-01  0.12430238967E+00  0.17130005985E+03  0.17130000000E+03 0.  1.
      622    1    1    2    0    0  0.98843881000E-01 -0.64758361112E-01  0.34608527049E+01  0.35779135265E+01  0.90000000000E+00 0. -1.
</event>
<event>
 5   0  0.4857400E+02  0.9118800E+02  0.7818608E-02  0.1180000E+00
       11   -1    0    0    0    0  0.00000000000E+00  0.00000000000E+00  0.39999999673E+01  0.40000000000E+01  0.51109989000E-03 0. -1.
     -623   -1    0    0    0    0  0.00000000000E+00  0.00000000000E+00  0.12525980253E-10  0.17130000000E+03  0.17130000000E+03 0. -1.
       11    1    1    2    0    0  0.45036884011E-01  0.43133117204E-02  0.55012833068E+00  0.55198583950E+00  0.51109989000E-03 0. -1.
     -623    1    1    2    0    0  0.42835884216E-01  0.13790032471E+00  0.12569992437E+00  0.17130010698E+03  0.17130000000E+03 0. -1.
      622    1    1    2    0    0 -0.87872768227E-01 -0.14221363643E+00  0.33241717123E+01  0.34479071790E+01  0.90000000000E+00 0. -1.
</event>
<event>
 5   0  0.4857400E+02  0.9118800E+02  0.7818608E-02  0.1180000E+00
       11   -1    0    0    0    0  0.00000000000E+00  0.00000000000E+00  0.39999999673E+01  0.40000000000E+01  0.51109989000E-03 0.  1.
     -623   -1    0    0    0    0  0.00000000000E+00  0.00000000000E+00  0.12525980253E-10  0.17130000000E+03  0.17130000000E+03 0.  1.
       11    1    1    2    0    0  0.95016692286E-01  0.17685260469E+00  0.14796700695E+00  0.24939829985E+00  0.51109989000E-03 0.  1.
     -623    1    1    2    0    0 -0.16836774767E+00  0.19430477465E+00  0.23108576982E+00  0.17130034881E+03  0.17130000000E+03 0.  1.
      622    1    1    2    0    0  0.73351055382E-01 -0.37115737934E+00  0.36209471906E+01  0.37502528894E+01  0.90000000000E+00 0.  1.
</event>
<event>
 5   0  0.4857400E+02  0.9118800E+02  0.7818608E-02  0.1180000E+00
       11   -1    0    0    0    0  0.00000000000E+00  0.00000000000E+00  0.39999999673E+01  0.40000000000E+01  0.51109989000E-03 0.  1.
     -623   -1    0    0    0    0  0.00000000000E+00  0.00000000000E+00  0.12525980253E-10  0.17130000000E+03  0.17130000000E+03 0.  1.
       11    1    1    2    0    0  0.17278031059E-02  0.91405727003E-01  0.12940235646E+00  0.15843996754E+00  0.51109989000E-03 0.  1.
     -623    1    1    2    0    0  0.79353838337E-01 -0.18326843914E+00  0.13813888503E+00  0.17130017212E+03  0.17130000000E+03 0.  1.
      622    1    1    2    0    0 -0.81081641443E-01  0.91862712132E-01  0.37324587259E+01  0.38413879172E+01  0.90000000000E+00 0.  1.
</event>
<event>
 5   0  0.4857400E+02  0.9118800E+02  0.7818608E-02  0.1180000E+00
       11   -1    0    0    0    0  0.00000000000E+00  0.00000000000E+00  0.39999999673E+01  0.40000000000E+01  0.51109989000E-03 0. -1.
     -623   -1    0    0    0    0  0.00000000000E+00  0.00000000000E+00  0.12525980253E-10  0.17130000000E+03  0.17130000000E+03 0.  1.
       11    1    1    2    0    0  0.30807887036E-01 -0.38698673952E-01  0.71745408180E-01  0.87145729010E-01  0.51109989000E-03 0. -1.
     -623    1    1    2    0    0 -0.70633492259E-01  0.23100715591E+00  0.12560197264E+00  0.17130021637E+03  0.17130000000E+03 0.  1.
      622    1    1    2    0    0  0.39825605224E-01 -0.19230848196E+00  0.38026525865E+01  0.39126378985E+01  0.90000000000E+00 0. -1.
</event>
<event>
 5   0  0.4857400E+02  0.9118800E+02  0.7818608E-02  0.1180000E+00
       11   -1    0    0    0    0  0.00000000000E+00  0.00000000000E+00  0.39999999673E+01  0.40000000000E+01  0.51109989000E-03 0. -1.
     -623   -1    0    0    0    0  0.00000000000E+00  0.00000000000E+00  0.12525980253E-10  0.17130000000E+03  0.17130000000E+03 0.  1.
       11    1    1    2    0    0 -0.40929341802E-01 -0.25515783051E+00  0.61523250121E+00  0.66730204649E+00  0.51109989000E-03 0. -1.
     -623    1    1    2    0    0  0.27196481350E+00  0.11709015022E+00  0.18757409626E+00  0.17130035861E+03  0.17130000000E+03 0.  1.
      622    1    1    2    0    0 -0.23103547170E+00  0.13806768029E+00  0.31971933699E+01  0.33323393462E+01  0.90000000000E+00 0. -1.
</event>
<event>
 5   0  0.4857400E+02  0.9118800E+02  0.7818608E-02  0.1180000E+00
       11   -1    0    0    0    0  0.00000000000E+00  0.00000000000E+00  0.39999999673E+01  0.40000000000E+01  0.51109989000E-03 0. -1.
     -623   -1    0    0    0    0  0.00000000000E+00  0.00000000000E+00  0.12525980253E-10  0.17130000000E+03  0.17130000000E+03 0.  1.
       11    1    1    2    0    0 -0.43131463326E-01  0.17674573583E+00  0.64815495085E+00  0.67320463441E+00  0.51109989000E-03 0. -1.
     -623    1    1    2    0    0  0.20421193035E+00  0.21477339362E+00  0.17757104025E+00  0.17130034840E+03  0.17130000000E+03 0.  1.
      622    1    1    2    0    0 -0.16108046703E+00 -0.39151912945E+00  0.31742739763E+01  0.33264469666E+01  0.90000000000E+00 0.  0.
</event>
<event>
 5   0  0.4857400E+02  0.9118800E+02  0.7818608E-02  0.1180000E+00
       11   -1    0    0    0    0  0.00000000000E+00  0.00000000000E+00  0.39999999673E+01  0.40000000000E+01  0.51109989000E-03 0.  1.
     -623   -1    0    0    0    0  0.00000000000E+00  0.00000000000E+00  0.12525980253E-10  0.17130000000E+03  0.17130000000E+03 0. -1.
       11    1    1    2    0    0 -0.12017361420E+00 -0.51976799264E-01  0.23696694500E+00  0.27073396436E+00  0.51109989000E-03 0.  1.
     -623    1    1    2    0    0 -0.31588409788E-01  0.93004556293E-01  0.14750727050E+00  0.17130009167E+03  0.17130000000E+03 0. -1.
      622    1    1    2    0    0  0.15176202399E+00 -0.41027757029E-01  0.36155257519E+01  0.37291743659E+01  0.90000000000E+00 0.  1.
</event>
<event>
 5   0  0.4857400E+02  0.9118800E+02  0.7818608E-02  0.1180000E+00
       11   -1    0    0    0    0  0.00000000000E+00  0.00000000000E+00  0.39999999673E+01  0.40000000000E+01  0.51109989000E-03 0.  1.
     -623   -1    0    0    0    0  0.00000000000E+00  0.00000000000E+00  0.12525980253E-10  0.17130000000E+03  0.17130000000E+03 0.  1.
       11    1    1    2    0    0  0.43273292532E-01  0.94151405220E-02  0.55656869961E-01  0.71127850484E-01  0.51109989000E-03 0.  1.
     -623    1    1    2    0    0 -0.15378521537E+00  0.72534257324E-01  0.12255029291E+00  0.17130012822E+03  0.17130000000E+03 0.  1.
      622    1    1    2    0    0  0.11051192284E+00 -0.81949397846E-01  0.38217928045E+01  0.39287439251E+01  0.90000000000E+00 0.  1.
</event>
<event>
 5   0  0.4857400E+02  0.9118800E+02  0.7818608E-02  0.1180000E+00
       11   -1    0    0    0    0  0.00000000000E+00  0.00000000000E+00  0.39999999673E+01  0.40000000000E+01  0.51109989000E-03 0.  1.
     -623   -1    0    0    0    0  0.00000000000E+00  0.00000000000E+00  0.12525980253E-10  0.17130000000E+03  0.17130000000E+03 0.  1.
       11    1    1    2    0    0  0.95488728780E-01  0.13510592469E+00  0.66995285625E-01  0.17849464342E+00  0.51109989000E-03 0.  1.
     -623    1    1    2    0    0 -0.93476723908E-01 -0.18444287496E+00  0.21959176718E+00  0.17130026555E+03  0.17130000000E+03 0.  1.
      622    1    1    2    0    0 -0.20120048724E-02  0.49336950267E-01  0.37134129146E+01  0.38212398062E+01  0.90000000000E+00 0.  1.
</event>
<event>
 5   0  0.4857400E+02  0.9118800E+02  0.7818608E-02  0.1180000E+00
       11   -1    0    0    0    0  0.00000000000E+00  0.00000000000E+00  0.39999999673E+01  0.40000000000E+01  0.51109989000E-03 0.  1.
     -623   -1    0    0    0    0  0.00000000000E+00  0.00000000000E+00  0.12525980253E-10  0.17130000000E+03  0.17130000000E+03 0.  1.
       11    1    1    2    0    0  0.26468426874E-01 -0.13168065462E+00  0.24267867704E-01  0.13649015732E+00  0.51109989000E-03 0.  1.
     -623    1    1    2    0    0  0.11836729925E-01  0.19664378511E+00  0.21952941238E+00  0.17130025395E+03  0.17130000000E+03 0.  1.
      622    1    1    2    0    0 -0.38305156799E-01 -0.64963130486E-01  0.37562026873E+01  0.38632558964E+01  0.90000000000E+00 0.  1.
</event>
<event>
 5   0  0.4857400E+02  0.9118800E+02  0.7818608E-02  0.1180000E+00
       11   -1    0    0    0    0  0.00000000000E+00  0.00000000000E+00  0.39999999673E+01  0.40000000000E+01  0.51109989000E-03 0.  1.
     -623   -1    0    0    0    0  0.00000000000E+00  0.00000000000E+00  0.12525980253E-10  0.17130000000E+03  0.17130000000E+03 0. -1.
       11    1    1    2    0    0 -0.36789841661E-02  0.86284800853E-01  0.77598454663E+00  0.78077581905E+00  0.51109989000E-03 0.  1.
     -623    1    1    2    0    0  0.40033707193E-01  0.11039356164E+00  0.13973686788E+00  0.17130009724E+03  0.17130000000E+03 0. -1.
      622    1    1    2    0    0 -0.36354723027E-01 -0.19667836250E+00  0.30842785529E+01  0.32191269369E+01  0.90000000000E+00 0.  1.
</event>
<event>
 5   0  0.4857400E+02  0.9118800E+02  0.7818608E-02  0.1180000E+00
       11   -1    0    0    0    0  0.00000000000E+00  0.00000000000E+00  0.39999999673E+01  0.40000000000E+01  0.51109989000E-03 0.  1.
     -623   -1    0    0    0    0  0.00000000000E+00  0.00000000000E+00  0.12525980253E-10  0.17130000000E+03  0.17130000000E+03 0.  1.
       11    1    1    2    0    0  0.28137555444E-01 -0.37449666104E-01  0.94971798911E-01  0.10589666343E+00  0.51109989000E-03 0.  1.
     -623    1    1    2    0    0 -0.21758869252E+00 -0.25381707618E-01  0.12180558430E+00  0.17130018338E+03  0.17130000000E+03 0.  1.
      622    1    1    2    0    0  0.18945113708E+00  0.62831373722E-01  0.37832225842E+01  0.38939199576E+01  0.90000000000E+00 0.  1.
</event>
<event>
 5   0  0.4857400E+02  0.9118800E+02  0.7818608E-02  0.1180000E+00
       11   -1    0    0    0    0  0.00000000000E+00  0.00000000000E+00  0.39999999673E+01  0.40000000000E+01  0.51109989000E-03 0. -1.
     -623   -1    0    0    0    0  0.00000000000E+00  0.00000000000E+00  0.12525980253E-10  0.17130000000E+03  0.17130000000E+03 0.  1.
       11    1    1    2    0    0  0.14241773452E+00 -0.17562747620E+00  0.70710974108E+00  0.74238283160E+00  0.51109989000E-03 0. -1.
     -623    1    1    2    0    0 -0.91523910042E-01  0.18244341683E+00  0.16269257012E+00  0.17130019886E+03  0.17130000000E+03 0.  1.
      622    1    1    2    0    0 -0.50893824477E-01 -0.68159406279E-02  0.31301976562E+01  0.32574183037E+01  0.90000000000E+00 0. -1.
</event>
<event>
 5   0  0.4857400E+02  0.9118800E+02  0.7818608E-02  0.1180000E+00
       11   -1    0    0    0    0  0.00000000000E+00  0.00000000000E+00  0.39999999673E+01  0.40000000000E+01  0.51109989000E-03 0. -1.
     -623   -1    0    0    0    0  0.00000000000E+00  0.00000000000E+00  0.12525980253E-10  0.17130000000E+03  0.17130000000E+03 0. -1.
       11    1    1    2    0    0  0.40321035307E-01  0.22634739807E+00  0.74751145035E+00  0.78206940876E+00  0.51109989000E-03 0. -1.
     -623    1    1    2    0    0 -0.34020229248E-01 -0.85257683196E-01  0.16631720386E+00  0.17130010533E+03  0.17130000000E+03 0. -1.
      622    1    1    2    0    0 -0.63008060590E-02 -0.14108971487E+00  0.30861713132E+01  0.32178252566E+01  0.90000000000E+00 0. -1.
</event>
<event>
 5   0  0.4857400E+02  0.9118800E+02  0.7818608E-02  0.1180000E+00
       11   -1    0    0    0    0  0.00000000000E+00  0.00000000000E+00  0.39999999673E+01  0.40000000000E+01  0.51109989000E-03 0. -1.
     -623   -1    0    0    0    0  0.00000000000E+00  0.00000000000E+00  0.12525980253E-10  0.17130000000E+03  0.17130000000E+03 0.  1.
       11    1    1    2    0    0 -0.18179579851E-02  0.12187045285E+00  0.11054415785E+00  0.16454781769E+00  0.51109989000E-03 0. -1.
     -623    1    1    2    0    0  0.29906884832E-01 -0.13599117626E+00  0.16136139162E+00  0.17130013259E+03  0.17130000000E+03 0.  1.
      622    1    1    2    0    0 -0.28088926847E-01  0.14120723409E-01  0.37280944179E+01  0.38353195918E+01  0.90000000000E+00 0. -1.
</event>
<event>
 5   0  0.4857400E+02  0.9118800E+02  0.7818608E-02  0.1180000E+00
       11   -1    0    0    0    0  0.00000000000E+00  0.00000000000E+00  0.39999999673E+01  0.40000000000E+01  0.51109989000E-03 0.  1.
     -623   -1    0    0    0    0  0.00000000000E+00  0.00000000000E+00  0.12525980253E-10  0.17130000000E+03  0.17130000000E+03 0.  1.
       11    1    1    2    0    0 -0.44202849331E-01 -0.17908177789E-01  0.38271744017E+00  0.38567796794E+00  0.51109989000E-03 0.  1.
     -623    1    1    2    0    0 -0.10792075855E+00  0.96051081127E-01  0.12109516748E+00  0.17130010373E+03  0.17130000000E+03 0.  1.
      622    1    1    2    0    0  0.15212360788E+00 -0.78142903338E-01  0.34961873597E+01  0.36142183055E+01  0.90000000000E+00 0.  1.
</event>
<event>
 5   0  0.4857400E+02  0.9118800E+02  0.7818608E-02  0.1180000E+00
       11   -1    0    0    0    0  0.00000000000E+00  0.00000000000E+00  0.39999999673E+01  0.40000000000E+01  0.51109989000E-03 0.  1.
     -623   -1    0    0    0    0  0.00000000000E+00  0.00000000000E+00  0.12525980253E-10  0.17130000000E+03  0.17130000000E+03 0. -1.
       11    1    1    2    0    0  0.22004046353E-01 -0.43980639797E-01  0.53188603163E+00  0.53415492752E+00  0.51109989000E-03 0.  1.
     -623    1    1    2    0    0  0.92349636480E-01  0.36367311836E+00  0.13891533455E+00  0.17130046726E+03  0.17130000000E+03 0. -1.
      622    1    1    2    0    0 -0.11435368283E+00 -0.31969247856E+00  0.33291986012E+01  0.34653778108E+01  0.90000000000E+00 0.  1.
</event>
<event>
 5   0  0.4857400E+02  0.9118800E+02  0.7818608E-02  0.1180000E+00
       11   -1    0    0    0    0  0.00000000000E+00  0.00000000000E+00  0.39999999673E+01  0.40000000000E+01  0.51109989000E-03 0.  1.
     -623   -1    0    0    0    0  0.00000000000E+00  0.00000000000E+00  0.12525980253E-10  0.17130000000E+03  0.17130000000E+03 0. -1.
       11    1    1    2    0    0  0.22222336570E-01 -0.27332070613E-01 -0.22474689044E-01  0.41788122683E-01  0.51109989000E-03 0.  1.
     -623    1    1    2    0    0  0.14257534690E+00  0.66816264568E-01  0.17182939817E+00  0.17130015854E+03  0.17130000000E+03 0. -1.
      622    1    1    2    0    0 -0.16479768347E+00 -0.39484193955E-01  0.38506452582E+01  0.39580533325E+01  0.90000000000E+00 0.  1.
</event>
<event>
 5   0  0.4857400E+02  0.9118800E+02  0.7818608E-02  0.1180000E+00
       11   -1    0    0    0    0  0.00000000000E+00  0.00000000000E+00  0.39999999673E+01  0.40000000000E+01  0.51109989000E-03 0. -1.
     -623   -1    0    0    0    0  0.00000000000E+00  0.00000000000E+00  0.12525980253E-10  0.17130000000E+03  0.17130000000E+03 0. -1.
       11    1    1    2    0    0 -0.27538673457E-01  0.66600424938E-02  0.18211987099E+00  0.18431126751E+00  0.51109989000E-03 0. -1.
     -623    1    1    2    0    0  0.14778331996E+00 -0.58685690666E-01  0.11228013680E+00  0.17130011060E+03  0.17130000000E+03 0. -1.
      622    1    1    2    0    0 -0.12024464650E+00  0.52025648173E-01  0.37055999596E+01  0.38155781349E+01  0.90000000000E+00 0. -1.
</event>
<event>
 5   0  0.4857400E+02  0.9118800E+02  0.7818608E-02  0.1180000E+00
       11   -1    0    0    0    0  0.00000000000E+00  0.00000000000E+00  0.39999999673E+01  0.40000000000E+01  0.51109989000E-03 0. -1.
     -623   -1    0    0    0    0  0.00000000000E+00  0.00000000000E+00  0.12525980253E-10  0.17130000000E+03  0.17130000000E+03 0.  1.
       11    1    1    2    0    0 -0.99641495933E-01  0.43817637294E-01  0.26720098625E-01  0.11208317422E+00  0.51109989000E-03 0. -1.
     -623    1    1    2    0    0 -0.72889700726E-01 -0.84630597884E-01  0.19527564262E+00  0.17130014772E+03  0.17130000000E+03 0.  1.
      622    1    1    2    0    0  0.17253119666E+00  0.40812960590E-01  0.37780042261E+01  0.38877691089E+01  0.90000000000E+00 0. -1.
</event>
<event>
 5   0  0.4857400E+02  0.9118800E+02  0.7818608E-02  0.1180000E+00
       11   -1    0    0    0    0  0.00000000000E+00  0.00000000000E+00  0.39999999673E+01  0.40000000000E+01  0.51109989000E-03 0.  1.
     -623   -1    0    0    0    0  0.00000000000E+00  0.00000000000E+00  0.12525980253E-10  0.17130000000E+03  0.17130000000E+03 0.  1.
       11    1    1    2    0    0 -0.87230297912E-01 -0.46842978906E-01  0.94293969485E-02  0.99461370876E-01  0.51109989000E-03 0.  1.
     -623    1    1    2    0    0  0.54529607916E-01  0.18411948132E-01  0.19565596594E+00  0.17130012141E+03  0.17130000000E+03 0.  1.
      622    1    1    2    0    0  0.32700689996E-01  0.28431030775E-01  0.37949146045E+01  0.39004172231E+01  0.90000000000E+00 0.  1.
</event>
<event>
 5   0  0.4857400E+02  0.9118800E+02  0.7818608E-02  0.1180000E+00
       11   -1    0    0    0    0  0.00000000000E+00  0.00000000000E+00  0.39999999673E+01  0.40000000000E+01  0.51109989000E-03 0.  1.
     -623   -1    0    0    0    0  0.00000000000E+00  0.00000000000E+00  0.12525980253E-10  0.17130000000E+03  0.17130000000E+03 0.  1.
       11    1    1    2    0    0 -0.17905483343E+00 -0.67272082777E-01  0.39490541762E-01  0.19530983233E+00  0.51109989000E-03 0.  1.
     -623    1    1    2    0    0  0.52561225391E-01  0.20771502877E+00  0.26898997971E+00  0.17130034519E+03  0.17130000000E+03 0.  1.
      622    1    1    2    0    0  0.12649360804E+00 -0.14044294600E+00  0.36915194459E+01  0.38043449730E+01  0.90000000000E+00 0.  1.
</event>
<event>
 5   0  0.4857400E+02  0.9118800E+02  0.7818608E-02  0.1180000E+00
       11   -1    0    0    0    0  0.00000000000E+00  0.00000000000E+00  0.39999999673E+01  0.40000000000E+01  0.51109989000E-03 0.  1.
     -623   -1    0    0    0    0  0.00000000000E+00  0.00000000000E+00  0.12525980253E-10  0.17130000000E+03  0.17130000000E+03 0.  1.
       11    1    1    2    0    0  0.47831835934E-01 -0.68369011789E-01  0.20287777856E+00  0.21936695411E+00  0.51109989000E-03 0.  1.
     -623    1    1    2    0    0 -0.21710376012E-02  0.51577929924E-01  0.12555404246E+00  0.17130005379E+03  0.17130000000E+03 0.  1.
      622    1    1    2    0    0 -0.45660798332E-01  0.16791081866E-01  0.36715681463E+01  0.37805792548E+01  0.90000000000E+00 0.  1.
</event>
<event>
 5   0  0.4857400E+02  0.9118800E+02  0.7818608E-02  0.1180000E+00
       11   -1    0    0    0    0  0.00000000000E+00  0.00000000000E+00  0.39999999673E+01  0.40000000000E+01  0.51109989000E-03 0. -1.
     -623   -1    0    0    0    0  0.00000000000E+00  0.00000000000E+00  0.12525980253E-10  0.17130000000E+03  0.17130000000E+03 0. -1.
       11    1    1    2    0    0  0.89443426128E-01  0.22059546314E-01  0.30481936803E+00  0.31843658459E+00  0.51109989000E-03 0. -1.
     -623    1    1    2    0    0  0.29048126304E-01 -0.49112431952E-01  0.12744770389E+00  0.17130005691E+03  0.17130000000E+03 0. -1.
      622    1    1    2    0    0 -0.11849155243E+00  0.27052885638E-01  0.35677328954E+01  0.36815065014E+01  0.90000000000E+00 0. -1.
</event>
<event>
 5   0  0.4857400E+02  0.9118800E+02  0.7818608E-02  0.1180000E+00
       11   -1    0    0    0    0  0.00000000000E+00  0.00000000000E+00  0.39999999673E+01  0.40000000000E+01  0.51109989000E-03 0.  1.
     -623   -1    0    0    0    0  0.00000000000E+00  0.00000000000E+00  0.12525980253E-10  0.17130000000E+03  0.17130000000E+03 0. -1.
       11    1    1    2    0    0  0.35720933410E-01 -0.82749187210E-01  0.10271417854E+01  0.10310887070E+01  0.51109989000E-03 0.  1.
     -623    1    1    2    0    0  0.61618381761E-01 -0.40870051524E-01  0.14810993440E+00  0.17130007999E+03  0.17130000000E+03 0. -1.
      622    1    1    2    0    0 -0.97339315170E-01  0.12361923873E+00  0.28247482475E+01  0.29688313055E+01  0.90000000000E+00 0.  1.
</event>
<event>
 5   0  0.4857400E+02  0.9118800E+02  0.7818608E-02  0.1180000E+00
       11   -1    0    0    0    0  0.00000000000E+00  0.00000000000E+00  0.39999999673E+01  0.40000000000E+01  0.51109989000E-03 0.  1.
     -623   -1    0    0    0    0  0.00000000000E+00  0.00000000000E+00  0.12525980253E-10  0.17130000000E+03  0.17130000000E+03 0.  1.
       11    1    1    2    0    0 -0.22830661053E-01  0.14177225882E-01  0.44109838463E-01  0.51654350146E-01  0.51109989000E-03 0.  1.
     -623    1    1    2    0    0  0.10529051680E-01  0.66393703760E-01  0.11240278070E+00  0.17130005007E+03  0.17130000000E+03 0.  1.
      622    1    1    2    0    0  0.12301609373E-01 -0.80570929642E-01  0.38434873482E+01  0.39482955816E+01  0.90000000000E+00 0.  1.
</event>
<event>
 5   0  0.4857400E+02  0.9118800E+02  0.7818608E-02  0.1180000E+00
       11   -1    0    0    0    0  0.00000000000E+00  0.00000000000E+00  0.39999999673E+01  0.40000000000E+01  0.51109989000E-03 0.  1.
     -623   -1    0    0    0    0  0.00000000000E+00  0.00000000000E+00  0.12525980253E-10  0.17130000000E+03  0.17130000000E+03 0.  1.
       11    1    1    2    0    0 -0.23668516522E+00 -0.89438153743E-02  0.66530224203E+00  0.70620619775E+00  0.51109989000E-03 0.  1.
     -623    1    1    2    0    0  0.10178556604E+00 -0.24703614809E+00  0.17980315002E+00  0.17130030273E+03  0.17130000000E+03 0.  1.
      622    1    1    2    0    0  0.13489959918E+00  0.25597996347E+00  0.31548945753E+01  0.32934910695E+01  0.90000000000E+00 0.  1.
</event>
<event>
 5   0  0.4857400E+02  0.9118800E+02  0.7818608E-02  0.1180000E+00
       11   -1    0    0    0    0  0.00000000000E+00  0.00000000000E+00  0.39999999673E+01  0.40000000000E+01  0.51109989000E-03 0. -1.
     -623   -1    0    0    0    0  0.00000000000E+00  0.00000000000E+00  0.12525980253E-10  0.17130000000E+03  0.17130000000E+03 0.  1.
       11    1    1    2    0    0 -0.40033008716E-01 -0.57138169499E-01  0.61366518535E-01  0.92916753167E-01  0.51109989000E-03 0. -1.
     -623    1    1    2    0    0 -0.38709805224E-02  0.98460336580E-01  0.13718455124E+00  0.17130008327E+03  0.17130000000E+03 0.  1.
      622    1    1    2    0    0  0.43903989238E-01 -0.41322167081E-01  0.38014488976E+01  0.39069999747E+01  0.90000000000E+00 0. -1.
</event>
<event>
 5   0  0.4857400E+02  0.9118800E+02  0.7818608E-02  0.1180000E+00
       11   -1    0    0    0    0  0.00000000000E+00  0.00000000000E+00  0.39999999673E+01  0.40000000000E+01  0.51109989000E-03 0. -1.
     -623   -1    0    0    0    0  0.00000000000E+00  0.00000000000E+00  0.12525980253E-10  0.17130000000E+03  0.17130000000E+03 0. -1.
       11    1    1    2    0    0 -0.17517022788E-01 -0.20363269015E+00  0.11151223239E+01  0.11336980096E+01  0.51109989000E-03 0. -1.
     -623    1    1    2    0    0  0.71723226675E-01  0.25594521835E+00  0.16488220672E+00  0.17130028558E+03  0.17130000000E+03 0. -1.
      622    1    1    2    0    0 -0.54206203887E-01 -0.52312528196E-01  0.27199954368E+01  0.28660164147E+01  0.90000000000E+00 0. -1.
</event>
<event>
 5   0  0.4857400E+02  0.9118800E+02  0.7818608E-02  0.1180000E+00
       11   -1    0    0    0    0  0.00000000000E+00  0.00000000000E+00  0.39999999673E+01  0.40000000000E+01  0.51109989000E-03 0.  1.
     -623   -1    0    0    0    0  0.00000000000E+00  0.00000000000E+00  0.12525980253E-10  0.17130000000E+03  0.17130000000E+03 0.  1.
       11    1    1    2    0    0 -0.85415904905E-01 -0.16476592893E+00  0.93452080826E+00  0.95277126869E+00  0.51109989000E-03 0.  1.
     -623    1    1    2    0    0  0.11348335647E+00  0.40522538653E-01  0.15709792131E+00  0.17130011442E+03  0.17130000000E+03 0.  1.
      622    1    1    2    0    0 -0.28067451560E-01  0.12424339028E+00  0.29083812378E+01  0.30471143113E+01  0.90000000000E+00 0.  1.
</event>
<event>
 5   0  0.4857400E+02  0.9118800E+02  0.7818608E-02  0.1180000E+00
       11   -1    0    0    0    0  0.00000000000E+00  0.00000000000E+00  0.39999999673E+01  0.40000000000E+01  0.51109989000E-03 0.  1.
     -623   -1    0    0    0    0  0.00000000000E+00  0.00000000000E+00  0.12525980253E-10  0.17130000000E+03  0.17130000000E+03 0. -1.
       11    1    1    2    0    0 -0.13198206743E+00 -0.42765460239E+00  0.62309253343E+00  0.76717161803E+00  0.51109989000E-03 0.  1.
     -623    1    1    2    0    0  0.20114966655E+00 -0.60657115811E-01  0.31173533355E+00  0.17130041249E+03  0.17130000000E+03 0. -1.
      622    1    1    2    0    0 -0.69167599119E-01  0.48831171820E+00  0.30651721004E+01  0.32324158915E+01  0.90000000000E+00 0.  1.
</event>
<event>
 5   0  0.4857400E+02  0.9118800E+02  0.7818608E-02  0.1180000E+00
       11   -1    0    0    0    0  0.00000000000E+00  0.00000000000E+00  0.39999999673E+01  0.40000000000E+01  0.51109989000E-03 0. -1.
     -623   -1    0    0    0    0  0.00000000000E+00  0.00000000000E+00  0.12525980253E-10  0.17130000000E+03  0.17130000000E+03 0.  1.
       11    1    1    2    0    0 -0.18285923852E+00  0.26901614119E+00  0.81835466470E+00  0.88063148013E+00  0.51109989000E-03 0. -1.
     -623    1    1    2    0    0  0.33899886196E-01 -0.34242908588E+00  0.20003550465E+00  0.17130046241E+03  0.17130000000E+03 0.  1.
      622    1    1    2    0    0  0.14895935233E+00  0.73412944688E-01  0.29816097980E+01  0.31189061122E+01  0.90000000000E+00 0. -1.
</event>
<event>
 5   0  0.4857400E+02  0.9118800E+02  0.7818608E-02  0.1180000E+00
       11   -1    0    0    0    0  0.00000000000E+00  0.00000000000E+00  0.39999999673E+01  0.40000000000E+01  0.51109989000E-03 0.  1.
     -623   -1    0    0    0    0  0.00000000000E+00  0.00000000000E+00  0.12525980253E-10  0.17130000000E+03  0.17130000000E+03 0. -1.
       11    1    1    2    0    0 -0.58379701077E-02  0.10410234854E+00  0.30834357066E-01  0.10873085885E+00  0.51109989000E-03 0.  1.
     -623    1    1    2    0    0  0.17642234174E+00  0.16990195390E+00  0.19748833228E+00  0.17130028895E+03  0.17130000000E+03 0. -1.
      622    1    1    2    0    0 -0.17058437163E+00 -0.27400430244E+00  0.37716772780E+01  0.38909801946E+01  0.90000000000E+00 0.  1.
</event>
<event>
 5   0  0.4857400E+02  0.9118800E+02  0.7818608E-02  0.1180000E+00
       11   -1    0    0    0    0  0.00000000000E+00  0.00000000000E+00  0.39999999673E+01  0.40000000000E+01  0.51109989000E-03 0.  1.
     -623   -1    0    0    0    0  0.00000000000E+00  0.00000000000E+00  0.12525980253E-10  0.17130000000E+03  0.17130000000E+03 0.  1.
       11    1    1    2    0    0 -0.13079350827E-01 -0.43412432120E-01 -0.17734264922E-01  0.48687514376E-01  0.51109989000E-03 0.  1.
     -623    1    1    2    0    0 -0.38279334574E-01 -0.33974660483E-01  0.17150165846E+00  0.17130009350E+03  0.17130000000E+03 0.  1.
      622    1    1    2    0    0  0.51358685402E-01  0.77387092604E-01  0.38462325738E+01  0.39512189877E+01  0.90000000000E+00 0.  1.
</event>
<event>
 5   0  0.4857400E+02  0.9118800E+02  0.7818608E-02  0.1180000E+00
       11   -1    0    0    0    0  0.00000000000E+00  0.00000000000E+00  0.39999999673E+01  0.40000000000E+01  0.51109989000E-03 0.  1.
     -623   -1    0    0    0    0  0.00000000000E+00  0.00000000000E+00  0.12525980253E-10  0.17130000000E+03  0.17130000000E+03 0. -1.
       11    1    1    2    0    0  0.45702872557E-01  0.58062997553E-01  0.28225228986E-01  0.79101131582E-01  0.51109989000E-03 0.  1.
     -623    1    1    2    0    0 -0.92615281536E-01  0.69515200600E-02  0.15650775105E+00  0.17130009667E+03  0.17130000000E+03 0. -1.
      622    1    1    2    0    0  0.46912408979E-01 -0.65014517612E-01  0.38152669873E+01  0.39208021942E+01  0.90000000000E+00 0.  1.
</event>
<event>
 5   0  0.4857400E+02  0.9118800E+02  0.7818608E-02  0.1180000E+00
       11   -1    0    0    0    0  0.00000000000E+00  0.00000000000E+00  0.39999999673E+01  0.40000000000E+01  0.51109989000E-03 0. -1.
     -623   -1    0    0    0    0  0.00000000000E+00  0.00000000000E+00  0.12525980253E-10  0.17130000000E+03  0.17130000000E+03 0. -1.
       11    1    1    2    0    0 -0.83762277018E-01 -0.17373423311E-01  0.18279691372E+00  0.20182400198E+00  0.51109989000E-03 0. -1.
     -623    1    1    2    0    0  0.36218949930E-01 -0.12588428027E+00  0.13038866049E+00  0.17130009971E+03  0.17130000000E+03 0. -1.
      622    1    1    2    0    0  0.47543327088E-01  0.14325770358E+00  0.36868143931E+01  0.37980762903E+01  0.90000000000E+00 0. -1.
</event>
<event>
 5   0  0.4857400E+02  0.9118800E+02  0.7818608E-02  0.1180000E+00
       11   -1    0    0    0    0  0.00000000000E+00  0.00000000000E+00  0.39999999673E+01  0.40000000000E+01  0.51109989000E-03 0.  1.
     -623   -1    0    0    0    0  0.00000000000E+00  0.00000000000E+00  0.12525980253E-10  0.17130000000E+03  0.17130000000E+03 0. -1.
       11    1    1    2    0    0 -0.53985874775E-01  0.44855161158E-01 -0.30330738784E-01  0.76463554022E-01  0.51109989000E-03 0.  1.
     -623    1    1    2    0    0  0.20256795528E+00 -0.36631516902E-01  0.21457798234E+00  0.17130025808E+03  0.17130000000E+03 0. -1.
      622    1    1    2    0    0 -0.14858208051E+00 -0.82236442564E-02  0.38157527238E+01  0.39232783628E+01  0.90000000000E+00 0.  1.
</event>
<event>
 5   0  0.4857400E+02  0.9118800E+02  0.7818608E-02  0.1180000E+00
       11   -1    0    0    0    0  0.00000000000E+00  0.00000000000E+00  0.39999999673E+01  0.40000000000E+01  0.51109989000E-03 0. -1.
     -623   -1    0    0    0    0  0.00000000000E+00  0.00000000000E+00  0.12525980253E-10  0.17130000000E+03  0.17130000000E+03 0. -1.
       11    1    1    2    0    0  0.26790250403E-02  0.31167486447E-02 -0.32619467436E-02  0.52718892440E-02  0.51109989000E-03 0. -1.
     -623    1    1    2    0    0 -0.12358232875E+00  0.23862483404E-01  0.11329553535E+00  0.17130008371E+03  0.17130000000E+03 0. -1.
      622    1    1    2    0    0  0.12090330371E+00 -0.26979232049E-01  0.38899663788E+01  0.39946444042E+01  0.90000000000E+00 0. -1.
</event>
<event>
 5   0  0.4857400E+02  0.9118800E+02  0.7818608E-02  0.1180000E+00
       11   -1    0    0    0    0  0.00000000000E+00  0.00000000000E+00  0.39999999673E+01  0.40000000000E+01  0.51109989000E-03 0.  1.
     -623   -1    0    0    0    0  0.00000000000E+00  0.00000000000E+00  0.12525980253E-10  0.17130000000E+03  0.17130000000E+03 0.  1.
       11    1    1    2    0    0 -0.66559241050E-02  0.60491331069E-01  0.80046505838E-01  0.10055449657E+00  0.51109989000E-03 0.  1.
     -623    1    1    2    0    0 -0.53922153857E-01 -0.29097393608E-01  0.12646292715E+00  0.17130005764E+03  0.17130000000E+03 0.  1.
      622    1    1    2    0    0  0.60578077962E-01 -0.31393937461E-01  0.37934905344E+01  0.38993878644E+01  0.90000000000E+00 0.  1.
</event>
<event>
 5   0  0.4857400E+02  0.9118800E+02  0.7818608E-02  0.1180000E+00
       11   -1    0    0    0    0  0.00000000000E+00  0.00000000000E+00  0.39999999673E+01  0.40000000000E+01  0.51109989000E-03 0. -1.
     -623   -1    0    0    0    0  0.00000000000E+00  0.00000000000E+00  0.12525980253E-10  0.17130000000E+03  0.17130000000E+03 0.  1.
       11    1    1    2    0    0  0.60216397764E-01  0.21596114511E-01 -0.18814719329E-01  0.66683293322E-01  0.51109989000E-03 0. -1.
     -623    1    1    2    0    0  0.16975182930E+00 -0.59405073696E-01  0.19716187776E+00  0.17130020787E+03  0.17130000000E+03 0.  1.
      622    1    1    2    0    0 -0.22996822706E+00  0.37808959185E-01  0.38216528089E+01  0.39331088333E+01  0.90000000000E+00 0. -1.
</event>
<event>
 5   0  0.4857400E+02  0.9118800E+02  0.7818608E-02  0.1180000E+00
       11   -1    0    0    0    0  0.00000000000E+00  0.00000000000E+00  0.39999999673E+01  0.40000000000E+01  0.51109989000E-03 0.  1.
     -623   -1    0    0    0    0  0.00000000000E+00  0.00000000000E+00  0.12525980253E-10  0.17130000000E+03  0.17130000000E+03 0.  1.
       11    1    1    2    0    0 -0.35940171908E-01 -0.40216940166E-02 -0.11411280009E-01  0.37925565442E-01  0.51109989000E-03 0.  1.
     -623    1    1    2    0    0  0.69018639582E-01  0.34924720307E-01  0.15326364067E+00  0.17130008603E+03  0.17130000000E+03 0.  1.
      622    1    1    2    0    0 -0.33078467674E-01 -0.30903026291E-01  0.38581476067E+01  0.39619884070E+01  0.90000000000E+00 0.  1.
</event>
<event>
 5   0  0.4857400E+02  0.9118800E+02  0.7818608E-02  0.1180000E+00
       11   -1    0    0    0    0  0.00000000000E+00  0.00000000000E+00  0.39999999673E+01  0.40000000000E+01  0.51109989000E-03 0.  1.
     -623   -1    0    0    0    0  0.00000000000E+00  0.00000000000E+00  0.12525980253E-10  0.17130000000E+03  0.17130000000E+03 0.  1.
       11    1    1    2    0    0 -0.12539519190E-01 -0.99455905792E-02  0.55226518928E-01  0.57501164585E-01  0.51109989000E-03 0.  1.
     -623    1    1    2    0    0 -0.10509655834E-01  0.71061526778E-01  0.10698131282E+00  0.17130004847E+03  0.17130000000E+03 0.  1.
      622    1    1    2    0    0  0.23049175024E-01 -0.61115936199E-01  0.38377921356E+01  0.39424503673E+01  0.90000000000E+00 0.  1.
</event>
<event>
 5   0  0.4857400E+02  0.9118800E+02  0.7818608E-02  0.1180000E+00
       11   -1    0    0    0    0  0.00000000000E+00  0.00000000000E+00  0.39999999673E+01  0.40000000000E+01  0.51109989000E-03 0. -1.
     -623   -1    0    0    0    0  0.00000000000E+00  0.00000000000E+00  0.12525980253E-10  0.17130000000E+03  0.17130000000E+03 0.  1.
       11    1    1    2    0    0 -0.16201973684E+00 -0.27678682201E+00  0.58794068132E+00  0.66972818810E+00  0.51109989000E-03 0. -1.
     -623    1    1    2    0    0 -0.12746428798E+00  0.22124583595E+00  0.21962770847E+00  0.17130033109E+03  0.17130000000E+03 0.  1.
      622    1    1    2    0    0  0.28948402482E+00  0.55540986062E-01  0.31924315776E+01  0.33299407171E+01  0.90000000000E+00 0. -1.
</event>
<event>
 5   0  0.4857400E+02  0.9118800E+02  0.7818608E-02  0.1180000E+00
       11   -1    0    0    0    0  0.00000000000E+00  0.00000000000E+00  0.39999999673E+01  0.40000000000E+01  0.51109989000E-03 0. -1.
     -623   -1    0    0    0    0  0.00000000000E+00  0.00000000000E+00  0.12525980253E-10  0.17130000000E+03  0.17130000000E+03 0. -1.
       11    1    1    2    0    0 -0.26310477153E-02 -0.10348954038E-01  0.26514223215E-01  0.28588258386E-01  0.51109989000E-03 0. -1.
     -623    1    1    2    0    0  0.96568663328E-01  0.25932258560E-01  0.10663318669E+00  0.17130006237E+03  0.17130000000E+03 0. -1.
      622    1    1    2    0    0 -0.93937615613E-01 -0.15583304522E-01  0.38668525575E+01  0.39713493697E+01  0.90000000000E+00 0. -1.
</event>
<event>
 5   0  0.4857400E+02  0.9118800E+02  0.7818608E-02  0.1180000E+00
       11   -1    0    0    0    0  0.00000000000E+00  0.00000000000E+00  0.39999999673E+01  0.40000000000E+01  0.51109989000E-03 0. -1.
     -623   -1    0    0    0    0  0.00000000000E+00  0.00000000000E+00  0.12525980253E-10  0.17130000000E+03  0.17130000000E+03 0.  1.
       11    1    1    2    0    0  0.54435937548E-02 -0.24323111771E-01  0.43112137907E-01  0.49801246334E-01  0.51109989000E-03 0. -1.
     -623    1    1    2    0    0 -0.10442796762E-01  0.17171256471E+00  0.11353748676E+00  0.17130012401E+03  0.17130000000E+03 0.  1.
      622    1    1    2    0    0  0.49992030073E-02 -0.14738945294E+00  0.38433503427E+01  0.39500747461E+01  0.90000000000E+00 0. -1.
</event>
<event>
 5   0  0.4857400E+02  0.9118800E+02  0.7818608E-02  0.1180000E+00
       11   -1    0    0    0    0  0.00000000000E+00  0.00000000000E+00  0.39999999673E+01  0.40000000000E+01  0.51109989000E-03 0.  1.
     -623   -1    0    0    0    0  0.00000000000E+00  0.00000000000E+00  0.12525980253E-10  0.17130000000E+03  0.17130000000E+03 0. -1.
       11    1    1    2    0    0 -0.48905245069E-01  0.10980196277E+00  0.13224287472E+00  0.17870823473E+00  0.51109989000E-03 0.  1.
     -623    1    1    2    0    0 -0.46670558162E-01 -0.20311434861E+00  0.15656953173E+00  0.17130019833E+03  0.17130000000E+03 0. -1.
      622    1    1    2    0    0  0.95575803231E-01  0.93312385847E-01  0.37111875609E+01  0.38210934361E+01  0.90000000000E+00 0.  1.
</event>
<event>
 5   0  0.4857400E+02  0.9118800E+02  0.7818608E-02  0.1180000E+00
       11   -1    0    0    0    0  0.00000000000E+00  0.00000000000E+00  0.39999999673E+01  0.40000000000E+01  0.51109989000E-03 0.  1.
     -623   -1    0    0    0    0  0.00000000000E+00  0.00000000000E+00  0.12525980253E-10  0.17130000000E+03  0.17130000000E+03 0. -1.
       11    1    1    2    0    0 -0.28595618626E-02  0.56248657235E-01  0.12637578472E-01  0.57723982429E-01  0.51109989000E-03 0.  1.
     -623    1    1    2    0    0 -0.20278801011E-01  0.32981679384E-01  0.15037295986E+00  0.17130007038E+03  0.17130000000E+03 0. -1.
      622    1    1    2    0    0  0.23138362873E-01 -0.89230336619E-01  0.38369894290E+01  0.39422056409E+01  0.90000000000E+00 0.  1.
</event>
<event>
 5   0  0.4857400E+02  0.9118800E+02  0.7818608E-02  0.1180000E+00
       11   -1    0    0    0    0  0.00000000000E+00  0.00000000000E+00  0.39999999673E+01  0.40000000000E+01  0.51109989000E-03 0. -1.
     -623   -1    0    0    0    0  0.00000000000E+00  0.00000000000E+00  0.12525980253E-10  0.17130000000E+03  0.17130000000E+03 0. -1.
       11    1    1    2    0    0  0.69731511002E-01  0.29942084632E-01  0.25156706861E+00  0.26276465381E+00  0.51109989000E-03 0. -1.
     -623    1    1    2    0    0 -0.24633088893E-01  0.16097657176E+00  0.12662176812E+00  0.17130012421E+03  0.17130000000E+03 0. -1.
      622    1    1    2    0    0 -0.45098422109E-01 -0.19091865639E+00  0.36218111306E+01  0.37371111392E+01  0.90000000000E+00 0. -1.
</event>
<event>
 5   0  0.4857400E+02  0.9118800E+02  0.7818608E-02  0.1180000E+00
       11   -1    0    0    0    0  0.00000000000E+00  0.00000000000E+00  0.39999999673E+01  0.40000000000E+01  0.51109989000E-03 0. -1.
     -623   -1    0    0    0    0  0.00000000000E+00  0.00000000000E+00  0.12525980253E-10  0.17130000000E+03  0.17130000000E+03 0.  1.
       11    1    1    2    0    0 -0.30370250312E-01 -0.16352178565E+00  0.20944820032E+00  0.26745193274E+00  0.51109989000E-03 0. -1.
     -623    1    1    2    0    0 -0.13764572137E+00  0.41942450427E-01  0.17422882852E+00  0.17130014904E+03  0.17130000000E+03 0.  1.
      622    1    1    2    0    0  0.16801597168E+00  0.12157933522E+00  0.36163229385E+01  0.37323990270E+01  0.90000000000E+00 0. -1.
</event>
<event>
 5   0  0.4857400E+02  0.9118800E+02  0.7818608E-02  0.1180000E+00
       11   -1    0    0    0    0  0.00000000000E+00  0.00000000000E+00  0.39999999673E+01  0.40000000000E+01  0.51109989000E-03 0. -1.
     -623   -1    0    0    0    0  0.00000000000E+00  0.00000000000E+00  0.12525980253E-10  0.17130000000E+03  0.17130000000E+03 0.  1.
       11    1    1    2    0    0  0.18010368763E-01 -0.64491053114E-01  0.88842304159E-01  0.11125055302E+00  0.51109989000E-03 0. -1.
     -623    1    1    2    0    0  0.83562900353E-01  0.97515711051E-01  0.12959596883E+00  0.17130009716E+03  0.17130000000E+03 0.  1.
      622    1    1    2    0    0 -0.10157326912E+00 -0.33024657937E-01  0.37815616944E+01  0.38886522865E+01  0.90000000000E+00 0. -1.
</event>
<event>
 5   0  0.4857400E+02  0.9118800E+02  0.7818608E-02  0.1180000E+00
       11   -1    0    0    0    0  0.00000000000E+00  0.00000000000E+00  0.39999999673E+01  0.40000000000E+01  0.51109989000E-03 0.  1.
     -623   -1    0    0    0    0  0.00000000000E+00  0.00000000000E+00  0.12525980253E-10  0.17130000000E+03  0.17130000000E+03 0.  1.
       11    1    1    2    0    0 -0.79173153941E-02 -0.34952439173E-01 -0.11966191691E-01  0.37786344807E-01  0.51109989000E-03 0.  1.
     -623    1    1    2    0    0  0.57896291349E-01 -0.22620342540E-01  0.15415778078E+00  0.17130008064E+03  0.17130000000E+03 0.  1.
      622    1    1    2    0    0 -0.49978975955E-01  0.57572781713E-01  0.38578083783E+01  0.39621330122E+01  0.90000000000E+00 0.  1.
</event>
<event>
 5   0  0.4857400E+02  0.9118800E+02  0.7818608E-02  0.1180000E+00
       11   -1    0    0    0    0  0.00000000000E+00  0.00000000000E+00  0.39999999673E+01  0.40000000000E+01  0.51109989000E-03 0.  1.
     -623   -1    0    0    0    0  0.00000000000E+00  0.00000000000E+00  0.12525980253E-10  0.17130000000E+03  0.17130000000E+03 0. -1.
       11    1    1    2    0    0  0.28834479478E-02  0.13213824297E+00 -0.59712399896E-01  0.14503331151E+00  0.51109989000E-03 0.  1.
     -623    1    1    2    0    0  0.54839867686E-01 -0.73491772258E-01  0.31249873632E+00  0.17130030958E+03  0.17130000000E+03 0. -1.
      622    1    1    2    0    0 -0.57723315634E-01 -0.58646470708E-01  0.37472136309E+01  0.38546571035E+01  0.90000000000E+00 0.  1.
</event>
<event>
 5   0  0.4857400E+02  0.9118800E+02  0.7818608E-02  0.1180000E+00
       11   -1    0    0    0    0  0.00000000000E+00  0.00000000000E+00  0.39999999673E+01  0.40000000000E+01  0.51109989000E-03 0.  1.
     -623   -1    0    0    0    0  0.00000000000E+00  0.00000000000E+00  0.12525980253E-10  0.17130000000E+03  0.17130000000E+03 0.  1.
       11    1    1    2    0    0  0.14287084725E+00  0.34257386551E+00  0.67683182758E+00  0.77192649674E+00  0.51109989000E-03 0.  1.
     -623    1    1    2    0    0  0.56544030175E-01 -0.51470735110E+00  0.23529390267E+00  0.17130094420E+03  0.17130000000E+03 0.  1.
      622    1    1    2    0    0 -0.19941487743E+00  0.17213348559E+00  0.30878742371E+01  0.32271293024E+01  0.90000000000E+00 0.  1.
</event>
<event>
 5   0  0.4857400E+02  0.9118800E+02  0.7818608E-02  0.1180000E+00
       11   -1    0    0    0    0  0.00000000000E+00  0.00000000000E+00  0.39999999673E+01  0.40000000000E+01  0.51109989000E-03 0.  1.
     -623   -1    0    0    0    0  0.00000000000E+00  0.00000000000E+00  0.12525980253E-10  0.17130000000E+03  0.17130000000E+03 0.  1.
       11    1    1    2    0    0 -0.13572794516E-01  0.15389270858E-01  0.75660314052E-02  0.21875933371E-01  0.51109989000E-03 0.  1.
     -623    1    1    2    0    0 -0.57478669673E-01 -0.14355233758E+00  0.12034077919E+00  0.17130011206E+03  0.17130000000E+03 0.  1.
      622    1    1    2    0    0  0.71051464188E-01  0.12816306672E+00  0.38720931568E+01  0.39780120031E+01  0.90000000000E+00 0.  1.
</event>
<event>
 5   0  0.4857400E+02  0.9118800E+02  0.7818608E-02  0.1180000E+00
       11   -1    0    0    0    0  0.00000000000E+00  0.00000000000E+00  0.39999999673E+01  0.40000000000E+01  0.51109989000E-03 0.  1.
     -623   -1    0    0    0    0  0.00000000000E+00  0.00000000000E+00  0.12525980253E-10  0.17130000000E+03  0.17130000000E+03 0. -1.
       11    1    1    2    0    0  0.12704353326E+00 -0.15212525128E+00  0.95500169661E+00  0.97535155364E+00  0.51109989000E-03 0.  1.
     -623    1    1    2    0    0 -0.70246441560E-03  0.43026841811E+00  0.17421995584E+00  0.17130062897E+03  0.17130000000E+03 0. -1.
      622    1    1    2    0    0 -0.12634106884E+00 -0.27814316682E+00  0.28707783149E+01  0.30240194808E+01  0.90000000000E+00 0.  1.
</event>
<event>
 5   0  0.4857400E+02  0.9118800E+02  0.7818608E-02  0.1180000E+00
       11   -1    0    0    0    0  0.00000000000E+00  0.00000000000E+00  0.39999999673E+01  0.40000000000E+01  0.51109989000E-03 0.  1.
     -623   -1    0    0    0    0  0.00000000000E+00  0.00000000000E+00  0.12525980253E-10  0.17130000000E+03  0.17130000000E+03 0.  1.
       11    1    1    2    0    0  0.65967663295E-01 -0.13151787482E-01  0.80471660472E+00  0.80752323635E+00  0.51109989000E-03 0.  1.
     -623    1    1    2    0    0  0.10250960368E-01  0.50050943002E-01  0.13352632811E+00  0.17130005966E+03  0.17130000000E+03 0.  1.
      622    1    1    2    0    0 -0.76218623663E-01 -0.36899155520E-01  0.30617570345E+01  0.31924171038E+01  0.90000000000E+00 0.  1.
</event>
<event>
 5   0  0.4857400E+02  0.9118800E+02  0.7818608E-02  0.1180000E+00
       11   -1    0    0    0    0  0.00000000000E+00  0.00000000000E+00  0.39999999673E+01  0.40000000000E+01  0.51109989000E-03 0. -1.
     -623   -1    0    0    0    0  0.00000000000E+00  0.00000000000E+00  0.12525980253E-10  0.17130000000E+03  0.17130000000E+03 0.  1.
       11    1    1    2    0    0  0.19793956556E+00 -0.26423134489E-01  0.66673816913E+00  0.69600165305E+00  0.51109989000E-03 0. -1.
     -623    1    1    2    0    0 -0.14101314110E+00 -0.64889412561E-01  0.15617330072E+00  0.17130014152E+03  0.17130000000E+03 0.  1.
      622    1    1    2    0    0 -0.56926424454E-01  0.91312547050E-01  0.31770884975E+01  0.33038568250E+01  0.90000000000E+00 0. -1.
</event>
<event>
 5   0  0.4857400E+02  0.9118800E+02  0.7818608E-02  0.1180000E+00
       11   -1    0    0    0    0  0.00000000000E+00  0.00000000000E+00  0.39999999673E+01  0.40000000000E+01  0.51109989000E-03 0.  1.
     -623   -1    0    0    0    0  0.00000000000E+00  0.00000000000E+00  0.12525980253E-10  0.17130000000E+03  0.17130000000E+03 0. -1.
       11    1    1    2    0    0  0.10080212442E+00 -0.21475269467E-01  0.24180062784E+00  0.26284988175E+00  0.51109989000E-03 0.  1.
     -623    1    1    2    0    0 -0.94711162918E-01  0.13744974814E+00  0.13303591375E+00  0.17130013299E+03  0.17130000000E+03 0. -1.
      622    1    1    2    0    0 -0.60909614972E-02 -0.11597447867E+00  0.36251634258E+01  0.37370171318E+01  0.90000000000E+00 0.  1.
</event>
<event>
 5   0  0.4857400E+02  0.9118800E+02  0.7818608E-02  0.1180000E+00
       11   -1    0    0    0    0  0.00000000000E+00  0.00000000000E+00  0.39999999673E+01  0.40000000000E+01  0.51109989000E-03 0.  1.
     -623   -1    0    0    0    0  0.00000000000E+00  0.00000000000E+00  0.12525980253E-10  0.17130000000E+03  0.17130000000E+03 0. -1.
       11    1    1    2    0    0  0.37536622861E+00  0.15331011816E+00  0.16883885901E+00  0.43921591438E+00  0.51109989000E-03 0.  1.
     -623    1    1    2    0    0 -0.51224069297E+00 -0.12505855160E+00  0.39012797484E+00  0.17130125577E+03  0.17130000000E+03 0. -1.
      622    1    1    2    0    0  0.13687446436E+00 -0.28251566568E-01  0.34410331335E+01  0.35595283109E+01  0.90000000000E+00 0.  1.
</event>
<event>
 5   0  0.4857400E+02  0.9118800E+02  0.7818608E-02  0.1180000E+00
       11   -1    0    0    0    0  0.00000000000E+00  0.00000000000E+00  0.39999999673E+01  0.40000000000E+01  0.51109989000E-03 0. -1.
     -623   -1    0    0    0    0  0.00000000000E+00  0.00000000000E+00  0.12525980253E-10  0.17130000000E+03  0.17130000000E+03 0.  1.
       11    1    1    2    0    0  0.11860801603E+00 -0.13928789261E+00  0.25654108034E+00  0.31509136074E+00  0.51109989000E-03 0. -1.
     -623    1    1    2    0    0  0.51109472919E-01  0.59357376037E-01  0.17518667191E+00  0.17130010749E+03  0.17130000000E+03 0.  1.
      622    1    1    2    0    0 -0.16971748895E+00  0.79930516572E-01  0.35682722151E+01  0.36848011500E+01  0.90000000000E+00 0. -1.
</event>
<event>
 5   0  0.4857400E+02  0.9118800E+02  0.7818608E-02  0.1180000E+00
       11   -1    0    0    0    0  0.00000000000E+00  0.00000000000E+00  0.39999999673E+01  0.40000000000E+01  0.51109989000E-03 0. -1.
     -623   -1    0    0    0    0  0.00000000000E+00  0.00000000000E+00  0.12525980253E-10  0.17130000000E+03  0.17130000000E+03 0. -1.
       11    1    1    2    0    0 -0.42527705947E-01  0.55607906045E-02  0.80405129415E-01  0.91130533986E-01  0.51109989000E-03 0. -1.
     -623    1    1    2    0    0 -0.67594922773E-01 -0.11482564659E+00  0.11900719835E+00  0.17130009316E+03  0.17130000000E+03 0. -1.
      622    1    1    2    0    0  0.11012262872E+00  0.10926485599E+00  0.38005876396E+01  0.39087763057E+01  0.90000000000E+00 0. -1.
</event>
<event>
 5   0  0.4857400E+02  0.9118800E+02  0.7818608E-02  0.1180000E+00
       11   -1    0    0    0    0  0.00000000000E+00  0.00000000000E+00  0.39999999673E+01  0.40000000000E+01  0.51109989000E-03 0.  1.
     -623   -1    0    0    0    0  0.00000000000E+00  0.00000000000E+00  0.12525980253E-10  0.17130000000E+03  0.17130000000E+03 0.  1.
       11    1    1    2    0    0  0.74495498040E-01 -0.20116556074E+00  0.20598107152E+00  0.29739809196E+00  0.51109989000E-03 0.  1.
     -623    1    1    2    0    0 -0.86152110423E-01  0.20898986378E+00  0.20276971538E+00  0.17130026916E+03  0.17130000000E+03 0.  1.
      622    1    1    2    0    0  0.11656612382E-01 -0.78243030403E-02  0.35912491805E+01  0.37023327474E+01  0.90000000000E+00 0.  1.
</event>
<event>
 5   0  0.4857400E+02  0.9118800E+02  0.7818608E-02  0.1180000E+00
       11   -1    0    0    0    0  0.00000000000E+00  0.00000000000E+00  0.39999999673E+01  0.40000000000E+01  0.51109989000E-03 0. -1.
     -623   -1    0    0    0    0  0.00000000000E+00  0.00000000000E+00  0.12525980253E-10  0.17130000000E+03  0.17130000000E+03 0. -1.
       11    1    1    2    0    0  0.30609340005E-01 -0.71132071920E-01  0.60832503196E+00  0.61323430194E+00  0.51109989000E-03 0. -1.
     -623    1    1    2    0    0  0.28379081282E-02  0.81211295887E-01  0.12693720258E+00  0.17130006631E+03  0.17130000000E+03 0. -1.
      622    1    1    2    0    0 -0.33447248134E-01 -0.10079223967E-01  0.32647377328E+01  0.33866993922E+01  0.90000000000E+00 0. -1.
</event>
<event>
 5   0  0.4857400E+02  0.9118800E+02  0.7818608E-02  0.1180000E+00
       11   -1    0    0    0    0  0.00000000000E+00  0.00000000000E+00  0.39999999673E+01  0.40000000000E+01  0.51109989000E-03 0.  1.
     -623   -1    0    0    0    0  0.00000000000E+00  0.00000000000E+00  0.12525980253E-10  0.17130000000E+03  0.17130000000E+03 0.  1.
       11    1    1    2    0    0 -0.74553082093E-01  0.57273555744E-01 -0.13903873394E-01  0.95036841035E-01  0.51109989000E-03 0.  1.
     -623    1    1    2    0    0  0.13924977145E+00 -0.33902024777E+00  0.22563932918E+00  0.17130054068E+03  0.17130000000E+03 0.  1.
      622    1    1    2    0    0 -0.64696689353E-01  0.28174669203E+00  0.37882645116E+01  0.39044224758E+01  0.90000000000E+00 0.  1.
</event>
<event>
 5   0  0.4857400E+02  0.9118800E+02  0.7818608E-02  0.1180000E+00
       11   -1    0    0    0    0  0.00000000000E+00  0.00000000000E+00  0.39999999673E+01  0.40000000000E+01  0.51109989000E-03 0.  1.
     -623   -1    0    0    0    0  0.00000000000E+00  0.00000000000E+00  0.12525980253E-10  0.17130000000E+03  0.17130000000E+03 0.  1.
       11    1    1    2    0    0  0.47900456254E-01  0.71130555845E-01  0.14352991318E+00  0.16719780765E+00  0.51109989000E-03 0.  1.
     -623    1    1    2    0    0 -0.49245691711E-01 -0.16658032567E+00  0.13219911593E+00  0.17130013909E+03  0.17130000000E+03 0.  1.
      622    1    1    2    0    0  0.13452354572E-02  0.95449769821E-01  0.37242709383E+01  0.38326631067E+01  0.90000000000E+00 0.  1.
</event>
<event>
 5   0  0.4857400E+02  0.9118800E+02  0.7818608E-02  0.1180000E+00
       11   -1    0    0    0    0  0.00000000000E+00  0.00000000000E+00  0.39999999673E+01  0.40000000000E+01  0.51109989000E-03 0.  1.
     -623   -1    0    0    0    0  0.00000000000E+00  0.00000000000E+00  0.12525980253E-10  0.17130000000E+03  0.17130000000E+03 0. -1.
       11    1    1    2    0    0 -0.33294585196E-01  0.96571048302E-02 -0.64459447181E-02  0.35264720355E-01  0.51109989000E-03 0.  1.
     -623    1    1    2    0    0  0.37317313585E-01  0.27442396931E-01  0.14546237236E+00  0.17130006802E+03  0.17130000000E+03 0. -1.
      622    1    1    2    0    0 -0.40227283884E-02 -0.37099501761E-01  0.38609835397E+01  0.39646672558E+01  0.90000000000E+00 0.  1.
</event>
<event>
 5   0  0.4857400E+02  0.9118800E+02  0.7818608E-02  0.1180000E+00
       11   -1    0    0    0    0  0.00000000000E+00  0.00000000000E+00  0.39999999673E+01  0.40000000000E+01  0.51109989000E-03 0. -1.
     -623   -1    0    0    0    0  0.00000000000E+00  0.00000000000E+00  0.12525980253E-10  0.17130000000E+03  0.17130000000E+03 0. -1.
       11    1    1    2    0    0  0.63853621669E-01  0.44982848421E+00  0.58753688995E+00  0.74271314011E+00  0.51109989000E-03 0. -1.
     -623    1    1    2    0    0  0.46065924142E+00 -0.12331736997E+00  0.34462788273E+00  0.17130101045E+03  0.17130000000E+03 0. -1.
      622    1    1    2    0    0 -0.52451286309E+00 -0.32651111424E+00  0.30678351947E+01  0.32562764061E+01  0.90000000000E+00 0. -1.
</event>
<event>
 5   0  0.4857400E+02  0.9118800E+02  0.7818608E-02  0.1180000E+00
       11   -1    0    0    0    0  0.00000000000E+00  0.00000000000E+00  0.39999999673E+01  0.40000000000E+01  0.51109989000E-03 0.  1.
     -623   -1    0    0    0    0  0.00000000000E+00  0.00000000000E+00  0.12525980253E-10  0.17130000000E+03  0.17130000000E+03 0.  1.
       11    1    1    2    0    0 -0.74855384304E-01 -0.28001367556E-01  0.23692406727E+00  0.25004135661E+00  0.51109989000E-03 0.  1.
     -623    1    1    2    0    0  0.22985337258E+00  0.63804829388E-01  0.12641698383E+00  0.17130021274E+03  0.17130000000E+03 0.  1.
      622    1    1    2    0    0 -0.15499798828E+00 -0.35803461831E-01  0.36366589163E+01  0.37497459031E+01  0.90000000000E+00 0.  1.
</event>
<event>
 5   0  0.4857400E+02  0.9118800E+02  0.7818608E-02  0.1180000E+00
       11   -1    0    0    0    0  0.00000000000E+00  0.00000000000E+00  0.39999999673E+01  0.40000000000E+01  0.51109989000E-03 0. -1.
     -623   -1    0    0    0    0  0.00000000000E+00  0.00000000000E+00  0.12525980253E-10  0.17130000000E+03  0.17130000000E+03 0.  1.
       11    1    1    2    0    0  0.24995520418E-01 -0.12989806443E+00  0.71451333247E+00  0.72665524610E+00  0.51109989000E-03 0. -1.
     -623    1    1    2    0    0 -0.13669049206E+00 -0.15378893289E-01  0.14375968045E+00  0.17130011555E+03  0.17130000000E+03 0.  1.
      622    1    1    2    0    0  0.11169497164E+00  0.14527695772E+00  0.31417269544E+01  0.32732292033E+01  0.90000000000E+00 0. -1.
</event>
<event>
 5   0  0.4857400E+02  0.9118800E+02  0.7818608E-02  0.1180000E+00
       11   -1    0    0    0    0  0.00000000000E+00  0.00000000000E+00  0.39999999673E+01  0.40000000000E+01  0.51109989000E-03 0. -1.
     -623   -1    0    0    0    0  0.00000000000E+00  0.00000000000E+00  0.12525980253E-10  0.17130000000E+03  0.17130000000E+03 0. -1.
       11    1    1    2    0    0 -0.56175687388E-01 -0.74527026569E-01  0.33141236110E+00  0.34430277352E+00  0.51109989000E-03 0. -1.
     -623    1    1    2    0    0  0.18610227613E-01  0.13316597509E+00  0.12619479323E+00  0.17130009925E+03  0.17130000000E+03 0. -1.
      622    1    1    2    0    0  0.37565459774E-01 -0.58638948519E-01  0.35423928130E+01  0.36555979719E+01  0.90000000000E+00 0. -1.
</event>
<event>
 5   0  0.4857400E+02  0.9118800E+02  0.7818608E-02  0.1180000E+00
       11   -1    0    0    0    0  0.00000000000E+00  0.00000000000E+00  0.39999999673E+01  0.40000000000E+01  0.51109989000E-03 0. -1.
     -623   -1    0    0    0    0  0.00000000000E+00  0.00000000000E+00  0.12525980253E-10  0.17130000000E+03  0.17130000000E+03 0. -1.
       11    1    1    2    0    0  0.14090272158E+00  0.17825733557E+00  0.33763307242E+00  0.40697126121E+00  0.51109989000E-03 0. -1.
     -623    1    1    2    0    0 -0.32887400462E-01 -0.25888304184E+00  0.18680544387E+00  0.17130030064E+03  0.17130000000E+03 0. -1.
      622    1    1    2    0    0 -0.10801532112E+00  0.80625706275E-01  0.34755614511E+01  0.35927281019E+01  0.90000000000E+00 0. -1.
</event>
<event>
 5   0  0.4857400E+02  0.9118800E+02  0.7818608E-02  0.1180000E+00
       11   -1    0    0    0    0  0.00000000000E+00  0.00000000000E+00  0.39999999673E+01  0.40000000000E+01  0.51109989000E-03 0.  1.
     -623   -1    0    0    0    0  0.00000000000E+00  0.00000000000E+00  0.12525980253E-10  0.17130000000E+03  0.17130000000E+03 0. -1.
       11    1    1    2    0    0 -0.95447075909E-01  0.93620927964E-01 -0.52471985278E-01  0.14362657454E+00  0.51109989000E-03 0.  1.
     -623    1    1    2    0    0  0.30603271289E-01 -0.19451228409E+00  0.30490385771E+00  0.17130038452E+03  0.17130000000E+03 0. -1.
      622    1    1    2    0    0  0.64843804620E-01  0.10089135613E+00  0.37475680949E+01  0.38559889018E+01  0.90000000000E+00 0.  1.
</event>
<event>
 5   0  0.4857400E+02  0.9118800E+02  0.7818608E-02  0.1180000E+00
       11   -1    0    0    0    0  0.00000000000E+00  0.00000000000E+00  0.39999999673E+01  0.40000000000E+01  0.51109989000E-03 0. -1.
     -623   -1    0    0    0    0  0.00000000000E+00  0.00000000000E+00  0.12525980253E-10  0.17130000000E+03  0.17130000000E+03 0. -1.
       11    1    1    2    0    0 -0.39781121068E-01  0.51559233514E-01  0.14263457229E+00  0.15679851590E+00  0.51109989000E-03 0. -1.
     -623    1    1    2    0    0  0.14773526509E+00 -0.43534077588E-01  0.12271559751E+00  0.17130011319E+03  0.17130000000E+03 0. -1.
      622    1    1    2    0    0 -0.10795414402E+00 -0.80251559265E-02  0.37346497976E+01  0.38430882908E+01  0.90000000000E+00 0. -1.
</event>
<event>
 5   0  0.4857400E+02  0.9118800E+02  0.7818608E-02  0.1180000E+00
       11   -1    0    0    0    0  0.00000000000E+00  0.00000000000E+00  0.39999999673E+01  0.40000000000E+01  0.51109989000E-03 0.  1.
     -623   -1    0    0    0    0  0.00000000000E+00  0.00000000000E+00  0.12525980253E-10  0.17130000000E+03  0.17130000000E+03 0. -1.
       11    1    1    2    0    0  0.89140985614E-01 -0.13048531888E-01 -0.41065054013E-01  0.99009996388E-01  0.51109989000E-03 0.  1.
     -623    1    1    2    0    0 -0.42126492276E-01  0.70076329451E-01  0.24623597330E+00  0.17130019649E+03  0.17130000000E+03 0. -1.
      622    1    1    2    0    0 -0.47014493337E-01 -0.57027797563E-01  0.37948290481E+01  0.39007935137E+01  0.90000000000E+00 0.  1.
</event>
<event>
 5   0  0.4857400E+02  0.9118800E+02  0.7818608E-02  0.1180000E+00
       11   -1    0    0    0    0  0.00000000000E+00  0.00000000000E+00  0.39999999673E+01  0.40000000000E+01  0.51109989000E-03 0. -1.
     -623   -1    0    0    0    0  0.00000000000E+00  0.00000000000E+00  0.12525980253E-10  0.17130000000E+03  0.17130000000E+03 0.  1.
       11    1    1    2    0    0 -0.28605034106E-02  0.60620986153E-01  0.20566343624E+00  0.21443133323E+00  0.51109989000E-03 0. -1.
     -623    1    1    2    0    0  0.14389154936E+00  0.41600943198E-01  0.12154892932E+00  0.17130010861E+03  0.17130000000E+03 0.  1.
      622    1    1    2    0    0 -0.14103104595E+00 -0.10222192935E+00  0.36727876018E+01  0.37854600575E+01  0.90000000000E+00 0. -1.
</event>
<event>
 5   0  0.4857400E+02  0.9118800E+02  0.7818608E-02  0.1180000E+00
       11   -1    0    0    0    0  0.00000000000E+00  0.00000000000E+00  0.39999999673E+01  0.40000000000E+01  0.51109989000E-03 0.  1.
     -623   -1    0    0    0    0  0.00000000000E+00  0.00000000000E+00  0.12525980253E-10  0.17130000000E+03  0.17130000000E+03 0.  1.
       11    1    1    2    0    0 -0.52295024053E-01 -0.60600167337E-02  0.48234034479E-01  0.71402217394E-01  0.51109989000E-03 0.  1.
     -623    1    1    2    0    0  0.20264267992E-01  0.32706839730E-01  0.12792816993E+00  0.17130005209E+03  0.17130000000E+03 0.  1.
      622    1    1    2    0    0  0.32030756062E-01 -0.26646822996E-01  0.38238377630E+01  0.39285456927E+01  0.90000000000E+00 0.  1.
</event>
<event>
 5   0  0.4857400E+02  0.9118800E+02  0.7818608E-02  0.1180000E+00
       11   -1    0    0    0    0  0.00000000000E+00  0.00000000000E+00  0.39999999673E+01  0.40000000000E+01  0.51109989000E-03 0. -1.
     -623   -1    0    0    0    0  0.00000000000E+00  0.00000000000E+00  0.12525980253E-10  0.17130000000E+03  0.17130000000E+03 0. -1.
       11    1    1    2    0    0 -0.22203625049E-01 -0.24467698232E+00  0.70033750633E+00  0.74218104977E+00  0.51109989000E-03 0. -1.
     -623    1    1    2    0    0 -0.18225245057E+00  0.12123402799E+00  0.17799140672E+00  0.17130023232E+03  0.17130000000E+03 0. -1.
      622    1    1    2    0    0  0.20445607561E+00  0.12344295433E+00  0.31216710543E+01  0.32575866253E+01  0.90000000000E+00 0. -1.
</event>
<event>
 5   0  0.4857400E+02  0.9118800E+02  0.7818608E-02  0.1180000E+00
       11   -1    0    0    0    0  0.00000000000E+00  0.00000000000E+00  0.39999999673E+01  0.40000000000E+01  0.51109989000E-03 0. -1.
     -623   -1    0    0    0    0  0.00000000000E+00  0.00000000000E+00  0.12525980253E-10  0.17130000000E+03  0.17130000000E+03 0. -1.
       11    1    1    2    0    0  0.75070347947E-01  0.20220906664E+00  0.67325987020E+00  0.70696759318E+00  0.51109989000E-03 0. -1.
     -623    1    1    2    0    0  0.19606543287E+00 -0.10897248780E+00  0.17232784534E+00  0.17130023355E+03  0.17130000000E+03 0. -1.
      622    1    1    2    0    0 -0.27113578082E+00 -0.93236578842E-01  0.31544122518E+01  0.32927988590E+01  0.90000000000E+00 0. -1.
</event>
<event>
 5   0  0.4857400E+02  0.9118800E+02  0.7818608E-02  0.1180000E+00
       11   -1    0    0    0    0  0.00000000000E+00  0.00000000000E+00  0.39999999673E+01  0.40000000000E+01  0.51109989000E-03 0.  1.
     -623   -1    0    0    0    0  0.00000000000E+00  0.00000000000E+00  0.12525980253E-10  0.17130000000E+03  0.17130000000E+03 0. -1.
       11    1    1    2    0    0  0.56877429583E+00  0.56486877650E-02  0.33583977983E+00  0.66054880683E+00  0.51109989000E-03 0.  1.
     -623    1    1    2    0    0 -0.23258515192E-01 -0.19911707949E+00  0.50168846438E+00  0.17130085195E+03  0.17130000000E+03 0. -1.
      622    1    1    2    0    0 -0.54551578064E+00  0.19346839172E+00  0.31624717231E+01  0.33385992400E+01  0.90000000000E+00 0.  1.
</event>
<event>
 5   0  0.4857400E+02  0.9118800E+02  0.7818608E-02  0.1180000E+00
       11   -1    0    0    0    0  0.00000000000E+00  0.00000000000E+00  0.39999999673E+01  0.40000000000E+01  0.51109989000E-03 0. -1.
     -623   -1    0    0    0    0  0.00000000000E+00  0.00000000000E+00  0.12525980253E-10  0.17130000000E+03  0.17130000000E+03 0.  1.
       11    1    1    2    0    0  0.62036380298E-02 -0.12471594988E-01  0.23232174681E+00  0.23273951333E+00  0.51109989000E-03 0. -1.
     -623    1    1    2    0    0  0.69960751473E-01  0.76157779268E-01  0.11091888074E+00  0.17130006713E+03  0.17130000000E+03 0.  1.
      622    1    1    2    0    0 -0.76164389503E-01 -0.63686184280E-01  0.36567593398E+01  0.37671933603E+01  0.90000000000E+00 0. -1.
</event>
<event>
 5   0  0.4857400E+02  0.9118800E+02  0.7818608E-02  0.1180000E+00
       11   -1    0    0    0    0  0.00000000000E+00  0.00000000000E+00  0.39999999673E+01  0.40000000000E+01  0.51109989000E-03 0.  1.
     -623   -1    0    0    0    0  0.00000000000E+00  0.00000000000E+00  0.12525980253E-10  0.17130000000E+03  0.17130000000E+03 0. -1.
       11    1    1    2    0    0 -0.10479655528E+00  0.13576858246E-01  0.10236175882E+00  0.14712185415E+00  0.51109989000E-03 0.  1.
     -623    1    1    2    0    0  0.19182801464E+00 -0.18546549676E-01  0.15254647791E+00  0.17130017633E+03  0.17130000000E+03 0. -1.
      622    1    1    2    0    0 -0.87031459360E-01  0.49696914296E-02  0.37450917306E+01  0.38527018109E+01  0.90000000000E+00 0.  1.
</event>
<event>
 5   0  0.4857400E+02  0.9118800E+02  0.7818608E-02  0.1180000E+00
       11   -1    0    0    0    0  0.00000000000E+00  0.00000000000E+00  0.39999999673E+01  0.40000000000E+01  0.51109989000E-03 0.  1.
     -623   -1    0    0    0    0  0.00000000000E+00  0.00000000000E+00  0.12525980253E-10  0.17130000000E+03  0.17130000000E+03 0. -1.
       11    1    1    2    0    0  0.48691141607E-01 -0.32695573058E-01  0.11821956692E+00  0.13196952298E+00  0.51109989000E-03 0.  1.
     -623    1    1    2    0    0  0.10969773554E+00  0.12107699147E+00  0.12441307529E+00  0.17130012309E+03  0.17130000000E+03 0. -1.
      622    1    1    2    0    0 -0.15838887715E+00 -0.88381418414E-01  0.37573673251E+01  0.38679073835E+01  0.90000000000E+00 0.  1.
</event>
<event>
 5   0  0.4857400E+02  0.9118800E+02  0.7818608E-02  0.1180000E+00
       11   -1    0    0    0    0  0.00000000000E+00  0.00000000000E+00  0.39999999673E+01  0.40000000000E+01  0.51109989000E-03 0. -1.
     -623   -1    0    0    0    0  0.00000000000E+00  0.00000000000E+00  0.12525980253E-10  0.17130000000E+03  0.17130000000E+03 0. -1.
       11    1    1    2    0    0  0.40076860886E-02 -0.85161920759E-01  0.86774849949E-01  0.12165011345E+00  0.51109989000E-03 0. -1.
     -623    1    1    2    0    0 -0.79086544713E-01  0.52522972358E-01  0.14172184875E+00  0.17130008493E+03  0.17130000000E+03 0. -1.
      622    1    1    2    0    0  0.75078858625E-01  0.32638948401E-01  0.37715032687E+01  0.38782649525E+01  0.90000000000E+00 0. -1.
</event>
<event>
 5   0  0.4857400E+02  0.9118800E+02  0.7818608E-02  0.1180000E+00
       11   -1    0    0    0    0  0.00000000000E+00  0.00000000000E+00  0.39999999673E+01  0.40000000000E+01  0.51109989000E-03 0.  1.
     -623   -1    0    0    0    0  0.00000000000E+00  0.00000000000E+00  0.12525980253E-10  0.17130000000E+03  0.17130000000E+03 0.  1.
       11    1    1    2    0    0 -0.59339163766E-01  0.26631985422E+00  0.93312742681E+00  0.97220083162E+00  0.51109989000E-03 0.  1.
     -623    1    1    2    0    0 -0.14192823416E+00 -0.17583385059E+00  0.18462227666E+00  0.17130024853E+03  0.17130000000E+03 0.  1.
      622    1    1    2    0    0  0.20126739792E+00 -0.90486003630E-01  0.28822502639E+01  0.30275506381E+01  0.90000000000E+00 0.  1.
</event>
<event>
 5   0  0.4857400E+02  0.9118800E+02  0.7818608E-02  0.1180000E+00
       11   -1    0    0    0    0  0.00000000000E+00  0.00000000000E+00  0.39999999673E+01  0.40000000000E+01  0.51109989000E-03 0.  1.
     -623   -1    0    0    0    0  0.00000000000E+00  0.00000000000E+00  0.12525980253E-10  0.17130000000E+03  0.17130000000E+03 0. -1.
       11    1    1    2    0    0 -0.71832304791E-01  0.95823261813E-01  0.23134247841E+00  0.26050255480E+00  0.51109989000E-03 0.  1.
     -623    1    1    2    0    0 -0.14745360591E-02 -0.31079281577E+00  0.14654788716E+00  0.17130034463E+03  0.17130000000E+03 0. -1.
      622    1    1    2    0    0  0.73306840850E-01  0.21496955396E+00  0.36221096018E+01  0.37391528144E+01  0.90000000000E+00 0.  1.
</event>
<event>
 5   0  0.4857400E+02  0.9118800E+02  0.7818608E-02  0.1180000E+00
       11   -1    0    0    0    0  0.00000000000E+00  0.00000000000E+00  0.39999999673E+01  0.40000000000E+01  0.51109989000E-03 0. -1.
     -623   -1    0    0    0    0  0.00000000000E+00  0.00000000000E+00  0.12525980253E-10  0.17130000000E+03  0.17130000000E+03 0.  1.
       11    1    1    2    0    0  0.38991294090E-01  0.29554510438E-01  0.77014018905E-01  0.91242591098E-01  0.51109989000E-03 0. -1.
     -623    1    1    2    0    0  0.34251672127E-02 -0.12485601274E+00  0.12077420523E+00  0.17130008811E+03  0.17130000000E+03 0.  1.
      622    1    1    2    0    0 -0.42416461303E-01  0.95301502307E-01  0.38022117432E+01  0.39086692969E+01  0.90000000000E+00 0. -1.
</event>
<event>
 5   0  0.4857400E+02  0.9118800E+02  0.7818608E-02  0.1180000E+00
       11   -1    0    0    0    0  0.00000000000E+00  0.00000000000E+00  0.39999999673E+01  0.40000000000E+01  0.51109989000E-03 0.  1.
     -623   -1    0    0    0    0  0.00000000000E+00  0.00000000000E+00  0.12525980253E-10  0.17130000000E+03  0.17130000000E+03 0.  1.
       11    1    1    2    0    0 -0.81435804931E-02  0.11702342199E-01  0.15850843319E-01  0.21325411443E-01  0.51109989000E-03 0.  1.
     -623    1    1    2    0    0  0.94626690992E-01 -0.68848606102E-02  0.10963487087E+00  0.17130006136E+03  0.17130000000E+03 0.  1.
      622    1    1    2    0    0 -0.86483110499E-01 -0.48174815893E-02  0.38745142532E+01  0.39786132301E+01  0.90000000000E+00 0.  1.
</event>
<event>
 5   0  0.4857400E+02  0.9118800E+02  0.7818608E-02  0.1180000E+00
       11   -1    0    0    0    0  0.00000000000E+00  0.00000000000E+00  0.39999999673E+01  0.40000000000E+01  0.51109989000E-03 0.  1.
     -623   -1    0    0    0    0  0.00000000000E+00  0.00000000000E+00  0.12525980253E-10  0.17130000000E+03  0.17130000000E+03 0. -1.
       11    1    1    2    0    0  0.60521974513E-01  0.46649771328E-01  0.60386565829E-01  0.97395631933E-01  0.51109989000E-03 0.  1.
     -623    1    1    2    0    0 -0.25987193829E-01 -0.66340426901E-01  0.14248787151E+00  0.17130007408E+03  0.17130000000E+03 0. -1.
      622    1    1    2    0    0 -0.34534780684E-01  0.19690655573E-01  0.37971255300E+01  0.39025302899E+01  0.90000000000E+00 0.  1.
</event>
<event>
 5   0  0.4857400E+02  0.9118800E+02  0.7818608E-02  0.1180000E+00
       11   -1    0    0    0    0  0.00000000000E+00  0.00000000000E+00  0.39999999673E+01  0.40000000000E+01  0.51109989000E-03 0. -1.
     -623   -1    0    0    0    0  0.00000000000E+00  0.00000000000E+00  0.12525980253E-10  0.17130000000E+03  0.17130000000E+03 0.  1.
       11    1    1    2    0    0 -0.48405012820E-01 -0.16648271935E+00  0.90309640808E+00  0.91958845394E+00  0.51109989000E-03 0. -1.
     -623    1    1    2    0    0 -0.46078110819E+00  0.16559340126E+00  0.19609987741E+00  0.17130081201E+03  0.17130000000E+03 0.  1.
      622    1    1    2    0    0  0.50918612101E+00  0.88931808913E-03  0.29008036819E+01  0.30795995352E+01  0.90000000000E+00 0.  0.
</event>
<event>
 5   0  0.4857400E+02  0.9118800E+02  0.7818608E-02  0.1180000E+00
       11   -1    0    0    0    0  0.00000000000E+00  0.00000000000E+00  0.39999999673E+01  0.40000000000E+01  0.51109989000E-03 0.  1.
     -623   -1    0    0    0    0  0.00000000000E+00  0.00000000000E+00  0.12525980253E-10  0.17130000000E+03  0.17130000000E+03 0. -1.
       11    1    1    2    0    0 -0.56531561073E-03  0.10875914721E+00  0.20100791420E-01  0.11060368314E+00  0.51109989000E-03 0.  1.
     -623    1    1    2    0    0  0.20767244799E+00  0.18441493548E+00  0.21349862745E+00  0.17130035820E+03  0.17130000000E+03 0. -1.
      622    1    1    2    0    0 -0.20710713238E+00 -0.29317408269E+00  0.37664005485E+01  0.38890381200E+01  0.90000000000E+00 0.  1.
</event>
<event>
 5   0  0.4857400E+02  0.9118800E+02  0.7818608E-02  0.1180000E+00
       11   -1    0    0    0    0  0.00000000000E+00  0.00000000000E+00  0.39999999673E+01  0.40000000000E+01  0.51109989000E-03 0. -1.
     -623   -1    0    0    0    0  0.00000000000E+00  0.00000000000E+00  0.12525980253E-10  0.17130000000E+03  0.17130000000E+03 0.  1.
       11    1    1    2    0    0 -0.16029710787E-01 -0.14311481060E+00  0.90504747301E-01  0.17008871552E+00  0.51109989000E-03 0. -1.
     -623    1    1    2    0    0  0.12054253855E+00  0.19144495095E+00  0.18887432053E+00  0.17130025352E+03  0.17130000000E+03 0.  1.
      622    1    1    2    0    0 -0.10451282776E+00 -0.48330140351E-01  0.37206208995E+01  0.38296577669E+01  0.90000000000E+00 0. -1.
</event>
<event>
 5   0  0.4857400E+02  0.9118800E+02  0.7818608E-02  0.1180000E+00
       11   -1    0    0    0    0  0.00000000000E+00  0.00000000000E+00  0.39999999673E+01  0.40000000000E+01  0.51109989000E-03 0. -1.
     -623   -1    0    0    0    0  0.00000000000E+00  0.00000000000E+00  0.12525980253E-10  0.17130000000E+03  0.17130000000E+03 0. -1.
       11    1    1    2    0    0  0.75867146877E-01  0.13625110327E-01  0.33299409609E+00  0.34179935175E+00  0.51109989000E-03 0. -1.
     -623    1    1    2    0    0 -0.15262077193E-01 -0.64489952697E-01  0.12218441297E+00  0.17130005639E+03  0.17130000000E+03 0. -1.
      622    1    1    2    0    0 -0.60605069684E-01  0.50864842370E-01  0.35448214583E+01  0.36581442533E+01  0.90000000000E+00 0. -1.
</event>
<event>
 5   0  0.4857400E+02  0.9118800E+02  0.7818608E-02  0.1180000E+00
       11   -1    0    0    0    0  0.00000000000E+00  0.00000000000E+00  0.39999999673E+01  0.40000000000E+01  0.51109989000E-03 0.  1.
     -623   -1    0    0    0    0  0.00000000000E+00  0.00000000000E+00  0.12525980253E-10  0.17130000000E+03  0.17130000000E+03 0.  1.
       11    1    1    2    0    0  0.66256269027E-01 -0.57834716630E-01  0.52550949092E+00  0.53281819968E+00  0.51109989000E-03 0.  1.
     -623    1    1    2    0    0 -0.11802959424E-01  0.80092584400E-01  0.12674029410E+00  0.17130006602E+03  0.17130000000E+03 0.  1.
      622    1    1    2    0    0 -0.54453309603E-01 -0.22257867770E-01  0.33477501823E+01  0.34671157839E+01  0.90000000000E+00 0.  1.
</event>
<event>
 5   0  0.4857400E+02  0.9118800E+02  0.7818608E-02  0.1180000E+00
       11   -1    0    0    0    0  0.00000000000E+00  0.00000000000E+00  0.39999999673E+01  0.40000000000E+01  0.51109989000E-03 0.  1.
     -623   -1    0    0    0    0  0.00000000000E+00  0.00000000000E+00  0.12525980253E-10  0.17130000000E+03  0.17130000000E+03 0. -1.
       11    1    1    2    0    0 -0.80632466357E-01  0.91770532524E-01  0.74629128500E-01  0.14315443867E+00  0.51109989000E-03 0.  1.
     -623    1    1    2    0    0 -0.38454111873E-01 -0.20014691908E+00  0.17868208669E+00  0.17130021443E+03  0.17130000000E+03 0. -1.
      622    1    1    2    0    0  0.11908657823E+00  0.10837638655E+00  0.37466887522E+01  0.38566311283E+01  0.90000000000E+00 0.  1.
</event>
<event>
 5   0  0.4857400E+02  0.9118800E+02  0.7818608E-02  0.1180000E+00
       11   -1    0    0    0    0  0.00000000000E+00  0.00000000000E+00  0.39999999673E+01  0.40000000000E+01  0.51109989000E-03 0.  1.
     -623   -1    0    0    0    0  0.00000000000E+00  0.00000000000E+00  0.12525980253E-10  0.17130000000E+03  0.17130000000E+03 0. -1.
       11    1    1    2    0    0 -0.45825904700E-01  0.35234340053E-01  0.14575688701E-01  0.59616978997E-01  0.51109989000E-03 0.  1.
     -623    1    1    2    0    0  0.12128152288E+00  0.61001604712E-01  0.15127337913E+00  0.17130012059E+03  0.17130000000E+03 0. -1.
      622    1    1    2    0    0 -0.75455618181E-01 -0.96235944765E-01  0.38341508995E+01  0.39402624313E+01  0.90000000000E+00 0.  1.
</event>
<event>
 5   0  0.4857400E+02  0.9118800E+02  0.7818608E-02  0.1180000E+00
       11   -1    0    0    0    0  0.00000000000E+00  0.00000000000E+00  0.39999999673E+01  0.40000000000E+01  0.51109989000E-03 0. -1.
     -623   -1    0    0    0    0  0.00000000000E+00  0.00000000000E+00  0.12525980253E-10  0.17130000000E+03  0.17130000000E+03 0. -1.
       11    1    1    2    0    0  0.11409809445E+00  0.10243057526E+00  0.51095257491E-01  0.16162111393E+00  0.51109989000E-03 0. -1.
     -623    1    1    2    0    0 -0.58695095464E-01  0.26580837039E-01  0.22033149127E+00  0.17130015382E+03  0.17130000000E+03 0. -1.
      622    1    1    2    0    0 -0.55402998991E-01 -0.12901141230E+00  0.37285732186E+01  0.38382250694E+01  0.90000000000E+00 0. -1.
</event>
<event>
 5   0  0.4857400E+02  0.9118800E+02  0.7818608E-02  0.1180000E+00
       11   -1    0    0    0    0  0.00000000000E+00  0.00000000000E+00  0.39999999673E+01  0.40000000000E+01  0.51109989000E-03 0.  1.
     -623   -1    0    0    0    0  0.00000000000E+00  0.00000000000E+00  0.12525980253E-10  0.17130000000E+03  0.17130000000E+03 0.  1.
       11    1    1    2    0    0 -0.55805220212E-01  0.57987985347E-01  0.31967116691E+00  0.32964639422E+00  0.51109989000E-03 0.  1.
     -623    1    1    2    0    0  0.30717042743E-01 -0.47482971645E-01  0.12218779667E+00  0.17130005291E+03  0.17130000000E+03 0.  1.
      622    1    1    2    0    0  0.25088177469E-01 -0.10505013701E-01  0.35581410038E+01  0.36703006927E+01  0.90000000000E+00 0.  1.
</event>
<event>
 5   0  0.4857400E+02  0.9118800E+02  0.7818608E-02  0.1180000E+00
       11   -1    0    0    0    0  0.00000000000E+00  0.00000000000E+00  0.39999999673E+01  0.40000000000E+01  0.51109989000E-03 0.  1.
     -623   -1    0    0    0    0  0.00000000000E+00  0.00000000000E+00  0.12525980253E-10  0.17130000000E+03  0.17130000000E+03 0.  1.
       11    1    1    2    0    0  0.10774091196E+00  0.49810948656E-01  0.11960919081E+00  0.16851069540E+00  0.51109989000E-03 0.  1.
     -623    1    1    2    0    0  0.19494027739E-01  0.33055730781E-01  0.15928149656E+00  0.17130007835E+03  0.17130000000E+03 0.  1.
      622    1    1    2    0    0 -0.12723493970E+00 -0.82866679436E-01  0.37211092800E+01  0.38314109529E+01  0.90000000000E+00 0.  1.
</event>
<event>
 5   0  0.4857400E+02  0.9118800E+02  0.7818608E-02  0.1180000E+00
       11   -1    0    0    0    0  0.00000000000E+00  0.00000000000E+00  0.39999999673E+01  0.40000000000E+01  0.51109989000E-03 0. -1.
     -623   -1    0    0    0    0  0.00000000000E+00  0.00000000000E+00  0.12525980253E-10  0.17130000000E+03  0.17130000000E+03 0. -1.
       11    1    1    2    0    0  0.13225184410E+00 -0.41989478156E-01  0.18946986628E+00  0.23484624331E+00  0.51109989000E-03 0. -1.
     -623    1    1    2    0    0 -0.24707722071E+00 -0.13681218474E+00  0.16102261551E+00  0.17130030850E+03  0.17130000000E+03 0. -1.
      622    1    1    2    0    0  0.11482537662E+00  0.17880166290E+00  0.36495074856E+01  0.37648452543E+01  0.90000000000E+00 0. -1.
</event>
<event>
 5   0  0.4857400E+02  0.9118800E+02  0.7818608E-02  0.1180000E+00
       11   -1    0    0    0    0  0.00000000000E+00  0.00000000000E+00  0.39999999673E+01  0.40000000000E+01  0.51109989000E-03 0. -1.
     -623   -1    0    0    0    0  0.00000000000E+00  0.00000000000E+00  0.12525980253E-10  0.17130000000E+03  0.17130000000E+03 0.  1.
       11    1    1    2    0    0  0.29310582281E-01  0.85402934969E-01 -0.96327628015E-02  0.90806513408E-01  0.51109989000E-03 0. -1.
     -623    1    1    2    0    0  0.54284324020E-01  0.73072651096E-02  0.20763876806E+00  0.17130013460E+03  0.17130000000E+03 0.  1.
      622    1    1    2    0    0 -0.83594906300E-01 -0.92710200079E-01  0.38019939621E+01  0.39090588864E+01  0.90000000000E+00 0. -1.
</event>
<event>
 5   0  0.4857400E+02  0.9118800E+02  0.7818608E-02  0.1180000E+00
       11   -1    0    0    0    0  0.00000000000E+00  0.00000000000E+00  0.39999999673E+01  0.40000000000E+01  0.51109989000E-03 0. -1.
     -623   -1    0    0    0    0  0.00000000000E+00  0.00000000000E+00  0.12525980253E-10  0.17130000000E+03  0.17130000000E+03 0. -1.
       11    1    1    2    0    0  0.18818370678E-01  0.31520213503E-01  0.24095506514E-01  0.43914799231E-01  0.51109989000E-03 0. -1.
     -623    1    1    2    0    0 -0.43126390215E-01  0.37561451375E-01  0.12430549760E+00  0.17130005465E+03  0.17130000000E+03 0. -1.
      622    1    1    2    0    0  0.24308019537E-01 -0.69081664878E-01  0.38515989632E+01  0.39560305522E+01  0.90000000000E+00 0. -1.
</event>
<event>
 5   0  0.4857400E+02  0.9118800E+02  0.7818608E-02  0.1180000E+00
       11   -1    0    0    0    0  0.00000000000E+00  0.00000000000E+00  0.39999999673E+01  0.40000000000E+01  0.51109989000E-03 0.  1.
     -623   -1    0    0    0    0  0.00000000000E+00  0.00000000000E+00  0.12525980253E-10  0.17130000000E+03  0.17130000000E+03 0.  1.
       11    1    1    2    0    0  0.34673728734E-01  0.88241402784E-01  0.31689643956E+00  0.33077549374E+00  0.51109989000E-03 0.  1.
     -623    1    1    2    0    0 -0.63491351046E-01  0.14290045633E-01  0.12762525961E+00  0.17130005991E+03  0.17130000000E+03 0.  1.
      622    1    1    2    0    0  0.28817622312E-01 -0.10253144842E+00  0.35554782682E+01  0.36691646010E+01  0.90000000000E+00 0.  1.
</event>
<event>
 5   0  0.4857400E+02  0.9118800E+02  0.7818608E-02  0.1180000E+00
       11   -1    0    0    0    0  0.00000000000E+00  0.00000000000E+00  0.39999999673E+01  0.40000000000E+01  0.51109989000E-03 0. -1.
     -623   -1    0    0    0    0  0.00000000000E+00  0.00000000000E+00  0.12525980253E-10  0.17130000000E+03  0.17130000000E+03 0. -1.
       11    1    1    2    0    0 -0.12648603663E+00  0.13307689293E+00  0.16725152638E+00  0.24835762761E+00  0.51109989000E-03 0. -1.
     -623    1    1    2    0    0  0.27136273331E+00 -0.10710416263E+00  0.19400298184E+00  0.17130035828E+03  0.17130000000E+03 0. -1.
      622    1    1    2    0    0 -0.14487669668E+00 -0.25972730299E-01  0.36387454591E+01  0.37512840943E+01  0.90000000000E+00 0. -1.
</event>
<event>
 5   0  0.4857400E+02  0.9118800E+02  0.7818608E-02  0.1180000E+00
       11   -1    0    0    0    0  0.00000000000E+00  0.00000000000E+00  0.39999999673E+01  0.40000000000E+01  0.51109989000E-03 0. -1.
     -623   -1    0    0    0    0  0.00000000000E+00  0.00000000000E+00  0.12525980253E-10  0.17130000000E+03  0.17130000000E+03 0.  1.
       11    1    1    2    0    0  0.76207430633E-03  0.14916862045E-01  0.10642059919E-01  0.18346885101E-01  0.51109989000E-03 0. -1.
     -623    1    1    2    0    0 -0.53100143391E-01 -0.25440253752E+00  0.11875443552E+00  0.17130023830E+03  0.17130000000E+03 0.  1.
      622    1    1    2    0    0  0.52338069085E-01  0.23948567547E+00  0.38706034719E+01  0.39814148112E+01  0.90000000000E+00 0. -1.
</event>
<event>
 5   0  0.4857400E+02  0.9118800E+02  0.7818608E-02  0.1180000E+00
       11   -1    0    0    0    0  0.00000000000E+00  0.00000000000E+00  0.39999999673E+01  0.40000000000E+01  0.51109989000E-03 0.  1.
     -623   -1    0    0    0    0  0.00000000000E+00  0.00000000000E+00  0.12525980253E-10  0.17130000000E+03  0.17130000000E+03 0. -1.
       11    1    1    2    0    0 -0.52554510235E-01  0.66141903103E-01  0.59997947826E+00  0.60589798106E+00  0.51109989000E-03 0.  1.
     -623    1    1    2    0    0  0.24152512152E+00 -0.27255612520E+00  0.13986763256E+00  0.17130044420E+03  0.17130000000E+03 0. -1.
      622    1    1    2    0    0 -0.18897061128E+00  0.20641422210E+00  0.32601528565E+01  0.33936578158E+01  0.90000000000E+00 0.  1.
</event>
<event>
 5   0  0.4857400E+02  0.9118800E+02  0.7818608E-02  0.1180000E+00
       11   -1    0    0    0    0  0.00000000000E+00  0.00000000000E+00  0.39999999673E+01  0.40000000000E+01  0.51109989000E-03 0. -1.
     -623   -1    0    0    0    0  0.00000000000E+00  0.00000000000E+00  0.12525980253E-10  0.17130000000E+03  0.17130000000E+03 0. -1.
       11    1    1    2    0    0 -0.62272543539E-01  0.14826234932E-01  0.33886804432E-01  0.72431095920E-01  0.51109989000E-03 0. -1.
     -623    1    1    2    0    0  0.22632149245E-01  0.20094319103E-01  0.14348138947E+00  0.17130006276E+03  0.17130000000E+03 0. -1.
      622    1    1    2    0    0  0.39640394294E-01 -0.34920554035E-01  0.38226317735E+01  0.39275061402E+01  0.90000000000E+00 0. -1.
</event>
<event>
 5   0  0.4857400E+02  0.9118800E+02  0.7818608E-02  0.1180000E+00
       11   -1    0    0    0    0  0.00000000000E+00  0.00000000000E+00  0.39999999673E+01  0.40000000000E+01  0.51109989000E-03 0.  1.
     -623   -1    0    0    0    0  0.00000000000E+00  0.00000000000E+00  0.12525980253E-10  0.17130000000E+03  0.17130000000E+03 0.  1.
       11    1    1    2    0    0 -0.16219361203E-01 -0.37857998593E-01 -0.67884673572E-02  0.41744942754E-01  0.51109989000E-03 0.  1.
     -623    1    1    2    0    0 -0.32533870732E-01  0.22556545064E-01  0.15262216563E+00  0.17130007257E+03  0.17130000000E+03 0.  1.
      622    1    1    2    0    0  0.48753231935E-01  0.15301453529E-01  0.38541662691E+01  0.39581824922E+01  0.90000000000E+00 0.  1.
</event>
<event>
 5   0  0.4857400E+02  0.9118800E+02  0.7818608E-02  0.1180000E+00
       11   -1    0    0    0    0  0.00000000000E+00  0.00000000000E+00  0.39999999673E+01  0.40000000000E+01  0.51109989000E-03 0. -1.
     -623   -1    0    0    0    0  0.00000000000E+00  0.00000000000E+00  0.12525980253E-10  0.17130000000E+03  0.17130000000E+03 0.  1.
       11    1    1    2    0    0  0.12297504022E+00  0.38953589599E+00  0.29771818096E+00  0.50546755711E+00  0.51109989000E-03 0. -1.
     -623    1    1    2    0    0 -0.26760314421E-01 -0.36211868723E+00  0.32783867925E+00  0.17130069855E+03  0.17130000000E+03 0.  1.
      622    1    1    2    0    0 -0.96214725803E-01 -0.27417208766E-01  0.33744431071E+01  0.34938338913E+01  0.90000000000E+00 0. -1.
</event>
<event>
 5   0  0.4857400E+02  0.9118800E+02  0.7818608E-02  0.1180000E+00
       11   -1    0    0    0    0  0.00000000000E+00  0.00000000000E+00  0.39999999673E+01  0.40000000000E+01  0.51109989000E-03 0. -1.
     -623   -1    0    0    0    0  0.00000000000E+00  0.00000000000E+00  0.12525980253E-10  0.17130000000E+03  0.17130000000E+03 0. -1.
       11    1    1    2    0    0 -0.22765085824E-01 -0.61687023665E-01  0.42891988309E-01  0.78508100890E-01  0.51109989000E-03 0. -1.
     -623    1    1    2    0    0 -0.67259240597E-01  0.61470545725E-01  0.14143683484E+00  0.17130008262E+03  0.17130000000E+03 0. -1.
      622    1    1    2    0    0  0.90024326421E-01  0.21647793968E-03  0.38156711442E+01  0.39214092756E+01  0.90000000000E+00 0. -1.
</event>
<event>
 5   0  0.4857400E+02  0.9118800E+02  0.7818608E-02  0.1180000E+00
       11   -1    0    0    0    0  0.00000000000E+00  0.00000000000E+00  0.39999999673E+01  0.40000000000E+01  0.51109989000E-03 0.  1.
     -623   -1    0    0    0    0  0.00000000000E+00  0.00000000000E+00  0.12525980253E-10  0.17130000000E+03  0.17130000000E+03 0. -1.
       11    1    1    2    0    0 -0.62647651703E-01 -0.14374785242E+00  0.66197764939E+00  0.68029614350E+00  0.51109989000E-03 0.  1.
     -623    1    1    2    0    0 -0.52261897965E-01  0.24559764042E+00  0.14659350809E+00  0.17130024676E+03  0.17130000000E+03 0. -1.
      622    1    1    2    0    0  0.11490954967E+00 -0.10184978800E+00  0.31914288099E+01  0.33194570991E+01  0.90000000000E+00 0.  1.
</event>
<event>
 5   0  0.4857400E+02  0.9118800E+02  0.7818608E-02  0.1180000E+00
       11   -1    0    0    0    0  0.00000000000E+00  0.00000000000E+00  0.39999999673E+01  0.40000000000E+01  0.51109989000E-03 0.  1.
     -623   -1    0    0    0    0  0.00000000000E+00  0.00000000000E+00  0.12525980253E-10  0.17130000000E+03  0.17130000000E+03 0. -1.
       11    1    1    2    0    0 -0.72870569680E-01  0.93267431890E-01  0.17176758278E+00  0.20859841200E+00  0.51109989000E-03 0.  1.
     -623    1    1    2    0    0  0.32490258585E-01  0.39175174313E-01  0.14787736624E+00  0.17130007139E+03  0.17130000000E+03 0. -1.
      622    1    1    2    0    0  0.40380311095E-01 -0.13244260620E+00  0.36803550183E+01  0.37913301986E+01  0.90000000000E+00 0.  1.
</event>
<event>
 5   0  0.4857400E+02  0.9118800E+02  0.7818608E-02  0.1180000E+00
       11   -1    0    0    0    0  0.00000000000E+00  0.00000000000E+00  0.39999999673E+01  0.40000000000E+01  0.51109989000E-03 0.  1.
     -623   -1    0    0    0    0  0.00000000000E+00  0.00000000000E+00  0.12525980253E-10  0.17130000000E+03  0.17130000000E+03 0.  1.
       11    1    1    2    0    0 -0.20348819217E-01 -0.15171940671E-02  0.36437488715E-01  0.41765154450E-01  0.51109989000E-03 0.  1.
     -623    1    1    2    0    0 -0.68061138165E-01  0.15627335084E+00  0.11325215311E+00  0.17130012224E+03  0.17130000000E+03 0.  1.
      622    1    1    2    0    0  0.88409957382E-01 -0.15475615677E+00  0.38503103255E+01  0.39581126047E+01  0.90000000000E+00 0.  1.
</event>
<event>
 5   0  0.4857400E+02  0.9118800E+02  0.7818608E-02  0.1180000E+00
       11   -1    0    0    0    0  0.00000000000E+00  0.00000000000E+00  0.39999999673E+01  0.40000000000E+01  0.51109989000E-03 0.  1.
     -623   -1    0    0    0    0  0.00000000000E+00  0.00000000000E+00  0.12525980253E-10  0.17130000000E+03  0.17130000000E+03 0. -1.
       11    1    1    2    0    0  0.66576611923E-02 -0.37322469373E-01  0.41605789162E-01  0.56290266366E-01  0.51109989000E-03 0.  1.
     -623    1    1    2    0    0 -0.49233482315E-01 -0.19418058490E-01  0.11945926690E+00  0.17130004983E+03  0.17130000000E+03 0. -1.
      622    1    1    2    0    0  0.42575821123E-01  0.56740527863E-01  0.38389349113E+01  0.39436599044E+01  0.90000000000E+00 0.  1.
</event>
<event>
 5   0  0.4857400E+02  0.9118800E+02  0.7818608E-02  0.1180000E+00
       11   -1    0    0    0    0  0.00000000000E+00  0.00000000000E+00  0.39999999673E+01  0.40000000000E+01  0.51109989000E-03 0. -1.
     -623   -1    0    0    0    0  0.00000000000E+00  0.00000000000E+00  0.12525980253E-10  0.17130000000E+03  0.17130000000E+03 0.  1.
       11    1    1    2    0    0  0.94103270730E-01 -0.13660976750E+00  0.45093654219E+00  0.48048067646E+00  0.51109989000E-03 0. -1.
     -623    1    1    2    0    0 -0.87077330448E-01 -0.97491439440E-02  0.14980951732E+00  0.17130008792E+03  0.17130000000E+03 0.  1.
      622    1    1    2    0    0 -0.70259402815E-02  0.14635891145E+00  0.33992539079E+01  0.35194314065E+01  0.90000000000E+00 0. -1.
</event>
<event>
 5   0  0.4857400E+02  0.9118800E+02  0.7818608E-02  0.1180000E+00
       11   -1    0    0    0    0  0.00000000000E+00  0.00000000000E+00  0.39999999673E+01  0.40000000000E+01  0.51109989000E-03 0.  1.
     -623   -1    0    0    0    0  0.00000000000E+00  0.00000000000E+00  0.12525980253E-10  0.17130000000E+03  0.17130000000E+03 0. -1.
       11    1    1    2    0    0  0.29452287881E+00 -0.37479838453E+00  0.99776417856E+00  0.11057807976E+01  0.51109989000E-03 0.  1.
     -623    1    1    2    0    0 -0.51296016650E+00 -0.43998934249E-02  0.28761685754E+00  0.17130100954E+03  0.17130000000E+03 0. -1.
      622    1    1    2    0    0  0.21843728769E+00  0.37919827795E+00  0.27146189313E+01  0.28932096579E+01  0.90000000000E+00 0.  1.
</event>
<event>
 5   0  0.4857400E+02  0.9118800E+02  0.7818608E-02  0.1180000E+00
       11   -1    0    0    0    0  0.00000000000E+00  0.00000000000E+00  0.39999999673E+01  0.40000000000E+01  0.51109989000E-03 0.  1.
     -623   -1    0    0    0    0  0.00000000000E+00  0.00000000000E+00  0.12525980253E-10  0.17130000000E+03  0.17130000000E+03 0.  1.
       11    1    1    2    0    0  0.78892977405E-01  0.12540052414E+00 -0.22529530018E-01  0.14985737981E+00  0.51109989000E-03 0.  1.
     -623    1    1    2    0    0  0.14611788329E+00  0.26098808470E+00  0.30640901665E+00  0.17130053518E+03  0.17130000000E+03 0.  1.
      622    1    1    2    0    0 -0.22501086069E+00 -0.38638860884E+00  0.37161204807E+01  0.38496074438E+01  0.90000000000E+00 0.  1.
</event>
<event>
 5   0  0.4857400E+02  0.9118800E+02  0.7818608E-02  0.1180000E+00
       11   -1    0    0    0    0  0.00000000000E+00  0.00000000000E+00  0.39999999673E+01  0.40000000000E+01  0.51109989000E-03 0.  1.
     -623   -1    0    0    0    0  0.00000000000E+00  0.00000000000E+00  0.12525980253E-10  0.17130000000E+03  0.17130000000E+03 0. -1.
       11    1    1    2    0    0  0.39722748989E+00  0.11219556189E-01  0.62294079134E+00  0.73889853695E+00  0.51109989000E-03 0.  1.
     -623    1    1    2    0    0 -0.48457204891E+00 -0.98004087755E-01  0.24595421458E+00  0.17130088998E+03  0.17130000000E+03 0. -1.
      622    1    1    2    0    0  0.87344559026E-01  0.86784531567E-01  0.31311049614E+01  0.32602114819E+01  0.90000000000E+00 0.  1.
</event>
<event>
 5   0  0.4857400E+02  0.9118800E+02  0.7818608E-02  0.1180000E+00
       11   -1    0    0    0    0  0.00000000000E+00  0.00000000000E+00  0.39999999673E+01  0.40000000000E+01  0.51109989000E-03 0.  1.
     -623   -1    0    0    0    0  0.00000000000E+00  0.00000000000E+00  0.12525980253E-10  0.17130000000E+03  0.17130000000E+03 0. -1.
       11    1    1    2    0    0 -0.68940048135E-01 -0.16031339445E+00  0.98802750269E+00  0.10033203486E+01  0.51109989000E-03 0.  1.
     -623    1    1    2    0    0  0.20221162212E+00  0.18178446715E+00  0.15712721625E+00  0.17130028787E+03  0.17130000000E+03 0. -1.
      622    1    1    2    0    0 -0.13327157399E+00 -0.21471072691E-01  0.28548452484E+01  0.29963917821E+01  0.90000000000E+00 0.  1.
</event>
<event>
 5   0  0.4857400E+02  0.9118800E+02  0.7818608E-02  0.1180000E+00
       11   -1    0    0    0    0  0.00000000000E+00  0.00000000000E+00  0.39999999673E+01  0.40000000000E+01  0.51109989000E-03 0.  1.
     -623   -1    0    0    0    0  0.00000000000E+00  0.00000000000E+00  0.12525980253E-10  0.17130000000E+03  0.17130000000E+03 0. -1.
       11    1    1    2    0    0  0.63105913695E-02  0.41564861541E+00  0.38754063334E+00  0.56832349834E+00  0.51109989000E-03 0.  1.
     -623    1    1    2    0    0 -0.71161274077E-01 -0.40243008821E+00  0.30234653510E+00  0.17130075431E+03  0.17130000000E+03 0. -1.
      622    1    1    2    0    0  0.64850682707E-01 -0.13218527198E-01  0.33101127989E+01  0.34309221912E+01  0.90000000000E+00 0.  0.
</event>
<event>
 5   0  0.4857400E+02  0.9118800E+02  0.7818608E-02  0.1180000E+00
       11   -1    0    0    0    0  0.00000000000E+00  0.00000000000E+00  0.39999999673E+01  0.40000000000E+01  0.51109989000E-03 0. -1.
     -623   -1    0    0    0    0  0.00000000000E+00  0.00000000000E+00  0.12525980253E-10  0.17130000000E+03  0.17130000000E+03 0. -1.
       11    1    1    2    0    0 -0.64004130135E-01 -0.11204116059E-01  0.97355842708E-01  0.11704905905E+00  0.51109989000E-03 0. -1.
     -623    1    1    2    0    0  0.66322634855E-01 -0.12056019239E-01  0.12556837837E+00  0.17130005929E+03  0.17130000000E+03 0. -1.
      622    1    1    2    0    0 -0.23185047197E-02  0.23260135298E-01  0.37770757463E+01  0.38828916547E+01  0.90000000000E+00 0. -1.
</event>
<event>
 5   0  0.4857400E+02  0.9118800E+02  0.7818608E-02  0.1180000E+00
       11   -1    0    0    0    0  0.00000000000E+00  0.00000000000E+00  0.39999999673E+01  0.40000000000E+01  0.51109989000E-03 0.  1.
     -623   -1    0    0    0    0  0.00000000000E+00  0.00000000000E+00  0.12525980253E-10  0.17130000000E+03  0.17130000000E+03 0.  1.
       11    1    1    2    0    0 -0.38918338892E-01 -0.11685050166E-01  0.10940083796E-01  0.42084725888E-01  0.51109989000E-03 0.  1.
     -623    1    1    2    0    0  0.12150874437E+00 -0.19801209205E-01  0.13594379725E+00  0.17130009818E+03  0.17130000000E+03 0.  1.
      622    1    1    2    0    0 -0.82590405474E-01  0.31486259371E-01  0.38531160863E+01  0.39578170921E+01  0.90000000000E+00 0.  1.
</event>
<event>
 5   0  0.4857400E+02  0.9118800E+02  0.7818608E-02  0.1180000E+00
       11   -1    0    0    0    0  0.00000000000E+00  0.00000000000E+00  0.39999999673E+01  0.40000000000E+01  0.51109989000E-03 0.  1.
     -623   -1    0    0    0    0  0.00000000000E+00  0.00000000000E+00  0.12525980253E-10  0.17130000000E+03  0.17130000000E+03 0. -1.
       11    1    1    2    0    0  0.21955105413E-01 -0.14011544577E+00 -0.46734186051E-01  0.14932752648E+00  0.51109989000E-03 0.  1.
     -623    1    1    2    0    0 -0.22106325949E+00  0.28761737134E+00  0.31161203727E+00  0.17130066753E+03  0.17130000000E+03 0. -1.
      622    1    1    2    0    0  0.19910815407E+00 -0.14750192557E+00  0.37351221161E+01  0.38500049477E+01  0.90000000000E+00 0.  1.
</event>
<event>
 5   0  0.4857400E+02  0.9118800E+02  0.7818608E-02  0.1180000E+00
       11   -1    0    0    0    0  0.00000000000E+00  0.00000000000E+00  0.39999999673E+01  0.40000000000E+01  0.51109989000E-03 0.  1.
     -623   -1    0    0    0    0  0.00000000000E+00  0.00000000000E+00  0.12525980253E-10  0.17130000000E+03  0.17130000000E+03 0.  1.
       11    1    1    2    0    0 -0.10574601515E+00  0.53070949334E-01 -0.42859630191E-01  0.12584098898E+00  0.51109989000E-03 0.  1.
     -623    1    1    2    0    0  0.96564546710E-01 -0.88007648195E-01  0.27514078086E+00  0.17130027079E+03  0.17130000000E+03 0.  1.
      622    1    1    2    0    0  0.91814684428E-02  0.34936698861E-01  0.37677188167E+01  0.38738882217E+01  0.90000000000E+00 0.  1.
</event>
<event>
 5   0  0.4857400E+02  0.9118800E+02  0.7818608E-02  0.1180000E+00
       11   -1    0    0    0    0  0.00000000000E+00  0.00000000000E+00  0.39999999673E+01  0.40000000000E+01  0.51109989000E-03 0.  1.
     -623   -1    0    0    0    0  0.00000000000E+00  0.00000000000E+00  0.12525980253E-10  0.17130000000E+03  0.17130000000E+03 0.  1.
       11    1    1    2    0    0 -0.94246815944E-01 -0.23082946016E-01  0.72890859937E-01  0.12136154002E+00  0.51109989000E-03 0.  1.
     -623    1    1    2    0    0  0.31297942296E+00  0.78744126435E-01  0.16148226183E+00  0.17130038013E+03  0.17130000000E+03 0.  1.
      622    1    1    2    0    0 -0.21873260701E+00 -0.55661180419E-01  0.37656268456E+01  0.38782583282E+01  0.90000000000E+00 0.  1.
</event>
<event>
 5   0  0.4857400E+02  0.9118800E+02  0.7818608E-02  0.1180000E+00
       11   -1    0    0    0    0  0.00000000000E+00  0.00000000000E+00  0.39999999673E+01  0.40000000000E+01  0.51109989000E-03 0.  1.
     -623   -1    0    0    0    0  0.00000000000E+00  0.00000000000E+00  0.12525980253E-10  0.17130000000E+03  0.17130000000E+03 0. -1.
       11    1    1    2    0    0  0.15621486387E-02 -0.36806499170E-01  0.32864757401E+00  0.33070628632E+00  0.51109989000E-03 0.  1.
     -623    1    1    2    0    0  0.25023647318E-01  0.12774352010E+00  0.11549928717E+00  0.17130008840E+03  0.17130000000E+03 0. -1.
      622    1    1    2    0    0 -0.26585795957E-01 -0.90937020929E-01  0.35558531062E+01  0.36692053171E+01  0.90000000000E+00 0. -1.
</event>
<event>
 5   0  0.4857400E+02  0.9118800E+02  0.7818608E-02  0.1180000E+00
       11   -1    0    0    0    0  0.00000000000E+00  0.00000000000E+00  0.39999999673E+01  0.40000000000E+01  0.51109989000E-03 0.  1.
     -623   -1    0    0    0    0  0.00000000000E+00  0.00000000000E+00  0.12525980253E-10  0.17130000000E+03  0.17130000000E+03 0. -1.
       11    1    1    2    0    0 -0.20679921642E-01  0.26746909223E+00  0.77081991145E+00  0.81616847009E+00  0.51109989000E-03 0.  1.
     -623    1    1    2    0    0  0.38183818504E+00  0.11635537612E-01  0.21008812448E+00  0.17130055479E+03  0.17130000000E+03 0. -1.
      622    1    1    2    0    0 -0.36115826340E+00 -0.27910462985E+00  0.30190919314E+01  0.31832767357E+01  0.90000000000E+00 0.  1.
</event>
<event>
 5   0  0.4857400E+02  0.9118800E+02  0.7818608E-02  0.1180000E+00
       11   -1    0    0    0    0  0.00000000000E+00  0.00000000000E+00  0.39999999673E+01  0.40000000000E+01  0.51109989000E-03 0. -1.
     -623   -1    0    0    0    0  0.00000000000E+00  0.00000000000E+00  0.12525980253E-10  0.17130000000E+03  0.17130000000E+03 0.  1.
       11    1    1    2    0    0 -0.13393767993E+00  0.38309590307E+00  0.23664216286E+00  0.46978883290E+00  0.51109989000E-03 0. -1.
     -623    1    1    2    0    0 -0.57526617166E-01 -0.34067251147E+00  0.35618028273E+00  0.17130071871E+03  0.17130000000E+03 0.  1.
      622    1    1    2    0    0  0.19146429710E+00 -0.42423391604E-01  0.34071775218E+01  0.35294924545E+01  0.90000000000E+00 0.  0.
</event>
<event>
 5   0  0.4857400E+02  0.9118800E+02  0.7818608E-02  0.1180000E+00
       11   -1    0    0    0    0  0.00000000000E+00  0.00000000000E+00  0.39999999673E+01  0.40000000000E+01  0.51109989000E-03 0.  1.
     -623   -1    0    0    0    0  0.00000000000E+00  0.00000000000E+00  0.12525980253E-10  0.17130000000E+03  0.17130000000E+03 0.  1.
       11    1    1    2    0    0  0.36629609966E-01  0.10077247799E-01  0.10132557767E+01  0.10139678543E+01  0.51109989000E-03 0.  1.
     -623    1    1    2    0    0 -0.25805161390E+00 -0.92394904329E-01  0.14968867806E+00  0.17130028469E+03  0.17130000000E+03 0.  1.
      622    1    1    2    0    0  0.22142200394E+00  0.82317656530E-01  0.28370555126E+01  0.29857474578E+01  0.90000000000E+00 0.  0.
</event>
<event>
 5   0  0.4857400E+02  0.9118800E+02  0.7818608E-02  0.1180000E+00
       11   -1    0    0    0    0  0.00000000000E+00  0.00000000000E+00  0.39999999673E+01  0.40000000000E+01  0.51109989000E-03 0.  1.
     -623   -1    0    0    0    0  0.00000000000E+00  0.00000000000E+00  0.12525980253E-10  0.17130000000E+03  0.17130000000E+03 0.  1.
       11    1    1    2    0    0  0.75468319578E-02  0.24173205256E-01 -0.78711216813E-02  0.26523844076E-01  0.51109989000E-03 0.  1.
     -623    1    1    2    0    0 -0.17746390621E+00  0.23483243171E+00  0.15040784409E+00  0.17130031892E+03  0.17130000000E+03 0.  1.
      622    1    1    2    0    0  0.16991707425E+00 -0.25900563696E+00  0.38574632450E+01  0.39731572355E+01  0.90000000000E+00 0.  1.
</event>
<event>
 5   0  0.4857400E+02  0.9118800E+02  0.7818608E-02  0.1180000E+00
       11   -1    0    0    0    0  0.00000000000E+00  0.00000000000E+00  0.39999999673E+01  0.40000000000E+01  0.51109989000E-03 0.  1.
     -623   -1    0    0    0    0  0.00000000000E+00  0.00000000000E+00  0.12525980253E-10  0.17130000000E+03  0.17130000000E+03 0. -1.
       11    1    1    2    0    0  0.42940877851E+00  0.14326164884E-01  0.79613018379E+00  0.90466605376E+00  0.51109989000E-03 0.  1.
     -623    1    1    2    0    0 -0.45300760532E+00 -0.30302431924E+00  0.25757998593E+00  0.17130106067E+03  0.17130000000E+03 0. -1.
      622    1    1    2    0    0  0.23598826811E-01  0.28869815435E+00  0.29462897976E+01  0.30942732750E+01  0.90000000000E+00 0.  1.
</event>
<event>
 5   0  0.4857400E+02  0.9118800E+02  0.7818608E-02  0.1180000E+00
       11   -1    0    0    0    0  0.00000000000E+00  0.00000000000E+00  0.39999999673E+01  0.40000000000E+01  0.51109989000E-03 0. -1.
     -623   -1    0    0    0    0  0.00000000000E+00  0.00000000000E+00  0.12525980253E-10  0.17130000000E+03  0.17130000000E+03 0.  1.
       11    1    1    2    0    0  0.96595607378E-01 -0.14884137459E+00  0.38469034364E+00  0.42364063529E+00  0.51109989000E-03 0. -1.
     -623    1    1    2    0    0  0.91165559393E-01  0.15203018953E+00  0.15931542045E+00  0.17130016581E+03  0.17130000000E+03 0.  1.
      622    1    1    2    0    0 -0.18776116677E+00 -0.31888149409E-02  0.34559942033E+01  0.35761935570E+01  0.90000000000E+00 0. -1.
</event>
<event>
 5   0  0.4857400E+02  0.9118800E+02  0.7818608E-02  0.1180000E+00
       11   -1    0    0    0    0  0.00000000000E+00  0.00000000000E+00  0.39999999673E+01  0.40000000000E+01  0.51109989000E-03 0. -1.
     -623   -1    0    0    0    0  0.00000000000E+00  0.00000000000E+00  0.12525980253E-10  0.17130000000E+03  0.17130000000E+03 0. -1.
       11    1    1    2    0    0 -0.18396386223E-01 -0.64335311931E-02  0.52839650227E-02  0.20198981601E-01  0.51109989000E-03 0. -1.
     -623    1    1    2    0    0  0.92932393215E-01  0.45851312560E-01  0.11900597114E+00  0.17130007268E+03  0.17130000000E+03 0. -1.
      622    1    1    2    0    0 -0.74536006992E-01 -0.39417781367E-01  0.38757100312E+01  0.39797283354E+01  0.90000000000E+00 0. -1.
</event>
<event>
 5   0  0.4857400E+02  0.9118800E+02  0.7818608E-02  0.1180000E+00
       11   -1    0    0    0    0  0.00000000000E+00  0.00000000000E+00  0.39999999673E+01  0.40000000000E+01  0.51109989000E-03 0.  1.
     -623   -1    0    0    0    0  0.00000000000E+00  0.00000000000E+00  0.12525980253E-10  0.17130000000E+03  0.17130000000E+03 0.  1.
       11    1    1    2    0    0  0.27131874209E-01  0.22295434830E+00  0.58405252675E+00  0.62574946684E+00  0.51109989000E-03 0.  1.
     -623    1    1    2    0    0 -0.14712972621E+00 -0.25924275642E+00  0.16670864214E+00  0.17130034047E+03  0.17130000000E+03 0.  1.
      622    1    1    2    0    0  0.11999785200E+00  0.36288408119E-01  0.32492387985E+01  0.33739100614E+01  0.90000000000E+00 0.  1.
</event>
<event>
 5   0  0.4857400E+02  0.9118800E+02  0.7818608E-02  0.1180000E+00
       11   -1    0    0    0    0  0.00000000000E+00  0.00000000000E+00  0.39999999673E+01  0.40000000000E+01  0.51109989000E-03 0.  1.
     -623   -1    0    0    0    0  0.00000000000E+00  0.00000000000E+00  0.12525980253E-10  0.17130000000E+03  0.17130000000E+03 0.  1.
       11    1    1    2    0    0  0.17841625005E+00  0.26389829078E+00  0.35917277111E+00  0.48008333328E+00  0.51109989000E-03 0.  1.
     -623    1    1    2    0    0  0.45303399173E-02  0.21171613311E+00  0.27665705833E+00  0.17130035430E+03  0.17130000000E+03 0.  1.
      622    1    1    2    0    0 -0.18294658997E+00 -0.47561442389E+00  0.33641701379E+01  0.35195623665E+01  0.90000000000E+00 0.  1.
</event>
<event>
 5   0  0.4857400E+02  0.9118800E+02  0.7818608E-02  0.1180000E+00
       11   -1    0    0    0    0  0.00000000000E+00  0.00000000000E+00  0.39999999673E+01  0.40000000000E+01  0.51109989000E-03 0.  1.
     -623   -1    0    0    0    0  0.00000000000E+00  0.00000000000E+00  0.12525980253E-10  0.17130000000E+03  0.17130000000E+03 0.  1.
       11    1    1    2    0    0 -0.30272257361E-01  0.42882649714E-01  0.48771752213E+00  0.49053437579E+00  0.51109989000E-03 0.  1.
     -623    1    1    2    0    0  0.87645559186E-01 -0.54272916515E-01  0.12076198381E+00  0.17130007359E+03  0.17130000000E+03 0.  1.
      622    1    1    2    0    0 -0.57373301825E-01  0.11390266802E-01  0.33915204614E+01  0.35093920377E+01  0.90000000000E+00 0.  1.
</event>
<event>
 5   0  0.4857400E+02  0.9118800E+02  0.7818608E-02  0.1180000E+00
       11   -1    0    0    0    0  0.00000000000E+00  0.00000000000E+00  0.39999999673E+01  0.40000000000E+01  0.51109989000E-03 0. -1.
     -623   -1    0    0    0    0  0.00000000000E+00  0.00000000000E+00  0.12525980253E-10  0.17130000000E+03  0.17130000000E+03 0. -1.
       11    1    1    2    0    0  0.35321263112E-01 -0.60498119886E-02  0.15641663840E+00  0.16046999047E+00  0.51109989000E-03 0. -1.
     -623    1    1    2    0    0 -0.11298467001E-01  0.82429078264E-01  0.11194243220E+00  0.17130005678E+03  0.17130000000E+03 0. -1.
      622    1    1    2    0    0 -0.24022796111E-01 -0.76379266275E-01  0.37316408968E+01  0.38394732281E+01  0.90000000000E+00 0. -1.
</event>
<event>
 5   0  0.4857400E+02  0.9118800E+02  0.7818608E-02  0.1180000E+00
       11   -1    0    0    0    0  0.00000000000E+00  0.00000000000E+00  0.39999999673E+01  0.40000000000E+01  0.51109989000E-03 0.  1.
     -623   -1    0    0    0    0  0.00000000000E+00  0.00000000000E+00  0.12525980253E-10  0.17130000000E+03  0.17130000000E+03 0. -1.
       11    1    1    2    0    0 -0.99294245222E-01 -0.65889769185E-01  0.10393833682E+00  0.15812731548E+00  0.51109989000E-03 0.  1.
     -623    1    1    2    0    0  0.12572475454E+00  0.78703055315E-01  0.16135338793E+00  0.17130014021E+03  0.17130000000E+03 0. -1.
      622    1    1    2    0    0 -0.26430509313E-01 -0.12813286130E-01  0.37347082426E+01  0.38417324750E+01  0.90000000000E+00 0.  1.
</event>
<event>
 5   0  0.4857400E+02  0.9118800E+02  0.7818608E-02  0.1180000E+00
       11   -1    0    0    0    0  0.00000000000E+00  0.00000000000E+00  0.39999999673E+01  0.40000000000E+01  0.51109989000E-03 0. -1.
     -623   -1    0    0    0    0  0.00000000000E+00  0.00000000000E+00  0.12525980253E-10  0.17130000000E+03  0.17130000000E+03 0.  1.
       11    1    1    2    0    0 -0.19679038881E-01  0.84915460447E-01  0.97280850377E-01  0.13062053845E+00  0.51109989000E-03 0. -1.
     -623    1    1    2    0    0 -0.13204746934E+00 -0.20426928111E+00  0.14465816195E+00  0.17130023377E+03  0.17130000000E+03 0.  1.
      622    1    1    2    0    0  0.15172650822E+00  0.11935382067E+00  0.37580609550E+01  0.38691456951E+01  0.90000000000E+00 0. -1.
</event>
<event>
 5   0  0.4857400E+02  0.9118800E+02  0.7818608E-02  0.1180000E+00
       11   -1    0    0    0    0  0.00000000000E+00  0.00000000000E+00  0.39999999673E+01  0.40000000000E+01  0.51109989000E-03 0.  1.
     -623   -1    0    0    0    0  0.00000000000E+00  0.00000000000E+00  0.12525980253E-10  0.17130000000E+03  0.17130000000E+03 0. -1.
       11    1    1    2    0    0 -0.40775903790E-01 -0.87521858640E-01  0.72742267930E-01  0.12089023466E+00  0.51109989000E-03 0.  1.
     -623    1    1    2    0    0  0.80919061641E-01 -0.17618744239E-03  0.15532244472E+00  0.17130008953E+03  0.17130000000E+03 0. -1.
      622    1    1    2    0    0 -0.40143157851E-01  0.87698046082E-01  0.37719352547E+01  0.38790202353E+01  0.90000000000E+00 0.  1.
</event>
<event>
 5   0  0.4857400E+02  0.9118800E+02  0.7818608E-02  0.1180000E+00
       11   -1    0    0    0    0  0.00000000000E+00  0.00000000000E+00  0.39999999673E+01  0.40000000000E+01  0.51109989000E-03 0. -1.
     -623   -1    0    0    0    0  0.00000000000E+00  0.00000000000E+00  0.12525980253E-10  0.17130000000E+03  0.17130000000E+03 0. -1.
       11    1    1    2    0    0 -0.51340031421E-01  0.70400712400E-01  0.64973047115E-01  0.10869138515E+00  0.51109989000E-03 0. -1.
     -623    1    1    2    0    0  0.16339536508E+00 -0.27825951994E+00  0.15698562935E+00  0.17130037586E+03  0.17130000000E+03 0. -1.
      622    1    1    2    0    0 -0.11205533366E+00  0.20785880754E+00  0.37780412909E+01  0.38909327516E+01  0.90000000000E+00 0. -1.
</event>
<event>
 5   0  0.4857400E+02  0.9118800E+02  0.7818608E-02  0.1180000E+00
       11   -1    0    0    0    0  0.00000000000E+00  0.00000000000E+00  0.39999999673E+01  0.40000000000E+01  0.51109989000E-03 0. -1.
     -623   -1    0    0    0    0  0.00000000000E+00  0.00000000000E+00  0.12525980253E-10  0.17130000000E+03  0.17130000000E+03 0.  1.
       11    1    1    2    0    0 -0.15000455006E-01 -0.84437390526E-01  0.10902945908E+00  0.13871687259E+00  0.51109989000E-03 0. -1.
     -623    1    1    2    0    0 -0.26185246323E-01  0.17362755676E+00  0.13747410263E+00  0.17130014516E+03  0.17130000000E+03 0.  1.
      622    1    1    2    0    0  0.41185701329E-01 -0.89190166238E-01  0.37534964056E+01  0.38611379689E+01  0.90000000000E+00 0. -1.
</event>
<event>
 5   0  0.4857400E+02  0.9118800E+02  0.7818608E-02  0.1180000E+00
       11   -1    0    0    0    0  0.00000000000E+00  0.00000000000E+00  0.39999999673E+01  0.40000000000E+01  0.51109989000E-03 0.  1.
     -623   -1    0    0    0    0  0.00000000000E+00  0.00000000000E+00  0.12525980253E-10  0.17130000000E+03  0.17130000000E+03 0.  1.
       11    1    1    2    0    0  0.19191976416E-01 -0.73090858628E-02  0.17504081907E-01  0.26989049644E-01  0.51109989000E-03 0.  1.
     -623    1    1    2    0    0 -0.12284263003E+00 -0.12186222938E+00  0.11644124927E+00  0.17130012697E+03  0.17130000000E+03 0.  1.
      622    1    1    2    0    0  0.10365065362E+00  0.12917131524E+00  0.38660546362E+01  0.39728839823E+01  0.90000000000E+00 0.  1.
</event>
<event>
 5   0  0.4857400E+02  0.9118800E+02  0.7818608E-02  0.1180000E+00
       11   -1    0    0    0    0  0.00000000000E+00  0.00000000000E+00  0.39999999673E+01  0.40000000000E+01  0.51109989000E-03 0. -1.
     -623   -1    0    0    0    0  0.00000000000E+00  0.00000000000E+00  0.12525980253E-10  0.17130000000E+03  0.17130000000E+03 0.  1.
       11    1    1    2    0    0  0.77652912583E-01 -0.23682823482E+00  0.25561307467E+00  0.35700965366E+00  0.51109989000E-03 0. -1.
     -623    1    1    2    0    0 -0.16468693503E+00  0.94955992535E-03  0.22351686486E+00  0.17130022499E+03  0.17130000000E+03 0.  1.
      622    1    1    2    0    0  0.87034022450E-01  0.23587867489E+00  0.35208700278E+01  0.36427653539E+01  0.90000000000E+00 0. -1.
</event>
<event>
 5   0  0.4857400E+02  0.9118800E+02  0.7818608E-02  0.1180000E+00
       11   -1    0    0    0    0  0.00000000000E+00  0.00000000000E+00  0.39999999673E+01  0.40000000000E+01  0.51109989000E-03 0. -1.
     -623   -1    0    0    0    0  0.00000000000E+00  0.00000000000E+00  0.12525980253E-10  0.17130000000E+03  0.17130000000E+03 0. -1.
       11    1    1    2    0    0  0.42188488548E-01  0.30659410459E+00  0.49447758627E+00  0.58334223067E+00  0.51109989000E-03 0. -1.
     -623    1    1    2    0    0 -0.10134146668E-01 -0.43277188763E+00  0.21280898302E+00  0.17130067916E+03  0.17130000000E+03 0. -1.
      622    1    1    2    0    0 -0.32054341881E-01  0.12617778303E+00  0.32927133981E+01  0.34159786058E+01  0.90000000000E+00 0. -1.
</event>
<event>
 5   0  0.4857400E+02  0.9118800E+02  0.7818608E-02  0.1180000E+00
       11   -1    0    0    0    0  0.00000000000E+00  0.00000000000E+00  0.39999999673E+01  0.40000000000E+01  0.51109989000E-03 0. -1.
     -623   -1    0    0    0    0  0.00000000000E+00  0.00000000000E+00  0.12525980253E-10  0.17130000000E+03  0.17130000000E+03 0.  1.
       11    1    1    2    0    0  0.33184858473E+00  0.24979973735E+00  0.11046683727E+01  0.11801762016E+01  0.51109989000E-03 0. -1.
     -623    1    1    2    0    0 -0.22009928550E+00 -0.14525992418E+00  0.22775005608E+00  0.17130035439E+03  0.17130000000E+03 0.  1.
      622    1    1    2    0    0 -0.11174929923E+00 -0.10453981317E+00  0.26675815386E+01  0.28194694081E+01  0.90000000000E+00 0.  0.
</event>
<event>
 5   0  0.4857400E+02  0.9118800E+02  0.7818608E-02  0.1180000E+00
       11   -1    0    0    0    0  0.00000000000E+00  0.00000000000E+00  0.39999999673E+01  0.40000000000E+01  0.51109989000E-03 0.  1.
     -623   -1    0    0    0    0  0.00000000000E+00  0.00000000000E+00  0.12525980253E-10  0.17130000000E+03  0.17130000000E+03 0.  1.
       11    1    1    2    0    0 -0.25179269234E-02 -0.52438811982E-02 -0.15261484681E-01  0.16340513548E-01  0.51109989000E-03 0.  1.
     -623    1    1    2    0    0 -0.15401839782E-01 -0.60170390312E-01  0.13525789542E+00  0.17130006466E+03  0.17130000000E+03 0.  1.
      622    1    1    2    0    0  0.17919766705E-01  0.65414271510E-01  0.38800035566E+01  0.39835948268E+01  0.90000000000E+00 0.  1.
</event>
<event>
 5   0  0.4857400E+02  0.9118800E+02  0.7818608E-02  0.1180000E+00
       11   -1    0    0    0    0  0.00000000000E+00  0.00000000000E+00  0.39999999673E+01  0.40000000000E+01  0.51109989000E-03 0. -1.
     -623   -1    0    0    0    0  0.00000000000E+00  0.00000000000E+00  0.12525980253E-10  0.17130000000E+03  0.17130000000E+03 0.  1.
       11    1    1    2    0    0  0.51379140484E-01 -0.10570789908E-01  0.11843253646E+00  0.12953024585E+00  0.51109989000E-03 0. -1.
     -623    1    1    2    0    0 -0.15311025868E+00 -0.11983959201E+00  0.12098301331E+00  0.17130015307E+03  0.17130000000E+03 0.  1.
      622    1    1    2    0    0  0.10173111820E+00  0.13041038192E+00  0.37605844176E+01  0.38703166860E+01  0.90000000000E+00 0. -1.
</event>
<event>
 5   0  0.4857400E+02  0.9118800E+02  0.7818608E-02  0.1180000E+00
       11   -1    0    0    0    0  0.00000000000E+00  0.00000000000E+00  0.39999999673E+01  0.40000000000E+01  0.51109989000E-03 0. -1.
     -623   -1    0    0    0    0  0.00000000000E+00  0.00000000000E+00  0.12525980253E-10  0.17130000000E+03  0.17130000000E+03 0. -1.
       11    1    1    2    0    0 -0.17690442696E-01  0.13274143625E+00  0.38819142011E+00  0.41064106045E+00  0.51109989000E-03 0. -1.
     -623    1    1    2    0    0 -0.63324561288E-01 -0.24354183651E+00  0.14007706082E+00  0.17130024210E+03  0.17130000000E+03 0. -1.
      622    1    1    2    0    0  0.81015003984E-01  0.11080040026E+00  0.34717314864E+01  0.35891168375E+01  0.90000000000E+00 0. -1.
</event>
<event>
 5   0  0.4857400E+02  0.9118800E+02  0.7818608E-02  0.1180000E+00
       11   -1    0    0    0    0  0.00000000000E+00  0.00000000000E+00  0.39999999673E+01  0.40000000000E+01  0.51109989000E-03 0. -1.
     -623   -1    0    0    0    0  0.00000000000E+00  0.00000000000E+00  0.12525980253E-10  0.17130000000E+03  0.17130000000E+03 0.  1.
       11    1    1    2    0    0 -0.13940133165E-01 -0.19202492814E-02  0.35693884641E-01  0.38370943323E-01  0.51109989000E-03 0. -1.
     -623    1    1    2    0    0  0.12198634448E+00 -0.46082145292E-01  0.10815997934E+00  0.17130008378E+03  0.17130000000E+03 0.  1.
      622    1    1    2    0    0 -0.10804621132E+00  0.48002394573E-01  0.38561461034E+01  0.39615452773E+01  0.90000000000E+00 0. -1.
</event>
<event>
 5   0  0.4857400E+02  0.9118800E+02  0.7818608E-02  0.1180000E+00
       11   -1    0    0    0    0  0.00000000000E+00  0.00000000000E+00  0.39999999673E+01  0.40000000000E+01  0.51109989000E-03 0.  1.
     -623   -1    0    0    0    0  0.00000000000E+00  0.00000000000E+00  0.12525980253E-10  0.17130000000E+03  0.17130000000E+03 0.  1.
       11    1    1    2    0    0  0.65567414019E-01  0.15559408739E-01  0.40307257243E+00  0.40866727401E+00  0.51109989000E-03 0.  1.
     -623    1    1    2    0    0 -0.11659417834E-01  0.23705623522E-02  0.12070318180E+00  0.17130004294E+03  0.17130000000E+03 0.  1.
      622    1    1    2    0    0 -0.53907996185E-01 -0.17929971091E-01  0.34762242131E+01  0.35912897872E+01  0.90000000000E+00 0.  1.
</event>
<event>
 5   0  0.4857400E+02  0.9118800E+02  0.7818608E-02  0.1180000E+00
       11   -1    0    0    0    0  0.00000000000E+00  0.00000000000E+00  0.39999999673E+01  0.40000000000E+01  0.51109989000E-03 0. -1.
     -623   -1    0    0    0    0  0.00000000000E+00  0.00000000000E+00  0.12525980253E-10  0.17130000000E+03  0.17130000000E+03 0.  1.
       11    1    1    2    0    0  0.24983473235E-01 -0.13541423769E+00 -0.23027948089E-01  0.13961281216E+00  0.51109989000E-03 0. -1.
     -623    1    1    2    0    0 -0.70836801198E-01  0.89499642914E-01  0.26983671948E+00  0.17130025055E+03  0.17130000000E+03 0.  1.
      622    1    1    2    0    0  0.45853327962E-01  0.45914594777E-01  0.37531911960E+01  0.38601366337E+01  0.90000000000E+00 0. -1.
</event>
<event>
 5   0  0.4857400E+02  0.9118800E+02  0.7818608E-02  0.1180000E+00
       11   -1    0    0    0    0  0.00000000000E+00  0.00000000000E+00  0.39999999673E+01  0.40000000000E+01  0.51109989000E-03 0.  1.
     -623   -1    0    0    0    0  0.00000000000E+00  0.00000000000E+00  0.12525980253E-10  0.17130000000E+03  0.17130000000E+03 0. -1.
       11    1    1    2    0    0 -0.98329132723E-01 -0.47719442980E-01  0.33539832859E-01  0.11432823444E+00  0.51109989000E-03 0.  1.
     -623    1    1    2    0    0  0.82933761882E-01  0.11832286901E+00  0.18731290658E+00  0.17130016335E+03  0.17130000000E+03 0. -1.
      622    1    1    2    0    0  0.15395370841E-01 -0.70603426032E-01  0.37791472279E+01  0.38855084135E+01  0.90000000000E+00 0.  1.
</event>
<event>
 5   0  0.4857400E+02  0.9118800E+02  0.7818608E-02  0.1180000E+00
       11   -1    0    0    0    0  0.00000000000E+00  0.00000000000E+00  0.39999999673E+01  0.40000000000E+01  0.51109989000E-03 0.  1.
     -623   -1    0    0    0    0  0.00000000000E+00  0.00000000000E+00  0.12525980253E-10  0.17130000000E+03  0.17130000000E+03 0. -1.
       11    1    1    2    0    0 -0.16362412768E-01  0.83198892759E-02  0.53990658778E+00  0.54021878332E+00  0.51109989000E-03 0.  1.
     -623    1    1    2    0    0 -0.85275680287E-01  0.66951674640E-01  0.12189739283E+00  0.17130007768E+03  0.17130000000E+03 0. -1.
      622    1    1    2    0    0  0.10163809306E+00 -0.75271563916E-01  0.33381959868E+01  0.34597035359E+01  0.90000000000E+00 0.  1.
</event>
<event>
 5   0  0.4857400E+02  0.9118800E+02  0.7818608E-02  0.1180000E+00
       11   -1    0    0    0    0  0.00000000000E+00  0.00000000000E+00  0.39999999673E+01  0.40000000000E+01  0.51109989000E-03 0.  1.
     -623   -1    0    0    0    0  0.00000000000E+00  0.00000000000E+00  0.12525980253E-10  0.17130000000E+03  0.17130000000E+03 0.  1.
       11    1    1    2    0    0  0.10023735038E+00 -0.61415941996E-01  0.31669742620E+00  0.33781202662E+00  0.51109989000E-03 0.  1.
     -623    1    1    2    0    0 -0.22012219179E-01  0.22527495157E+00  0.13828523239E+00  0.17130020536E+03  0.17130000000E+03 0.  1.
      622    1    1    2    0    0 -0.78225131205E-01 -0.16385900957E+00  0.35450173088E+01  0.36619826141E+01  0.90000000000E+00 0.  1.
</event>
<event>
 5   0  0.4857400E+02  0.9118800E+02  0.7818608E-02  0.1180000E+00
       11   -1    0    0    0    0  0.00000000000E+00  0.00000000000E+00  0.39999999673E+01  0.40000000000E+01  0.51109989000E-03 0. -1.
     -623   -1    0    0    0    0  0.00000000000E+00  0.00000000000E+00  0.12525980253E-10  0.17130000000E+03  0.17130000000E+03 0. -1.
       11    1    1    2    0    0 -0.17027178885E+00 -0.22916368327E+00  0.20100299419E+00  0.34915747264E+00  0.51109989000E-03 0. -1.
     -623    1    1    2    0    0  0.24844415946E+00  0.20991127765E+00  0.26226836128E+00  0.17130050955E+03  0.17130000000E+03 0. -1.
      622    1    1    2    0    0 -0.78172370602E-01  0.19252405613E-01  0.35367286119E+01  0.36503329778E+01  0.90000000000E+00 0. -1.
</event>
<event>
 5   0  0.4857400E+02  0.9118800E+02  0.7818608E-02  0.1180000E+00
       11   -1    0    0    0    0  0.00000000000E+00  0.00000000000E+00  0.39999999673E+01  0.40000000000E+01  0.51109989000E-03 0. -1.
     -623   -1    0    0    0    0  0.00000000000E+00  0.00000000000E+00  0.12525980253E-10  0.17130000000E+03  0.17130000000E+03 0. -1.
       11    1    1    2    0    0 -0.32328314541E-01  0.92965477010E-02  0.12626956380E+00  0.13067444160E+00  0.51109989000E-03 0. -1.
     -623    1    1    2    0    0  0.14630708958E+00 -0.89422835219E-01  0.11323640173E+00  0.17130012325E+03  0.17130000000E+03 0. -1.
      622    1    1    2    0    0 -0.11397877504E+00  0.80126287518E-01  0.37604940018E+01  0.38692023107E+01  0.90000000000E+00 0.  0.
</event>
<event>
 5   0  0.4857400E+02  0.9118800E+02  0.7818608E-02  0.1180000E+00
       11   -1    0    0    0    0  0.00000000000E+00  0.00000000000E+00  0.39999999673E+01  0.40000000000E+01  0.51109989000E-03 0.  1.
     -623   -1    0    0    0    0  0.00000000000E+00  0.00000000000E+00  0.12525980253E-10  0.17130000000E+03  0.17130000000E+03 0. -1.
       11    1    1    2    0    0 -0.95417522665E-01  0.66907752857E-02  0.53245747063E-01  0.10947438471E+00  0.51109989000E-03 0.  1.
     -623    1    1    2    0    0  0.17816789150E-01 -0.10645295144E+00  0.16398540910E+00  0.17130011250E+03  0.17130000000E+03 0. -1.
      622    1    1    2    0    0  0.77600733514E-01  0.99762176155E-01  0.37827688112E+01  0.38904131200E+01  0.90000000000E+00 0.  1.
</event>
<event>
 5   0  0.4857400E+02  0.9118800E+02  0.7818608E-02  0.1180000E+00
       11   -1    0    0    0    0  0.00000000000E+00  0.00000000000E+00  0.39999999673E+01  0.40000000000E+01  0.51109989000E-03 0.  1.
     -623   -1    0    0    0    0  0.00000000000E+00  0.00000000000E+00  0.12525980253E-10  0.17130000000E+03  0.17130000000E+03 0.  1.
       11    1    1    2    0    0  0.22223041656E-01 -0.23893319186E-01 -0.33923428669E-01  0.47072439048E-01  0.51109989000E-03 0.  1.
     -623    1    1    2    0    0  0.37631176513E-01  0.58531800747E-01  0.18555390838E+00  0.17130011463E+03  0.17130000000E+03 0.  1.
      622    1    1    2    0    0 -0.59854218169E-01 -0.34638481562E-01  0.38483694876E+01  0.39528129307E+01  0.90000000000E+00 0.  1.
</event>
<event>
 5   0  0.4857400E+02  0.9118800E+02  0.7818608E-02  0.1180000E+00
       11   -1    0    0    0    0  0.00000000000E+00  0.00000000000E+00  0.39999999673E+01  0.40000000000E+01  0.51109989000E-03 0.  1.
     -623   -1    0    0    0    0  0.00000000000E+00  0.00000000000E+00  0.12525980253E-10  0.17130000000E+03  0.17130000000E+03 0. -1.
       11    1    1    2    0    0 -0.52052853699E+00 -0.41413228189E+00  0.38781675244E+00  0.76997246667E+00  0.51109989000E-03 0.  1.
     -623    1    1    2    0    0  0.27844572841E+00  0.37466143675E+00  0.52127956721E+00  0.17130142917E+03  0.17130000000E+03 0. -1.
      622    1    1    2    0    0  0.24208280858E+00  0.39470845139E-01  0.30909036477E+01  0.32285983636E+01  0.90000000000E+00 0.  0.
</event>
<event>
 5   0  0.4857400E+02  0.9118800E+02  0.7818608E-02  0.1180000E+00
       11   -1    0    0    0    0  0.00000000000E+00  0.00000000000E+00  0.39999999673E+01  0.40000000000E+01  0.51109989000E-03 0.  1.
     -623   -1    0    0    0    0  0.00000000000E+00  0.00000000000E+00  0.12525980253E-10  0.17130000000E+03  0.17130000000E+03 0.  1.
       11    1    1    2    0    0 -0.15624843772E-01  0.52096925741E-01  0.67298836886E-01  0.86531035379E-01  0.51109989000E-03 0.  1.
     -623    1    1    2    0    0  0.11925314322E+00  0.15861753180E-01  0.12623460040E+00  0.17130008876E+03  0.17130000000E+03 0.  1.
      622    1    1    2    0    0 -0.10362829945E+00 -0.67958678921E-01  0.38064665301E+01  0.39133802078E+01  0.90000000000E+00 0.  1.
</event>
<event>
 5   0  0.4857400E+02  0.9118800E+02  0.7818608E-02  0.1180000E+00
       11   -1    0    0    0    0  0.00000000000E+00  0.00000000000E+00  0.39999999673E+01  0.40000000000E+01  0.51109989000E-03 0. -1.
     -623   -1    0    0    0    0  0.00000000000E+00  0.00000000000E+00  0.12525980253E-10  0.17130000000E+03  0.17130000000E+03 0.  1.
       11    1    1    2    0    0  0.37311786026E+00  0.48622559867E-02  0.25947649909E+00  0.45449850823E+00  0.51109989000E-03 0. -1.
     -623    1    1    2    0    0 -0.52626014163E+00  0.70463255999E-02  0.31573279212E+00  0.17130109949E+03  0.17130000000E+03 0.  1.
      622    1    1    2    0    0  0.15314228137E+00 -0.11908581587E-01  0.34247906761E+01  0.35444020015E+01  0.90000000000E+00 0. -1.
</event>
<event>
 5   0  0.4857400E+02  0.9118800E+02  0.7818608E-02  0.1180000E+00
       11   -1    0    0    0    0  0.00000000000E+00  0.00000000000E+00  0.39999999673E+01  0.40000000000E+01  0.51109989000E-03 0. -1.
     -623   -1    0    0    0    0  0.00000000000E+00  0.00000000000E+00  0.12525980253E-10  0.17130000000E+03  0.17130000000E+03 0. -1.
       11    1    1    2    0    0 -0.61543833291E-02  0.17233859521E-01  0.66603137324E-02  0.19480845671E-01  0.51109989000E-03 0. -1.
     -623    1    1    2    0    0  0.53098689961E-01 -0.81973843553E-01  0.11679492059E+00  0.17130006766E+03  0.17130000000E+03 0. -1.
      622    1    1    2    0    0 -0.46944306632E-01  0.64739984032E-01  0.38765447330E+01  0.39804514946E+01  0.90000000000E+00 0. -1.
</event>
<event>
 5   0  0.4857400E+02  0.9118800E+02  0.7818608E-02  0.1180000E+00
       11   -1    0    0    0    0  0.00000000000E+00  0.00000000000E+00  0.39999999673E+01  0.40000000000E+01  0.51109989000E-03 0. -1.
     -623   -1    0    0    0    0  0.00000000000E+00  0.00000000000E+00  0.12525980253E-10  0.17130000000E+03  0.17130000000E+03 0.  1.
       11    1    1    2    0    0 -0.10065312898E+00 -0.12056798703E+00  0.21731764006E+00  0.26813226172E+00  0.51109989000E-03 0. -1.
     -623    1    1    2    0    0  0.66938934994E-01 -0.64878757619E-01  0.16598214989E+00  0.17130010578E+03  0.17130000000E+03 0.  1.
      622    1    1    2    0    0  0.33714193985E-01  0.18544674465E+00  0.36167001774E+01  0.37317619585E+01  0.90000000000E+00 0. -1.
</event>
<event>
 5   0  0.4857400E+02  0.9118800E+02  0.7818608E-02  0.1180000E+00
       11   -1    0    0    0    0  0.00000000000E+00  0.00000000000E+00  0.39999999673E+01  0.40000000000E+01  0.51109989000E-03 0.  1.
     -623   -1    0    0    0    0  0.00000000000E+00  0.00000000000E+00  0.12525980253E-10  0.17130000000E+03  0.17130000000E+03 0. -1.
       11    1    1    2    0    0 -0.65346679233E-02  0.21480189991E-01  0.55374569885E-01  0.59755373473E-01  0.51109989000E-03 0.  1.
     -623    1    1    2    0    0 -0.64767951254E-02 -0.10110463706E+00  0.10945829737E+00  0.17130006493E+03  0.17130000000E+03 0. -1.
      622    1    1    2    0    0  0.13011463049E-01  0.79624447070E-01  0.38351671001E+01  0.39401796960E+01  0.90000000000E+00 0.  1.
</event>
<event>
 5   0  0.4857400E+02  0.9118800E+02  0.7818608E-02  0.1180000E+00
       11   -1    0    0    0    0  0.00000000000E+00  0.00000000000E+00  0.39999999673E+01  0.40000000000E+01  0.51109989000E-03 0.  1.
     -623   -1    0    0    0    0  0.00000000000E+00  0.00000000000E+00  0.12525980253E-10  0.17130000000E+03  0.17130000000E+03 0.  1.
       11    1    1    2    0    0  0.55184505590E-01  0.14868807863E+00  0.13509913295E+00  0.20833989376E+00  0.51109989000E-03 0.  1.
     -623    1    1    2    0    0 -0.15444078324E+00  0.44691245086E-01  0.18820628424E+00  0.17130017884E+03  0.17130000000E+03 0.  1.
      622    1    1    2    0    0  0.99256277652E-01 -0.19337932371E+00  0.36766945502E+01  0.37914812655E+01  0.90000000000E+00 0.  1.
</event>
<event>
 5   0  0.4857400E+02  0.9118800E+02  0.7818608E-02  0.1180000E+00
       11   -1    0    0    0    0  0.00000000000E+00  0.00000000000E+00  0.39999999673E+01  0.40000000000E+01  0.51109989000E-03 0. -1.
     -623   -1    0    0    0    0  0.00000000000E+00  0.00000000000E+00  0.12525980253E-10  0.17130000000E+03  0.17130000000E+03 0.  1.
       11    1    1    2    0    0 -0.70034018357E-01 -0.17123466412E+00  0.26633855146E+00  0.32428777211E+00  0.51109989000E-03 0. -1.
     -623    1    1    2    0    0  0.20668166020E+00  0.10901276469E-01  0.17628948907E+00  0.17130021574E+03  0.17130000000E+03 0.  1.
      622    1    1    2    0    0 -0.13664764185E+00  0.16033338765E+00  0.35573719268E+01  0.36754964833E+01  0.90000000000E+00 0. -1.
</event>
<event>
 5   0  0.4857400E+02  0.9118800E+02  0.7818608E-02  0.1180000E+00
       11   -1    0    0    0    0  0.00000000000E+00  0.00000000000E+00  0.39999999673E+01  0.40000000000E+01  0.51109989000E-03 0. -1.
     -623   -1    0    0    0    0  0.00000000000E+00  0.00000000000E+00  0.12525980253E-10  0.17130000000E+03  0.17130000000E+03 0.  1.
       11    1    1    2    0    0  0.16534156486E+00  0.98338930077E-01  0.32345775944E+00  0.37634234628E+00  0.51109989000E-03 0. -1.
     -623    1    1    2    0    0  0.84455266201E-01 -0.26466460475E+00  0.17961253829E+00  0.17130031944E+03  0.17130000000E+03 0.  1.
      622    1    1    2    0    0 -0.24979683107E+00  0.16632567468E+00  0.34969296696E+01  0.36233382124E+01  0.90000000000E+00 0.  1.
</event>
<event>
 5   0  0.4857400E+02  0.9118800E+02  0.7818608E-02  0.1180000E+00
       11   -1    0    0    0    0  0.00000000000E+00  0.00000000000E+00  0.39999999673E+01  0.40000000000E+01  0.51109989000E-03 0.  1.
     -623   -1    0    0    0    0  0.00000000000E+00  0.00000000000E+00  0.12525980253E-10  0.17130000000E+03  0.17130000000E+03 0. -1.
       11    1    1    2    0    0 -0.15014856564E+00 -0.17034648743E+00  0.83018864394E+00  0.86068342804E+00  0.51109989000E-03 0.  1.
     -623    1    1    2    0    0  0.49292095745E-01 -0.23603873842E-01  0.17032246788E+00  0.17130009339E+03  0.17130000000E+03 0. -1.
      622    1    1    2    0    0  0.10085646989E+00  0.19395036127E+00  0.29994888555E+01  0.31392231785E+01  0.90000000000E+00 0.  1.
</event>
<event>
 5   0  0.4857400E+02  0.9118800E+02  0.7818608E-02  0.1180000E+00
       11   -1    0    0    0    0  0.00000000000E+00  0.00000000000E+00  0.39999999673E+01  0.40000000000E+01  0.51109989000E-03 0.  1.
     -623   -1    0    0    0    0  0.00000000000E+00  0.00000000000E+00  0.12525980253E-10  0.17130000000E+03  0.17130000000E+03 0.  1.
       11    1    1    2    0    0 -0.33577738895E-01  0.72639903696E-01  0.18045646513E-01  0.82036130695E-01  0.51109989000E-03 0.  1.
     -623    1    1    2    0    0 -0.20636318472E+00 -0.11005010341E+00  0.17675995775E+00  0.17130025085E+03  0.17130000000E+03 0.  1.
      622    1    1    2    0    0  0.23994092361E+00  0.37410199715E-01  0.38051943631E+01  0.39177130205E+01  0.90000000000E+00 0.  1.
</event>
<event>
 5   0  0.4857400E+02  0.9118800E+02  0.7818608E-02  0.1180000E+00
       11   -1    0    0    0    0  0.00000000000E+00  0.00000000000E+00  0.39999999673E+01  0.40000000000E+01  0.51109989000E-03 0. -1.
     -623   -1    0    0    0    0  0.00000000000E+00  0.00000000000E+00  0.12525980253E-10  0.17130000000E+03  0.17130000000E+03 0.  1.
       11    1    1    2    0    0  0.34956525815E-02 -0.16514797541E+00  0.52345099140E+00  0.54889641554E+00  0.51109989000E-03 0. -1.
     -623    1    1    2    0    0  0.24119746850E+00 -0.26747558093E+00  0.18264660427E+00  0.17130047600E+03  0.17130000000E+03 0.  1.
      622    1    1    2    0    0 -0.24469312109E+00  0.43262355634E+00  0.32939023717E+01  0.34506275805E+01  0.90000000000E+00 0.  0.
</event>
<event>
 5   0  0.4857400E+02  0.9118800E+02  0.7818608E-02  0.1180000E+00
       11   -1    0    0    0    0  0.00000000000E+00  0.00000000000E+00  0.39999999673E+01  0.40000000000E+01  0.51109989000E-03 0. -1.
     -623   -1    0    0    0    0  0.00000000000E+00  0.00000000000E+00  0.12525980253E-10  0.17130000000E+03  0.17130000000E+03 0. -1.
       11    1    1    2    0    0 -0.87206603326E-01  0.63241789580E-01 -0.54356602938E-01  0.12066240972E+00  0.51109989000E-03 0. -1.
     -623    1    1    2    0    0 -0.10579841690E+00 -0.84239190698E-02  0.28648043582E+00  0.17130027243E+03  0.17130000000E+03 0. -1.
      622    1    1    2    0    0  0.19300502023E+00 -0.54817870510E-01  0.37678761345E+01  0.38790651582E+01  0.90000000000E+00 0. -1.
</event>
<event>
 5   0  0.4857400E+02  0.9118800E+02  0.7818608E-02  0.1180000E+00
       11   -1    0    0    0    0  0.00000000000E+00  0.00000000000E+00  0.39999999673E+01  0.40000000000E+01  0.51109989000E-03 0.  1.
     -623   -1    0    0    0    0  0.00000000000E+00  0.00000000000E+00  0.12525980253E-10  0.17130000000E+03  0.17130000000E+03 0. -1.
       11    1    1    2    0    0  0.34806880185E-02 -0.15604227019E-01  0.29812203929E-01  0.33832466894E-01  0.51109989000E-03 0.  1.
     -623    1    1    2    0    0  0.16712595681E+00  0.14988484997E+00  0.11378005247E+00  0.17130018489E+03  0.17130000000E+03 0. -1.
      622    1    1    2    0    0 -0.17060664483E+00 -0.13428062295E+00  0.38564077110E+01  0.39659826457E+01  0.90000000000E+00 0.  1.
</event>
<event>
 5   0  0.4857400E+02  0.9118800E+02  0.7818608E-02  0.1180000E+00
       11   -1    0    0    0    0  0.00000000000E+00  0.00000000000E+00  0.39999999673E+01  0.40000000000E+01  0.51109989000E-03 0.  1.
     -623   -1    0    0    0    0  0.00000000000E+00  0.00000000000E+00  0.12525980253E-10  0.17130000000E+03  0.17130000000E+03 0.  1.
       11    1    1    2    0    0 -0.18681977213E+00 -0.12526326995E+00  0.22101321514E+00  0.31534047717E+00  0.51109989000E-03 0.  1.
     -623    1    1    2    0    0 -0.26675042135E-01  0.44960158491E-01  0.21336630662E+00  0.17130014086E+03  0.17130000000E+03 0.  1.
      622    1    1    2    0    0  0.21349481426E+00  0.80303111456E-01  0.35656204456E+01  0.36845186643E+01  0.90000000000E+00 0.  1.
</event>
<event>
 5   0  0.4857400E+02  0.9118800E+02  0.7818608E-02  0.1180000E+00
       11   -1    0    0    0    0  0.00000000000E+00  0.00000000000E+00  0.39999999673E+01  0.40000000000E+01  0.51109989000E-03 0.  1.
     -623   -1    0    0    0    0  0.00000000000E+00  0.00000000000E+00  0.12525980253E-10  0.17130000000E+03  0.17130000000E+03 0.  1.
       11    1    1    2    0    0  0.59757529565E-01 -0.47411605115E-01  0.10575287332E+00  0.13039460908E+00  0.51109989000E-03 0.  1.
     -623    1    1    2    0    0 -0.32621904349E-01  0.51324796288E-01  0.13092097335E+00  0.17130006083E+03  0.17130000000E+03 0.  1.
      622    1    1    2    0    0 -0.27135625216E-01 -0.39131911731E-02  0.37633261207E+01  0.38695445657E+01  0.90000000000E+00 0.  1.
</event>
<event>
 5   0  0.4857400E+02  0.9118800E+02  0.7818608E-02  0.1180000E+00
       11   -1    0    0    0    0  0.00000000000E+00  0.00000000000E+00  0.39999999673E+01  0.40000000000E+01  0.51109989000E-03 0. -1.
     -623   -1    0    0    0    0  0.00000000000E+00  0.00000000000E+00  0.12525980253E-10  0.17130000000E+03  0.17130000000E+03 0. -1.
       11    1    1    2    0    0  0.23473573229E+00  0.10812639942E+00  0.36595742069E+00  0.44801481811E+00  0.51109989000E-03 0. -1.
     -623    1    1    2    0    0  0.41036191341E-01  0.16039812589E+00  0.21982626693E+00  0.17130022106E+03  0.17130000000E+03 0. -1.
      622    1    1    2    0    0 -0.27577192363E+00 -0.26852452531E+00  0.34142162797E+01  0.35517641222E+01  0.90000000000E+00 0. -1.
</event>
<event>
 5   0  0.4857400E+02  0.9118800E+02  0.7818608E-02  0.1180000E+00
       11   -1    0    0    0    0  0.00000000000E+00  0.00000000000E+00  0.39999999673E+01  0.40000000000E+01  0.51109989000E-03 0. -1.
     -623   -1    0    0    0    0  0.00000000000E+00  0.00000000000E+00  0.12525980253E-10  0.17130000000E+03  0.17130000000E+03 0.  1.
       11    1    1    2    0    0  0.92293902799E-03 -0.46560488223E-01  0.25176296641E-01  0.52941836157E-01  0.51109989000E-03 0. -1.
     -623    1    1    2    0    0  0.22510158901E+00  0.12391390331E+00  0.13943213024E+00  0.17130024946E+03  0.17130000000E+03 0.  1.
      622    1    1    2    0    0 -0.22602452804E+00 -0.77353415083E-01  0.38353915405E+01  0.39468086990E+01  0.90000000000E+00 0. -1.
</event>
<event>
 5   0  0.4857400E+02  0.9118800E+02  0.7818608E-02  0.1180000E+00
       11   -1    0    0    0    0  0.00000000000E+00  0.00000000000E+00  0.39999999673E+01  0.40000000000E+01  0.51109989000E-03 0.  1.
     -623   -1    0    0    0    0  0.00000000000E+00  0.00000000000E+00  0.12525980253E-10  0.17130000000E+03  0.17130000000E+03 0. -1.
       11    1    1    2    0    0  0.67983694457E-01 -0.39667455191E-01  0.48709708427E+00  0.49341576833E+00  0.51109989000E-03 0.  1.
     -623    1    1    2    0    0 -0.50281077984E-01  0.21591571035E-01  0.12393295889E+00  0.17130005357E+03  0.17130000000E+03 0. -1.
      622    1    1    2    0    0 -0.17702616473E-01  0.18075884156E-01  0.33889699242E+01  0.35065306597E+01  0.90000000000E+00 0.  1.
</event>
<event>
 5   0  0.4857400E+02  0.9118800E+02  0.7818608E-02  0.1180000E+00
       11   -1    0    0    0    0  0.00000000000E+00  0.00000000000E+00  0.39999999673E+01  0.40000000000E+01  0.51109989000E-03 0. -1.
     -623   -1    0    0    0    0  0.00000000000E+00  0.00000000000E+00  0.12525980253E-10  0.17130000000E+03  0.17130000000E+03 0.  1.
       11    1    1    2    0    0 -0.22462707097E-01  0.68319584225E-01 -0.46248795946E-01  0.85506439221E-01  0.51109989000E-03 0. -1.
     -623    1    1    2    0    0  0.57347992196E-01 -0.96767620929E-01  0.23709401547E+00  0.17130020101E+03  0.17130000000E+03 0.  1.
      622    1    1    2    0    0 -0.34885285099E-01  0.28448036704E-01  0.38091547478E+01  0.39142925500E+01  0.90000000000E+00 0. -1.
</event>
<event>
 5   0  0.4857400E+02  0.9118800E+02  0.7818608E-02  0.1180000E+00
       11   -1    0    0    0    0  0.00000000000E+00  0.00000000000E+00  0.39999999673E+01  0.40000000000E+01  0.51109989000E-03 0. -1.
     -623   -1    0    0    0    0  0.00000000000E+00  0.00000000000E+00  0.12525980253E-10  0.17130000000E+03  0.17130000000E+03 0. -1.
       11    1    1    2    0    0 -0.64733631502E-01 -0.72692194175E-01 -0.19144980090E-01  0.99203778278E-01  0.51109989000E-03 0. -1.
     -623    1    1    2    0    0  0.33344948717E+00  0.66560239395E-01  0.23363444447E+00  0.17130049680E+03  0.17130000000E+03 0. -1.
      622    1    1    2    0    0 -0.26871585566E+00  0.61319547797E-02  0.37855105030E+01  0.39002994219E+01  0.90000000000E+00 0. -1.
</event>
<event>
 5   0  0.4857400E+02  0.9118800E+02  0.7818608E-02  0.1180000E+00
       11   -1    0    0    0    0  0.00000000000E+00  0.00000000000E+00  0.39999999673E+01  0.40000000000E+01  0.51109989000E-03 0. -1.
     -623   -1    0    0    0    0  0.00000000000E+00  0.00000000000E+00  0.12525980253E-10  0.17130000000E+03  0.17130000000E+03 0. -1.
       11    1    1    2    0    0 -0.54784414514E-01 -0.32272352397E-01  0.21344115180E+00  0.22271107585E+00  0.51109989000E-03 0. -1.
     -623    1    1    2    0    0 -0.25272311049E-02  0.11982745627E+00  0.11963520834E+00  0.17130008371E+03  0.17130000000E+03 0. -1.
      622    1    1    2    0    0  0.57311645619E-01 -0.87555103870E-01  0.36669236072E+01  0.37772052184E+01  0.90000000000E+00 0. -1.
</event>
<event>
 5   0  0.4857400E+02  0.9118800E+02  0.7818608E-02  0.1180000E+00
       11   -1    0    0    0    0  0.00000000000E+00  0.00000000000E+00  0.39999999673E+01  0.40000000000E+01  0.51109989000E-03 0. -1.
     -623   -1    0    0    0    0  0.00000000000E+00  0.00000000000E+00  0.12525980253E-10  0.17130000000E+03  0.17130000000E+03 0.  1.
       11    1    1    2    0    0 -0.39322011572E+00 -0.28649043406E+00  0.51266690225E+00  0.70677184586E+00  0.51109989000E-03 0. -1.
     -623    1    1    2    0    0  0.24067849596E+00 -0.23194969392E-01  0.33886575932E+00  0.17130050582E+03  0.17130000000E+03 0.  1.
      622    1    1    2    0    0  0.15254161976E+00  0.30968540346E+00  0.31484673058E+01  0.32927223343E+01  0.90000000000E+00 0. -1.
</event>
<event>
 5   0  0.4857400E+02  0.9118800E+02  0.7818608E-02  0.1180000E+00
       11   -1    0    0    0    0  0.00000000000E+00  0.00000000000E+00  0.39999999673E+01  0.40000000000E+01  0.51109989000E-03 0.  1.
     -623   -1    0    0    0    0  0.00000000000E+00  0.00000000000E+00  0.12525980253E-10  0.17130000000E+03  0.17130000000E+03 0.  1.
       11    1    1    2    0    0 -0.41370505619E-01 -0.18543733242E-01  0.17314979498E-02  0.45372327315E-01  0.51109989000E-03 0.  1.
     -623    1    1    2    0    0 -0.39232893636E-01 -0.98627277124E-01  0.15014248855E+00  0.17130009868E+03  0.17130000000E+03 0.  1.
      622    1    1    2    0    0  0.80603399255E-01  0.11717101037E+00  0.38481259809E+01  0.39545289882E+01  0.90000000000E+00 0.  1.
</event>
<event>
 5   0  0.4857400E+02  0.9118800E+02  0.7818608E-02  0.1180000E+00
       11   -1    0    0    0    0  0.00000000000E+00  0.00000000000E+00  0.39999999673E+01  0.40000000000E+01  0.51109989000E-03 0.  1.
     -623   -1    0    0    0    0  0.00000000000E+00  0.00000000000E+00  0.12525980253E-10  0.17130000000E+03  0.17130000000E+03 0. -1.
       11    1    1    2    0    0  0.87823394673E-01  0.78776735439E-01  0.50758596535E+00  0.52111658594E+00  0.51109989000E-03 0.  1.
     -623    1    1    2    0    0 -0.38148940035E-01  0.53031063577E-01  0.13498459045E+00  0.17130006564E+03  0.17130000000E+03 0. -1.
      622    1    1    2    0    0 -0.49674454638E-01 -0.13180779902E+00  0.33574294116E+01  0.34788177735E+01  0.90000000000E+00 0.  1.
</event>
<event>
 5   0  0.4857400E+02  0.9118800E+02  0.7818608E-02  0.1180000E+00
       11   -1    0    0    0    0  0.00000000000E+00  0.00000000000E+00  0.39999999673E+01  0.40000000000E+01  0.51109989000E-03 0.  1.
     -623   -1    0    0    0    0  0.00000000000E+00  0.00000000000E+00  0.12525980253E-10  0.17130000000E+03  0.17130000000E+03 0. -1.
       11    1    1    2    0    0 -0.31995423847E-01 -0.55625922171E-01  0.21170528024E-01  0.67575164406E-01  0.51109989000E-03 0.  1.
     -623    1    1    2    0    0  0.13178256508E+00 -0.22256370818E-01  0.15299690677E+00  0.17130012046E+03  0.17130000000E+03 0. -1.
      622    1    1    2    0    0 -0.99787141234E-01  0.77882292989E-01  0.38258325326E+01  0.39323043743E+01  0.90000000000E+00 0.  1.
</event>
<event>
 5   0  0.4857400E+02  0.9118800E+02  0.7818608E-02  0.1180000E+00
       11   -1    0    0    0    0  0.00000000000E+00  0.00000000000E+00  0.39999999673E+01  0.40000000000E+01  0.51109989000E-03 0.  1.
     -623   -1    0    0    0    0  0.00000000000E+00  0.00000000000E+00  0.12525980253E-10  0.17130000000E+03  0.17130000000E+03 0. -1.
       11    1    1    2    0    0  0.43664463008E-01 -0.14803981711E+00  0.10525259210E+01  0.10637826133E+01  0.51109989000E-03 0.  1.
     -623    1    1    2    0    0 -0.10342287407E+00  0.24864578364E-01  0.15605541581E+00  0.17130010411E+03  0.17130000000E+03 0. -1.
      622    1    1    2    0    0  0.59758411060E-01  0.12317523875E+00  0.27914186305E+01  0.29361132775E+01  0.90000000000E+00 0.  1.
</event>
<event>
 5   0  0.4857400E+02  0.9118800E+02  0.7818608E-02  0.1180000E+00
       11   -1    0    0    0    0  0.00000000000E+00  0.00000000000E+00  0.39999999673E+01  0.40000000000E+01  0.51109989000E-03 0.  1.
     -623   -1    0    0    0    0  0.00000000000E+00  0.00000000000E+00  0.12525980253E-10  0.17130000000E+03  0.17130000000E+03 0.  1.
       11    1    1    2    0    0 -0.54027740676E-02  0.42231071865E-01  0.18730118872E-01  0.46515932481E-01  0.51109989000E-03 0.  1.
     -623    1    1    2    0    0  0.28789832275E-01 -0.55753240193E-01  0.13174844961E+00  0.17130006216E+03  0.17130000000E+03 0.  1.
      622    1    1    2    0    0 -0.23387058208E-01  0.13522168328E-01  0.38495213989E+01  0.39534219107E+01  0.90000000000E+00 0.  1.
</event>
<event>
 5   0  0.4857400E+02  0.9118800E+02  0.7818608E-02  0.1180000E+00
       11   -1    0    0    0    0  0.00000000000E+00  0.00000000000E+00  0.39999999673E+01  0.40000000000E+01  0.51109989000E-03 0.  1.
     -623   -1    0    0    0    0  0.00000000000E+00  0.00000000000E+00  0.12525980253E-10  0.17130000000E+03  0.17130000000E+03 0.  1.
       11    1    1    2    0    0  0.24853560763E-01  0.65311582305E-01  0.60273930809E-01  0.92284940397E-01  0.51109989000E-03 0.  1.
     -623    1    1    2    0    0 -0.33579097126E-01  0.77987762050E-01  0.13985557909E+00  0.17130007814E+03  0.17130000000E+03 0.  1.
      622    1    1    2    0    0  0.87255363631E-02 -0.14329934435E+00  0.37998704575E+01  0.39076369241E+01  0.90000000000E+00 0.  1.
</event>
<event>
 5   0  0.4857400E+02  0.9118800E+02  0.7818608E-02  0.1180000E+00
       11   -1    0    0    0    0  0.00000000000E+00  0.00000000000E+00  0.39999999673E+01  0.40000000000E+01  0.51109989000E-03 0.  1.
     -623   -1    0    0    0    0  0.00000000000E+00  0.00000000000E+00  0.12525980253E-10  0.17130000000E+03  0.17130000000E+03 0. -1.
       11    1    1    2    0    0  0.90269910960E-01  0.13576893356E+00  0.60036370584E+00  0.62210827085E+00  0.51109989000E-03 0.  1.
     -623    1    1    2    0    0 -0.20120858005E+00  0.55675281491E-01  0.15157810647E+00  0.17130019428E+03  0.17130000000E+03 0. -1.
      622    1    1    2    0    0  0.11093866909E+00 -0.19144421505E+00  0.32480581550E+01  0.33776974486E+01  0.90000000000E+00 0.  1.
</event>
<event>
 5   0  0.4857400E+02  0.9118800E+02  0.7818608E-02  0.1180000E+00
       11   -1    0    0    0    0  0.00000000000E+00  0.00000000000E+00  0.39999999673E+01  0.40000000000E+01  0.51109989000E-03 0.  1.
     -623   -1    0    0    0    0  0.00000000000E+00  0.00000000000E+00  0.12525980253E-10  0.17130000000E+03  0.17130000000E+03 0. -1.
       11    1    1    2    0    0 -0.22293583887E+00 -0.27093453412E+00  0.54022263626E+00  0.64416354133E+00  0.51109989000E-03 0.  1.
     -623    1    1    2    0    0  0.29475663940E+00  0.30473856754E-01  0.23707075338E+00  0.17130042035E+03  0.17130000000E+03 0. -1.
      622    1    1    2    0    0 -0.71820800526E-01  0.24046067736E+00  0.32227065777E+01  0.33554161070E+01  0.90000000000E+00 0.  1.
</event>
<event>
 5   0  0.4857400E+02  0.9118800E+02  0.7818608E-02  0.1180000E+00
       11   -1    0    0    0    0  0.00000000000E+00  0.00000000000E+00  0.39999999673E+01  0.40000000000E+01  0.51109989000E-03 0.  1.
     -623   -1    0    0    0    0  0.00000000000E+00  0.00000000000E+00  0.12525980253E-10  0.17130000000E+03  0.17130000000E+03 0.  1.
       11    1    1    2    0    0 -0.19649887533E-01 -0.12875406399E-01 -0.14802246600E-01  0.27771602358E-01  0.51109989000E-03 0.  1.
     -623    1    1    2    0    0 -0.18192077707E-01 -0.46897126586E-01  0.14659375469E+00  0.17130007011E+03  0.17130000000E+03 0.  1.
      622    1    1    2    0    0  0.37841965240E-01  0.59772532985E-01  0.38682084593E+01  0.39721582867E+01  0.90000000000E+00 0.  1.
</event>
<event>
 5   0  0.4857400E+02  0.9118800E+02  0.7818608E-02  0.1180000E+00
       11   -1    0    0    0    0  0.00000000000E+00  0.00000000000E+00  0.39999999673E+01  0.40000000000E+01  0.51109989000E-03 0. -1.
     -623   -1    0    0    0    0  0.00000000000E+00  0.00000000000E+00  0.12525980253E-10  0.17130000000E+03  0.17130000000E+03 0.  1.
       11    1    1    2    0    0  0.35116052852E-01 -0.19636377911E-01  0.28896662257E+00  0.29175451100E+00  0.51109989000E-03 0. -1.
     -623    1    1    2    0    0 -0.60980993933E-02  0.20683379503E+00  0.11882411142E+00  0.17130016619E+03  0.17130000000E+03 0.  1.
      622    1    1    2    0    0 -0.29017953459E-01 -0.18719741712E+00  0.35922092334E+01  0.37080792994E+01  0.90000000000E+00 0. -1.
</event>
<event>
 5   0  0.4857400E+02  0.9118800E+02  0.7818608E-02  0.1180000E+00
       11   -1    0    0    0    0  0.00000000000E+00  0.00000000000E+00  0.39999999673E+01  0.40000000000E+01  0.51109989000E-03 0.  1.
     -623   -1    0    0    0    0  0.00000000000E+00  0.00000000000E+00  0.12525980253E-10  0.17130000000E+03  0.17130000000E+03 0.  1.
       11    1    1    2    0    0  0.91511169656E-02 -0.80707307753E-01 -0.23730312472E-01  0.84621518644E-01  0.51109989000E-03 0.  1.
     -623    1    1    2    0    0 -0.43442796253E-01  0.80507246268E-01  0.21350988289E+00  0.17130015749E+03  0.17130000000E+03 0.  1.
      622    1    1    2    0    0  0.34291679287E-01  0.20006148487E-03  0.38102203969E+01  0.39152209941E+01  0.90000000000E+00 0.  1.
</event>
<event>
 5   0  0.4857400E+02  0.9118800E+02  0.7818608E-02  0.1180000E+00
       11   -1    0    0    0    0  0.00000000000E+00  0.00000000000E+00  0.39999999673E+01  0.40000000000E+01  0.51109989000E-03 0. -1.
     -623   -1    0    0    0    0  0.00000000000E+00  0.00000000000E+00  0.12525980253E-10  0.17130000000E+03  0.17130000000E+03 0.  1.
       11    1    1    2    0    0  0.82772031086E-01 -0.83075957268E-01  0.46170766216E+00  0.47636860762E+00  0.51109989000E-03 0. -1.
     -623    1    1    2    0    0 -0.31524143523E+00  0.46104615768E-01  0.14004598241E+00  0.17130035352E+03  0.17130000000E+03 0.  1.
      622    1    1    2    0    0  0.23246940414E+00  0.36971341499E-01  0.33982463228E+01  0.35232778736E+01  0.90000000000E+00 0. -1.
</event>
<event>
 5   0  0.4857400E+02  0.9118800E+02  0.7818608E-02  0.1180000E+00
       11   -1    0    0    0    0  0.00000000000E+00  0.00000000000E+00  0.39999999673E+01  0.40000000000E+01  0.51109989000E-03 0. -1.
     -623   -1    0    0    0    0  0.00000000000E+00  0.00000000000E+00  0.12525980253E-10  0.17130000000E+03  0.17130000000E+03 0.  1.
       11    1    1    2    0    0  0.28995494097E-01  0.25775790553E-01 -0.15433385358E-02  0.38830055028E-01  0.51109989000E-03 0. -1.
     -623    1    1    2    0    0 -0.76504813772E-01 -0.46126950380E-01  0.14440326485E+00  0.17130008416E+03  0.17130000000E+03 0.  1.
      622    1    1    2    0    0  0.47509319676E-01  0.20351159827E-01  0.38571400411E+01  0.39610857857E+01  0.90000000000E+00 0. -1.
</event>
<event>
 5   0  0.4857400E+02  0.9118800E+02  0.7818608E-02  0.1180000E+00
       11   -1    0    0    0    0  0.00000000000E+00  0.00000000000E+00  0.39999999673E+01  0.40000000000E+01  0.51109989000E-03 0. -1.
     -623   -1    0    0    0    0  0.00000000000E+00  0.00000000000E+00  0.12525980253E-10  0.17130000000E+03  0.17130000000E+03 0. -1.
       11    1    1    2    0    0  0.19155347458E+00  0.10261229009E-01  0.90471382514E+00  0.92482722336E+00  0.51109989000E-03 0. -1.
     -623    1    1    2    0    0 -0.34758156561E+00  0.52226655105E-01  0.16002452013E+00  0.17130043534E+03  0.17130000000E+03 0. -1.
      622    1    1    2    0    0  0.15602809103E+00 -0.62487884114E-01  0.29352616221E+01  0.30747374345E+01  0.90000000000E+00 0. -1.
</event>
<event>
 5   0  0.4857400E+02  0.9118800E+02  0.7818608E-02  0.1180000E+00
       11   -1    0    0    0    0  0.00000000000E+00  0.00000000000E+00  0.39999999673E+01  0.40000000000E+01  0.51109989000E-03 0.  1.
     -623   -1    0    0    0    0  0.00000000000E+00  0.00000000000E+00  0.12525980253E-10  0.17130000000E+03  0.17130000000E+03 0.  1.
       11    1    1    2    0    0  0.10632388731E+00  0.81583633239E-01  0.28724264843E+00  0.31696886049E+00  0.51109989000E-03 0.  1.
     -623    1    1    2    0    0  0.21201771626E-01 -0.85981003009E-01  0.14374858250E+00  0.17130008320E+03  0.17130000000E+03 0.  1.
      622    1    1    2    0    0 -0.12752565893E+00  0.43973697698E-02  0.35690087364E+01  0.36829479349E+01  0.90000000000E+00 0.  1.
</event>
<event>
 5   0  0.4857400E+02  0.9118800E+02  0.7818608E-02  0.1180000E+00
       11   -1    0    0    0    0  0.00000000000E+00  0.00000000000E+00  0.39999999673E+01  0.40000000000E+01  0.51109989000E-03 0.  1.
     -623   -1    0    0    0    0  0.00000000000E+00  0.00000000000E+00  0.12525980253E-10  0.17130000000E+03  0.17130000000E+03 0.  1.
       11    1    1    2    0    0  0.55622214441E-01 -0.40066048060E-01  0.68141480512E-01  0.96657340828E-01  0.51109989000E-03 0.  1.
     -623    1    1    2    0    0 -0.75160467498E-01  0.26828960093E-02  0.13399505289E+00  0.17130006892E+03  0.17130000000E+03 0.  1.
      622    1    1    2    0    0  0.19538253057E-01  0.37383152051E-01  0.37978634340E+01  0.39032737422E+01  0.90000000000E+00 0.  1.
</event>
<event>
 5   0  0.4857400E+02  0.9118800E+02  0.7818608E-02  0.1180000E+00
       11   -1    0    0    0    0  0.00000000000E+00  0.00000000000E+00  0.39999999673E+01  0.40000000000E+01  0.51109989000E-03 0.  1.
     -623   -1    0    0    0    0  0.00000000000E+00  0.00000000000E+00  0.12525980253E-10  0.17130000000E+03  0.17130000000E+03 0. -1.
       11    1    1    2    0    0  0.14433968958E+00 -0.16270415058E+00  0.67307363187E+00  0.70734359525E+00  0.51109989000E-03 0.  1.
     -623    1    1    2    0    0  0.14588176011E+00  0.24331999192E+00  0.17435158998E+00  0.17130032366E+03  0.17130000000E+03 0. -1.
      622    1    1    2    0    0 -0.29022144969E+00 -0.80615841341E-01  0.31525747455E+01  0.32923327489E+01  0.90000000000E+00 0.  1.
</event>
<event>
 5   0  0.4857400E+02  0.9118800E+02  0.7818608E-02  0.1180000E+00
       11   -1    0    0    0    0  0.00000000000E+00  0.00000000000E+00  0.39999999673E+01  0.40000000000E+01  0.51109989000E-03 0.  1.
     -623   -1    0    0    0    0  0.00000000000E+00  0.00000000000E+00  0.12525980253E-10  0.17130000000E+03  0.17130000000E+03 0. -1.
       11    1    1    2    0    0 -0.22156025299E-01  0.56652861940E-01  0.38813816896E-01  0.72160999357E-01  0.51109989000E-03 0.  1.
     -623    1    1    2    0    0 -0.18677665766E+00 -0.82804365343E-01  0.14383746877E+00  0.17130018223E+03  0.17130000000E+03 0. -1.
      622    1    1    2    0    0  0.20893268296E+00  0.26151503403E-01  0.38173486817E+01  0.39276567728E+01  0.90000000000E+00 0.  1.
</event>
<event>
 5   0  0.4857400E+02  0.9118800E+02  0.7818608E-02  0.1180000E+00
       11   -1    0    0    0    0  0.00000000000E+00  0.00000000000E+00  0.39999999673E+01  0.40000000000E+01  0.51109989000E-03 0.  1.
     -623   -1    0    0    0    0  0.00000000000E+00  0.00000000000E+00  0.12525980253E-10  0.17130000000E+03  0.17130000000E+03 0.  1.
       11    1    1    2    0    0 -0.19333481907E-01 -0.21366336905E-01  0.11730036321E+01  0.11733576122E+01  0.51109989000E-03 0.  1.
     -623    1    1    2    0    0  0.94157738124E-01 -0.72171629086E-01  0.15025308890E+00  0.17130010698E+03  0.17130000000E+03 0.  1.
      622    1    1    2    0    0 -0.74824256217E-01  0.93537965991E-01  0.26767432463E+01  0.28265354106E+01  0.90000000000E+00 0.  1.
</event>
<event>
 5   0  0.4857400E+02  0.9118800E+02  0.7818608E-02  0.1180000E+00
       11   -1    0    0    0    0  0.00000000000E+00  0.00000000000E+00  0.39999999673E+01  0.40000000000E+01  0.51109989000E-03 0.  1.
     -623   -1    0    0    0    0  0.00000000000E+00  0.00000000000E+00  0.12525980253E-10  0.17130000000E+03  0.17130000000E+03 0. -1.
       11    1    1    2    0    0  0.13004440562E+00 -0.51271827246E-01  0.44080923024E+00  0.46244284662E+00  0.51109989000E-03 0.  1.
     -623    1    1    2    0    0 -0.84164574391E-01 -0.11207067348E-01  0.13899275938E+00  0.17130007743E+03  0.17130000000E+03 0. -1.
      622    1    1    2    0    0 -0.45879831224E-01  0.62478894594E-01  0.34201979777E+01  0.35374797212E+01  0.90000000000E+00 0.  1.
</event>
<event>
 5   0  0.4857400E+02  0.9118800E+02  0.7818608E-02  0.1180000E+00
       11   -1    0    0    0    0  0.00000000000E+00  0.00000000000E+00  0.39999999673E+01  0.40000000000E+01  0.51109989000E-03 0. -1.
     -623   -1    0    0    0    0  0.00000000000E+00  0.00000000000E+00  0.12525980253E-10  0.17130000000E+03  0.17130000000E+03 0. -1.
       11    1    1    2    0    0  0.20754668412E-01  0.28905172783E-01 -0.16359760920E-01  0.39168460175E-01  0.51109989000E-03 0. -1.
     -623    1    1    2    0    0 -0.31927497182E-01 -0.50295368507E-02  0.15930376911E+00  0.17130007712E+03  0.17130000000E+03 0. -1.
      622    1    1    2    0    0  0.11172828769E-01 -0.23875635933E-01  0.38570559592E+01  0.39607544168E+01  0.90000000000E+00 0. -1.
</event>
<event>
 5   0  0.4857400E+02  0.9118800E+02  0.7818608E-02  0.1180000E+00
       11   -1    0    0    0    0  0.00000000000E+00  0.00000000000E+00  0.39999999673E+01  0.40000000000E+01  0.51109989000E-03 0. -1.
     -623   -1    0    0    0    0  0.00000000000E+00  0.00000000000E+00  0.12525980253E-10  0.17130000000E+03  0.17130000000E+03 0. -1.
       11    1    1    2    0    0  0.59812193972E-01 -0.14141273032E-01  0.59396753418E-01  0.85473444357E-01  0.51109989000E-03 0. -1.
     -623    1    1    2    0    0 -0.25366147364E-01  0.30388605424E-01  0.13118875064E+00  0.17130005481E+03  0.17130000000E+03 0. -1.
      622    1    1    2    0    0 -0.34446046608E-01 -0.16247332392E-01  0.38094144633E+01  0.39144717471E+01  0.90000000000E+00 0. -1.
</event>
<event>
 5   0  0.4857400E+02  0.9118800E+02  0.7818608E-02  0.1180000E+00
       11   -1    0    0    0    0  0.00000000000E+00  0.00000000000E+00  0.39999999673E+01  0.40000000000E+01  0.51109989000E-03 0.  1.
     -623   -1    0    0    0    0  0.00000000000E+00  0.00000000000E+00  0.12525980253E-10  0.17130000000E+03  0.17130000000E+03 0. -1.
       11    1    1    2    0    0  0.41791855540E-01 -0.13740826496E+00  0.23328906510E+00  0.27395554308E+00  0.51109989000E-03 0.  1.
     -623    1    1    2    0    0 -0.16939541837E+00  0.16328855568E+00  0.15357684185E+00  0.17130023043E+03  0.17130000000E+03 0. -1.
      622    1    1    2    0    0  0.12760356283E+00 -0.25880290717E-01  0.36131340604E+01  0.37258140315E+01  0.90000000000E+00 0.  1.
</event>
<event>
 5   0  0.4857400E+02  0.9118800E+02  0.7818608E-02  0.1180000E+00
       11   -1    0    0    0    0  0.00000000000E+00  0.00000000000E+00  0.39999999673E+01  0.40000000000E+01  0.51109989000E-03 0.  1.
     -623   -1    0    0    0    0  0.00000000000E+00  0.00000000000E+00  0.12525980253E-10  0.17130000000E+03  0.17130000000E+03 0. -1.
       11    1    1    2    0    0 -0.33250386230E-01 -0.10717023503E+00  0.12516326789E+00  0.16809863864E+00  0.51109989000E-03 0.  1.
     -623    1    1    2    0    0 -0.58722194519E-01  0.15286724510E+00  0.15169202298E+00  0.17130014544E+03  0.17130000000E+03 0. -1.
      622    1    1    2    0    0  0.91972580748E-01 -0.45697010072E-01  0.37231446765E+01  0.38317559231E+01  0.90000000000E+00 0.  1.
</event>
<event>
 5   0  0.4857400E+02  0.9118800E+02  0.7818608E-02  0.1180000E+00
       11   -1    0    0    0    0  0.00000000000E+00  0.00000000000E+00  0.39999999673E+01  0.40000000000E+01  0.51109989000E-03 0. -1.
     -623   -1    0    0    0    0  0.00000000000E+00  0.00000000000E+00  0.12525980253E-10  0.17130000000E+03  0.17130000000E+03 0. -1.
       11    1    1    2    0    0 -0.31909717729E-01 -0.11984272276E+00  0.22563833760E+00  0.25747510346E+00  0.51109989000E-03 0. -1.
     -623    1    1    2    0    0 -0.10460014056E+00  0.21643373408E+00  0.14575290328E+00  0.17130023067E+03  0.17130000000E+03 0. -1.
      622    1    1    2    0    0  0.13650985829E+00 -0.96591011319E-01  0.36286087265E+01  0.37422942234E+01  0.90000000000E+00 0. -1.
</event>
<event>
 5   0  0.4857400E+02  0.9118800E+02  0.7818608E-02  0.1180000E+00
       11   -1    0    0    0    0  0.00000000000E+00  0.00000000000E+00  0.39999999673E+01  0.40000000000E+01  0.51109989000E-03 0. -1.
     -623   -1    0    0    0    0  0.00000000000E+00  0.00000000000E+00  0.12525980253E-10  0.17130000000E+03  0.17130000000E+03 0.  1.
       11    1    1    2    0    0 -0.53023923970E-01 -0.27576523729E-01 -0.19525903840E-01  0.62877049215E-01  0.51109989000E-03 0. -1.
     -623    1    1    2    0    0  0.10530163373E-01  0.20758549889E-01  0.18699814406E+00  0.17130010365E+03  0.17130000000E+03 0.  1.
      622    1    1    2    0    0  0.42493760597E-01  0.68179738399E-02  0.38325277271E+01  0.39370193019E+01  0.90000000000E+00 0. -1.
</event>
<event>
 5   0  0.4857400E+02  0.9118800E+02  0.7818608E-02  0.1180000E+00
       11   -1    0    0    0    0  0.00000000000E+00  0.00000000000E+00  0.39999999673E+01  0.40000000000E+01  0.51109989000E-03 0. -1.
     -623   -1    0    0    0    0  0.00000000000E+00  0.00000000000E+00  0.12525980253E-10  0.17130000000E+03  0.17130000000E+03 0.  1.
       11    1    1    2    0    0 -0.82863900551E-01  0.39873184111E-01  0.36691870263E+00  0.37826695915E+00  0.51109989000E-03 0. -1.
     -623    1    1    2    0    0 -0.58972436626E-01 -0.15257030753E+00  0.12976707161E+00  0.17130012725E+03  0.17130000000E+03 0.  1.
      622    1    1    2    0    0  0.14183633718E+00  0.11269712342E+00  0.35033141931E+01  0.36216057936E+01  0.90000000000E+00 0. -1.
</event>
<event>
 5   0  0.4857400E+02  0.9118800E+02  0.7818608E-02  0.1180000E+00
       11   -1    0    0    0    0  0.00000000000E+00  0.00000000000E+00  0.39999999673E+01  0.40000000000E+01  0.51109989000E-03 0. -1.
     -623   -1    0    0    0    0  0.00000000000E+00  0.00000000000E+00  0.12525980253E-10  0.17130000000E+03  0.17130000000E+03 0.  1.
       11    1    1    2    0    0 -0.26892792406E-01 -0.33092648546E-01  0.53297154998E-01  0.68258286113E-01  0.51109989000E-03 0. -1.
     -623    1    1    2    0    0  0.15970325243E+00  0.29388482304E-01  0.12178517502E+00  0.17130012026E+03  0.17130000000E+03 0.  1.
      622    1    1    2    0    0 -0.13281046003E+00  0.37041662413E-02  0.38249176373E+01  0.39316214558E+01  0.90000000000E+00 0. -1.
</event>
<event>
 5   0  0.4857400E+02  0.9118800E+02  0.7818608E-02  0.1180000E+00
       11   -1    0    0    0    0  0.00000000000E+00  0.00000000000E+00  0.39999999673E+01  0.40000000000E+01  0.51109989000E-03 0.  1.
     -623   -1    0    0    0    0  0.00000000000E+00  0.00000000000E+00  0.12525980253E-10  0.17130000000E+03  0.17130000000E+03 0.  1.
       11    1    1    2    0    0 -0.57254612173E-01  0.65419511073E-01 -0.16952708587E-01  0.88574593398E-01  0.51109989000E-03 0.  1.
     -623    1    1    2    0    0 -0.29975430126E+00  0.35895560335E+00  0.25194848292E+00  0.17130082364E+03  0.17130000000E+03 0.  1.
      622    1    1    2    0    0  0.35700891343E+00 -0.42437511443E+00  0.37650041930E+01  0.39106017664E+01  0.90000000000E+00 0.  1.
</event>
<event>
 5   0  0.4857400E+02  0.9118800E+02  0.7818608E-02  0.1180000E+00
       11   -1    0    0    0    0  0.00000000000E+00  0.00000000000E+00  0.39999999673E+01  0.40000000000E+01  0.51109989000E-03 0.  1.
     -623   -1    0    0    0    0  0.00000000000E+00  0.00000000000E+00  0.12525980253E-10  0.17130000000E+03  0.17130000000E+03 0.  1.
       11    1    1    2    0    0 -0.38852805253E+00  0.92650278054E-01  0.27746739489E+00  0.48633994086E+00  0.51109989000E-03 0.  1.
     -623    1    1    2    0    0  0.59244946324E+00 -0.40013526441E-01  0.33403242067E+00  0.17130135485E+03  0.17130000000E+03 0.  1.
      622    1    1    2    0    0 -0.20392141072E+00 -0.52636751614E-01  0.33885001518E+01  0.35123052043E+01  0.90000000000E+00 0.  1.
</event>
<event>
 5   0  0.4857400E+02  0.9118800E+02  0.7818608E-02  0.1180000E+00
       11   -1    0    0    0    0  0.00000000000E+00  0.00000000000E+00  0.39999999673E+01  0.40000000000E+01  0.51109989000E-03 0.  1.
     -623   -1    0    0    0    0  0.00000000000E+00  0.00000000000E+00  0.12525980253E-10  0.17130000000E+03  0.17130000000E+03 0.  1.
       11    1    1    2    0    0  0.21948189952E+00 -0.29380361467E-01  0.43216452168E+00  0.48559442426E+00  0.51109989000E-03 0.  1.
     -623    1    1    2    0    0 -0.12378476687E+00 -0.67205590167E+00  0.24683445596E+00  0.17130154088E+03  0.17130000000E+03 0.  1.
      622    1    1    2    0    0 -0.95697132646E-01  0.70143626314E+00  0.33210009897E+01  0.35128646923E+01  0.90000000000E+00 0.  1.
</event>
<event>
 5   0  0.4857400E+02  0.9118800E+02  0.7818608E-02  0.1180000E+00
       11   -1    0    0    0    0  0.00000000000E+00  0.00000000000E+00  0.39999999673E+01  0.40000000000E+01  0.51109989000E-03 0.  1.
     -623   -1    0    0    0    0  0.00000000000E+00  0.00000000000E+00  0.12525980253E-10  0.17130000000E+03  0.17130000000E+03 0. -1.
       11    1    1    2    0    0  0.11746988533E+00 -0.13726840215E+00  0.35642436885E-01  0.18415328593E+00  0.51109989000E-03 0.  1.
     -623    1    1    2    0    0 -0.87129407008E-01  0.11042224568E+00  0.25664435328E+00  0.17130025000E+03  0.17130000000E+03 0. -1.
      622    1    1    2    0    0 -0.30340478321E-01  0.26846156473E-01  0.37077131772E+01  0.38155967115E+01  0.90000000000E+00 0.  1.
</event>
<event>
 5   0  0.4857400E+02  0.9118800E+02  0.7818608E-02  0.1180000E+00
       11   -1    0    0    0    0  0.00000000000E+00  0.00000000000E+00  0.39999999673E+01  0.40000000000E+01  0.51109989000E-03 0.  1.
     -623   -1    0    0    0    0  0.00000000000E+00  0.00000000000E+00  0.12525980253E-10  0.17130000000E+03  0.17130000000E+03 0. -1.
       11    1    1    2    0    0 -0.48291540177E-01  0.76734831123E-01  0.83208053753E+00  0.83700572837E+00  0.51109989000E-03 0.  1.
     -623    1    1    2    0    0 -0.43419412607E-02 -0.10372636749E+00  0.13633705189E+00  0.17130008571E+03  0.17130000000E+03 0. -1.
      622    1    1    2    0    0  0.52633481438E-01  0.26991536372E-01  0.30315823779E+01  0.31629085571E+01  0.90000000000E+00 0.  1.
</event>
<event>
 5   0  0.4857400E+02  0.9118800E+02  0.7818608E-02  0.1180000E+00
       11   -1    0    0    0    0  0.00000000000E+00  0.00000000000E+00  0.39999999673E+01  0.40000000000E+01  0.51109989000E-03 0.  1.
     -623   -1    0    0    0    0  0.00000000000E+00  0.00000000000E+00  0.12525980253E-10  0.17130000000E+03  0.17130000000E+03 0. -1.
       11    1    1    2    0    0 -0.84607936552E-01  0.68963898719E-02  0.39033357362E+00  0.39945791147E+00  0.51109989000E-03 0.  1.
     -623    1    1    2    0    0 -0.73799344559E-01 -0.64276503480E-01  0.12757297204E+00  0.17130007546E+03  0.17130000000E+03 0. -1.
      622    1    1    2    0    0  0.15840728111E+00  0.57380113608E-01  0.34820934217E+01  0.36004666283E+01  0.90000000000E+00 0.  1.
</event>
<event>
 5   0  0.4857400E+02  0.9118800E+02  0.7818608E-02  0.1180000E+00
       11   -1    0    0    0    0  0.00000000000E+00  0.00000000000E+00  0.39999999673E+01  0.40000000000E+01  0.51109989000E-03 0.  1.
     -623   -1    0    0    0    0  0.00000000000E+00  0.00000000000E+00  0.12525980253E-10  0.17130000000E+03  0.17130000000E+03 0. -1.
       11    1    1    2    0    0 -0.60767875968E-02 -0.73009256620E-01  0.31314222949E-02  0.73330388846E-01  0.51109989000E-03 0.  1.
     -623    1    1    2    0    0 -0.42953184279E-01  0.65871688619E-01  0.17516286679E+00  0.17130010761E+03  0.17130000000E+03 0. -1.
      622    1    1    2    0    0  0.49029971876E-01  0.71375680012E-02  0.38217056783E+01  0.39265620044E+01  0.90000000000E+00 0.  1.
</event>
<event>
 5   0  0.4857400E+02  0.9118800E+02  0.7818608E-02  0.1180000E+00
       11   -1    0    0    0    0  0.00000000000E+00  0.00000000000E+00  0.39999999673E+01  0.40000000000E+01  0.51109989000E-03 0. -1.
     -623   -1    0    0    0    0  0.00000000000E+00  0.00000000000E+00  0.12525980253E-10  0.17130000000E+03  0.17130000000E+03 0.  1.
       11    1    1    2    0    0 -0.40852740003E+00 -0.21746191667E+00  0.98797075138E+00  0.10909953201E+01  0.51109989000E-03 0. -1.
     -623    1    1    2    0    0  0.43593875851E+00  0.10295802854E-01  0.25443767018E+00  0.17130074398E+03  0.17130000000E+03 0.  1.
      622    1    1    2    0    0 -0.27411358480E-01  0.20716611382E+00  0.27575915458E+01  0.29082607027E+01  0.90000000000E+00 0. -1.
</event>
<event>
 5   0  0.4857400E+02  0.9118800E+02  0.7818608E-02  0.1180000E+00
       11   -1    0    0    0    0  0.00000000000E+00  0.00000000000E+00  0.39999999673E+01  0.40000000000E+01  0.51109989000E-03 0.  1.
     -623   -1    0    0    0    0  0.00000000000E+00  0.00000000000E+00  0.12525980253E-10  0.17130000000E+03  0.17130000000E+03 0. -1.
       11    1    1    2    0    0  0.35187048633E-01  0.15995734438E+00  0.17441562185E+00  0.23926042460E+00  0.51109989000E-03 0.  1.
     -623    1    1    2    0    0  0.68794021952E-01 -0.28150832295E-01  0.17809760930E+00  0.17130010871E+03  0.17130000000E+03 0. -1.
      622    1    1    2    0    0 -0.10398107058E+00 -0.13180651208E+00  0.36474867362E+01  0.37606308660E+01  0.90000000000E+00 0.  1.
</event>
<event>
 5   0  0.4857400E+02  0.9118800E+02  0.7818608E-02  0.1180000E+00
       11   -1    0    0    0    0  0.00000000000E+00  0.00000000000E+00  0.39999999673E+01  0.40000000000E+01  0.51109989000E-03 0.  1.
     -623   -1    0    0    0    0  0.00000000000E+00  0.00000000000E+00  0.12525980253E-10  0.17130000000E+03  0.17130000000E+03 0. -1.
       11    1    1    2    0    0 -0.19258461600E-01 -0.19285770648E-02 -0.11227038405E-01  0.22381138640E-01  0.51109989000E-03 0.  1.
     -623    1    1    2    0    0  0.88079130846E-01  0.12561035353E-01  0.13747174141E+00  0.17130007827E+03  0.17130000000E+03 0. -1.
      622    1    1    2    0    0 -0.68820669246E-01 -0.10632458288E-01  0.38737552644E+01  0.39775405946E+01  0.90000000000E+00 0.  1.
</event>
<event>
 5   0  0.4857400E+02  0.9118800E+02  0.7818608E-02  0.1180000E+00
       11   -1    0    0    0    0  0.00000000000E+00  0.00000000000E+00  0.39999999673E+01  0.40000000000E+01  0.51109989000E-03 0. -1.
     -623   -1    0    0    0    0  0.00000000000E+00  0.00000000000E+00  0.12525980253E-10  0.17130000000E+03  0.17130000000E+03 0. -1.
       11    1    1    2    0    0  0.23021599011E+00  0.95594648752E-01  0.15614946037E+00  0.29414393444E+00  0.51109989000E-03 0. -1.
     -623    1    1    2    0    0 -0.50826333303E-01 -0.37905298918E+00  0.26528185440E+00  0.17130063234E+03  0.17130000000E+03 0. -1.
      622    1    1    2    0    0 -0.17938965681E+00  0.28345834043E+00  0.35785686526E+01  0.37052237289E+01  0.90000000000E+00 0. -1.
</event>
<event>
 5   0  0.4857400E+02  0.9118800E+02  0.7818608E-02  0.1180000E+00
       11   -1    0    0    0    0  0.00000000000E+00  0.00000000000E+00  0.39999999673E+01  0.40000000000E+01  0.51109989000E-03 0.  1.
     -623   -1    0    0    0    0  0.00000000000E+00  0.00000000000E+00  0.12525980253E-10  0.17130000000E+03  0.17130000000E+03 0. -1.
       11    1    1    2    0    0  0.72647486999E-01 -0.41894339958E-01  0.11768524740E+00  0.14450907157E+00  0.51109989000E-03 0.  1.
     -623    1    1    2    0    0 -0.30969737942E-01  0.41818124554E-01  0.13363356753E+00  0.17130006003E+03  0.17130000000E+03 0. -1.
      622    1    1    2    0    0 -0.41677749057E-01  0.76215404619E-04  0.37486811524E+01  0.38554308998E+01  0.90000000000E+00 0.  1.
</event>
<event>
 5   0  0.4857400E+02  0.9118800E+02  0.7818608E-02  0.1180000E+00
       11   -1    0    0    0    0  0.00000000000E+00  0.00000000000E+00  0.39999999673E+01  0.40000000000E+01  0.51109989000E-03 0.  1.
     -623   -1    0    0    0    0  0.00000000000E+00  0.00000000000E+00  0.12525980253E-10  0.17130000000E+03  0.17130000000E+03 0. -1.
       11    1    1    2    0    0 -0.29868037676E-01  0.18928637397E+00  0.51590066557E-02  0.19169848100E+00  0.51109989000E-03 0.  1.
     -623    1    1    2    0    0  0.14245735242E-01 -0.91603084736E-01  0.29602558243E+00  0.17130028087E+03  0.17130000000E+03 0. -1.
      622    1    1    2    0    0  0.15622302434E-01 -0.97683289233E-01  0.36988153783E+01  0.38080206517E+01  0.90000000000E+00 0.  0.
</event>
<event>
 5   0  0.4857400E+02  0.9118800E+02  0.7818608E-02  0.1180000E+00
       11   -1    0    0    0    0  0.00000000000E+00  0.00000000000E+00  0.39999999673E+01  0.40000000000E+01  0.51109989000E-03 0.  1.
     -623   -1    0    0    0    0  0.00000000000E+00  0.00000000000E+00  0.12525980253E-10  0.17130000000E+03  0.17130000000E+03 0. -1.
       11    1    1    2    0    0  0.54095788145E-01 -0.12747323233E+00  0.10884961327E+00  0.17613710224E+00  0.51109989000E-03 0.  1.
     -623    1    1    2    0    0  0.14553753485E-01  0.94823396302E-01  0.17560801501E+00  0.17130011688E+03  0.17130000000E+03 0. -1.
      622    1    1    2    0    0 -0.68649541630E-01  0.32649836029E-01  0.37155423391E+01  0.38237460225E+01  0.90000000000E+00 0.  1.
</event>
<event>
 5   0  0.4857400E+02  0.9118800E+02  0.7818608E-02  0.1180000E+00
       11   -1    0    0    0    0  0.00000000000E+00  0.00000000000E+00  0.39999999673E+01  0.40000000000E+01  0.51109989000E-03 0. -1.
     -623   -1    0    0    0    0  0.00000000000E+00  0.00000000000E+00  0.12525980253E-10  0.17130000000E+03  0.17130000000E+03 0. -1.
       11    1    1    2    0    0 -0.16395294672E-01 -0.10823698575E+00  0.63745716968E-01  0.12668002378E+00  0.51109989000E-03 0. -1.
     -623    1    1    2    0    0  0.21597958920E-01  0.80129036079E-01  0.16916150394E+00  0.17130010363E+03  0.17130000000E+03 0. -1.
      622    1    1    2    0    0 -0.52026642479E-02  0.28107949668E-01  0.37670927465E+01  0.38732163488E+01  0.90000000000E+00 0. -1.
</event>
<event>
 5   0  0.4857400E+02  0.9118800E+02  0.7818608E-02  0.1180000E+00
       11   -1    0    0    0    0  0.00000000000E+00  0.00000000000E+00  0.39999999673E+01  0.40000000000E+01  0.51109989000E-03 0. -1.
     -623   -1    0    0    0    0  0.00000000000E+00  0.00000000000E+00  0.12525980253E-10  0.17130000000E+03  0.17130000000E+03 0. -1.
       11    1    1    2    0    0  0.93941738423E-01 -0.59896354049E-01  0.20047360954E+00  0.22935246410E+00  0.51109989000E-03 0. -1.
     -623    1    1    2    0    0  0.37135390468E-01  0.15293655935E+00  0.14152703294E+00  0.17130013076E+03  0.17130000000E+03 0. -1.
      622    1    1    2    0    0 -0.13107712889E+00 -0.93040205300E-01  0.36579993249E+01  0.37705167755E+01  0.90000000000E+00 0. -1.
</event>
<event>
 5   0  0.4857400E+02  0.9118800E+02  0.7818608E-02  0.1180000E+00
       11   -1    0    0    0    0  0.00000000000E+00  0.00000000000E+00  0.39999999673E+01  0.40000000000E+01  0.51109989000E-03 0.  1.
     -623   -1    0    0    0    0  0.00000000000E+00  0.00000000000E+00  0.12525980253E-10  0.17130000000E+03  0.17130000000E+03 0. -1.
       11    1    1    2    0    0  0.80699074454E-01  0.38078682043E-01  0.40713808259E-01  0.98082628686E-01  0.51109989000E-03 0.  1.
     -623    1    1    2    0    0 -0.58676987164E-01 -0.11812227422E+00  0.16362269082E+00  0.17130012892E+03  0.17130000000E+03 0. -1.
      622    1    1    2    0    0 -0.22022087290E-01  0.80043592172E-01  0.37956634683E+01  0.39017884506E+01  0.90000000000E+00 0.  1.
</event>
<event>
 5   0  0.4857400E+02  0.9118800E+02  0.7818608E-02  0.1180000E+00
       11   -1    0    0    0    0  0.00000000000E+00  0.00000000000E+00  0.39999999673E+01  0.40000000000E+01  0.51109989000E-03 0. -1.
     -623   -1    0    0    0    0  0.00000000000E+00  0.00000000000E+00  0.12525980253E-10  0.17130000000E+03  0.17130000000E+03 0. -1.
       11    1    1    2    0    0 -0.23035218447E-02 -0.29868432370E-01  0.60017591479E-02  0.30556698104E-01  0.51109989000E-03 0. -1.
     -623    1    1    2    0    0  0.31346585931E-01  0.57774798398E-01  0.12820244422E+00  0.17130006058E+03  0.17130000000E+03 0. -1.
      622    1    1    2    0    0 -0.29043064086E-01 -0.27906366029E-01  0.38657957640E+01  0.39693827170E+01  0.90000000000E+00 0. -1.
</event>
<event>
 5   0  0.4857400E+02  0.9118800E+02  0.7818608E-02  0.1180000E+00
       11   -1    0    0    0    0  0.00000000000E+00  0.00000000000E+00  0.39999999673E+01  0.40000000000E+01  0.51109989000E-03 0.  1.
     -623   -1    0    0    0    0  0.00000000000E+00  0.00000000000E+00  0.12525980253E-10  0.17130000000E+03  0.17130000000E+03 0.  1.
       11    1    1    2    0    0 -0.13405464130E+00  0.17387445868E+00 -0.65509867395E-01  0.22911738953E+00  0.51109989000E-03 0.  1.
     -623    1    1    2    0    0  0.22981066070E+00 -0.67708102709E-01  0.40706694276E+00  0.17130065120E+03  0.17130000000E+03 0.  1.
      622    1    1    2    0    0 -0.95756019394E-01 -0.10616635597E+00  0.36584428920E+01  0.37702314126E+01  0.90000000000E+00 0.  1.
</event>
<event>
 5   0  0.4857400E+02  0.9118800E+02  0.7818608E-02  0.1180000E+00
       11   -1    0    0    0    0  0.00000000000E+00  0.00000000000E+00  0.39999999673E+01  0.40000000000E+01  0.51109989000E-03 0. -1.
     -623   -1    0    0    0    0  0.00000000000E+00  0.00000000000E+00  0.12525980253E-10  0.17130000000E+03  0.17130000000E+03 0.  1.
       11    1    1    2    0    0  0.82034294504E-01 -0.35575133102E-01  0.24278183237E+00  0.25872474741E+00  0.51109989000E-03 0. -1.
     -623    1    1    2    0    0  0.30377137277E-01  0.85176474285E-01  0.12796095556E+00  0.17130007166E+03  0.17130000000E+03 0.  1.
      622    1    1    2    0    0 -0.11241143178E+00 -0.49601341183E-01  0.36292571794E+01  0.37412035894E+01  0.90000000000E+00 0. -1.
</event>
<event>
 5   0  0.4857400E+02  0.9118800E+02  0.7818608E-02  0.1180000E+00
       11   -1    0    0    0    0  0.00000000000E+00  0.00000000000E+00  0.39999999673E+01  0.40000000000E+01  0.51109989000E-03 0. -1.
     -623   -1    0    0    0    0  0.00000000000E+00  0.00000000000E+00  0.12525980253E-10  0.17130000000E+03  0.17130000000E+03 0. -1.
       11    1    1    2    0    0  0.18119434169E-01  0.51247045991E-01  0.97773416387E-01  0.11186811785E+00  0.51109989000E-03 0. -1.
     -623    1    1    2    0    0 -0.25972434738E+00 -0.15028660210E+00  0.12903610173E+00  0.17130031142E+03  0.17130000000E+03 0. -1.
      622    1    1    2    0    0  0.24160491321E+00  0.99039556113E-01  0.37731904492E+01  0.38878204606E+01  0.90000000000E+00 0. -1.
</event>
<event>
 5   0  0.4857400E+02  0.9118800E+02  0.7818608E-02  0.1180000E+00
       11   -1    0    0    0    0  0.00000000000E+00  0.00000000000E+00  0.39999999673E+01  0.40000000000E+01  0.51109989000E-03 0.  1.
     -623   -1    0    0    0    0  0.00000000000E+00  0.00000000000E+00  0.12525980253E-10  0.17130000000E+03  0.17130000000E+03 0.  1.
       11    1    1    2    0    0  0.30752879737E-01  0.32395892912E-02  0.38781211932E-01  0.49603207284E-01  0.51109989000E-03 0.  1.
     -623    1    1    2    0    0 -0.13520851679E+00 -0.35873145868E-01  0.11636565549E+00  0.17130009664E+03  0.17130000000E+03 0.  1.
      622    1    1    2    0    0  0.10445563706E+00  0.32633556576E-01  0.38448530999E+01  0.39503001518E+01  0.90000000000E+00 0.  1.
</event>
<event>
 5   0  0.4857400E+02  0.9118800E+02  0.7818608E-02  0.1180000E+00
       11   -1    0    0    0    0  0.00000000000E+00  0.00000000000E+00  0.39999999673E+01  0.40000000000E+01  0.51109989000E-03 0. -1.
     -623   -1    0    0    0    0  0.00000000000E+00  0.00000000000E+00  0.12525980253E-10  0.17130000000E+03  0.17130000000E+03 0. -1.
       11    1    1    2    0    0  0.38012753269E+00  0.17814551130E-01  0.58391160225E+00  0.69697009965E+00  0.51109989000E-03 0. -1.
     -623    1    1    2    0    0 -0.63092455885E+00  0.28734503187E-01  0.24969471687E+00  0.17130134628E+03  0.17130000000E+03 0. -1.
      622    1    1    2    0    0  0.25079702616E+00 -0.46549054317E-01  0.31663936482E+01  0.33016836157E+01  0.90000000000E+00 0. -1.
</event>
<event>
 5   0  0.4857400E+02  0.9118800E+02  0.7818608E-02  0.1180000E+00
       11   -1    0    0    0    0  0.00000000000E+00  0.00000000000E+00  0.39999999673E+01  0.40000000000E+01  0.51109989000E-03 0.  1.
     -623   -1    0    0    0    0  0.00000000000E+00  0.00000000000E+00  0.12525980253E-10  0.17130000000E+03  0.17130000000E+03 0. -1.
       11    1    1    2    0    0 -0.88786055592E-01  0.60032154822E-02  0.11975461881E+00  0.14919930366E+00  0.51109989000E-03 0.  1.
     -623    1    1    2    0    0  0.16149857582E-01 -0.79818395249E-01  0.13760369090E+00  0.17130007463E+03  0.17130000000E+03 0. -1.
      622    1    1    2    0    0  0.72636198010E-01  0.73815179767E-01  0.37426416577E+01  0.38507260712E+01  0.90000000000E+00 0.  1.
</event>
<event>
 5   0  0.4857400E+02  0.9118800E+02  0.7818608E-02  0.1180000E+00
       11   -1    0    0    0    0  0.00000000000E+00  0.00000000000E+00  0.39999999673E+01  0.40000000000E+01  0.51109989000E-03 0.  1.
     -623   -1    0    0    0    0  0.00000000000E+00  0.00000000000E+00  0.12525980253E-10  0.17130000000E+03  0.17130000000E+03 0. -1.
       11    1    1    2    0    0 -0.20022264511E+00 -0.59549175215E-01  0.60965462609E-02  0.20898000139E+00  0.51109989000E-03 0.  1.
     -623    1    1    2    0    0  0.14366409727E+00  0.35508684838E-01  0.31213549146E+00  0.17130034830E+03  0.17130000000E+03 0. -1.
      622    1    1    2    0    0  0.56558547834E-01  0.24040490377E-01  0.36817679296E+01  0.37906716954E+01  0.90000000000E+00 0.  0.
</event>
<event>
 5   0  0.4857400E+02  0.9118800E+02  0.7818608E-02  0.1180000E+00
       11   -1    0    0    0    0  0.00000000000E+00  0.00000000000E+00  0.39999999673E+01  0.40000000000E+01  0.51109989000E-03 0.  1.
     -623   -1    0    0    0    0  0.00000000000E+00  0.00000000000E+00  0.12525980253E-10  0.17130000000E+03  0.17130000000E+03 0.  1.
       11    1    1    2    0    0 -0.55645610902E-01  0.42030019201E-02  0.13871195830E+00  0.14951711553E+00  0.51109989000E-03 0.  1.
     -623    1    1    2    0    0  0.72824352841E-01  0.42521574286E-01  0.11785802181E+00  0.17130006130E+03  0.17130000000E+03 0.  1.
      622    1    1    2    0    0 -0.17178741939E-01 -0.46724576206E-01  0.37434299873E+01  0.38504215827E+01  0.90000000000E+00 0.  1.
</event>
<event>
 5   0  0.4857400E+02  0.9118800E+02  0.7818608E-02  0.1180000E+00
       11   -1    0    0    0    0  0.00000000000E+00  0.00000000000E+00  0.39999999673E+01  0.40000000000E+01  0.51109989000E-03 0. -1.
     -623   -1    0    0    0    0  0.00000000000E+00  0.00000000000E+00  0.12525980253E-10  0.17130000000E+03  0.17130000000E+03 0.  1.
       11    1    1    2    0    0 -0.32910421408E+00 -0.15066236940E+00  0.77838550602E+00  0.85842471451E+00  0.51109989000E-03 0. -1.
     -623    1    1    2    0    0  0.54420066045E-01  0.18493055365E+00  0.22473911444E+00  0.17130025589E+03  0.17130000000E+03 0.  1.
      622    1    1    2    0    0  0.27468414804E+00 -0.34268184252E-01  0.29968753469E+01  0.31413193939E+01  0.90000000000E+00 0. -1.
</event>
<event>
 5   0  0.4857400E+02  0.9118800E+02  0.7818608E-02  0.1180000E+00
       11   -1    0    0    0    0  0.00000000000E+00  0.00000000000E+00  0.39999999673E+01  0.40000000000E+01  0.51109989000E-03 0.  1.
     -623   -1    0    0    0    0  0.00000000000E+00  0.00000000000E+00  0.12525980253E-10  0.17130000000E+03  0.17130000000E+03 0.  1.
       11    1    1    2    0    0  0.58914871214E-01 -0.42033308405E-01  0.84033425092E-01  0.11090373673E+00  0.51109989000E-03 0.  1.
     -623    1    1    2    0    0 -0.65528150604E-01  0.40136835141E-01  0.13251710210E+00  0.17130006849E+03  0.17130000000E+03 0.  1.
      622    1    1    2    0    0  0.66132793895E-02  0.18964732642E-02  0.37834494402E+01  0.38890277703E+01  0.90000000000E+00 0.  1.
</event>
<event>
 5   0  0.4857400E+02  0.9118800E+02  0.7818608E-02  0.1180000E+00
       11   -1    0    0    0    0  0.00000000000E+00  0.00000000000E+00  0.39999999673E+01  0.40000000000E+01  0.51109989000E-03 0. -1.
     -623   -1    0    0    0    0  0.00000000000E+00  0.00000000000E+00  0.12525980253E-10  0.17130000000E+03  0.17130000000E+03 0. -1.
       11    1    1    2    0    0 -0.50449163334E-01  0.14679666211E+00  0.30690703769E+00  0.34392814525E+00  0.51109989000E-03 0. -1.
     -623    1    1    2    0    0 -0.72970129888E-01 -0.29990093522E-01  0.15369350066E+00  0.17130008712E+03  0.17130000000E+03 0. -1.
      622    1    1    2    0    0  0.12341929322E+00 -0.11680656859E+00  0.35393994290E+01  0.36559847394E+01  0.90000000000E+00 0. -1.
</event>
<event>
 5   0  0.4857400E+02  0.9118800E+02  0.7818608E-02  0.1180000E+00
       11   -1    0    0    0    0  0.00000000000E+00  0.00000000000E+00  0.39999999673E+01  0.40000000000E+01  0.51109989000E-03 0.  1.
     -623   -1    0    0    0    0  0.00000000000E+00  0.00000000000E+00  0.12525980253E-10  0.17130000000E+03  0.17130000000E+03 0.  1.
       11    1    1    2    0    0 -0.11042348275E-01  0.78233463464E-01 -0.26439346757E-02  0.79054790322E-01  0.51109989000E-03 0.  1.
     -623    1    1    2    0    0 -0.78235844679E-01 -0.50368474770E-01  0.18766552679E+00  0.17130012807E+03  0.17130000000E+03 0.  1.
      622    1    1    2    0    0  0.89278192954E-01 -0.27864988694E-01  0.38149783752E+01  0.39208171415E+01  0.90000000000E+00 0.  1.
</event>
<event>
 5   0  0.4857400E+02  0.9118800E+02  0.7818608E-02  0.1180000E+00
       11   -1    0    0    0    0  0.00000000000E+00  0.00000000000E+00  0.39999999673E+01  0.40000000000E+01  0.51109989000E-03 0. -1.
     -623   -1    0    0    0    0  0.00000000000E+00  0.00000000000E+00  0.12525980253E-10  0.17130000000E+03  0.17130000000E+03 0.  1.
       11    1    1    2    0    0 -0.28818906187E-01 -0.40405622413E-01  0.22563672692E+00  0.23103103132E+00  0.51109989000E-03 0. -1.
     -623    1    1    2    0    0 -0.58150103442E-01 -0.47162831533E-01  0.11656705342E+00  0.17130005602E+03  0.17130000000E+03 0.  1.
      622    1    1    2    0    0  0.86969009629E-01  0.87568453947E-01  0.36577961870E+01  0.37689129452E+01  0.90000000000E+00 0. -1.
</event>
<event>
 5   0  0.4857400E+02  0.9118800E+02  0.7818608E-02  0.1180000E+00
       11   -1    0    0    0    0  0.00000000000E+00  0.00000000000E+00  0.39999999673E+01  0.40000000000E+01  0.51109989000E-03 0.  1.
     -623   -1    0    0    0    0  0.00000000000E+00  0.00000000000E+00  0.12525980253E-10  0.17130000000E+03  0.17130000000E+03 0. -1.
       11    1    1    2    0    0  0.14886976868E+00  0.12470770035E+00  0.31313943158E+00  0.36847087183E+00  0.51109989000E-03 0.  1.
     -623    1    1    2    0    0 -0.10731702477E-01  0.18831313153E+00  0.18550995502E+00  0.17130020429E+03  0.17130000000E+03 0. -1.
      622    1    1    2    0    0 -0.13813806620E+00 -0.31302083188E+00  0.35013505808E+01  0.36313248348E+01  0.90000000000E+00 0.  1.
</event>
<event>
 5   0  0.4857400E+02  0.9118800E+02  0.7818608E-02  0.1180000E+00
       11   -1    0    0    0    0  0.00000000000E+00  0.00000000000E+00  0.39999999673E+01  0.40000000000E+01  0.51109989000E-03 0. -1.
     -623   -1    0    0    0    0  0.00000000000E+00  0.00000000000E+00  0.12525980253E-10  0.17130000000E+03  0.17130000000E+03 0. -1.
       11    1    1    2    0    0 -0.51147008566E-01 -0.27361483014E-01 -0.10320187447E-01  0.58918882627E-01  0.51109989000E-03 0. -1.
     -623    1    1    2    0    0 -0.11575751659E+00 -0.22022496719E+00  0.18530379087E+00  0.17130028090E+03  0.17130000000E+03 0. -1.
      622    1    1    2    0    0  0.16690452515E+00  0.24758645020E+00  0.38250163639E+01  0.39408002176E+01  0.90000000000E+00 0. -1.
</event>
<event>
 5   0  0.4857400E+02  0.9118800E+02  0.7818608E-02  0.1180000E+00
       11   -1    0    0    0    0  0.00000000000E+00  0.00000000000E+00  0.39999999673E+01  0.40000000000E+01  0.51109989000E-03 0.  1.
     -623   -1    0    0    0    0  0.00000000000E+00  0.00000000000E+00  0.12525980253E-10  0.17130000000E+03  0.17130000000E+03 0.  1.
       11    1    1    2    0    0 -0.85411171734E-01  0.12512030273E+00  0.60261946501E+00  0.62136996970E+00  0.51109989000E-03 0.  1.
     -623    1    1    2    0    0 -0.20508643162E-01 -0.15347512182E+00  0.14280790690E+00  0.17130012951E+03  0.17130000000E+03 0.  1.
      622    1    1    2    0    0  0.10591981490E+00  0.28354819085E-01  0.32545725954E+01  0.33785005227E+01  0.90000000000E+00 0.  1.
</event>
<event>
 5   0  0.4857400E+02  0.9118800E+02  0.7818608E-02  0.1180000E+00
       11   -1    0    0    0    0  0.00000000000E+00  0.00000000000E+00  0.39999999673E+01  0.40000000000E+01  0.51109989000E-03 0.  1.
     -623   -1    0    0    0    0  0.00000000000E+00  0.00000000000E+00  0.12525980253E-10  0.17130000000E+03  0.17130000000E+03 0.  1.
       11    1    1    2    0    0  0.32482313574E+00  0.16256315999E+00  0.42212227222E+00  0.55688807172E+00  0.51109989000E-03 0.  1.
     -623    1    1    2    0    0 -0.18587613844E+00 -0.26179158749E+00  0.25937755109E+00  0.17130049726E+03  0.17130000000E+03 0.  1.
      622    1    1    2    0    0 -0.13894699731E+00  0.99228427495E-01  0.33185001440E+01  0.34426146684E+01  0.90000000000E+00 0.  1.
</event>
<event>
 5   0  0.4857400E+02  0.9118800E+02  0.7818608E-02  0.1180000E+00
       11   -1    0    0    0    0  0.00000000000E+00  0.00000000000E+00  0.39999999673E+01  0.40000000000E+01  0.51109989000E-03 0. -1.
     -623   -1    0    0    0    0  0.00000000000E+00  0.00000000000E+00  0.12525980253E-10  0.17130000000E+03  0.17130000000E+03 0. -1.
       11    1    1    2    0    0 -0.13357845488E-01 -0.26629466638E-01  0.20320836028E+00  0.20538125387E+00  0.51109989000E-03 0. -1.
     -623    1    1    2    0    0 -0.15356336686E+00 -0.36522747850E-01  0.11488500225E+00  0.17130011125E+03  0.17130000000E+03 0. -1.
      622    1    1    2    0    0  0.16692121235E+00  0.63152214488E-01  0.36819066048E+01  0.37945074964E+01  0.90000000000E+00 0. -1.
</event>
<event>
 5   0  0.4857400E+02  0.9118800E+02  0.7818608E-02  0.1180000E+00
       11   -1    0    0    0    0  0.00000000000E+00  0.00000000000E+00  0.39999999673E+01  0.40000000000E+01  0.51109989000E-03 0. -1.
     -623   -1    0    0    0    0  0.00000000000E+00  0.00000000000E+00  0.12525980253E-10  0.17130000000E+03  0.17130000000E+03 0.  1.
       11    1    1    2    0    0  0.30716220431E-01 -0.57995932994E-01  0.55973423337E-01  0.86257172366E-01  0.51109989000E-03 0. -1.
     -623    1    1    2    0    0 -0.57374658303E-01  0.22343194375E+00  0.13907641118E+00  0.17130021178E+03  0.17130000000E+03 0.  1.
      622    1    1    2    0    0  0.26658437872E-01 -0.16543601075E+00  0.38049501328E+01  0.39135310475E+01  0.90000000000E+00 0. -1.
</event>
<event>
 5   0  0.4857400E+02  0.9118800E+02  0.7818608E-02  0.1180000E+00
       11   -1    0    0    0    0  0.00000000000E+00  0.00000000000E+00  0.39999999673E+01  0.40000000000E+01  0.51109989000E-03 0. -1.
     -623   -1    0    0    0    0  0.00000000000E+00  0.00000000000E+00  0.12525980253E-10  0.17130000000E+03  0.17130000000E+03 0.  1.
       11    1    1    2    0    0 -0.11636151023E-01 -0.16177139984E-01  0.62881014628E-01  0.65965014155E-01  0.51109989000E-03 0. -1.
     -623    1    1    2    0    0 -0.23963627847E-01  0.31647737909E-01  0.10765133286E+00  0.17130003843E+03  0.17130000000E+03 0.  1.
      622    1    1    2    0    0  0.35599778870E-01 -0.15470597926E-01  0.38294676199E+01  0.39339965602E+01  0.90000000000E+00 0. -1.
</event>
<event>
 5   0  0.4857400E+02  0.9118800E+02  0.7818608E-02  0.1180000E+00
       11   -1    0    0    0    0  0.00000000000E+00  0.00000000000E+00  0.39999999673E+01  0.40000000000E+01  0.51109989000E-03 0. -1.
     -623   -1    0    0    0    0  0.00000000000E+00  0.00000000000E+00  0.12525980253E-10  0.17130000000E+03  0.17130000000E+03 0.  1.
       11    1    1    2    0    0 -0.17514675127E-01  0.31043896417E-01  0.34809322194E-01  0.49824065312E-01  0.51109989000E-03 0. -1.
     -623    1    1    2    0    0  0.22934899056E-01 -0.81516017237E-01  0.11930719603E+00  0.17130006248E+03  0.17130000000E+03 0.  1.
      622    1    1    2    0    0 -0.54202239297E-02  0.50472120821E-01  0.38458834491E+01  0.39501134564E+01  0.90000000000E+00 0. -1.
</event>
<event>
 5   0  0.4857400E+02  0.9118800E+02  0.7818608E-02  0.1180000E+00
       11   -1    0    0    0    0  0.00000000000E+00  0.00000000000E+00  0.39999999673E+01  0.40000000000E+01  0.51109989000E-03 0. -1.
     -623   -1    0    0    0    0  0.00000000000E+00  0.00000000000E+00  0.12525980253E-10  0.17130000000E+03  0.17130000000E+03 0.  1.
       11    1    1    2    0    0  0.39456436727E-01 -0.54738884089E-01  0.35827281420E+00  0.36457211419E+00  0.51109989000E-03 0. -1.
     -623    1    1    2    0    0  0.15676705989E+00  0.40929176984E-01  0.12508779512E+00  0.17130012229E+03  0.17130000000E+03 0.  1.
      622    1    1    2    0    0 -0.19622349662E+00  0.13809707105E-01  0.35166393580E+01  0.36353055914E+01  0.90000000000E+00 0. -1.
</event>
<event>
 5   0  0.4857400E+02  0.9118800E+02  0.7818608E-02  0.1180000E+00
       11   -1    0    0    0    0  0.00000000000E+00  0.00000000000E+00  0.39999999673E+01  0.40000000000E+01  0.51109989000E-03 0. -1.
     -623   -1    0    0    0    0  0.00000000000E+00  0.00000000000E+00  0.12525980253E-10  0.17130000000E+03  0.17130000000E+03 0. -1.
       11    1    1    2    0    0  0.29446827508E-01 -0.47544102759E-01  0.42299491795E+00  0.42667612915E+00  0.51109989000E-03 0. -1.
     -623    1    1    2    0    0  0.10362741849E+00 -0.15164718437E+00  0.12733613412E+00  0.17130014580E+03  0.17130000000E+03 0. -1.
      622    1    1    2    0    0 -0.13307424599E+00  0.19919128713E+00  0.34496689153E+01  0.35731780741E+01  0.90000000000E+00 0. -1.
</event>
<event>
 5   0  0.4857400E+02  0.9118800E+02  0.7818608E-02  0.1180000E+00
       11   -1    0    0    0    0  0.00000000000E+00  0.00000000000E+00  0.39999999673E+01  0.40000000000E+01  0.51109989000E-03 0. -1.
     -623   -1    0    0    0    0  0.00000000000E+00  0.00000000000E+00  0.12525980253E-10  0.17130000000E+03  0.17130000000E+03 0. -1.
       11    1    1    2    0    0 -0.14130912426E+00 -0.47518556716E-01  0.56434331500E+00  0.58370362363E+00  0.51109989000E-03 0. -1.
     -623    1    1    2    0    0  0.21180596671E+00  0.85392155517E-01  0.14123123215E+00  0.17130021045E+03  0.17130000000E+03 0. -1.
      622    1    1    2    0    0 -0.70496842450E-01 -0.37873598801E-01  0.32944254202E+01  0.34160859274E+01  0.90000000000E+00 0. -1.
</event>
<event>
 5   0  0.4857400E+02  0.9118800E+02  0.7818608E-02  0.1180000E+00
       11   -1    0    0    0    0  0.00000000000E+00  0.00000000000E+00  0.39999999673E+01  0.40000000000E+01  0.51109989000E-03 0.  1.
     -623   -1    0    0    0    0  0.00000000000E+00  0.00000000000E+00  0.12525980253E-10  0.17130000000E+03  0.17130000000E+03 0. -1.
       11    1    1    2    0    0  0.37855681670E-01  0.24758109802E-01  0.42395133506E+00  0.42635784542E+00  0.51109989000E-03 0.  1.
     -623    1    1    2    0    0 -0.15165874368E+00 -0.17777262809E+00  0.12306461433E+00  0.17130020359E+03  0.17130000000E+03 0. -1.
      622    1    1    2    0    0  0.11380306201E+00  0.15301451829E+00  0.34529840180E+01  0.35734385692E+01  0.90000000000E+00 0.  1.
</event>
<event>
 5   0  0.4857400E+02  0.9118800E+02  0.7818608E-02  0.1180000E+00
       11   -1    0    0    0    0  0.00000000000E+00  0.00000000000E+00  0.39999999673E+01  0.40000000000E+01  0.51109989000E-03 0.  1.
     -623   -1    0    0    0    0  0.00000000000E+00  0.00000000000E+00  0.12525980253E-10  0.17130000000E+03  0.17130000000E+03 0. -1.
       11    1    1    2    0    0 -0.17728578197E+00 -0.71591361944E-01  0.33895151623E+00  0.38915801825E+00  0.51109989000E-03 0.  1.
     -623    1    1    2    0    0 -0.46999831017E-01  0.19259255360E-01  0.17185653957E+00  0.17130009374E+03  0.17130000000E+03 0. -1.
      622    1    1    2    0    0  0.22428561299E+00  0.52332106584E-01  0.34891919116E+01  0.36107482440E+01  0.90000000000E+00 0.  1.
</event>
<event>
 5   0  0.4857400E+02  0.9118800E+02  0.7818608E-02  0.1180000E+00
       11   -1    0    0    0    0  0.00000000000E+00  0.00000000000E+00  0.39999999673E+01  0.40000000000E+01  0.51109989000E-03 0. -1.
     -623   -1    0    0    0    0  0.00000000000E+00  0.00000000000E+00  0.12525980253E-10  0.17130000000E+03  0.17130000000E+03 0. -1.
       11    1    1    2    0    0 -0.16387663360E-01  0.17423849395E+00  0.33018856536E+00  0.37370089403E+00  0.51109989000E-03 0. -1.
     -623    1    1    2    0    0 -0.60181639829E-01 -0.28546522579E+00  0.15990142638E+00  0.17130032306E+03  0.17130000000E+03 0. -1.
      622    1    1    2    0    0  0.76569303190E-01  0.11122673185E+00  0.35099099756E+01  0.36259760453E+01  0.90000000000E+00 0. -1.
</event>
<event>
 5   0  0.4857400E+02  0.9118800E+02  0.7818608E-02  0.1180000E+00
       11   -1    0    0    0    0  0.00000000000E+00  0.00000000000E+00  0.39999999673E+01  0.40000000000E+01  0.51109989000E-03 0.  1.
     -623   -1    0    0    0    0  0.00000000000E+00  0.00000000000E+00  0.12525980253E-10  0.17130000000E+03  0.17130000000E+03 0.  1.
       11    1    1    2    0    0  0.88116988700E-01 -0.38391306898E-01  0.85545394453E-01  0.12867312026E+00  0.51109989000E-03 0.  1.
     -623    1    1    2    0    0 -0.45077613999E-01  0.13310681306E+00  0.15076111919E+00  0.17130012399E+03  0.17130000000E+03 0.  1.
      622    1    1    2    0    0 -0.43039374701E-01 -0.94715506161E-01  0.37636934537E+01  0.38712028917E+01  0.90000000000E+00 0.  1.
</event>
<event>
 5   0  0.4857400E+02  0.9118800E+02  0.7818608E-02  0.1180000E+00
       11   -1    0    0    0    0  0.00000000000E+00  0.00000000000E+00  0.39999999673E+01  0.40000000000E+01  0.51109989000E-03 0.  1.
     -623   -1    0    0    0    0  0.00000000000E+00  0.00000000000E+00  0.12525980253E-10  0.17130000000E+03  0.17130000000E+03 0.  1.
       11    1    1    2    0    0 -0.67904444914E-01  0.71446218704E-01  0.91917101639E-01  0.13477607577E+00  0.51109989000E-03 0.  1.
     -623    1    1    2    0    0  0.10726222217E+00  0.80010713090E-01  0.15248183799E+00  0.17130012013E+03  0.17130000000E+03 0.  1.
      622    1    1    2    0    0 -0.39357777256E-01 -0.15145693179E+00  0.37556010277E+01  0.38651037911E+01  0.90000000000E+00 0.  1.
</event>
<event>
 5   0  0.4857400E+02  0.9118800E+02  0.7818608E-02  0.1180000E+00
       11   -1    0    0    0    0  0.00000000000E+00  0.00000000000E+00  0.39999999673E+01  0.40000000000E+01  0.51109989000E-03 0.  1.
     -623   -1    0    0    0    0  0.00000000000E+00  0.00000000000E+00  0.12525980253E-10  0.17130000000E+03  0.17130000000E+03 0.  1.
       11    1    1    2    0    0  0.58464274750E-01  0.32037442312E+00  0.56223707620E+00  0.64974505268E+00  0.51109989000E-03 0.  1.
     -623    1    1    2    0    0  0.18189368805E+00 -0.43527983564E+00  0.22250042223E+00  0.17130079410E+03  0.17130000000E+03 0.  1.
      622    1    1    2    0    0 -0.24035796280E+00  0.11490541252E+00  0.32152624689E+01  0.33494608444E+01  0.90000000000E+00 0.  1.
</event>
<event>
 5   0  0.4857400E+02  0.9118800E+02  0.7818608E-02  0.1180000E+00
       11   -1    0    0    0    0  0.00000000000E+00  0.00000000000E+00  0.39999999673E+01  0.40000000000E+01  0.51109989000E-03 0. -1.
     -623   -1    0    0    0    0  0.00000000000E+00  0.00000000000E+00  0.12525980253E-10  0.17130000000E+03  0.17130000000E+03 0. -1.
       11    1    1    2    0    0 -0.20037330659E-01 -0.72270331217E-01  0.36759788631E+00  0.37517057805E+00  0.51109989000E-03 0. -1.
     -623    1    1    2    0    0 -0.92340396708E-01 -0.30492617960E-01  0.12445802735E+00  0.17130007281E+03  0.17130000000E+03 0. -1.
      622    1    1    2    0    0  0.11237772737E+00  0.10276294918E+00  0.35079440537E+01  0.36247566072E+01  0.90000000000E+00 0. -1.
</event>
<event>
 5   0  0.4857400E+02  0.9118800E+02  0.7818608E-02  0.1180000E+00
       11   -1    0    0    0    0  0.00000000000E+00  0.00000000000E+00  0.39999999673E+01  0.40000000000E+01  0.51109989000E-03 0. -1.
     -623   -1    0    0    0    0  0.00000000000E+00  0.00000000000E+00  0.12525980253E-10  0.17130000000E+03  0.17130000000E+03 0. -1.
       11    1    1    2    0    0 -0.23371605061E+00  0.19481526348E-01  0.43428063082E+00  0.49356119145E+00  0.51109989000E-03 0. -1.
     -623    1    1    2    0    0 -0.55914899971E-01  0.61154814385E-01  0.19024256497E+00  0.17130012568E+03  0.17130000000E+03 0. -1.
      622    1    1    2    0    0  0.28963095058E+00 -0.80636340733E-01  0.33754767716E+01  0.35063131267E+01  0.90000000000E+00 0. -1.
</event>
<event>
 5   0  0.4857400E+02  0.9118800E+02  0.7818608E-02  0.1180000E+00
       11   -1    0    0    0    0  0.00000000000E+00  0.00000000000E+00  0.39999999673E+01  0.40000000000E+01  0.51109989000E-03 0. -1.
     -623   -1    0    0    0    0  0.00000000000E+00  0.00000000000E+00  0.12525980253E-10  0.17130000000E+03  0.17130000000E+03 0.  1.
       11    1    1    2    0    0  0.15627732753E+00  0.35994338513E+00  0.65132977247E+00  0.76040290461E+00  0.51109989000E-03 0. -1.
     -623    1    1    2    0    0  0.81961063511E-01 -0.20544420655E+00  0.24991957059E+00  0.17130032512E+03  0.17130000000E+03 0.  1.
      622    1    1    2    0    0 -0.23823839104E+00 -0.15449917858E+00  0.30987506243E+01  0.32392719797E+01  0.90000000000E+00 0. -1.
</event>
<event>
 5   0  0.4857400E+02  0.9118800E+02  0.7818608E-02  0.1180000E+00
       11   -1    0    0    0    0  0.00000000000E+00  0.00000000000E+00  0.39999999673E+01  0.40000000000E+01  0.51109989000E-03 0. -1.
     -623   -1    0    0    0    0  0.00000000000E+00  0.00000000000E+00  0.12525980253E-10  0.17130000000E+03  0.17130000000E+03 0.  1.
       11    1    1    2    0    0  0.17462796745E+00 -0.12207354429E+00  0.10179738780E+01  0.10400326700E+01  0.51109989000E-03 0. -1.
     -623    1    1    2    0    0 -0.58522889390E-01  0.62286024594E-02  0.16707245072E+00  0.17130009158E+03  0.17130000000E+03 0.  1.
      622    1    1    2    0    0 -0.11610507806E+00  0.11584494183E+00  0.28149536386E+01  0.29598757453E+01  0.90000000000E+00 0.  1.
</event>
<event>
 5   0  0.4857400E+02  0.9118800E+02  0.7818608E-02  0.1180000E+00
       11   -1    0    0    0    0  0.00000000000E+00  0.00000000000E+00  0.39999999673E+01  0.40000000000E+01  0.51109989000E-03 0. -1.
     -623   -1    0    0    0    0  0.00000000000E+00  0.00000000000E+00  0.12525980253E-10  0.17130000000E+03  0.17130000000E+03 0. -1.
       11    1    1    2    0    0  0.28880614081E-01 -0.48265328157E-01  0.55000288811E-01  0.78669719487E-01  0.51109989000E-03 0. -1.
     -623    1    1    2    0    0 -0.16994544851E-01  0.36603987452E-01  0.12843853096E+00  0.17130005290E+03  0.17130000000E+03 0. -1.
      622    1    1    2    0    0 -0.11886069229E-01  0.11661340705E-01  0.38165611476E+01  0.39212773759E+01  0.90000000000E+00 0. -1.
</event>
<event>
 5   0  0.4857400E+02  0.9118800E+02  0.7818608E-02  0.1180000E+00
       11   -1    0    0    0    0  0.00000000000E+00  0.00000000000E+00  0.39999999673E+01  0.40000000000E+01  0.51109989000E-03 0. -1.
     -623   -1    0    0    0    0  0.00000000000E+00  0.00000000000E+00  0.12525980253E-10  0.17130000000E+03  0.17130000000E+03 0. -1.
       11    1    1    2    0    0 -0.45535764556E-01  0.59910916450E-01  0.21890278771E+00  0.23147681408E+00  0.51109989000E-03 0. -1.
     -623    1    1    2    0    0  0.46000131816E-01 -0.15012822626E+00  0.12285262577E+00  0.17130011602E+03  0.17130000000E+03 0. -1.
      622    1    1    2    0    0 -0.46436725978E-03  0.90217309808E-01  0.36582445539E+01  0.37684071694E+01  0.90000000000E+00 0. -1.
</event>
<event>
 5   0  0.4857400E+02  0.9118800E+02  0.7818608E-02  0.1180000E+00
       11   -1    0    0    0    0  0.00000000000E+00  0.00000000000E+00  0.39999999673E+01  0.40000000000E+01  0.51109989000E-03 0.  1.
     -623   -1    0    0    0    0  0.00000000000E+00  0.00000000000E+00  0.12525980253E-10  0.17130000000E+03  0.17130000000E+03 0. -1.
       11    1    1    2    0    0  0.37851140662E-01  0.36745545192E-02  0.18110241662E-01  0.42124259936E-01  0.51109989000E-03 0.  1.
     -623    1    1    2    0    0  0.91075486213E-01  0.71384755613E-01  0.13067946741E+00  0.17130008893E+03  0.17130000000E+03 0. -1.
      622    1    1    2    0    0 -0.12892662688E+00 -0.75059310133E-01  0.38512102583E+01  0.39577868094E+01  0.90000000000E+00 0.  1.
</event>
<event>
 5   0  0.4857400E+02  0.9118800E+02  0.7818608E-02  0.1180000E+00
       11   -1    0    0    0    0  0.00000000000E+00  0.00000000000E+00  0.39999999673E+01  0.40000000000E+01  0.51109989000E-03 0. -1.
     -623   -1    0    0    0    0  0.00000000000E+00  0.00000000000E+00  0.12525980253E-10  0.17130000000E+03  0.17130000000E+03 0. -1.
       11    1    1    2    0    0  0.93396426062E-01 -0.20212793809E-02  0.57958669156E+00  0.58706726380E+00  0.51109989000E-03 0. -1.
     -623    1    1    2    0    0 -0.46281163231E-01  0.39015471896E-01  0.12889121877E+00  0.17130005919E+03  0.17130000000E+03 0. -1.
      622    1    1    2    0    0 -0.47115262831E-01 -0.36994192515E-01  0.32915220570E+01  0.34128735503E+01  0.90000000000E+00 0. -1.
</event>
<event>
 5   0  0.4857400E+02  0.9118800E+02  0.7818608E-02  0.1180000E+00
       11   -1    0    0    0    0  0.00000000000E+00  0.00000000000E+00  0.39999999673E+01  0.40000000000E+01  0.51109989000E-03 0.  1.
     -623   -1    0    0    0    0  0.00000000000E+00  0.00000000000E+00  0.12525980253E-10  0.17130000000E+03  0.17130000000E+03 0. -1.
       11    1    1    2    0    0 -0.14643968848E-01 -0.31220214740E-01  0.45528890988E-01  0.57116449178E-01  0.51109989000E-03 0.  1.
     -623    1    1    2    0    0  0.42199860141E-01 -0.41621231281E-02  0.11598590322E+00  0.17130004452E+03  0.17130000000E+03 0. -1.
      622    1    1    2    0    0 -0.27555891294E-01  0.35382337868E-01  0.38384851732E+01  0.39428390357E+01  0.90000000000E+00 0.  1.
</event>
<event>
 5   0  0.4857400E+02  0.9118800E+02  0.7818608E-02  0.1180000E+00
       11   -1    0    0    0    0  0.00000000000E+00  0.00000000000E+00  0.39999999673E+01  0.40000000000E+01  0.51109989000E-03 0. -1.
     -623   -1    0    0    0    0  0.00000000000E+00  0.00000000000E+00  0.12525980253E-10  0.17130000000E+03  0.17130000000E+03 0.  1.
       11    1    1    2    0    0 -0.52114017442E-01  0.18450275744E+00  0.99303413699E-01  0.21591333334E+00  0.51109989000E-03 0. -1.
     -623    1    1    2    0    0 -0.39786007837E-01 -0.16674480861E+00  0.22662969976E+00  0.17130023569E+03  0.17130000000E+03 0.  1.
      622    1    1    2    0    0  0.91900025279E-01 -0.17757948826E-01  0.36740668539E+01  0.37838509757E+01  0.90000000000E+00 0. -1.
</event>
<event>
 5   0  0.4857400E+02  0.9118800E+02  0.7818608E-02  0.1180000E+00
       11   -1    0    0    0    0  0.00000000000E+00  0.00000000000E+00  0.39999999673E+01  0.40000000000E+01  0.51109989000E-03 0.  1.
     -623   -1    0    0    0    0  0.00000000000E+00  0.00000000000E+00  0.12525980253E-10  0.17130000000E+03  0.17130000000E+03 0. -1.
       11    1    1    2    0    0  0.27487501551E+00  0.36237916566E+00  0.18996223089E+00  0.49291058443E+00  0.51109989000E-03 0.  1.
     -623    1    1    2    0    0 -0.32584683765E+00  0.13316766042E-01  0.44258415134E+00  0.17130088218E+03  0.17130000000E+03 0. -1.
      622    1    1    2    0    0  0.50971822139E-01 -0.37569593171E+00  0.33674535851E+01  0.35062072397E+01  0.90000000000E+00 0.  1.
</event>
<event>
 5   0  0.4857400E+02  0.9118800E+02  0.7818608E-02  0.1180000E+00
       11   -1    0    0    0    0  0.00000000000E+00  0.00000000000E+00  0.39999999673E+01  0.40000000000E+01  0.51109989000E-03 0. -1.
     -623   -1    0    0    0    0  0.00000000000E+00  0.00000000000E+00  0.12525980253E-10  0.17130000000E+03  0.17130000000E+03 0.  1.
       11    1    1    2    0    0 -0.18257982192E-01 -0.21756365878E-01 -0.13047351002E-02  0.28436893735E-01  0.51109989000E-03 0. -1.
     -623    1    1    2    0    0  0.69118586219E-01 -0.21159176876E-01  0.13370216788E+00  0.17130006743E+03  0.17130000000E+03 0.  1.
      622    1    1    2    0    0 -0.50860604027E-01  0.42915542754E-01  0.38676025346E+01  0.39714956767E+01  0.90000000000E+00 0. -1.
</event>
<event>
 5   0  0.4857400E+02  0.9118800E+02  0.7818608E-02  0.1180000E+00
       11   -1    0    0    0    0  0.00000000000E+00  0.00000000000E+00  0.39999999673E+01  0.40000000000E+01  0.51109989000E-03 0.  1.
     -623   -1    0    0    0    0  0.00000000000E+00  0.00000000000E+00  0.12525980253E-10  0.17130000000E+03  0.17130000000E+03 0.  1.
       11    1    1    2    0    0 -0.35381285136E-01  0.90404203256E-01  0.46651362420E+00  0.47650810916E+00  0.51109989000E-03 0.  1.
     -623    1    1    2    0    0  0.86779541807E-01 -0.20880272843E-01  0.12804677773E+00  0.17130007111E+03  0.17130000000E+03 0.  1.
      622    1    1    2    0    0 -0.51398256671E-01 -0.69523930413E-01  0.34054395654E+01  0.35234207798E+01  0.90000000000E+00 0.  1.
</event>
<event>
 5   0  0.4857400E+02  0.9118800E+02  0.7818608E-02  0.1180000E+00
       11   -1    0    0    0    0  0.00000000000E+00  0.00000000000E+00  0.39999999673E+01  0.40000000000E+01  0.51109989000E-03 0. -1.
     -623   -1    0    0    0    0  0.00000000000E+00  0.00000000000E+00  0.12525980253E-10  0.17130000000E+03  0.17130000000E+03 0. -1.
       11    1    1    2    0    0  0.14006745723E-01  0.21244314495E-01  0.86674819965E-01  0.90334353715E-01  0.51109989000E-03 0. -1.
     -623    1    1    2    0    0 -0.47951121091E-01 -0.12779179374E+00  0.11039502266E+00  0.17130008995E+03  0.17130000000E+03 0. -1.
      622    1    1    2    0    0  0.33944375368E-01  0.10654747925E+00  0.38029301247E+01  0.39095756956E+01  0.90000000000E+00 0. -1.
</event>
<event>
 5   0  0.4857400E+02  0.9118800E+02  0.7818608E-02  0.1180000E+00
       11   -1    0    0    0    0  0.00000000000E+00  0.00000000000E+00  0.39999999673E+01  0.40000000000E+01  0.51109989000E-03 0.  1.
     -623   -1    0    0    0    0  0.00000000000E+00  0.00000000000E+00  0.12525980253E-10  0.17130000000E+03  0.17130000000E+03 0. -1.
       11    1    1    2    0    0  0.36764190960E+00  0.51550991534E-01  0.59855887108E+00  0.70433732103E+00  0.51109989000E-03 0.  1.
     -623    1    1    2    0    0 -0.10859837349E+00 -0.83666686122E-01  0.24204735095E+00  0.17130022586E+03  0.17130000000E+03 0. -1.
      622    1    1    2    0    0 -0.25904353611E+00  0.32115694588E-01  0.31593937453E+01  0.32954368162E+01  0.90000000000E+00 0.  1.
</event>
<event>
 5   0  0.4857400E+02  0.9118800E+02  0.7818608E-02  0.1180000E+00
       11   -1    0    0    0    0  0.00000000000E+00  0.00000000000E+00  0.39999999673E+01  0.40000000000E+01  0.51109989000E-03 0. -1.
     -623   -1    0    0    0    0  0.00000000000E+00  0.00000000000E+00  0.12525980253E-10  0.17130000000E+03  0.17130000000E+03 0. -1.
       11    1    1    2    0    0 -0.45853872929E-01  0.28271939317E-01  0.12752233987E+00  0.13843441986E+00  0.51109989000E-03 0. -1.
     -623    1    1    2    0    0  0.12336489678E+00  0.88349477468E-01  0.11998023442E+00  0.17130010922E+03  0.17130000000E+03 0. -1.
      622    1    1    2    0    0 -0.77511023849E-01 -0.11662141678E+00  0.37524973931E+01  0.38614563572E+01  0.90000000000E+00 0. -1.
</event>
<event>
 5   0  0.4857400E+02  0.9118800E+02  0.7818608E-02  0.1180000E+00
       11   -1    0    0    0    0  0.00000000000E+00  0.00000000000E+00  0.39999999673E+01  0.40000000000E+01  0.51109989000E-03 0.  1.
     -623   -1    0    0    0    0  0.00000000000E+00  0.00000000000E+00  0.12525980253E-10  0.17130000000E+03  0.17130000000E+03 0. -1.
       11    1    1    2    0    0  0.68723446073E-01  0.75517186083E-01  0.42043217108E-01  0.11042486478E+00  0.51109989000E-03 0.  1.
     -623    1    1    2    0    0  0.11892734445E-01 -0.55033054156E-01  0.17495408296E+00  0.17130009860E+03  0.17130000000E+03 0. -1.
      622    1    1    2    0    0 -0.80616180518E-01 -0.20484131928E-01  0.37830026673E+01  0.38894765392E+01  0.90000000000E+00 0.  1.
</event>
<event>
 5   0  0.4857400E+02  0.9118800E+02  0.7818608E-02  0.1180000E+00
       11   -1    0    0    0    0  0.00000000000E+00  0.00000000000E+00  0.39999999673E+01  0.40000000000E+01  0.51109989000E-03 0. -1.
     -623   -1    0    0    0    0  0.00000000000E+00  0.00000000000E+00  0.12525980253E-10  0.17130000000E+03  0.17130000000E+03 0. -1.
       11    1    1    2    0    0  0.23735628777E-01 -0.34845959446E-01 -0.19163407857E-01  0.46315422759E-01  0.51109989000E-03 0. -1.
     -623    1    1    2    0    0 -0.72192405913E-01  0.15435091725E-01  0.16973404386E+00  0.17130010000E+03  0.17130000000E+03 0. -1.
      622    1    1    2    0    0  0.48456777135E-01  0.19410867720E-01  0.38494293314E+01  0.39535845783E+01  0.90000000000E+00 0. -1.
</event>
<event>
 5   0  0.4857400E+02  0.9118800E+02  0.7818608E-02  0.1180000E+00
       11   -1    0    0    0    0  0.00000000000E+00  0.00000000000E+00  0.39999999673E+01  0.40000000000E+01  0.51109989000E-03 0. -1.
     -623   -1    0    0    0    0  0.00000000000E+00  0.00000000000E+00  0.12525980253E-10  0.17130000000E+03  0.17130000000E+03 0.  1.
       11    1    1    2    0    0  0.52029617866E-01 -0.32649745405E-01  0.17025156993E-01  0.63743267912E-01  0.51109989000E-03 0. -1.
     -623    1    1    2    0    0  0.72431740950E-02  0.45638945769E-01  0.15154449108E+00  0.17130007327E+03  0.17130000000E+03 0.  1.
      622    1    1    2    0    0 -0.59272791961E-01 -0.12989200364E-01  0.38314303193E+01  0.39361834656E+01  0.90000000000E+00 0. -1.
</event>
<event>
 5   0  0.4857400E+02  0.9118800E+02  0.7818608E-02  0.1180000E+00
       11   -1    0    0    0    0  0.00000000000E+00  0.00000000000E+00  0.39999999673E+01  0.40000000000E+01  0.51109989000E-03 0. -1.
     -623   -1    0    0    0    0  0.00000000000E+00  0.00000000000E+00  0.12525980253E-10  0.17130000000E+03  0.17130000000E+03 0.  1.
       11    1    1    2    0    0  0.38454892816E-01  0.54354951149E-01  0.97517916027E-01  0.11808151704E+00  0.51109989000E-03 0. -1.
     -623    1    1    2    0    0 -0.59420692973E-01 -0.72791616676E-01  0.12651213024E+00  0.17130007249E+03  0.17130000000E+03 0.  1.
      622    1    1    2    0    0  0.20965800157E-01  0.18436665527E-01  0.37759699211E+01  0.38818459939E+01  0.90000000000E+00 0. -1.
</event>
<event>
 5   0  0.4857400E+02  0.9118800E+02  0.7818608E-02  0.1180000E+00
       11   -1    0    0    0    0  0.00000000000E+00  0.00000000000E+00  0.39999999673E+01  0.40000000000E+01  0.51109989000E-03 0. -1.
     -623   -1    0    0    0    0  0.00000000000E+00  0.00000000000E+00  0.12525980253E-10  0.17130000000E+03  0.17130000000E+03 0. -1.
       11    1    1    2    0    0  0.78533773228E-01  0.28041000777E-02  0.38949210226E-01  0.87708145090E-01  0.51109989000E-03 0. -1.
     -623    1    1    2    0    0  0.48343836350E-01  0.37542606225E-01  0.15609875964E+00  0.17130008206E+03  0.17130000000E+03 0. -1.
      622    1    1    2    0    0 -0.12687760958E+00 -0.40346706303E-01  0.38049519975E+01  0.39122097960E+01  0.90000000000E+00 0. -1.
</event>
<event>
 5   0  0.4857400E+02  0.9118800E+02  0.7818608E-02  0.1180000E+00
       11   -1    0    0    0    0  0.00000000000E+00  0.00000000000E+00  0.39999999673E+01  0.40000000000E+01  0.51109989000E-03 0.  1.
     -623   -1    0    0    0    0  0.00000000000E+00  0.00000000000E+00  0.12525980253E-10  0.17130000000E+03  0.17130000000E+03 0. -1.
       11    1    1    2    0    0 -0.32175902447E-01  0.61749615401E-01  0.36782286574E+00  0.37435574723E+00  0.51109989000E-03 0.  1.
     -623    1    1    2    0    0 -0.13391803558E+00 -0.29530375661E+00  0.13209609985E+00  0.17130035782E+03  0.17130000000E+03 0. -1.
      622    1    1    2    0    0  0.16609393803E+00  0.23355414121E+00  0.35000810018E+01  0.36252864372E+01  0.90000000000E+00 0.  1.
</event>
<event>
 5   0  0.4857400E+02  0.9118800E+02  0.7818608E-02  0.1180000E+00
       11   -1    0    0    0    0  0.00000000000E+00  0.00000000000E+00  0.39999999673E+01  0.40000000000E+01  0.51109989000E-03 0. -1.
     -623   -1    0    0    0    0  0.00000000000E+00  0.00000000000E+00  0.12525980253E-10  0.17130000000E+03  0.17130000000E+03 0. -1.
       11    1    1    2    0    0 -0.96248660024E-02 -0.12444636318E-01 -0.30514002971E-01  0.34334714449E-01  0.51109989000E-03 0. -1.
     -623    1    1    2    0    0  0.17326115281E-01 -0.12722635895E-01  0.16850148164E+00  0.17130008422E+03  0.17130000000E+03 0. -1.
      622    1    1    2    0    0 -0.77012492788E-02  0.25167272213E-01  0.38620124887E+01  0.39655810625E+01  0.90000000000E+00 0. -1.
</event>
<event>
 5   0  0.4857400E+02  0.9118800E+02  0.7818608E-02  0.1180000E+00
       11   -1    0    0    0    0  0.00000000000E+00  0.00000000000E+00  0.39999999673E+01  0.40000000000E+01  0.51109989000E-03 0. -1.
     -623   -1    0    0    0    0  0.00000000000E+00  0.00000000000E+00  0.12525980253E-10  0.17130000000E+03  0.17130000000E+03 0. -1.
       11    1    1    2    0    0  0.10124807142E+00  0.21702558954E+00  0.82742175110E+00  0.86138161920E+00  0.51109989000E-03 0. -1.
     -623    1    1    2    0    0  0.32400803170E+00 -0.21937671674E+00  0.19658022448E+00  0.17130055969E+03  0.17130000000E+03 0. -1.
      622    1    1    2    0    0 -0.42525610312E+00  0.23511272079E-02  0.29759979918E+01  0.31380586878E+01  0.90000000000E+00 0. -1.
</event>
<event>
 5   0  0.4857400E+02  0.9118800E+02  0.7818608E-02  0.1180000E+00
       11   -1    0    0    0    0  0.00000000000E+00  0.00000000000E+00  0.39999999673E+01  0.40000000000E+01  0.51109989000E-03 0.  1.
     -623   -1    0    0    0    0  0.00000000000E+00  0.00000000000E+00  0.12525980253E-10  0.17130000000E+03  0.17130000000E+03 0.  1.
       11    1    1    2    0    0  0.81891638449E-01  0.52936909063E-01  0.34584311436E-01  0.10346445095E+00  0.51109989000E-03 0.  1.
     -623    1    1    2    0    0 -0.38262574945E-01  0.35458165789E-02  0.17501129750E+00  0.17130009371E+03  0.17130000000E+03 0.  1.
      622    1    1    2    0    0 -0.43629063504E-01 -0.56482725642E-01  0.37904043584E+01  0.38964418376E+01  0.90000000000E+00 0.  1.
</event>
<event>
 5   0  0.4857400E+02  0.9118800E+02  0.7818608E-02  0.1180000E+00
       11   -1    0    0    0    0  0.00000000000E+00  0.00000000000E+00  0.39999999673E+01  0.40000000000E+01  0.51109989000E-03 0.  1.
     -623   -1    0    0    0    0  0.00000000000E+00  0.00000000000E+00  0.12525980253E-10  0.17130000000E+03  0.17130000000E+03 0.  1.
       11    1    1    2    0    0  0.32467313208E-01  0.19544981147E-01  0.11367493580E+00  0.11982647856E+00  0.51109989000E-03 0.  1.
     -623    1    1    2    0    0 -0.16153404071E+00  0.13740191013E+00  0.11762180986E+00  0.17130017165E+03  0.17130000000E+03 0.  1.
      622    1    1    2    0    0  0.12906672750E+00 -0.15694689128E+00  0.37687032217E+01  0.38800018711E+01  0.90000000000E+00 0.  1.
</event>
<event>
 5   0  0.4857400E+02  0.9118800E+02  0.7818608E-02  0.1180000E+00
       11   -1    0    0    0    0  0.00000000000E+00  0.00000000000E+00  0.39999999673E+01  0.40000000000E+01  0.51109989000E-03 0.  1.
     -623   -1    0    0    0    0  0.00000000000E+00  0.00000000000E+00  0.12525980253E-10  0.17130000000E+03  0.17130000000E+03 0.  1.
       11    1    1    2    0    0  0.58303122740E-01  0.71262820025E-01  0.14049360908E+00  0.16797725755E+00  0.51109989000E-03 0.  1.
     -623    1    1    2    0    0  0.23977093293E-01 -0.73048418609E-01  0.13565335392E+00  0.17130007097E+03  0.17130000000E+03 0.  1.
      622    1    1    2    0    0 -0.82280216033E-01  0.17855985837E-02  0.37238530044E+01  0.38319517769E+01  0.90000000000E+00 0.  1.
</event>
<event>
 5   0  0.4857400E+02  0.9118800E+02  0.7818608E-02  0.1180000E+00
       11   -1    0    0    0    0  0.00000000000E+00  0.00000000000E+00  0.39999999673E+01  0.40000000000E+01  0.51109989000E-03 0. -1.
     -623   -1    0    0    0    0  0.00000000000E+00  0.00000000000E+00  0.12525980253E-10  0.17130000000E+03  0.17130000000E+03 0. -1.
       11    1    1    2    0    0 -0.26628800724E-01 -0.41227380803E-01  0.44488938131E-02  0.49283301788E-01  0.51109989000E-03 0. -1.
     -623    1    1    2    0    0 -0.42834275081E+00  0.21106653162E+00  0.18027781903E+00  0.17130076044E+03  0.17130000000E+03 0. -1.
      622    1    1    2    0    0  0.45497155154E+00 -0.16983915082E+00  0.38152732545E+01  0.39499562601E+01  0.90000000000E+00 0. -1.
</event>
<event>
 5   0  0.4857400E+02  0.9118800E+02  0.7818608E-02  0.1180000E+00
       11   -1    0    0    0    0  0.00000000000E+00  0.00000000000E+00  0.39999999673E+01  0.40000000000E+01  0.51109989000E-03 0. -1.
     -623   -1    0    0    0    0  0.00000000000E+00  0.00000000000E+00  0.12525980253E-10  0.17130000000E+03  0.17130000000E+03 0. -1.
       11    1    1    2    0    0  0.11325478410E+00 -0.16626407560E+00  0.30696646608E+00  0.36701370748E+00  0.51109989000E-03 0. -1.
     -623    1    1    2    0    0 -0.33530735582E+00 -0.19930312742E-01  0.18568553550E+00  0.17130042997E+03  0.17130000000E+03 0. -1.
      622    1    1    2    0    0  0.22205257173E+00  0.18619438834E+00  0.35073479658E+01  0.36325563241E+01  0.90000000000E+00 0. -1.
</event>
<event>
 5   0  0.4857400E+02  0.9118800E+02  0.7818608E-02  0.1180000E+00
       11   -1    0    0    0    0  0.00000000000E+00  0.00000000000E+00  0.39999999673E+01  0.40000000000E+01  0.51109989000E-03 0. -1.
     -623   -1    0    0    0    0  0.00000000000E+00  0.00000000000E+00  0.12525980253E-10  0.17130000000E+03  0.17130000000E+03 0. -1.
       11    1    1    2    0    0 -0.12834640363E+00 -0.10868099292E+00  0.28733256072E-01  0.17061717022E+00  0.51109989000E-03 0. -1.
     -623    1    1    2    0    0  0.24349722018E+00  0.21405976384E+00  0.25292987597E+00  0.17130049354E+03  0.17130000000E+03 0. -1.
      622    1    1    2    0    0 -0.11515081655E+00 -0.10537877093E+00  0.37183368353E+01  0.38288892928E+01  0.90000000000E+00 0. -1.
</event>
<event>
 5   0  0.4857400E+02  0.9118800E+02  0.7818608E-02  0.1180000E+00
       11   -1    0    0    0    0  0.00000000000E+00  0.00000000000E+00  0.39999999673E+01  0.40000000000E+01  0.51109989000E-03 0.  1.
     -623   -1    0    0    0    0  0.00000000000E+00  0.00000000000E+00  0.12525980253E-10  0.17130000000E+03  0.17130000000E+03 0.  1.
       11    1    1    2    0    0 -0.44261881232E-01  0.31100795132E-01  0.58090500546E-01  0.79379727040E-01  0.51109989000E-03 0.  1.
     -623    1    1    2    0    0 -0.14564707863E-02 -0.21331559349E+00  0.13080229659E+00  0.17130018276E+03  0.17130000000E+03 0.  1.
      622    1    1    2    0    0  0.45718352019E-01  0.18221479836E+00  0.38111071702E+01  0.39204375092E+01  0.90000000000E+00 0.  1.
</event>
<event>
 5   0  0.4857400E+02  0.9118800E+02  0.7818608E-02  0.1180000E+00
       11   -1    0    0    0    0  0.00000000000E+00  0.00000000000E+00  0.39999999673E+01  0.40000000000E+01  0.51109989000E-03 0. -1.
     -623   -1    0    0    0    0  0.00000000000E+00  0.00000000000E+00  0.12525980253E-10  0.17130000000E+03  0.17130000000E+03 0. -1.
       11    1    1    2    0    0  0.60432125015E-01 -0.51171880409E-01  0.14464508783E+00  0.16490320111E+00  0.51109989000E-03 0. -1.
     -623    1    1    2    0    0 -0.11727238428E+00 -0.81199313454E-01  0.13025365011E+00  0.17130010891E+03  0.17130000000E+03 0. -1.
      622    1    1    2    0    0  0.56840259262E-01  0.13237119386E+00  0.37251012294E+01  0.38349878901E+01  0.90000000000E+00 0. -1.
</event>
<event>
 5   0  0.4857400E+02  0.9118800E+02  0.7818608E-02  0.1180000E+00
       11   -1    0    0    0    0  0.00000000000E+00  0.00000000000E+00  0.39999999673E+01  0.40000000000E+01  0.51109989000E-03 0.  1.
     -623   -1    0    0    0    0  0.00000000000E+00  0.00000000000E+00  0.12525980253E-10  0.17130000000E+03  0.17130000000E+03 0. -1.
       11    1    1    2    0    0  0.35821144017E-01  0.31520950170E-01  0.45335640987E+00  0.45586074656E+00  0.51109989000E-03 0.  1.
     -623    1    1    2    0    0 -0.17903964179E+00 -0.36695787346E-01  0.12182434756E+00  0.17130014081E+03  0.17130000000E+03 0. -1.
      622    1    1    2    0    0  0.14321849777E+00  0.51748371756E-02  0.34248192099E+01  0.35439984393E+01  0.90000000000E+00 0.  1.
</event>
<event>
 5   0  0.4857400E+02  0.9118800E+02  0.7818608E-02  0.1180000E+00
       11   -1    0    0    0    0  0.00000000000E+00  0.00000000000E+00  0.39999999673E+01  0.40000000000E+01  0.51109989000E-03 0. -1.
     -623   -1    0    0    0    0  0.00000000000E+00  0.00000000000E+00  0.12525980253E-10  0.17130000000E+03  0.17130000000E+03 0.  1.
       11    1    1    2    0    0 -0.22873569544E+00  0.13102306325E+00  0.98328923328E+00  0.10180103334E+01  0.51109989000E-03 0. -1.
     -623    1    1    2    0    0  0.32471053244E-01 -0.79861836055E-01  0.18114650513E+00  0.17130011747E+03  0.17130000000E+03 0.  1.
      622    1    1    2    0    0  0.19626464219E+00 -0.51161227190E-01  0.28355642290E+01  0.29818721934E+01  0.90000000000E+00 0. -1.
</event>
<event>
 5   0  0.4857400E+02  0.9118800E+02  0.7818608E-02  0.1180000E+00
       11   -1    0    0    0    0  0.00000000000E+00  0.00000000000E+00  0.39999999673E+01  0.40000000000E+01  0.51109989000E-03 0. -1.
     -623   -1    0    0    0    0  0.00000000000E+00  0.00000000000E+00  0.12525980253E-10  0.17130000000E+03  0.17130000000E+03 0.  1.
       11    1    1    2    0    0  0.21886452254E-01 -0.34756306911E-01 -0.49601634074E-02  0.41374897057E-01  0.51109989000E-03 0. -1.
     -623    1    1    2    0    0  0.26371789764E-01  0.62078227302E-01  0.15048105590E+00  0.17130007937E+03  0.17130000000E+03 0.  1.
      622    1    1    2    0    0 -0.48258242019E-01 -0.27321920392E-01  0.38544790749E+01  0.39585457284E+01  0.90000000000E+00 0. -1.
</event>
<event>
 5   0  0.4857400E+02  0.9118800E+02  0.7818608E-02  0.1180000E+00
       11   -1    0    0    0    0  0.00000000000E+00  0.00000000000E+00  0.39999999673E+01  0.40000000000E+01  0.51109989000E-03 0.  1.
     -623   -1    0    0    0    0  0.00000000000E+00  0.00000000000E+00  0.12525980253E-10  0.17130000000E+03  0.17130000000E+03 0.  1.
       11    1    1    2    0    0 -0.51067321714E-01 -0.50587279684E-02  0.42091066513E-01  0.66373045576E-01  0.51109989000E-03 0.  1.
     -623    1    1    2    0    0 -0.54904349661E-01  0.13318234729E-01  0.13016015365E+00  0.17130005877E+03  0.17130000000E+03 0.  1.
      622    1    1    2    0    0  0.10597167137E+00 -0.82595067611E-02  0.38277487472E+01  0.39335681876E+01  0.90000000000E+00 0.  1.
</event>
<event>
 5   0  0.4857400E+02  0.9118800E+02  0.7818608E-02  0.1180000E+00
       11   -1    0    0    0    0  0.00000000000E+00  0.00000000000E+00  0.39999999673E+01  0.40000000000E+01  0.51109989000E-03 0.  1.
     -623   -1    0    0    0    0  0.00000000000E+00  0.00000000000E+00  0.12525980253E-10  0.17130000000E+03  0.17130000000E+03 0. -1.
       11    1    1    2    0    0  0.15706355985E-01 -0.15546839888E-01 -0.74423651837E-02  0.23324748047E-01  0.51109989000E-03 0.  1.
     -623    1    1    2    0    0  0.19350029546E-01  0.50675196229E-03  0.13419251250E+00  0.17130005366E+03  0.17130000000E+03 0. -1.
      622    1    1    2    0    0 -0.35056385532E-01  0.15040087926E-01  0.38732498201E+01  0.39766215966E+01  0.90000000000E+00 0.  1.
</event>
<event>
 5   0  0.4857400E+02  0.9118800E+02  0.7818608E-02  0.1180000E+00
       11   -1    0    0    0    0  0.00000000000E+00  0.00000000000E+00  0.39999999673E+01  0.40000000000E+01  0.51109989000E-03 0. -1.
     -623   -1    0    0    0    0  0.00000000000E+00  0.00000000000E+00  0.12525980253E-10  0.17130000000E+03  0.17130000000E+03 0.  1.
       11    1    1    2    0    0  0.10846794831E+00  0.69637659110E-02  0.36432250823E+00  0.38019066410E+00  0.51109989000E-03 0. -1.
     -623    1    1    2    0    0  0.35062413318E-01  0.21266769666E+00  0.13956713424E+00  0.17130019246E+03  0.17130000000E+03 0.  1.
      622    1    1    2    0    0 -0.14353036163E+00 -0.21963146257E+00  0.34961103249E+01  0.36196168786E+01  0.90000000000E+00 0. -1.
</event>
<event>
 5   0  0.4857400E+02  0.9118800E+02  0.7818608E-02  0.1180000E+00
       11   -1    0    0    0    0  0.00000000000E+00  0.00000000000E+00  0.39999999673E+01  0.40000000000E+01  0.51109989000E-03 0.  1.
     -623   -1    0    0    0    0  0.00000000000E+00  0.00000000000E+00  0.12525980253E-10  0.17130000000E+03  0.17130000000E+03 0.  1.
       11    1    1    2    0    0  0.21165903379E+00  0.23078765043E+00  0.72737048805E+00  0.79191576212E+00  0.51109989000E-03 0.  1.
     -623    1    1    2    0    0 -0.17995882202E+00 -0.23017031372E+00  0.19391279245E+00  0.17130035892E+03  0.17130000000E+03 0.  1.
      622    1    1    2    0    0 -0.31700211776E-01 -0.61733670919E-03  0.30787166869E+01  0.32077253190E+01  0.90000000000E+00 0.  0.
</event>
<event>
 5   0  0.4857400E+02  0.9118800E+02  0.7818608E-02  0.1180000E+00
       11   -1    0    0    0    0  0.00000000000E+00  0.00000000000E+00  0.39999999673E+01  0.40000000000E+01  0.51109989000E-03 0.  1.
     -623   -1    0    0    0    0  0.00000000000E+00  0.00000000000E+00  0.12525980253E-10  0.17130000000E+03  0.17130000000E+03 0.  1.
       11    1    1    2    0    0  0.72399488194E-01  0.12560658675E-01  0.30789322988E+00  0.31654061076E+00  0.51109989000E-03 0.  1.
     -623    1    1    2    0    0 -0.47574146833E-01 -0.21490367134E+00  0.12630678261E+00  0.17130018798E+03  0.17130000000E+03 0.  1.
      622    1    1    2    0    0 -0.24825341361E-01  0.20234301267E+00  0.35657999549E+01  0.36832714142E+01  0.90000000000E+00 0.  1.
</event>
<event>
 5   0  0.4857400E+02  0.9118800E+02  0.7818608E-02  0.1180000E+00
       11   -1    0    0    0    0  0.00000000000E+00  0.00000000000E+00  0.39999999673E+01  0.40000000000E+01  0.51109989000E-03 0.  1.
     -623   -1    0    0    0    0  0.00000000000E+00  0.00000000000E+00  0.12525980253E-10  0.17130000000E+03  0.17130000000E+03 0. -1.
       11    1    1    2    0    0 -0.27476202656E-01  0.26961967126E-01  0.44201072912E-01  0.58616426481E-01  0.51109989000E-03 0.  1.
     -623    1    1    2    0    0  0.30189079103E-03 -0.83841902064E-01  0.11912814510E+00  0.17130006194E+03  0.17130000000E+03 0. -1.
      622    1    1    2    0    0  0.27174311864E-01  0.56879934937E-01  0.38366707493E+01  0.39413216323E+01  0.90000000000E+00 0.  1.
</event>
<event>
 5   0  0.4857400E+02  0.9118800E+02  0.7818608E-02  0.1180000E+00
       11   -1    0    0    0    0  0.00000000000E+00  0.00000000000E+00  0.39999999673E+01  0.40000000000E+01  0.51109989000E-03 0.  1.
     -623   -1    0    0    0    0  0.00000000000E+00  0.00000000000E+00  0.12525980253E-10  0.17130000000E+03  0.17130000000E+03 0.  1.
       11    1    1    2    0    0  0.73276377663E-01  0.34651801882E-01  0.35659885455E-02  0.81136627946E-01  0.51109989000E-03 0.  1.
     -623    1    1    2    0    0 -0.17011655047E+00 -0.39853047115E-01  0.18374275950E+00  0.17130018765E+03  0.17130000000E+03 0.  1.
      622    1    1    2    0    0  0.96840172810E-01  0.52012452331E-02  0.38126912193E+01  0.39186757209E+01  0.90000000000E+00 0.  1.
</event>
<event>
 5   0  0.4857400E+02  0.9118800E+02  0.7818608E-02  0.1180000E+00
       11   -1    0    0    0    0  0.00000000000E+00  0.00000000000E+00  0.39999999673E+01  0.40000000000E+01  0.51109989000E-03 0. -1.
     -623   -1    0    0    0    0  0.00000000000E+00  0.00000000000E+00  0.12525980253E-10  0.17130000000E+03  0.17130000000E+03 0.  1.
       11    1    1    2    0    0  0.53118343508E-01  0.38115762394E-01  0.18136091821E+00  0.19278592696E+00  0.51109989000E-03 0. -1.
     -623    1    1    2    0    0 -0.45414086465E-01 -0.83352883875E-01  0.11968586978E+00  0.17130006811E+03  0.17130000000E+03 0.  1.
      622    1    1    2    0    0 -0.77042570435E-02  0.45237121482E-01  0.36989531794E+01  0.38071459620E+01  0.90000000000E+00 0. -1.
</event>
<event>
 5   0  0.4857400E+02  0.9118800E+02  0.7818608E-02  0.1180000E+00
       11   -1    0    0    0    0  0.00000000000E+00  0.00000000000E+00  0.39999999673E+01  0.40000000000E+01  0.51109989000E-03 0.  1.
     -623   -1    0    0    0    0  0.00000000000E+00  0.00000000000E+00  0.12525980253E-10  0.17130000000E+03  0.17130000000E+03 0. -1.
       11    1    1    2    0    0  0.24526785833E+00  0.16098490993E+00  0.93401523901E+00  0.97900826936E+00  0.51109989000E-03 0.  1.
     -623    1    1    2    0    0 -0.31915161051E+00 -0.58781302423E-01  0.18535569129E+00  0.17130040768E+03  0.17130000000E+03 0. -1.
      622    1    1    2    0    0  0.73883752183E-01 -0.10220360751E+00  0.28806290371E+01  0.30205840553E+01  0.90000000000E+00 0.  1.
</event>
<event>
 5   0  0.4857400E+02  0.9118800E+02  0.7818608E-02  0.1180000E+00
       11   -1    0    0    0    0  0.00000000000E+00  0.00000000000E+00  0.39999999673E+01  0.40000000000E+01  0.51109989000E-03 0. -1.
     -623   -1    0    0    0    0  0.00000000000E+00  0.00000000000E+00  0.12525980253E-10  0.17130000000E+03  0.17130000000E+03 0. -1.
       11    1    1    2    0    0  0.22517907507E-01 -0.37741102238E-01  0.55528025606E+00  0.55701693955E+00  0.51109989000E-03 0. -1.
     -623    1    1    2    0    0  0.17571336539E-01 -0.37692920244E-01  0.12259718728E+00  0.17130004892E+03  0.17130000000E+03 0. -1.
      622    1    1    2    0    0 -0.40089244047E-01  0.75434022481E-01  0.33221225240E+01  0.34429341417E+01  0.90000000000E+00 0. -1.
</event>
<event>
 5   0  0.4857400E+02  0.9118800E+02  0.7818608E-02  0.1180000E+00
       11   -1    0    0    0    0  0.00000000000E+00  0.00000000000E+00  0.39999999673E+01  0.40000000000E+01  0.51109989000E-03 0. -1.
     -623   -1    0    0    0    0  0.00000000000E+00  0.00000000000E+00  0.12525980253E-10  0.17130000000E+03  0.17130000000E+03 0.  1.
       11    1    1    2    0    0  0.25431754291E+00 -0.30554190396E+00  0.54134061263E+00  0.67162726852E+00  0.51109989000E-03 0. -1.
     -623    1    1    2    0    0 -0.32070664434E+00  0.54696712069E+00  0.26551166223E+00  0.17130137922E+03  0.17130000000E+03 0.  1.
      622    1    1    2    0    0  0.66389101431E-01 -0.24142521674E+00  0.31931476925E+01  0.33269935128E+01  0.90000000000E+00 0. -1.
</event>
<event>
 5   0  0.4857400E+02  0.9118800E+02  0.7818608E-02  0.1180000E+00
       11   -1    0    0    0    0  0.00000000000E+00  0.00000000000E+00  0.39999999673E+01  0.40000000000E+01  0.51109989000E-03 0.  1.
     -623   -1    0    0    0    0  0.00000000000E+00  0.00000000000E+00  0.12525980253E-10  0.17130000000E+03  0.17130000000E+03 0. -1.
       11    1    1    2    0    0 -0.57944131874E-01 -0.84801293691E-02  0.10371456035E+00  0.11910670118E+00  0.51109989000E-03 0.  1.
     -623    1    1    2    0    0  0.60468326352E-01 -0.11495705184E+00  0.12330740658E+00  0.17130009363E+03  0.17130000000E+03 0. -1.
      622    1    1    2    0    0 -0.25241944779E-02  0.12343718121E+00  0.37729780004E+01  0.38807996729E+01  0.90000000000E+00 0.  1.
</event>
<event>
 5   0  0.4857400E+02  0.9118800E+02  0.7818608E-02  0.1180000E+00
       11   -1    0    0    0    0  0.00000000000E+00  0.00000000000E+00  0.39999999673E+01  0.40000000000E+01  0.51109989000E-03 0.  1.
     -623   -1    0    0    0    0  0.00000000000E+00  0.00000000000E+00  0.12525980253E-10  0.17130000000E+03  0.17130000000E+03 0. -1.
       11    1    1    2    0    0 -0.19892454829E-01 -0.70713522258E-01  0.19845604054E+00  0.21161562617E+00  0.51109989000E-03 0.  1.
     -623    1    1    2    0    0  0.14114042859E-02  0.11328581105E+00  0.12199378843E+00  0.17130008091E+03  0.17130000000E+03 0. -1.
      622    1    1    2    0    0  0.18481050543E-01 -0.42572288792E-01  0.36795501384E+01  0.37883034686E+01  0.90000000000E+00 0.  1.
</event>
<event>
 5   0  0.4857400E+02  0.9118800E+02  0.7818608E-02  0.1180000E+00
       11   -1    0    0    0    0  0.00000000000E+00  0.00000000000E+00  0.39999999673E+01  0.40000000000E+01  0.51109989000E-03 0.  1.
     -623   -1    0    0    0    0  0.00000000000E+00  0.00000000000E+00  0.12525980253E-10  0.17130000000E+03  0.17130000000E+03 0.  1.
       11    1    1    2    0    0  0.25558332105E+00 -0.68528482449E-01  0.74973978978E+00  0.79506540643E+00  0.51109989000E-03 0.  1.
     -623    1    1    2    0    0 -0.76606819735E-02  0.47752905391E-01  0.18447675014E+00  0.17130010616E+03  0.17130000000E+03 0.  1.
      622    1    1    2    0    0 -0.24792263908E+00  0.20775577058E-01  0.30657834274E+01  0.32048284328E+01  0.90000000000E+00 0.  1.
</event>
<event>
 5   0  0.4857400E+02  0.9118800E+02  0.7818608E-02  0.1180000E+00
       11   -1    0    0    0    0  0.00000000000E+00  0.00000000000E+00  0.39999999673E+01  0.40000000000E+01  0.51109989000E-03 0.  1.
     -623   -1    0    0    0    0  0.00000000000E+00  0.00000000000E+00  0.12525980253E-10  0.17130000000E+03  0.17130000000E+03 0. -1.
       11    1    1    2    0    0 -0.35338261445E-01 -0.73465060126E-01  0.86026335435E-01  0.11851877231E+00  0.51109989000E-03 0.  1.
     -623    1    1    2    0    0  0.12087033702E+00  0.10175477084E+00  0.13948373301E+00  0.17130012965E+03  0.17130000000E+03 0. -1.
      622    1    1    2    0    0 -0.85532075574E-01 -0.28289710712E-01  0.37744898989E+01  0.38813515740E+01  0.90000000000E+00 0.  1.
</event>
<event>
 5   0  0.4857400E+02  0.9118800E+02  0.7818608E-02  0.1180000E+00
       11   -1    0    0    0    0  0.00000000000E+00  0.00000000000E+00  0.39999999673E+01  0.40000000000E+01  0.51109989000E-03 0. -1.
     -623   -1    0    0    0    0  0.00000000000E+00  0.00000000000E+00  0.12525980253E-10  0.17130000000E+03  0.17130000000E+03 0. -1.
       11    1    1    2    0    0 -0.21536545528E+00 -0.41005752828E-01  0.35207339067E+00  0.41475255844E+00  0.51109989000E-03 0. -1.
     -623    1    1    2    0    0  0.11635032060E+00  0.10987934560E+00  0.17975134996E+00  0.17130016906E+03  0.17130000000E+03 0. -1.
      622    1    1    2    0    0  0.99015134688E-01 -0.68873592768E-01  0.34681752267E+01  0.35850783774E+01  0.90000000000E+00 0.  0.
</event>
<event>
 5   0  0.4857400E+02  0.9118800E+02  0.7818608E-02  0.1180000E+00
       11   -1    0    0    0    0  0.00000000000E+00  0.00000000000E+00  0.39999999673E+01  0.40000000000E+01  0.51109989000E-03 0. -1.
     -623   -1    0    0    0    0  0.00000000000E+00  0.00000000000E+00  0.12525980253E-10  0.17130000000E+03  0.17130000000E+03 0. -1.
       11    1    1    2    0    0 -0.21248521877E-02 -0.79265718409E-01  0.12852822491E+00  0.15102097514E+00  0.51109989000E-03 0. -1.
     -623    1    1    2    0    0 -0.93605472798E-01  0.43173721206E+00  0.14771501704E+00  0.17130063333E+03  0.17130000000E+03 0. -1.
      622    1    1    2    0    0  0.95730324986E-01 -0.35247149366E+00  0.37237567254E+01  0.38483456964E+01  0.90000000000E+00 0. -1.
</event>
<event>
 5   0  0.4857400E+02  0.9118800E+02  0.7818608E-02  0.1180000E+00
       11   -1    0    0    0    0  0.00000000000E+00  0.00000000000E+00  0.39999999673E+01  0.40000000000E+01  0.51109989000E-03 0.  1.
     -623   -1    0    0    0    0  0.00000000000E+00  0.00000000000E+00  0.12525980253E-10  0.17130000000E+03  0.17130000000E+03 0. -1.
       11    1    1    2    0    0  0.26296410855E-01  0.77162772076E-01  0.38461213296E-01  0.90139451793E-01  0.51109989000E-03 0.  1.
     -623    1    1    2    0    0 -0.49194465384E-01 -0.67919745919E-01  0.15684721325E+00  0.17130009234E+03  0.17130000000E+03 0. -1.
      622    1    1    2    0    0  0.22898054529E-01 -0.92430261573E-02  0.38046915408E+01  0.39097682125E+01  0.90000000000E+00 0.  1.
</event>
<event>
 5   0  0.4857400E+02  0.9118800E+02  0.7818608E-02  0.1180000E+00
       11   -1    0    0    0    0  0.00000000000E+00  0.00000000000E+00  0.39999999673E+01  0.40000000000E+01  0.51109989000E-03 0. -1.
     -623   -1    0    0    0    0  0.00000000000E+00  0.00000000000E+00  0.12525980253E-10  0.17130000000E+03  0.17130000000E+03 0.  1.
       11    1    1    2    0    0  0.34402289616E-01  0.21953972185E-01 -0.18177682541E-01  0.44678672642E-01  0.51109989000E-03 0. -1.
     -623    1    1    2    0    0  0.28857471114E-01 -0.17741934436E+00  0.17045382412E+00  0.17130017912E+03  0.17130000000E+03 0.  1.
      622    1    1    2    0    0 -0.63259760730E-01  0.15546537218E+00  0.38477238258E+01  0.39551422122E+01  0.90000000000E+00 0. -1.
</event>
<event>
 5   0  0.4857400E+02  0.9118800E+02  0.7818608E-02  0.1180000E+00
       11   -1    0    0    0    0  0.00000000000E+00  0.00000000000E+00  0.39999999673E+01  0.40000000000E+01  0.51109989000E-03 0. -1.
     -623   -1    0    0    0    0  0.00000000000E+00  0.00000000000E+00  0.12525980253E-10  0.17130000000E+03  0.17130000000E+03 0.  1.
       11    1    1    2    0    0  0.11588924105E+00  0.98524017935E-01  0.22343783605E+00  0.27029988181E+00  0.51109989000E-03 0. -1.
     -623    1    1    2    0    0 -0.12530645231E+00  0.10145826851E+00  0.16277762027E+00  0.17130015322E+03  0.17130000000E+03 0.  1.
      622    1    1    2    0    0  0.94172112596E-02 -0.19998228645E+00  0.36137845110E+01  0.37295469016E+01  0.90000000000E+00 0. -1.
</event>
<event>
 5   0  0.4857400E+02  0.9118800E+02  0.7818608E-02  0.1180000E+00
       11   -1    0    0    0    0  0.00000000000E+00  0.00000000000E+00  0.39999999673E+01  0.40000000000E+01  0.51109989000E-03 0.  1.
     -623   -1    0    0    0    0  0.00000000000E+00  0.00000000000E+00  0.12525980253E-10  0.17130000000E+03  0.17130000000E+03 0. -1.
       11    1    1    2    0    0  0.51435615454E-01 -0.76417633464E-01  0.54083786712E+00  0.54862659157E+00  0.51109989000E-03 0.  1.
     -623    1    1    2    0    0  0.19550509268E-01 -0.19196417793E+00  0.13895556928E+00  0.17130016504E+03  0.17130000000E+03 0. -1.
      622    1    1    2    0    0 -0.70986124722E-01  0.26838181139E+00  0.33202065310E+01  0.34512083731E+01  0.90000000000E+00 0.  0.
</event>
<event>
 5   0  0.4857400E+02  0.9118800E+02  0.7818608E-02  0.1180000E+00
       11   -1    0    0    0    0  0.00000000000E+00  0.00000000000E+00  0.39999999673E+01  0.40000000000E+01  0.51109989000E-03 0. -1.
     -623   -1    0    0    0    0  0.00000000000E+00  0.00000000000E+00  0.12525980253E-10  0.17130000000E+03  0.17130000000E+03 0.  1.
       11    1    1    2    0    0 -0.46089540923E-01 -0.37537826627E-02  0.18687498830E+00  0.19251197142E+00  0.51109989000E-03 0. -1.
     -623    1    1    2    0    0  0.15124398293E+00  0.33172502176E-02  0.11513848513E+00  0.17130010550E+03  0.17130000000E+03 0.  1.
      622    1    1    2    0    0 -0.10515444200E+00  0.43653244511E-03  0.36979864939E+01  0.38073825335E+01  0.90000000000E+00 0. -1.
</event>
<event>
 5   0  0.4857400E+02  0.9118800E+02  0.7818608E-02  0.1180000E+00
       11   -1    0    0    0    0  0.00000000000E+00  0.00000000000E+00  0.39999999673E+01  0.40000000000E+01  0.51109989000E-03 0.  1.
     -623   -1    0    0    0    0  0.00000000000E+00  0.00000000000E+00  0.12525980253E-10  0.17130000000E+03  0.17130000000E+03 0. -1.
       11    1    1    2    0    0 -0.39734175403E-01  0.77177791973E-01  0.41106110426E+00  0.42012701523E+00  0.51109989000E-03 0.  1.
     -623    1    1    2    0    0  0.21342430221E+00 -0.98481902434E-01  0.12868340386E+00  0.17130020960E+03  0.17130000000E+03 0. -1.
      622    1    1    2    0    0 -0.17369012680E+00  0.21304110460E-01  0.34602554592E+01  0.35796633876E+01  0.90000000000E+00 0.  1.
</event>
<event>
 5   0  0.4857400E+02  0.9118800E+02  0.7818608E-02  0.1180000E+00
       11   -1    0    0    0    0  0.00000000000E+00  0.00000000000E+00  0.39999999673E+01  0.40000000000E+01  0.51109989000E-03 0. -1.
     -623   -1    0    0    0    0  0.00000000000E+00  0.00000000000E+00  0.12525980253E-10  0.17130000000E+03  0.17130000000E+03 0.  1.
       11    1    1    2    0    0 -0.30942869681E-02 -0.12602030141E+00  0.11309519541E+00  0.16935606108E+00  0.51109989000E-03 0. -1.
     -623    1    1    2    0    0  0.15536986612E+00  0.10093563868E+00  0.16687445469E+00  0.17130018148E+03  0.17130000000E+03 0.  1.
      622    1    1    2    0    0 -0.15227557915E+00  0.25084662730E-01  0.37200303173E+01  0.38304624595E+01  0.90000000000E+00 0. -1.
</event>
<event>
 5   0  0.4857400E+02  0.9118800E+02  0.7818608E-02  0.1180000E+00
       11   -1    0    0    0    0  0.00000000000E+00  0.00000000000E+00  0.39999999673E+01  0.40000000000E+01  0.51109989000E-03 0.  1.
     -623   -1    0    0    0    0  0.00000000000E+00  0.00000000000E+00  0.12525980253E-10  0.17130000000E+03  0.17130000000E+03 0. -1.
       11    1    1    2    0    0  0.54121483307E-01  0.96098783716E-01  0.17178749495E+00  0.20414533016E+00  0.51109989000E-03 0.  1.
     -623    1    1    2    0    0 -0.17329541946E+00 -0.12463877983E+00  0.14283135427E+00  0.17130019255E+03  0.17130000000E+03 0. -1.
      622    1    1    2    0    0  0.11917393616E+00  0.28539996110E-01  0.36853811181E+01  0.37956621220E+01  0.90000000000E+00 0.  1.
</event>
<event>
 5   0  0.4857400E+02  0.9118800E+02  0.7818608E-02  0.1180000E+00
       11   -1    0    0    0    0  0.00000000000E+00  0.00000000000E+00  0.39999999673E+01  0.40000000000E+01  0.51109989000E-03 0. -1.
     -623   -1    0    0    0    0  0.00000000000E+00  0.00000000000E+00  0.12525980253E-10  0.17130000000E+03  0.17130000000E+03 0. -1.
       11    1    1    2    0    0 -0.93929675887E-03 -0.10501008985E+00 -0.85596551592E-03  0.10501902280E+00  0.51109989000E-03 0. -1.
     -623    1    1    2    0    0  0.17671558258E-02  0.10762188715E+00  0.21145106381E+00  0.17130016432E+03  0.17130000000E+03 0. -1.
      622    1    1    2    0    0 -0.82785906695E-03 -0.26117972955E-02  0.37894048691E+01  0.38948166540E+01  0.90000000000E+00 0. -1.
</event>
<event>
 5   0  0.4857400E+02  0.9118800E+02  0.7818608E-02  0.1180000E+00
       11   -1    0    0    0    0  0.00000000000E+00  0.00000000000E+00  0.39999999673E+01  0.40000000000E+01  0.51109989000E-03 0. -1.
     -623   -1    0    0    0    0  0.00000000000E+00  0.00000000000E+00  0.12525980253E-10  0.17130000000E+03  0.17130000000E+03 0. -1.
       11    1    1    2    0    0 -0.44180568245E-01 -0.87222001715E-01  0.78143572623E-01  0.12516500852E+00  0.51109989000E-03 0. -1.
     -623    1    1    2    0    0  0.59329399970E-01  0.60904404427E-01  0.15320548905E+00  0.17130008961E+03  0.17130000000E+03 0. -1.
      622    1    1    2    0    0 -0.15148831725E-01  0.26317597288E-01  0.37686509057E+01  0.38747453790E+01  0.90000000000E+00 0. -1.
</event>
<event>
 5   0  0.4857400E+02  0.9118800E+02  0.7818608E-02  0.1180000E+00
       11   -1    0    0    0    0  0.00000000000E+00  0.00000000000E+00  0.39999999673E+01  0.40000000000E+01  0.51109989000E-03 0. -1.
     -623   -1    0    0    0    0  0.00000000000E+00  0.00000000000E+00  0.12525980253E-10  0.17130000000E+03  0.17130000000E+03 0.  1.
       11    1    1    2    0    0  0.22745923172E-01  0.98178349003E-04  0.13105287066E-01  0.26256359798E-01  0.51109989000E-03 0. -1.
     -623    1    1    2    0    0 -0.62531076207E-01  0.12062989852E+00  0.11859714091E+00  0.17130009494E+03  0.17130000000E+03 0.  1.
      622    1    1    2    0    0  0.39785153035E-01 -0.12072807687E+00  0.38682975394E+01  0.39736486986E+01  0.90000000000E+00 0. -1.
</event>
<event>
 5   0  0.4857400E+02  0.9118800E+02  0.7818608E-02  0.1180000E+00
       11   -1    0    0    0    0  0.00000000000E+00  0.00000000000E+00  0.39999999673E+01  0.40000000000E+01  0.51109989000E-03 0.  1.
     -623   -1    0    0    0    0  0.00000000000E+00  0.00000000000E+00  0.12525980253E-10  0.17130000000E+03  0.17130000000E+03 0.  1.
       11    1    1    2    0    0 -0.93541738431E-01 -0.12889770581E+00  0.13686463732E+00  0.20999253692E+00  0.51109989000E-03 0.  1.
     -623    1    1    2    0    0  0.56596641447E-01  0.12166471469E+00  0.18188431583E+00  0.17130014912E+03  0.17130000000E+03 0.  1.
      622    1    1    2    0    0  0.36945096984E-01  0.72329911132E-02  0.36812510142E+01  0.37898583464E+01  0.90000000000E+00 0.  1.
</event>
<event>
 5   0  0.4857400E+02  0.9118800E+02  0.7818608E-02  0.1180000E+00
       11   -1    0    0    0    0  0.00000000000E+00  0.00000000000E+00  0.39999999673E+01  0.40000000000E+01  0.51109989000E-03 0.  1.
     -623   -1    0    0    0    0  0.00000000000E+00  0.00000000000E+00  0.12525980253E-10  0.17130000000E+03  0.17130000000E+03 0. -1.
       11    1    1    2    0    0  0.18554441488E-01 -0.39341434250E-02 -0.21567462919E-02  0.19096009036E-01  0.51109989000E-03 0.  1.
     -623    1    1    2    0    0 -0.96803777506E-01  0.14889544369E-01  0.12520347876E+00  0.17130007376E+03  0.17130000000E+03 0. -1.
      622    1    1    2    0    0  0.78249336017E-01 -0.10955400944E-01  0.38769532349E+01  0.39808302356E+01  0.90000000000E+00 0.  1.
</event>
<event>
 5   0  0.4857400E+02  0.9118800E+02  0.7818608E-02  0.1180000E+00
       11   -1    0    0    0    0  0.00000000000E+00  0.00000000000E+00  0.39999999673E+01  0.40000000000E+01  0.51109989000E-03 0.  1.
     -623   -1    0    0    0    0  0.00000000000E+00  0.00000000000E+00  0.12525980253E-10  0.17130000000E+03  0.17130000000E+03 0.  1.
       11    1    1    2    0    0  0.18823904251E-01  0.34671397660E-01  0.79770906582E-01  0.88994965842E-01  0.51109989000E-03 0.  1.
     -623    1    1    2    0    0 -0.22836515764E+00  0.86770917795E-01  0.12212406347E+00  0.17130021773E+03  0.17130000000E+03 0.  1.
      622    1    1    2    0    0  0.20954125339E+00 -0.12144231545E+00  0.37981049973E+01  0.39107873048E+01  0.90000000000E+00 0.  1.
</event>
<event>
 5   0  0.4857400E+02  0.9118800E+02  0.7818608E-02  0.1180000E+00
       11   -1    0    0    0    0  0.00000000000E+00  0.00000000000E+00  0.39999999673E+01  0.40000000000E+01  0.51109989000E-03 0.  1.
     -623   -1    0    0    0    0  0.00000000000E+00  0.00000000000E+00  0.12525980253E-10  0.17130000000E+03  0.17130000000E+03 0. -1.
       11    1    1    2    0    0 -0.42288427722E-01  0.19613011860E+00  0.35027873095E+00  0.40367163031E+00  0.51109989000E-03 0.  1.
     -623    1    1    2    0    0  0.94630051311E-01 -0.81836460327E-01  0.17023304574E+00  0.17130013027E+03  0.17130000000E+03 0. -1.
      622    1    1    2    0    0 -0.52341623590E-01 -0.11429365827E+00  0.34794881907E+01  0.35961980973E+01  0.90000000000E+00 0.  1.
</event>
<event>
 5   0  0.4857400E+02  0.9118800E+02  0.7818608E-02  0.1180000E+00
       11   -1    0    0    0    0  0.00000000000E+00  0.00000000000E+00  0.39999999673E+01  0.40000000000E+01  0.51109989000E-03 0. -1.
     -623   -1    0    0    0    0  0.00000000000E+00  0.00000000000E+00  0.12525980253E-10  0.17130000000E+03  0.17130000000E+03 0.  1.
       11    1    1    2    0    0  0.11040130987E-01  0.76199636935E-01 -0.14737514275E-02  0.77011053275E-01  0.51109989000E-03 0. -1.
     -623    1    1    2    0    0  0.76270210318E-01  0.29123204617E-01  0.18569280625E+00  0.17130012010E+03  0.17130000000E+03 0.  1.
      622    1    1    2    0    0 -0.87310341306E-01 -0.10532284155E+00  0.38157809125E+01  0.39228688442E+01  0.90000000000E+00 0. -1.
</event>
<event>
 5   0  0.4857400E+02  0.9118800E+02  0.7818608E-02  0.1180000E+00
       11   -1    0    0    0    0  0.00000000000E+00  0.00000000000E+00  0.39999999673E+01  0.40000000000E+01  0.51109989000E-03 0. -1.
     -623   -1    0    0    0    0  0.00000000000E+00  0.00000000000E+00  0.12525980253E-10  0.17130000000E+03  0.17130000000E+03 0. -1.
       11    1    1    2    0    0  0.86051999497E-01  0.11431272145E+00  0.59965013469E-01  0.15513996573E+00  0.51109989000E-03 0. -1.
     -623    1    1    2    0    0 -0.15547437874E+00 -0.12581061978E+00  0.20290032748E+00  0.17130023692E+03  0.17130000000E+03 0. -1.
      622    1    1    2    0    0  0.69422379244E-01  0.11497898324E-01  0.37371346264E+01  0.38446231134E+01  0.90000000000E+00 0. -1.
</event>
<event>
 5   0  0.4857400E+02  0.9118800E+02  0.7818608E-02  0.1180000E+00
       11   -1    0    0    0    0  0.00000000000E+00  0.00000000000E+00  0.39999999673E+01  0.40000000000E+01  0.51109989000E-03 0.  1.
     -623   -1    0    0    0    0  0.00000000000E+00  0.00000000000E+00  0.12525980253E-10  0.17130000000E+03  0.17130000000E+03 0.  1.
       11    1    1    2    0    0  0.40928093782E-01  0.42157402998E-01 -0.30526735985E-01  0.66215544408E-01  0.51109989000E-03 0.  1.
     -623    1    1    2    0    0 -0.55239151009E-01 -0.60579338364E-01  0.20129294797E+00  0.17130013789E+03  0.17130000000E+03 0.  1.
      622    1    1    2    0    0  0.14311057226E-01  0.18421935366E-01  0.38292337554E+01  0.39336465687E+01  0.90000000000E+00 0.  1.
</event>
<event>
 5   0  0.4857400E+02  0.9118800E+02  0.7818608E-02  0.1180000E+00
       11   -1    0    0    0    0  0.00000000000E+00  0.00000000000E+00  0.39999999673E+01  0.40000000000E+01  0.51109989000E-03 0.  1.
     -623   -1    0    0    0    0  0.00000000000E+00  0.00000000000E+00  0.12525980253E-10  0.17130000000E+03  0.17130000000E+03 0. -1.
       11    1    1    2    0    0 -0.24340109589E-01  0.15724870096E-01 -0.22527830861E-01  0.36707994479E-01  0.51109989000E-03 0.  1.
     -623    1    1    2    0    0  0.30417033279E-01 -0.60507364169E-01  0.16313415553E+00  0.17130009107E+03  0.17130000000E+03 0. -1.
      622    1    1    2    0    0 -0.60769236899E-02  0.44782494073E-01  0.38593936427E+01  0.39632009399E+01  0.90000000000E+00 0.  1.
</event>
<event>
 5   0  0.4857400E+02  0.9118800E+02  0.7818608E-02  0.1180000E+00
       11   -1    0    0    0    0  0.00000000000E+00  0.00000000000E+00  0.39999999673E+01  0.40000000000E+01  0.51109989000E-03 0. -1.
     -623   -1    0    0    0    0  0.00000000000E+00  0.00000000000E+00  0.12525980253E-10  0.17130000000E+03  0.17130000000E+03 0. -1.
       11    1    1    2    0    0  0.36563035296E-01  0.24381923600E-01  0.25140567760E-01  0.50632431493E-01  0.51109989000E-03 0. -1.
     -623    1    1    2    0    0 -0.77826983700E-01  0.60961156334E-01  0.13065608294E+00  0.17130007835E+03  0.17130000000E+03 0. -1.
      622    1    1    2    0    0  0.41263948404E-01 -0.85343079934E-01  0.38442033167E+01  0.39492892138E+01  0.90000000000E+00 0. -1.
</event>
<event>
 5   0  0.4857400E+02  0.9118800E+02  0.7818608E-02  0.1180000E+00
       11   -1    0    0    0    0  0.00000000000E+00  0.00000000000E+00  0.39999999673E+01  0.40000000000E+01  0.51109989000E-03 0.  1.
     -623   -1    0    0    0    0  0.00000000000E+00  0.00000000000E+00  0.12525980253E-10  0.17130000000E+03  0.17130000000E+03 0. -1.
       11    1    1    2    0    0 -0.56007768176E-02  0.29102159758E-01  0.23127850350E-01  0.37596051477E-01  0.51109989000E-03 0.  1.
     -623    1    1    2    0    0  0.73348545373E-02 -0.11428200411E+00  0.11905469891E+00  0.17130007965E+03  0.17130000000E+03 0. -1.
      622    1    1    2    0    0 -0.17340777198E-02  0.85179844357E-01  0.38578174181E+01  0.39623242982E+01  0.90000000000E+00 0.  1.
</event>
<event>
 5   0  0.4857400E+02  0.9118800E+02  0.7818608E-02  0.1180000E+00
       11   -1    0    0    0    0  0.00000000000E+00  0.00000000000E+00  0.39999999673E+01  0.40000000000E+01  0.51109989000E-03 0. -1.
     -623   -1    0    0    0    0  0.00000000000E+00  0.00000000000E+00  0.12525980253E-10  0.17130000000E+03  0.17130000000E+03 0.  1.
       11    1    1    2    0    0  0.45471317777E-01 -0.14647468489E-01 -0.29969980511E-01  0.56397251958E-01  0.51109989000E-03 0. -1.
     -623    1    1    2    0    0 -0.40853950793E-01  0.29462953013E-01  0.19058624686E+00  0.17130011343E+03  0.17130000000E+03 0.  1.
      622    1    1    2    0    0 -0.46173669837E-02 -0.14815484524E-01  0.38393837010E+01  0.39434893207E+01  0.90000000000E+00 0. -1.
</event>
<event>
 5   0  0.4857400E+02  0.9118800E+02  0.7818608E-02  0.1180000E+00
       11   -1    0    0    0    0  0.00000000000E+00  0.00000000000E+00  0.39999999673E+01  0.40000000000E+01  0.51109989000E-03 0. -1.
     -623   -1    0    0    0    0  0.00000000000E+00  0.00000000000E+00  0.12525980253E-10  0.17130000000E+03  0.17130000000E+03 0. -1.
       11    1    1    2    0    0 -0.10295750558E+00 -0.14710582880E+00  0.30555968892E+00  0.35441128302E+00  0.51109989000E-03 0. -1.
     -623    1    1    2    0    0  0.77312156514E-01 -0.16410120972E+00  0.17571149586E+00  0.17130018617E+03  0.17130000000E+03 0. -1.
      622    1    1    2    0    0  0.25645349065E-01  0.31120703852E+00  0.35187287826E+01  0.36454025498E+01  0.90000000000E+00 0. -1.
</event>
<event>
 5   0  0.4857400E+02  0.9118800E+02  0.7818608E-02  0.1180000E+00
       11   -1    0    0    0    0  0.00000000000E+00  0.00000000000E+00  0.39999999673E+01  0.40000000000E+01  0.51109989000E-03 0.  1.
     -623   -1    0    0    0    0  0.00000000000E+00  0.00000000000E+00  0.12525980253E-10  0.17130000000E+03  0.17130000000E+03 0. -1.
       11    1    1    2    0    0 -0.10463838749E+00  0.16939608267E+00  0.32694368634E+00  0.38280107135E+00  0.51109989000E-03 0.  1.
     -623    1    1    2    0    0 -0.45544669808E-01 -0.11186763439E+00  0.17343910499E+00  0.17130013038E+03  0.17130000000E+03 0. -1.
      622    1    1    2    0    0  0.15018305730E+00 -0.57528448284E-01  0.34996171760E+01  0.36170685440E+01  0.90000000000E+00 0.  1.
</event>
<event>
 5   0  0.4857400E+02  0.9118800E+02  0.7818608E-02  0.1180000E+00
       11   -1    0    0    0    0  0.00000000000E+00  0.00000000000E+00  0.39999999673E+01  0.40000000000E+01  0.51109989000E-03 0. -1.
     -623   -1    0    0    0    0  0.00000000000E+00  0.00000000000E+00  0.12525980253E-10  0.17130000000E+03  0.17130000000E+03 0.  1.
       11    1    1    2    0    0  0.10307869898E+00 -0.75713895487E-02  0.83437073769E-01  0.13283279198E+00  0.51109989000E-03 0. -1.
     -623    1    1    2    0    0 -0.12678567440E+00 -0.62187401918E-01  0.15643639930E+00  0.17130012964E+03  0.17130000000E+03 0.  1.
      622    1    1    2    0    0  0.23706975419E-01  0.69758791466E-01  0.37601264943E+01  0.38670375693E+01  0.90000000000E+00 0. -1.
</event>
<event>
 5   0  0.4857400E+02  0.9118800E+02  0.7818608E-02  0.1180000E+00
       11   -1    0    0    0    0  0.00000000000E+00  0.00000000000E+00  0.39999999673E+01  0.40000000000E+01  0.51109989000E-03 0. -1.
     -623   -1    0    0    0    0  0.00000000000E+00  0.00000000000E+00  0.12525980253E-10  0.17130000000E+03  0.17130000000E+03 0. -1.
       11    1    1    2    0    0 -0.98423406608E-01 -0.62201190095E-01  0.25226489928E+00  0.27783807451E+00  0.51109989000E-03 0. -1.
     -623    1    1    2    0    0  0.51984754148E-01  0.71455893245E-01  0.13640938082E+00  0.17130007710E+03  0.17130000000E+03 0. -1.
      622    1    1    2    0    0  0.46438652460E-01 -0.92547031507E-02  0.36113256873E+01  0.37220848214E+01  0.90000000000E+00 0. -1.
</event>
<event>
 5   0  0.4857400E+02  0.9118800E+02  0.7818608E-02  0.1180000E+00
       11   -1    0    0    0    0  0.00000000000E+00  0.00000000000E+00  0.39999999673E+01  0.40000000000E+01  0.51109989000E-03 0. -1.
     -623   -1    0    0    0    0  0.00000000000E+00  0.00000000000E+00  0.12525980253E-10  0.17130000000E+03  0.17130000000E+03 0.  1.
       11    1    1    2    0    0 -0.16859638749E+00  0.14605699309E-01  0.27936814090E+00  0.32662652632E+00  0.51109989000E-03 0. -1.
     -623    1    1    2    0    0 -0.36488023262E-01  0.11039777490E+00  0.16745071406E+00  0.17130012130E+03  0.17130000000E+03 0.  1.
      622    1    1    2    0    0  0.20508441075E+00 -0.12500347421E+00  0.35531811124E+01  0.36732521696E+01  0.90000000000E+00 0. -1.
</event>
<event>
 5   0  0.4857400E+02  0.9118800E+02  0.7818608E-02  0.1180000E+00
       11   -1    0    0    0    0  0.00000000000E+00  0.00000000000E+00  0.39999999673E+01  0.40000000000E+01  0.51109989000E-03 0.  1.
     -623   -1    0    0    0    0  0.00000000000E+00  0.00000000000E+00  0.12525980253E-10  0.17130000000E+03  0.17130000000E+03 0.  1.
       11    1    1    2    0    0  0.61705221447E-01 -0.99098711490E-02  0.55501634128E-01  0.83584882089E-01  0.51109989000E-03 0.  1.
     -623    1    1    2    0    0 -0.61839306464E-01 -0.85743559339E-01  0.13418461766E+00  0.17130008518E+03  0.17130000000E+03 0.  1.
      622    1    1    2    0    0  0.13408501714E-03  0.95653430488E-01  0.38103137156E+01  0.39163299411E+01  0.90000000000E+00 0.  1.
</event>
<event>
 5   0  0.4857400E+02  0.9118800E+02  0.7818608E-02  0.1180000E+00
       11   -1    0    0    0    0  0.00000000000E+00  0.00000000000E+00  0.39999999673E+01  0.40000000000E+01  0.51109989000E-03 0.  1.
     -623   -1    0    0    0    0  0.00000000000E+00  0.00000000000E+00  0.12525980253E-10  0.17130000000E+03  0.17130000000E+03 0.  1.
       11    1    1    2    0    0 -0.17908329963E+00  0.10105706136E+00  0.36074527947E+00  0.41523580739E+00  0.51109989000E-03 0.  1.
     -623    1    1    2    0    0  0.15886238558E+00 -0.13101922899E-01  0.17064571097E+00  0.17130015916E+03  0.17130000000E+03 0.  1.
      622    1    1    2    0    0  0.20220914049E-01 -0.87955138460E-01  0.34686089769E+01  0.35846050308E+01  0.90000000000E+00 0.  1.
</event>
<event>
 5   0  0.4857400E+02  0.9118800E+02  0.7818608E-02  0.1180000E+00
       11   -1    0    0    0    0  0.00000000000E+00  0.00000000000E+00  0.39999999673E+01  0.40000000000E+01  0.51109989000E-03 0.  1.
     -623   -1    0    0    0    0  0.00000000000E+00  0.00000000000E+00  0.12525980253E-10  0.17130000000E+03  0.17130000000E+03 0.  1.
       11    1    1    2    0    0  0.57010226458E-01  0.51270633812E-01  0.79968974368E-01  0.11078872640E+00  0.51109989000E-03 0.  1.
     -623    1    1    2    0    0 -0.93169182022E-01  0.89730477003E-01  0.13929625819E+00  0.17130010547E+03  0.17130000000E+03 0.  1.
      622    1    1    2    0    0  0.36158955564E-01 -0.14100111082E+00  0.37807347348E+01  0.38891057993E+01  0.90000000000E+00 0.  1.
</event>
<event>
 5   0  0.4857400E+02  0.9118800E+02  0.7818608E-02  0.1180000E+00
       11   -1    0    0    0    0  0.00000000000E+00  0.00000000000E+00  0.39999999673E+01  0.40000000000E+01  0.51109989000E-03 0.  1.
     -623   -1    0    0    0    0  0.00000000000E+00  0.00000000000E+00  0.12525980253E-10  0.17130000000E+03  0.17130000000E+03 0. -1.
       11    1    1    2    0    0  0.97728685537E-01  0.82074489077E-01  0.18841047031E+00  0.22756512097E+00  0.51109989000E-03 0.  1.
     -623    1    1    2    0    0  0.14926597502E-01 -0.44195385039E-01  0.15008777272E+00  0.17130007210E+03  0.17130000000E+03 0. -1.
      622    1    1    2    0    0 -0.11265528304E+00 -0.37879104038E-01  0.36615017243E+01  0.37723627764E+01  0.90000000000E+00 0.  1.
</event>
<event>
 5   0  0.4857400E+02  0.9118800E+02  0.7818608E-02  0.1180000E+00
       11   -1    0    0    0    0  0.00000000000E+00  0.00000000000E+00  0.39999999673E+01  0.40000000000E+01  0.51109989000E-03 0. -1.
     -623   -1    0    0    0    0  0.00000000000E+00  0.00000000000E+00  0.12525980253E-10  0.17130000000E+03  0.17130000000E+03 0.  1.
       11    1    1    2    0    0  0.17745012475E+00  0.70031035387E-01  0.41385423631E+00  0.45570657536E+00  0.51109989000E-03 0. -1.
     -623    1    1    2    0    0 -0.13945880015E+00 -0.13696938212E+00  0.15908027322E+00  0.17130018539E+03  0.17130000000E+03 0.  1.
      622    1    1    2    0    0 -0.37991324603E-01  0.66938346731E-01  0.34270654578E+01  0.35441080310E+01  0.90000000000E+00 0. -1.
</event>
<event>
 5   0  0.4857400E+02  0.9118800E+02  0.7818608E-02  0.1180000E+00
       11   -1    0    0    0    0  0.00000000000E+00  0.00000000000E+00  0.39999999673E+01  0.40000000000E+01  0.51109989000E-03 0.  1.
     -623   -1    0    0    0    0  0.00000000000E+00  0.00000000000E+00  0.12525980253E-10  0.17130000000E+03  0.17130000000E+03 0.  1.
       11    1    1    2    0    0  0.50567056717E+00 -0.66153607284E-01  0.74599109104E+00  0.90364926349E+00  0.51109989000E-03 0.  1.
     -623    1    1    2    0    0  0.59404410127E-01  0.37814476610E+00  0.36338524093E+00  0.17130081311E+03  0.17130000000E+03 0.  1.
      622    1    1    2    0    0 -0.56507497730E+00 -0.31199115881E+00  0.28906236354E+01  0.30955376293E+01  0.90000000000E+00 0.  1.
</event>
<event>
 5   0  0.4857400E+02  0.9118800E+02  0.7818608E-02  0.1180000E+00
       11   -1    0    0    0    0  0.00000000000E+00  0.00000000000E+00  0.39999999673E+01  0.40000000000E+01  0.51109989000E-03 0. -1.
     -623   -1    0    0    0    0  0.00000000000E+00  0.00000000000E+00  0.12525980253E-10  0.17130000000E+03  0.17130000000E+03 0. -1.
       11    1    1    2    0    0  0.79367769586E-01 -0.13560565844E+00  0.40280099600E+00  0.43236216423E+00  0.51109989000E-03 0. -1.
     -623    1    1    2    0    0 -0.12833370505E+00  0.70454995562E-01  0.14603874618E+00  0.17130012481E+03  0.17130000000E+03 0. -1.
      622    1    1    2    0    0  0.48965935463E-01  0.65150662880E-01  0.34511602252E+01  0.35675130233E+01  0.90000000000E+00 0. -1.
</event>
<event>
 5   0  0.4857400E+02  0.9118800E+02  0.7818608E-02  0.1180000E+00
       11   -1    0    0    0    0  0.00000000000E+00  0.00000000000E+00  0.39999999673E+01  0.40000000000E+01  0.51109989000E-03 0. -1.
     -623   -1    0    0    0    0  0.00000000000E+00  0.00000000000E+00  0.12525980253E-10  0.17130000000E+03  0.17130000000E+03 0. -1.
       11    1    1    2    0    0 -0.19125744041E+00  0.93391678994E-01  0.63963196802E+00  0.67411477506E+00  0.51109989000E-03 0. -1.
     -623    1    1    2    0    0 -0.20746175906E+00  0.18764952832E-01  0.18571142511E+00  0.17130022732E+03  0.17130000000E+03 0. -1.
      622    1    1    2    0    0  0.39871919946E+00 -0.11215663183E+00  0.31746565742E+01  0.33256579010E+01  0.90000000000E+00 0.  0.
</event>
<event>
 5   0  0.4857400E+02  0.9118800E+02  0.7818608E-02  0.1180000E+00
       11   -1    0    0    0    0  0.00000000000E+00  0.00000000000E+00  0.39999999673E+01  0.40000000000E+01  0.51109989000E-03 0. -1.
     -623   -1    0    0    0    0  0.00000000000E+00  0.00000000000E+00  0.12525980253E-10  0.17130000000E+03  0.17130000000E+03 0.  1.
       11    1    1    2    0    0  0.13253077183E+00  0.10348520742E+00  0.14924430985E+00  0.22482819860E+00  0.51109989000E-03 0. -1.
     -623    1    1    2    0    0 -0.52254117570E-01 -0.17295440058E+00  0.18617265394E+00  0.17130019645E+03  0.17130000000E+03 0.  1.
      622    1    1    2    0    0 -0.80276654263E-01  0.69469193164E-01  0.36645830036E+01  0.37749753509E+01  0.90000000000E+00 0. -1.
</event>
<event>
 5   0  0.4857400E+02  0.9118800E+02  0.7818608E-02  0.1180000E+00
       11   -1    0    0    0    0  0.00000000000E+00  0.00000000000E+00  0.39999999673E+01  0.40000000000E+01  0.51109989000E-03 0.  1.
     -623   -1    0    0    0    0  0.00000000000E+00  0.00000000000E+00  0.12525980253E-10  0.17130000000E+03  0.17130000000E+03 0. -1.
       11    1    1    2    0    0  0.30202100507E-01  0.31198731604E-01  0.16715564589E+00  0.17270436851E+00  0.51109989000E-03 0.  1.
     -623    1    1    2    0    0 -0.13260505957E+00 -0.24134145262E-02  0.11448567166E+00  0.17130008960E+03  0.17130000000E+03 0. -1.
      622    1    1    2    0    0  0.10240295907E+00 -0.28785317078E-01  0.37183586498E+01  0.38272060317E+01  0.90000000000E+00 0.  1.
</event>
<event>
 5   0  0.4857400E+02  0.9118800E+02  0.7818608E-02  0.1180000E+00
       11   -1    0    0    0    0  0.00000000000E+00  0.00000000000E+00  0.39999999673E+01  0.40000000000E+01  0.51109989000E-03 0. -1.
     -623   -1    0    0    0    0  0.00000000000E+00  0.00000000000E+00  0.12525980253E-10  0.17130000000E+03  0.17130000000E+03 0. -1.
       11    1    1    2    0    0 -0.56989831678E-02  0.14563497490E+00  0.15364508535E+00  0.21177605577E+00  0.51109989000E-03 0. -1.
     -623    1    1    2    0    0 -0.25296523750E+00 -0.36942355125E-01  0.17759805858E+00  0.17130028283E+03  0.17130000000E+03 0. -1.
      622    1    1    2    0    0  0.25866422067E+00 -0.10869261978E+00  0.36687568234E+01  0.37879411155E+01  0.90000000000E+00 0. -1.
</event>
<event>
 5   0  0.4857400E+02  0.9118800E+02  0.7818608E-02  0.1180000E+00
       11   -1    0    0    0    0  0.00000000000E+00  0.00000000000E+00  0.39999999673E+01  0.40000000000E+01  0.51109989000E-03 0.  1.
     -623   -1    0    0    0    0  0.00000000000E+00  0.00000000000E+00  0.12525980253E-10  0.17130000000E+03  0.17130000000E+03 0. -1.
       11    1    1    2    0    0 -0.10267870721E+00  0.80100325175E-01  0.30287826106E+00  0.32968846091E+00  0.51109989000E-03 0.  1.
     -623    1    1    2    0    0  0.19905744486E-01  0.43350814159E-01  0.14203883518E+00  0.17130006553E+03  0.17130000000E+03 0. -1.
      622    1    1    2    0    0  0.82772962726E-01 -0.12345113933E+00  0.35550828711E+01  0.36702460092E+01  0.90000000000E+00 0.  1.
</event>
<event>
 5   0  0.4857400E+02  0.9118800E+02  0.7818608E-02  0.1180000E+00
       11   -1    0    0    0    0  0.00000000000E+00  0.00000000000E+00  0.39999999673E+01  0.40000000000E+01  0.51109989000E-03 0.  1.
     -623   -1    0    0    0    0  0.00000000000E+00  0.00000000000E+00  0.12525980253E-10  0.17130000000E+03  0.17130000000E+03 0.  1.
       11    1    1    2    0    0 -0.18322068477E-01  0.16527138635E+00  0.11949734275E+00  0.20476866334E+00  0.51109989000E-03 0.  1.
     -623    1    1    2    0    0 -0.90005537249E-02 -0.18361378229E+00  0.19388949928E+00  0.17130020837E+03  0.17130000000E+03 0.  1.
      622    1    1    2    0    0  0.27322622202E-01  0.18342395947E-01  0.36866131253E+01  0.37950229650E+01  0.90000000000E+00 0.  1.
</event>
<event>
 5   0  0.4857400E+02  0.9118800E+02  0.7818608E-02  0.1180000E+00
       11   -1    0    0    0    0  0.00000000000E+00  0.00000000000E+00  0.39999999673E+01  0.40000000000E+01  0.51109989000E-03 0. -1.
     -623   -1    0    0    0    0  0.00000000000E+00  0.00000000000E+00  0.12525980253E-10  0.17130000000E+03  0.17130000000E+03 0.  1.
       11    1    1    2    0    0 -0.11421974342E+00 -0.50333589501E-01 -0.60128040142E-02  0.12496413507E+00  0.51109989000E-03 0. -1.
     -623    1    1    2    0    0 -0.27415964076E+00  0.26605312050E+00  0.26386721951E+00  0.17130062923E+03  0.17130000000E+03 0.  1.
      622    1    1    2    0    0  0.38837938417E+00 -0.21571953100E+00  0.37421455519E+01  0.38744066376E+01  0.90000000000E+00 0. -1.
</event>
<event>
 5   0  0.4857400E+02  0.9118800E+02  0.7818608E-02  0.1180000E+00
       11   -1    0    0    0    0  0.00000000000E+00  0.00000000000E+00  0.39999999673E+01  0.40000000000E+01  0.51109989000E-03 0. -1.
     -623   -1    0    0    0    0  0.00000000000E+00  0.00000000000E+00  0.12525980253E-10  0.17130000000E+03  0.17130000000E+03 0.  1.
       11    1    1    2    0    0 -0.18912608958E+00 -0.87871850630E-01  0.27487035973E+00  0.34502770291E+00  0.51109989000E-03 0. -1.
     -623    1    1    2    0    0 -0.10548403925E+00 -0.59654042307E-01  0.19821709908E+00  0.17130015755E+03  0.17130000000E+03 0.  1.
      622    1    1    2    0    0  0.29461012883E+00  0.14752589294E+00  0.35269125086E+01  0.36548147505E+01  0.90000000000E+00 0. -1.
</event>
<event>
 5   0  0.4857400E+02  0.9118800E+02  0.7818608E-02  0.1180000E+00
       11   -1    0    0    0    0  0.00000000000E+00  0.00000000000E+00  0.39999999673E+01  0.40000000000E+01  0.51109989000E-03 0. -1.
     -623   -1    0    0    0    0  0.00000000000E+00  0.00000000000E+00  0.12525980253E-10  0.17130000000E+03  0.17130000000E+03 0. -1.
       11    1    1    2    0    0  0.93540468261E-02  0.91554525153E-02 -0.35851251762E-01  0.38169280564E-01  0.51109989000E-03 0. -1.
     -623    1    1    2    0    0 -0.13982340070E+00  0.14080392834E+00  0.18294220313E+00  0.17130021262E+03  0.17130000000E+03 0. -1.
      622    1    1    2    0    0  0.13046935387E+00 -0.14995938086E+00  0.38529090160E+01  0.39616180979E+01  0.90000000000E+00 0. -1.
</event>
<event>
 5   0  0.4857400E+02  0.9118800E+02  0.7818608E-02  0.1180000E+00
       11   -1    0    0    0    0  0.00000000000E+00  0.00000000000E+00  0.39999999673E+01  0.40000000000E+01  0.51109989000E-03 0.  1.
     -623   -1    0    0    0    0  0.00000000000E+00  0.00000000000E+00  0.12525980253E-10  0.17130000000E+03  0.17130000000E+03 0. -1.
       11    1    1    2    0    0 -0.37301307898E-01  0.97789993096E-01  0.24110792745E+00  0.26284513354E+00  0.51109989000E-03 0.  1.
     -623    1    1    2    0    0  0.16429553432E-01 -0.53536629055E-01  0.13211891825E+00  0.17130006010E+03  0.17130000000E+03 0. -1.
      622    1    1    2    0    0  0.20871754465E-01 -0.44253364040E-01  0.36267731217E+01  0.37370947628E+01  0.90000000000E+00 0.  1.
</event>
<event>
 5   0  0.4857400E+02  0.9118800E+02  0.7818608E-02  0.1180000E+00
       11   -1    0    0    0    0  0.00000000000E+00  0.00000000000E+00  0.39999999673E+01  0.40000000000E+01  0.51109989000E-03 0. -1.
     -623   -1    0    0    0    0  0.00000000000E+00  0.00000000000E+00  0.12525980253E-10  0.17130000000E+03  0.17130000000E+03 0.  1.
       11    1    1    2    0    0  0.24539795381E-01  0.35479454077E-01  0.12809192621E+00  0.13516211008E+00  0.51109989000E-03 0. -1.
     -623    1    1    2    0    0 -0.93573225084E-01 -0.17414022139E+00  0.11667294069E+00  0.17130015380E+03  0.17130000000E+03 0.  1.
      622    1    1    2    0    0  0.69033429703E-01  0.13866076731E+00  0.37552351005E+01  0.38646840857E+01  0.90000000000E+00 0. -1.
</event>
<event>
 5   0  0.4857400E+02  0.9118800E+02  0.7818608E-02  0.1180000E+00
       11   -1    0    0    0    0  0.00000000000E+00  0.00000000000E+00  0.39999999673E+01  0.40000000000E+01  0.51109989000E-03 0.  1.
     -623   -1    0    0    0    0  0.00000000000E+00  0.00000000000E+00  0.12525980253E-10  0.17130000000E+03  0.17130000000E+03 0.  1.
       11    1    1    2    0    0 -0.42252390461E-01  0.87534168030E-02 -0.20054327258E-01  0.47584914313E-01  0.51109989000E-03 0.  1.
     -623    1    1    2    0    0  0.80416436533E-01  0.12700881180E+00  0.17421557479E+00  0.17130015455E+03  0.17130000000E+03 0.  1.
      622    1    1    2    0    0 -0.38164046073E-01 -0.13576222860E+00  0.38458387198E+01  0.39522605349E+01  0.90000000000E+00 0.  1.
</event>
<event>
 5   0  0.4857400E+02  0.9118800E+02  0.7818608E-02  0.1180000E+00
       11   -1    0    0    0    0  0.00000000000E+00  0.00000000000E+00  0.39999999673E+01  0.40000000000E+01  0.51109989000E-03 0.  1.
     -623   -1    0    0    0    0  0.00000000000E+00  0.00000000000E+00  0.12525980253E-10  0.17130000000E+03  0.17130000000E+03 0. -1.
       11    1    1    2    0    0 -0.10978548364E+00 -0.92082104406E-01 -0.15325440353E-01  0.14410793425E+00  0.51109989000E-03 0.  1.
     -623    1    1    2    0    0  0.16839306214E+00  0.99717512636E-01  0.26673273958E+00  0.17130031946E+03  0.17130000000E+03 0. -1.
      622    1    1    2    0    0 -0.58607578503E-01 -0.76354082304E-02  0.37485926681E+01  0.38555726085E+01  0.90000000000E+00 0.  1.
</event>
<event>
 5   0  0.4857400E+02  0.9118800E+02  0.7818608E-02  0.1180000E+00
       11   -1    0    0    0    0  0.00000000000E+00  0.00000000000E+00  0.39999999673E+01  0.40000000000E+01  0.51109989000E-03 0.  1.
     -623   -1    0    0    0    0  0.00000000000E+00  0.00000000000E+00  0.12525980253E-10  0.17130000000E+03  0.17130000000E+03 0.  1.
       11    1    1    2    0    0 -0.93690697879E-01  0.13990322828E+00  0.40242190702E+00  0.43622759269E+00  0.51109989000E-03 0.  1.
     -623    1    1    2    0    0  0.11937663998E+00  0.18144149193E-02  0.15244379492E+00  0.17130010944E+03  0.17130000000E+03 0.  1.
      622    1    1    2    0    0 -0.25685942098E-01 -0.14171764319E+00  0.34451342654E+01  0.35636629701E+01  0.90000000000E+00 0.  1.
</event>
<event>
 5   0  0.4857400E+02  0.9118800E+02  0.7818608E-02  0.1180000E+00
       11   -1    0    0    0    0  0.00000000000E+00  0.00000000000E+00  0.39999999673E+01  0.40000000000E+01  0.51109989000E-03 0. -1.
     -623   -1    0    0    0    0  0.00000000000E+00  0.00000000000E+00  0.12525980253E-10  0.17130000000E+03  0.17130000000E+03 0. -1.
       11    1    1    2    0    0  0.24733367264E-01 -0.59338548548E-01  0.20742608104E-02  0.64322364530E-01  0.51109989000E-03 0. -1.
     -623    1    1    2    0    0 -0.59991288948E-01  0.14277511759E+00  0.16776173617E+00  0.17130015215E+03  0.17130000000E+03 0. -1.
      622    1    1    2    0    0  0.35257921685E-01 -0.83436569040E-01  0.38301639704E+01  0.39355254823E+01  0.90000000000E+00 0. -1.
</event>
<event>
 5   0  0.4857400E+02  0.9118800E+02  0.7818608E-02  0.1180000E+00
       11   -1    0    0    0    0  0.00000000000E+00  0.00000000000E+00  0.39999999673E+01  0.40000000000E+01  0.51109989000E-03 0. -1.
     -623   -1    0    0    0    0  0.00000000000E+00  0.00000000000E+00  0.12525980253E-10  0.17130000000E+03  0.17130000000E+03 0.  1.
       11    1    1    2    0    0 -0.11719704686E+00  0.33150048048E+00  0.21780404472E+00  0.41360195777E+00  0.51109989000E-03 0. -1.
     -623    1    1    2    0    0  0.20925540158E+00 -0.31330156276E-01  0.32524319973E+00  0.17130043944E+03  0.17130000000E+03 0.  1.
      622    1    1    2    0    0 -0.92058354721E-01 -0.30017032420E+00  0.34569527229E+01  0.35859586016E+01  0.90000000000E+00 0. -1.
</event>
<event>
 5   0  0.4857400E+02  0.9118800E+02  0.7818608E-02  0.1180000E+00
       11   -1    0    0    0    0  0.00000000000E+00  0.00000000000E+00  0.39999999673E+01  0.40000000000E+01  0.51109989000E-03 0. -1.
     -623   -1    0    0    0    0  0.00000000000E+00  0.00000000000E+00  0.12525980253E-10  0.17130000000E+03  0.17130000000E+03 0.  1.
       11    1    1    2    0    0  0.14520350059E-01  0.90603466389E-01  0.13885990437E+00  0.16643966760E+00  0.51109989000E-03 0. -1.
     -623    1    1    2    0    0 -0.15972084796E-01  0.28381854119E-01  0.13668260133E+00  0.17130005763E+03  0.17130000000E+03 0.  1.
      622    1    1    2    0    0  0.14517347367E-02 -0.11898532051E+00  0.37244574617E+01  0.38335027061E+01  0.90000000000E+00 0. -1.
</event>
<event>
 5   0  0.4857400E+02  0.9118800E+02  0.7818608E-02  0.1180000E+00
       11   -1    0    0    0    0  0.00000000000E+00  0.00000000000E+00  0.39999999673E+01  0.40000000000E+01  0.51109989000E-03 0. -1.
     -623   -1    0    0    0    0  0.00000000000E+00  0.00000000000E+00  0.12525980253E-10  0.17130000000E+03  0.17130000000E+03 0.  1.
       11    1    1    2    0    0  0.94114641874E-02 -0.14124720512E-01 -0.96708530874E-03  0.17008229325E-01  0.51109989000E-03 0. -1.
     -623    1    1    2    0    0 -0.23553091314E-01  0.53789816893E-01  0.12127273395E+00  0.17130005299E+03  0.17130000000E+03 0.  1.
      622    1    1    2    0    0  0.14141627127E-01 -0.39665096381E-01  0.38796943187E+01  0.39829387784E+01  0.90000000000E+00 0. -1.
</event>
<event>
 5   0  0.4857400E+02  0.9118800E+02  0.7818608E-02  0.1180000E+00
       11   -1    0    0    0    0  0.00000000000E+00  0.00000000000E+00  0.39999999673E+01  0.40000000000E+01  0.51109989000E-03 0. -1.
     -623   -1    0    0    0    0  0.00000000000E+00  0.00000000000E+00  0.12525980253E-10  0.17130000000E+03  0.17130000000E+03 0. -1.
       11    1    1    2    0    0 -0.34485954116E-01  0.15173746242E+00  0.58977573733E+00  0.60995837571E+00  0.51109989000E-03 0. -1.
     -623    1    1    2    0    0 -0.13636372621E+00 -0.67353560218E-01  0.14752849251E+00  0.17130013105E+03  0.17130000000E+03 0. -1.
      622    1    1    2    0    0  0.17084968033E+00 -0.84383902205E-01  0.32626957375E+01  0.33899105787E+01  0.90000000000E+00 0. -1.
</event>
<event>
 5   0  0.4857400E+02  0.9118800E+02  0.7818608E-02  0.1180000E+00
       11   -1    0    0    0    0  0.00000000000E+00  0.00000000000E+00  0.39999999673E+01  0.40000000000E+01  0.51109989000E-03 0. -1.
     -623   -1    0    0    0    0  0.00000000000E+00  0.00000000000E+00  0.12525980253E-10  0.17130000000E+03  0.17130000000E+03 0. -1.
       11    1    1    2    0    0 -0.61647989975E-02 -0.17410765256E-01  0.50335244754E-01  0.53619376909E-01  0.51109989000E-03 0. -1.
     -623    1    1    2    0    0  0.11105330800E+00 -0.25835862526E-01  0.10903003615E+00  0.17130007264E+03  0.17130000000E+03 0. -1.
      622    1    1    2    0    0 -0.10488850901E+00  0.43246627781E-01  0.38406346865E+01  0.39463079790E+01  0.90000000000E+00 0. -1.
</event>
<event>
 5   0  0.4857400E+02  0.9118800E+02  0.7818608E-02  0.1180000E+00
       11   -1    0    0    0    0  0.00000000000E+00  0.00000000000E+00  0.39999999673E+01  0.40000000000E+01  0.51109989000E-03 0.  1.
     -623   -1    0    0    0    0  0.00000000000E+00  0.00000000000E+00  0.12525980253E-10  0.17130000000E+03  0.17130000000E+03 0. -1.
       11    1    1    2    0    0 -0.35510236723E-01 -0.17737910490E-01  0.20761366371E+00  0.21137479737E+00  0.51109989000E-03 0.  1.
     -623    1    1    2    0    0 -0.13602861385E-01 -0.30203935646E+00  0.12678483242E+00  0.17130031374E+03  0.17130000000E+03 0. -1.
      622    1    1    2    0    0  0.49113098108E-01  0.31977726695E+00  0.36656014712E+01  0.37883114633E+01  0.90000000000E+00 0.  0.
</event>
<event>
 5   0  0.4857400E+02  0.9118800E+02  0.7818608E-02  0.1180000E+00
       11   -1    0    0    0    0  0.00000000000E+00  0.00000000000E+00  0.39999999673E+01  0.40000000000E+01  0.51109989000E-03 0. -1.
     -623   -1    0    0    0    0  0.00000000000E+00  0.00000000000E+00  0.12525980253E-10  0.17130000000E+03  0.17130000000E+03 0. -1.
       11    1    1    2    0    0  0.12172913082E+00 -0.75981726734E-01  0.38166673444E+00  0.40775110238E+00  0.51109989000E-03 0. -1.
     -623    1    1    2    0    0 -0.10018937559E+00  0.12668193754E+00  0.14122921152E+00  0.17130013436E+03  0.17130000000E+03 0. -1.
      622    1    1    2    0    0 -0.21539755229E-01 -0.50700210808E-01  0.34771040214E+01  0.35921145372E+01  0.90000000000E+00 0. -1.
</event>
<event>
 5   0  0.4857400E+02  0.9118800E+02  0.7818608E-02  0.1180000E+00
       11   -1    0    0    0    0  0.00000000000E+00  0.00000000000E+00  0.39999999673E+01  0.40000000000E+01  0.51109989000E-03 0. -1.
     -623   -1    0    0    0    0  0.00000000000E+00  0.00000000000E+00  0.12525980253E-10  0.17130000000E+03  0.17130000000E+03 0.  1.
       11    1    1    2    0    0 -0.29653807096E-01 -0.12720173630E+00  0.37659867675E+00  0.39860563788E+00  0.51109989000E-03 0. -1.
     -623    1    1    2    0    0 -0.14371203477E+00  0.16197138391E+00  0.14096346330E+00  0.17130019486E+03  0.17130000000E+03 0.  1.
      622    1    1    2    0    0  0.17336584187E+00 -0.34769647613E-01  0.34824378273E+01  0.36011995036E+01  0.90000000000E+00 0. -1.
</event>
<event>
 5   0  0.4857400E+02  0.9118800E+02  0.7818608E-02  0.1180000E+00
       11   -1    0    0    0    0  0.00000000000E+00  0.00000000000E+00  0.39999999673E+01  0.40000000000E+01  0.51109989000E-03 0.  1.
     -623   -1    0    0    0    0  0.00000000000E+00  0.00000000000E+00  0.12525980253E-10  0.17130000000E+03  0.17130000000E+03 0. -1.
       11    1    1    2    0    0 -0.19452546238E-01  0.43134022074E-02  0.10961388742E-01  0.22746873631E-01  0.51109989000E-03 0.  1.
     -623    1    1    2    0    0  0.75397812100E-01 -0.30526554055E-01  0.11550504399E+00  0.17130005825E+03  0.17130000000E+03 0. -1.
      622    1    1    2    0    0 -0.55945265862E-01  0.26213151848E-01  0.38735335346E+01  0.39771948715E+01  0.90000000000E+00 0.  1.
</event>
<event>
 5   0  0.4857400E+02  0.9118800E+02  0.7818608E-02  0.1180000E+00
       11   -1    0    0    0    0  0.00000000000E+00  0.00000000000E+00  0.39999999673E+01  0.40000000000E+01  0.51109989000E-03 0.  1.
     -623   -1    0    0    0    0  0.00000000000E+00  0.00000000000E+00  0.12525980253E-10  0.17130000000E+03  0.17130000000E+03 0. -1.
       11    1    1    2    0    0 -0.34022166160E-01  0.11408914826E+00 -0.78424377718E-01  0.14256397085E+00  0.51109989000E-03 0.  1.
     -623    1    1    2    0    0  0.18447682864E+00 -0.50413633209E-01  0.33144899247E+00  0.17130042741E+03  0.17130000000E+03 0. -1.
      622    1    1    2    0    0 -0.15045466248E+00 -0.63675515054E-01  0.37469753526E+01  0.38570086168E+01  0.90000000000E+00 0.  1.
</event>
<event>
 5   0  0.4857400E+02  0.9118800E+02  0.7818608E-02  0.1180000E+00
       11   -1    0    0    0    0  0.00000000000E+00  0.00000000000E+00  0.39999999673E+01  0.40000000000E+01  0.51109989000E-03 0.  1.
     -623   -1    0    0    0    0  0.00000000000E+00  0.00000000000E+00  0.12525980253E-10  0.17130000000E+03  0.17130000000E+03 0. -1.
       11    1    1    2    0    0  0.13381632517E-01 -0.89092699659E-02 -0.68865438773E-02  0.17496539367E-01  0.51109989000E-03 0.  1.
     -623    1    1    2    0    0 -0.15362385872E+00 -0.33757229917E-01  0.13030611197E+00  0.17130012177E+03  0.17130000000E+03 0. -1.
      622    1    1    2    0    0  0.14024222620E+00  0.42666499883E-01  0.38765803993E+01  0.39823816874E+01  0.90000000000E+00 0.  1.
</event>
<event>
 5   0  0.4857400E+02  0.9118800E+02  0.7818608E-02  0.1180000E+00
       11   -1    0    0    0    0  0.00000000000E+00  0.00000000000E+00  0.39999999673E+01  0.40000000000E+01  0.51109989000E-03 0.  1.
     -623   -1    0    0    0    0  0.00000000000E+00  0.00000000000E+00  0.12525980253E-10  0.17130000000E+03  0.17130000000E+03 0. -1.
       11    1    1    2    0    0  0.11252249739E+00 -0.53924653875E-01  0.42050378590E-02  0.12484840520E+00  0.51109989000E-03 0.  1.
     -623    1    1    2    0    0 -0.19140257748E+00  0.44259002828E-01  0.22771340651E+00  0.17130026400E+03  0.17130000000E+03 0. -1.
      622    1    1    2    0    0  0.78880080087E-01  0.96656510469E-02  0.37680815230E+01  0.38748875927E+01  0.90000000000E+00 0.  1.
</event>
<event>
 5   0  0.4857400E+02  0.9118800E+02  0.7818608E-02  0.1180000E+00
       11   -1    0    0    0    0  0.00000000000E+00  0.00000000000E+00  0.39999999673E+01  0.40000000000E+01  0.51109989000E-03 0.  1.
     -623   -1    0    0    0    0  0.00000000000E+00  0.00000000000E+00  0.12525980253E-10  0.17130000000E+03  0.17130000000E+03 0.  1.
       11    1    1    2    0    0  0.16086779364E+00  0.25552975690E-01  0.29063564292E+00  0.33316773516E+00  0.51109989000E-03 0.  1.
     -623    1    1    2    0    0 -0.32621108233E-01 -0.10026082398E+00  0.15790565233E+00  0.17130010523E+03  0.17130000000E+03 0.  1.
      622    1    1    2    0    0 -0.12824668541E+00  0.74707848285E-01  0.35514586721E+01  0.36667270385E+01  0.90000000000E+00 0.  1.
</event>
<event>
 5   0  0.4857400E+02  0.9118800E+02  0.7818608E-02  0.1180000E+00
       11   -1    0    0    0    0  0.00000000000E+00  0.00000000000E+00  0.39999999673E+01  0.40000000000E+01  0.51109989000E-03 0. -1.
     -623   -1    0    0    0    0  0.00000000000E+00  0.00000000000E+00  0.12525980253E-10  0.17130000000E+03  0.17130000000E+03 0.  1.
       11    1    1    2    0    0  0.12664655471E+00 -0.91143968774E-01  0.14950255232E+00  0.21609684689E+00  0.51109989000E-03 0. -1.
     -623    1    1    2    0    0 -0.11823693222E+00  0.18052846708E+00  0.17651512704E+00  0.17130022688E+03  0.17130000000E+03 0.  1.
      622    1    1    2    0    0 -0.84096224936E-02 -0.89384498310E-01  0.36739822880E+01  0.37836762762E+01  0.90000000000E+00 0. -1.
</event>
<event>
 5   0  0.4857400E+02  0.9118800E+02  0.7818608E-02  0.1180000E+00
       11   -1    0    0    0    0  0.00000000000E+00  0.00000000000E+00  0.39999999673E+01  0.40000000000E+01  0.51109989000E-03 0. -1.
     -623   -1    0    0    0    0  0.00000000000E+00  0.00000000000E+00  0.12525980253E-10  0.17130000000E+03  0.17130000000E+03 0. -1.
       11    1    1    2    0    0  0.22773794942E-01  0.48599535838E-01  0.38552750932E+00  0.38924578647E+00  0.51109989000E-03 0. -1.
     -623    1    1    2    0    0  0.42296783325E-01 -0.57425781649E-02  0.11859771626E+00  0.17130004637E+03  0.17130000000E+03 0. -1.
      622    1    1    2    0    0 -0.65070578267E-01 -0.42856957673E-01  0.34958747418E+01  0.36107078405E+01  0.90000000000E+00 0.  1.
</event>
<event>
 5   0  0.4857400E+02  0.9118800E+02  0.7818608E-02  0.1180000E+00
       11   -1    0    0    0    0  0.00000000000E+00  0.00000000000E+00  0.39999999673E+01  0.40000000000E+01  0.51109989000E-03 0. -1.
     -623   -1    0    0    0    0  0.00000000000E+00  0.00000000000E+00  0.12525980253E-10  0.17130000000E+03  0.17130000000E+03 0.  1.
       11    1    1    2    0    0 -0.70692266902E-01  0.26949086977E-01  0.24685971111E+00  0.25819300549E+00  0.51109989000E-03 0. -1.
     -623    1    1    2    0    0 -0.10694725421E+00 -0.16314143860E+00  0.12825060895E+00  0.17130015908E+03  0.17130000000E+03 0.  1.
      622    1    1    2    0    0  0.17763952112E+00  0.13619235162E+00  0.36248896473E+01  0.37416479138E+01  0.90000000000E+00 0.  0.
</event>
<event>
 5   0  0.4857400E+02  0.9118800E+02  0.7818608E-02  0.1180000E+00
       11   -1    0    0    0    0  0.00000000000E+00  0.00000000000E+00  0.39999999673E+01  0.40000000000E+01  0.51109989000E-03 0.  1.
     -623   -1    0    0    0    0  0.00000000000E+00  0.00000000000E+00  0.12525980253E-10  0.17130000000E+03  0.17130000000E+03 0.  1.
       11    1    1    2    0    0 -0.15415569742E-01  0.48330976479E-01  0.14744506028E+00  0.15592892645E+00  0.51109989000E-03 0.  1.
     -623    1    1    2    0    0  0.61749703532E-01  0.27764708300E-01  0.11644223700E+00  0.17130005296E+03  0.17130000000E+03 0.  1.
      622    1    1    2    0    0 -0.46334133790E-01 -0.76095684778E-01  0.37361126701E+01  0.38440181176E+01  0.90000000000E+00 0.  1.
</event>
<event>
 5   0  0.4857400E+02  0.9118800E+02  0.7818608E-02  0.1180000E+00
       11   -1    0    0    0    0  0.00000000000E+00  0.00000000000E+00  0.39999999673E+01  0.40000000000E+01  0.51109989000E-03 0. -1.
     -623   -1    0    0    0    0  0.00000000000E+00  0.00000000000E+00  0.12525980253E-10  0.17130000000E+03  0.17130000000E+03 0.  1.
       11    1    1    2    0    0  0.33651969038E+00  0.30472717219E-01  0.70469208608E+00  0.78151473813E+00  0.51109989000E-03 0. -1.
     -623    1    1    2    0    0 -0.14370714078E+00  0.22544630387E+00  0.22224665819E+00  0.17130035281E+03  0.17130000000E+03 0.  1.
      622    1    1    2    0    0 -0.19281254959E+00 -0.25591902109E+00  0.30730612231E+01  0.32181324562E+01  0.90000000000E+00 0. -1.
</event>
<event>
 5   0  0.4857400E+02  0.9118800E+02  0.7818608E-02  0.1180000E+00
       11   -1    0    0    0    0  0.00000000000E+00  0.00000000000E+00  0.39999999673E+01  0.40000000000E+01  0.51109989000E-03 0.  1.
     -623   -1    0    0    0    0  0.00000000000E+00  0.00000000000E+00  0.12525980253E-10  0.17130000000E+03  0.17130000000E+03 0.  1.
       11    1    1    2    0    0 -0.17297910354E+00  0.21351519275E-01  0.15672267662E+00  0.23439265395E+00  0.51109989000E-03 0.  1.
     -623    1    1    2    0    0  0.68003099961E-01  0.66697531182E-01  0.18950701856E+00  0.17130013131E+03  0.17130000000E+03 0.  1.
      622    1    1    2    0    0  0.10497600358E+00 -0.88049050457E-01  0.36537702722E+01  0.37654760388E+01  0.90000000000E+00 0.  1.
</event>
<event>
 5   0  0.4857400E+02  0.9118800E+02  0.7818608E-02  0.1180000E+00
       11   -1    0    0    0    0  0.00000000000E+00  0.00000000000E+00  0.39999999673E+01  0.40000000000E+01  0.51109989000E-03 0.  1.
     -623   -1    0    0    0    0  0.00000000000E+00  0.00000000000E+00  0.12525980253E-10  0.17130000000E+03  0.17130000000E+03 0. -1.
       11    1    1    2    0    0 -0.86906953531E-02  0.11290724420E+00  0.73430218153E-01  0.13496604069E+00  0.51109989000E-03 0.  1.
     -623    1    1    2    0    0 -0.47426743280E-02 -0.14938851561E+00  0.16813466144E+00  0.17130014772E+03  0.17130000000E+03 0. -1.
      622    1    1    2    0    0  0.13433369681E-01  0.36481271416E-01  0.37584350878E+01  0.38648862399E+01  0.90000000000E+00 0.  1.
</event>
<event>
 5   0  0.4857400E+02  0.9118800E+02  0.7818608E-02  0.1180000E+00
       11   -1    0    0    0    0  0.00000000000E+00  0.00000000000E+00  0.39999999673E+01  0.40000000000E+01  0.51109989000E-03 0.  1.
     -623   -1    0    0    0    0  0.00000000000E+00  0.00000000000E+00  0.12525980253E-10  0.17130000000E+03  0.17130000000E+03 0.  1.
       11    1    1    2    0    0 -0.34917420558E-02 -0.46916782884E+00  0.99045108847E+00  0.10959581487E+01  0.51109989000E-03 0.  1.
     -623    1    1    2    0    0  0.22228077785E+00 -0.73705390108E-01  0.31171598686E+00  0.17130044369E+03  0.17130000000E+03 0.  1.
      622    1    1    2    0    0 -0.21878903579E+00  0.54287321895E+00  0.26978328920E+01  0.29035981622E+01  0.90000000000E+00 0.  1.
</event>
<event>
 5   0  0.4857400E+02  0.9118800E+02  0.7818608E-02  0.1180000E+00
       11   -1    0    0    0    0  0.00000000000E+00  0.00000000000E+00  0.39999999673E+01  0.40000000000E+01  0.51109989000E-03 0. -1.
     -623   -1    0    0    0    0  0.00000000000E+00  0.00000000000E+00  0.12525980253E-10  0.17130000000E+03  0.17130000000E+03 0.  1.
       11    1    1    2    0    0  0.34839328813E-01 -0.10700292467E+00  0.36472215062E-01  0.11829576668E+00  0.51109989000E-03 0. -1.
     -623    1    1    2    0    0 -0.38427950805E+00 -0.42688017663E-01  0.20736610757E+00  0.17130056186E+03  0.17130000000E+03 0.  1.
      622    1    1    2    0    0  0.34944017923E+00  0.14969094233E+00  0.37561616447E+01  0.38811423729E+01  0.90000000000E+00 0. -1.
</event>
<event>
 5   0  0.4857400E+02  0.9118800E+02  0.7818608E-02  0.1180000E+00
       11   -1    0    0    0    0  0.00000000000E+00  0.00000000000E+00  0.39999999673E+01  0.40000000000E+01  0.51109989000E-03 0. -1.
     -623   -1    0    0    0    0  0.00000000000E+00  0.00000000000E+00  0.12525980253E-10  0.17130000000E+03  0.17130000000E+03 0. -1.
       11    1    1    2    0    0 -0.45172248731E-02 -0.36190994452E-01 -0.17194229529E-01  0.40324882544E-01  0.51109989000E-03 0. -1.
     -623    1    1    2    0    0 -0.44554109293E-01  0.18677155580E+00  0.16460207623E+00  0.17130018670E+03  0.17130000000E+03 0. -1.
      622    1    1    2    0    0  0.49071334167E-01 -0.15058056135E+00  0.38525921207E+01  0.39594884202E+01  0.90000000000E+00 0. -1.
</event>
<event>
 5   0  0.4857400E+02  0.9118800E+02  0.7818608E-02  0.1180000E+00
       11   -1    0    0    0    0  0.00000000000E+00  0.00000000000E+00  0.39999999673E+01  0.40000000000E+01  0.51109989000E-03 0.  1.
     -623   -1    0    0    0    0  0.00000000000E+00  0.00000000000E+00  0.12525980253E-10  0.17130000000E+03  0.17130000000E+03 0.  1.
       11    1    1    2    0    0 -0.33311792829E+00  0.90732810575E-01  0.45496964472E+00  0.57113714281E+00  0.51109989000E-03 0.  1.
     -623    1    1    2    0    0 -0.31823853181E+00 -0.13421420092E-01  0.30265554850E+00  0.17130056350E+03  0.17130000000E+03 0.  1.
      622    1    1    2    0    0  0.65135646010E+00 -0.77311390483E-01  0.32423747741E+01  0.34282993547E+01  0.90000000000E+00 0.  1.
</event>
<event>
 5   0  0.4857400E+02  0.9118800E+02  0.7818608E-02  0.1180000E+00
       11   -1    0    0    0    0  0.00000000000E+00  0.00000000000E+00  0.39999999673E+01  0.40000000000E+01  0.51109989000E-03 0. -1.
     -623   -1    0    0    0    0  0.00000000000E+00  0.00000000000E+00  0.12525980253E-10  0.17130000000E+03  0.17130000000E+03 0.  1.
       11    1    1    2    0    0  0.13719153815E-01 -0.15761223725E-01  0.22729222305E-01  0.30878959219E-01  0.51109989000E-03 0. -1.
     -623    1    1    2    0    0 -0.36239127069E-01  0.12035173326E+00  0.11310031865E+00  0.17130008345E+03  0.17130000000E+03 0.  1.
      622    1    1    2    0    0  0.22519973254E-01 -0.10459050953E+00  0.38641704264E+01  0.39690375922E+01  0.90000000000E+00 0. -1.
</event>
<event>
 5   0  0.4857400E+02  0.9118800E+02  0.7818608E-02  0.1180000E+00
       11   -1    0    0    0    0  0.00000000000E+00  0.00000000000E+00  0.39999999673E+01  0.40000000000E+01  0.51109989000E-03 0. -1.
     -623   -1    0    0    0    0  0.00000000000E+00  0.00000000000E+00  0.12525980253E-10  0.17130000000E+03  0.17130000000E+03 0. -1.
       11    1    1    2    0    0 -0.38242129419E+00 -0.14177849227E+00  0.39317187126E+00  0.56650822473E+00  0.51109989000E-03 0. -1.
     -623    1    1    2    0    0  0.21124043841E+00 -0.26118418014E-01  0.30249282857E+00  0.17130039932E+03  0.17130000000E+03 0. -1.
      622    1    1    2    0    0  0.17118085578E+00  0.16789691028E+00  0.33043352675E+01  0.34330924570E+01  0.90000000000E+00 0. -1.
</event>
<event>
 5   0  0.4857400E+02  0.9118800E+02  0.7818608E-02  0.1180000E+00
       11   -1    0    0    0    0  0.00000000000E+00  0.00000000000E+00  0.39999999673E+01  0.40000000000E+01  0.51109989000E-03 0. -1.
     -623   -1    0    0    0    0  0.00000000000E+00  0.00000000000E+00  0.12525980253E-10  0.17130000000E+03  0.17130000000E+03 0. -1.
       11    1    1    2    0    0 -0.53627626633E-01 -0.42161516485E-01 -0.62056586557E-01  0.92221456119E-01  0.51109989000E-03 0. -1.
     -623    1    1    2    0    0 -0.47556931377E-01  0.40562536366E-01  0.26089219705E+00  0.17130021007E+03  0.17130000000E+03 0. -1.
      622    1    1    2    0    0  0.10118455801E+00  0.15989801194E-02  0.38011643569E+01  0.39075684689E+01  0.90000000000E+00 0. -1.
</event>
<event>
 5   0  0.4857400E+02  0.9118800E+02  0.7818608E-02  0.1180000E+00
       11   -1    0    0    0    0  0.00000000000E+00  0.00000000000E+00  0.39999999673E+01  0.40000000000E+01  0.51109989000E-03 0. -1.
     -623   -1    0    0    0    0  0.00000000000E+00  0.00000000000E+00  0.12525980253E-10  0.17130000000E+03  0.17130000000E+03 0. -1.
       11    1    1    2    0    0 -0.31419433129E-01 -0.48003697659E-01 -0.27478887344E-01  0.63615141593E-01  0.51109989000E-03 0. -1.
     -623    1    1    2    0    0 -0.13924170011E+00  0.58895523638E-01  0.19936661412E+00  0.17130018273E+03  0.17130000000E+03 0. -1.
      622    1    1    2    0    0  0.17066113324E+00 -0.10891825979E-01  0.38281122406E+01  0.39362021265E+01  0.90000000000E+00 0. -1.
</event>
<event>
 5   0  0.4857400E+02  0.9118800E+02  0.7818608E-02  0.1180000E+00
       11   -1    0    0    0    0  0.00000000000E+00  0.00000000000E+00  0.39999999673E+01  0.40000000000E+01  0.51109989000E-03 0. -1.
     -623   -1    0    0    0    0  0.00000000000E+00  0.00000000000E+00  0.12525980253E-10  0.17130000000E+03  0.17130000000E+03 0.  1.
       11    1    1    2    0    0 -0.12167529213E+00 -0.47282297630E-01  0.11455507011E+00  0.17367676210E+00  0.51109989000E-03 0. -1.
     -623    1    1    2    0    0  0.22162305158E+00  0.10661842843E+00  0.16855727516E+00  0.17130025947E+03  0.17130000000E+03 0.  1.
      622    1    1    2    0    0 -0.99947759453E-01 -0.59336130799E-01  0.37168876221E+01  0.38260637640E+01  0.90000000000E+00 0. -1.
</event>
<event>
 5   0  0.4857400E+02  0.9118800E+02  0.7818608E-02  0.1180000E+00
       11   -1    0    0    0    0  0.00000000000E+00  0.00000000000E+00  0.39999999673E+01  0.40000000000E+01  0.51109989000E-03 0. -1.
     -623   -1    0    0    0    0  0.00000000000E+00  0.00000000000E+00  0.12525980253E-10  0.17130000000E+03  0.17130000000E+03 0. -1.
       11    1    1    2    0    0 -0.18442249470E-01  0.44053942190E-01  0.45059050226E-01  0.65661599268E-01  0.51109989000E-03 0. -1.
     -623    1    1    2    0    0  0.72025699331E-01 -0.85265920405E-02  0.12552809638E+00  0.17130006135E+03  0.17130000000E+03 0. -1.
      622    1    1    2    0    0 -0.53583449861E-01 -0.35527350150E-01  0.38294128208E+01  0.39342770531E+01  0.90000000000E+00 0. -1.
</event>
<event>
 5   0  0.4857400E+02  0.9118800E+02  0.7818608E-02  0.1180000E+00
       11   -1    0    0    0    0  0.00000000000E+00  0.00000000000E+00  0.39999999673E+01  0.40000000000E+01  0.51109989000E-03 0. -1.
     -623   -1    0    0    0    0  0.00000000000E+00  0.00000000000E+00  0.12525980253E-10  0.17130000000E+03  0.17130000000E+03 0.  1.
       11    1    1    2    0    0  0.86560607090E-01  0.88200555969E-01  0.42699117984E-01  0.13074996242E+00  0.51109989000E-03 0. -1.
     -623    1    1    2    0    0 -0.65327936487E-01 -0.12638268082E+00  0.19460572757E+00  0.17130016962E+03  0.17130000000E+03 0.  1.
      622    1    1    2    0    0 -0.21232670603E-01  0.38182124853E-01  0.37626951218E+01  0.38690804180E+01  0.90000000000E+00 0. -1.
</event>
<event>
 5   0  0.4857400E+02  0.9118800E+02  0.7818608E-02  0.1180000E+00
       11   -1    0    0    0    0  0.00000000000E+00  0.00000000000E+00  0.39999999673E+01  0.40000000000E+01  0.51109989000E-03 0.  1.
     -623   -1    0    0    0    0  0.00000000000E+00  0.00000000000E+00  0.12525980253E-10  0.17130000000E+03  0.17130000000E+03 0. -1.
       11    1    1    2    0    0  0.24509851378E-01 -0.24002288673E-01  0.22248815701E-02  0.34381012145E-01  0.51109989000E-03 0.  1.
     -623    1    1    2    0    0  0.16339676226E-01  0.17190879341E+00  0.13883061391E+00  0.17130014330E+03  0.17130000000E+03 0. -1.
      622    1    1    2    0    0 -0.40849527604E-01 -0.14790650474E+00  0.38589444719E+01  0.39654756909E+01  0.90000000000E+00 0.  1.
</event>
<event>
 5   0  0.4857400E+02  0.9118800E+02  0.7818608E-02  0.1180000E+00
       11   -1    0    0    0    0  0.00000000000E+00  0.00000000000E+00  0.39999999673E+01  0.40000000000E+01  0.51109989000E-03 0.  1.
     -623   -1    0    0    0    0  0.00000000000E+00  0.00000000000E+00  0.12525980253E-10  0.17130000000E+03  0.17130000000E+03 0.  1.
       11    1    1    2    0    0  0.37703096713E-01 -0.23760189362E+00  0.66768310146E+00  0.70970216891E+00  0.51109989000E-03 0.  1.
     -623    1    1    2    0    0 -0.28274150390E-01  0.94273197674E-01  0.17088034478E+00  0.17130011351E+03  0.17130000000E+03 0.  1.
      622    1    1    2    0    0 -0.94289463235E-02  0.14332869595E+00  0.31614365211E+01  0.32901843257E+01  0.90000000000E+00 0.  1.
</event>
<event>
 5   0  0.4857400E+02  0.9118800E+02  0.7818608E-02  0.1180000E+00
       11   -1    0    0    0    0  0.00000000000E+00  0.00000000000E+00  0.39999999673E+01  0.40000000000E+01  0.51109989000E-03 0.  1.
     -623   -1    0    0    0    0  0.00000000000E+00  0.00000000000E+00  0.12525980253E-10  0.17130000000E+03  0.17130000000E+03 0.  1.
       11    1    1    2    0    0 -0.13025157961E-01  0.11585084096E+00  0.25437004310E+00  0.27981324512E+00  0.51109989000E-03 0.  1.
     -623    1    1    2    0    0  0.62302733516E-01 -0.11821093178E+00  0.13639678580E+00  0.17130010642E+03  0.17130000000E+03 0.  1.
      622    1    1    2    0    0 -0.49277575555E-01  0.23600908148E-02  0.36092331385E+01  0.37200803348E+01  0.90000000000E+00 0.  1.
</event>
<event>
 5   0  0.4857400E+02  0.9118800E+02  0.7818608E-02  0.1180000E+00
       11   -1    0    0    0    0  0.00000000000E+00  0.00000000000E+00  0.39999999673E+01  0.40000000000E+01  0.51109989000E-03 0. -1.
     -623   -1    0    0    0    0  0.00000000000E+00  0.00000000000E+00  0.12525980253E-10  0.17130000000E+03  0.17130000000E+03 0.  1.
       11    1    1    2    0    0  0.54794140187E-01  0.49663152922E-01  0.84307116543E-01  0.11214623345E+00  0.51109989000E-03 0. -1.
     -623    1    1    2    0    0  0.55362587199E-01 -0.44082525090E-01  0.13512236344E+00  0.17130006791E+03  0.17130000000E+03 0.  1.
      622    1    1    2    0    0 -0.11015672739E+00 -0.55806278318E-02  0.37805704874E+01  0.38877858555E+01  0.90000000000E+00 0. -1.
</event>
<event>
 5   0  0.4857400E+02  0.9118800E+02  0.7818608E-02  0.1180000E+00
       11   -1    0    0    0    0  0.00000000000E+00  0.00000000000E+00  0.39999999673E+01  0.40000000000E+01  0.51109989000E-03 0.  1.
     -623   -1    0    0    0    0  0.00000000000E+00  0.00000000000E+00  0.12525980253E-10  0.17130000000E+03  0.17130000000E+03 0.  1.
       11    1    1    2    0    0  0.91308663777E-02 -0.15775732315E-01 -0.10799895121E-01  0.21193050951E-01  0.51109989000E-03 0.  1.
     -623    1    1    2    0    0 -0.81569737856E-01 -0.18555118271E-01  0.13602419894E+00  0.17130007443E+03  0.17130000000E+03 0.  1.
      622    1    1    2    0    0  0.72438871478E-01  0.34330850586E-01  0.38747756635E+01  0.39787325168E+01  0.90000000000E+00 0.  1.
</event>
<event>
 5   0  0.4857400E+02  0.9118800E+02  0.7818608E-02  0.1180000E+00
       11   -1    0    0    0    0  0.00000000000E+00  0.00000000000E+00  0.39999999673E+01  0.40000000000E+01  0.51109989000E-03 0. -1.
     -623   -1    0    0    0    0  0.00000000000E+00  0.00000000000E+00  0.12525980253E-10  0.17130000000E+03  0.17130000000E+03 0.  1.
       11    1    1    2    0    0 -0.28223296460E-01 -0.37665555584E-01  0.33165336206E-01  0.57579938253E-01  0.51109989000E-03 0. -1.
     -623    1    1    2    0    0  0.15799675136E-01  0.29028096563E-01  0.12860050118E+00  0.17130005146E+03  0.17130000000E+03 0.  1.
      622    1    1    2    0    0  0.12423621324E-01  0.86374590212E-02  0.38382341300E+01  0.39423686013E+01  0.90000000000E+00 0. -1.
</event>
<event>
 5   0  0.4857400E+02  0.9118800E+02  0.7818608E-02  0.1180000E+00
       11   -1    0    0    0    0  0.00000000000E+00  0.00000000000E+00  0.39999999673E+01  0.40000000000E+01  0.51109989000E-03 0.  1.
     -623   -1    0    0    0    0  0.00000000000E+00  0.00000000000E+00  0.12525980253E-10  0.17130000000E+03  0.17130000000E+03 0.  1.
       11    1    1    2    0    0  0.10698358554E+00 -0.16215653506E+00  0.21948554760E+00  0.29311157648E+00  0.51109989000E-03 0.  1.
     -623    1    1    2    0    0 -0.18415503806E+00  0.63296247187E-01  0.18694847915E+00  0.17130021269E+03  0.17130000000E+03 0.  1.
      622    1    1    2    0    0  0.77171452528E-01  0.98860287873E-01  0.35935659406E+01  0.37066757289E+01  0.90000000000E+00 0.  1.
</event>
<event>
 5   0  0.4857400E+02  0.9118800E+02  0.7818608E-02  0.1180000E+00
       11   -1    0    0    0    0  0.00000000000E+00  0.00000000000E+00  0.39999999673E+01  0.40000000000E+01  0.51109989000E-03 0. -1.
     -623   -1    0    0    0    0  0.00000000000E+00  0.00000000000E+00  0.12525980253E-10  0.17130000000E+03  0.17130000000E+03 0. -1.
       11    1    1    2    0    0  0.13076336533E+00  0.10950974535E+00  0.14017104241E+00  0.22077052428E+00  0.51109989000E-03 0. -1.
     -623    1    1    2    0    0 -0.12366884454E+00 -0.18292089552E+00  0.19032470979E+00  0.17130024804E+03  0.17130000000E+03 0. -1.
      622    1    1    2    0    0 -0.70945207905E-02  0.73411150166E-01  0.36695042152E+01  0.37789814387E+01  0.90000000000E+00 0. -1.
</event>
<event>
 5   0  0.4857400E+02  0.9118800E+02  0.7818608E-02  0.1180000E+00
       11   -1    0    0    0    0  0.00000000000E+00  0.00000000000E+00  0.39999999673E+01  0.40000000000E+01  0.51109989000E-03 0.  1.
     -623   -1    0    0    0    0  0.00000000000E+00  0.00000000000E+00  0.12525980253E-10  0.17130000000E+03  0.17130000000E+03 0. -1.
       11    1    1    2    0    0 -0.25301006439E+00 -0.34415594376E-01  0.83536436605E+00  0.87351726434E+00  0.51109989000E-03 0.  1.
     -623    1    1    2    0    0  0.10444757456E+00 -0.14831712578E+00  0.17996802733E+00  0.17130019059E+03  0.17130000000E+03 0. -1.
      622    1    1    2    0    0  0.14856248983E+00  0.18273272015E+00  0.29846675740E+01  0.31262921469E+01  0.90000000000E+00 0.  1.
</event>
<event>
 5   0  0.4857400E+02  0.9118800E+02  0.7818608E-02  0.1180000E+00
       11   -1    0    0    0    0  0.00000000000E+00  0.00000000000E+00  0.39999999673E+01  0.40000000000E+01  0.51109989000E-03 0.  1.
     -623   -1    0    0    0    0  0.00000000000E+00  0.00000000000E+00  0.12525980253E-10  0.17130000000E+03  0.17130000000E+03 0.  1.
       11    1    1    2    0    0  0.41305148805E-01  0.94455519969E-01  0.22562617745E-02  0.10311795435E+00  0.51109989000E-03 0.  1.
     -623    1    1    2    0    0 -0.72489163591E-01 -0.22566595896E+00  0.20891403946E+00  0.17130029137E+03  0.17130000000E+03 0.  1.
      622    1    1    2    0    0  0.31184014786E-01  0.13121043899E+00  0.37888296661E+01  0.38965906715E+01  0.90000000000E+00 0.  1.
</event>
<event>
 5   0  0.4857400E+02  0.9118800E+02  0.7818608E-02  0.1180000E+00
       11   -1    0    0    0    0  0.00000000000E+00  0.00000000000E+00  0.39999999673E+01  0.40000000000E+01  0.51109989000E-03 0. -1.
     -623   -1    0    0    0    0  0.00000000000E+00  0.00000000000E+00  0.12525980253E-10  0.17130000000E+03  0.17130000000E+03 0. -1.
       11    1    1    2    0    0 -0.36716319482E-01 -0.48942875467E-02  0.37093325679E-02  0.37229860827E-01  0.51109989000E-03 0. -1.
     -623    1    1    2    0    0  0.46625825616E-01  0.22903777172E-01  0.13719400610E+00  0.17130006282E+03  0.17130000000E+03 0. -1.
      622    1    1    2    0    0 -0.99095061332E-02 -0.18009489626E-01  0.38590966287E+01  0.39627073232E+01  0.90000000000E+00 0. -1.
</event>
<event>
 5   0  0.4857400E+02  0.9118800E+02  0.7818608E-02  0.1180000E+00
       11   -1    0    0    0    0  0.00000000000E+00  0.00000000000E+00  0.39999999673E+01  0.40000000000E+01  0.51109989000E-03 0. -1.
     -623   -1    0    0    0    0  0.00000000000E+00  0.00000000000E+00  0.12525980253E-10  0.17130000000E+03  0.17130000000E+03 0. -1.
       11    1    1    2    0    0 -0.86691228224E-01  0.44737278438E-01  0.24120532141E-01  0.10049305661E+00  0.51109989000E-03 0. -1.
     -623    1    1    2    0    0  0.67465174864E-01  0.86254161386E-01  0.18410129099E+00  0.17130013393E+03  0.17130000000E+03 0. -1.
      622    1    1    2    0    0  0.19226053360E-01 -0.13099143982E+00  0.37917781442E+01  0.38993730129E+01  0.90000000000E+00 0. -1.
</event>
<event>
 5   0  0.4857400E+02  0.9118800E+02  0.7818608E-02  0.1180000E+00
       11   -1    0    0    0    0  0.00000000000E+00  0.00000000000E+00  0.39999999673E+01  0.40000000000E+01  0.51109989000E-03 0.  1.
     -623   -1    0    0    0    0  0.00000000000E+00  0.00000000000E+00  0.12525980253E-10  0.17130000000E+03  0.17130000000E+03 0.  1.
       11    1    1    2    0    0 -0.48796698741E-02 -0.38991069471E-02  0.17805246356E+00  0.17816272117E+00  0.51109989000E-03 0.  1.
     -623    1    1    2    0    0 -0.43423739710E-01 -0.74942946952E-02  0.10796395828E+00  0.17130003969E+03  0.17130000000E+03 0.  1.
      622    1    1    2    0    0  0.48303409584E-01  0.11393401642E-01  0.37139835455E+01  0.38217975882E+01  0.90000000000E+00 0.  1.
</event>
<event>
 5   0  0.4857400E+02  0.9118800E+02  0.7818608E-02  0.1180000E+00
       11   -1    0    0    0    0  0.00000000000E+00  0.00000000000E+00  0.39999999673E+01  0.40000000000E+01  0.51109989000E-03 0. -1.
     -623   -1    0    0    0    0  0.00000000000E+00  0.00000000000E+00  0.12525980253E-10  0.17130000000E+03  0.17130000000E+03 0. -1.
       11    1    1    2    0    0  0.27221133421E-01  0.11238943263E-01 -0.22176945890E-02  0.29537829012E-01  0.51109989000E-03 0. -1.
     -623    1    1    2    0    0 -0.59385142839E-01  0.10709132917E-01  0.13536564812E+00  0.17130006411E+03  0.17130000000E+03 0. -1.
      622    1    1    2    0    0  0.32164009419E-01 -0.21948076180E-01  0.38668520138E+01  0.39703980579E+01  0.90000000000E+00 0. -1.
</event>
<event>
 5   0  0.4857400E+02  0.9118800E+02  0.7818608E-02  0.1180000E+00
       11   -1    0    0    0    0  0.00000000000E+00  0.00000000000E+00  0.39999999673E+01  0.40000000000E+01  0.51109989000E-03 0.  1.
     -623   -1    0    0    0    0  0.00000000000E+00  0.00000000000E+00  0.12525980253E-10  0.17130000000E+03  0.17130000000E+03 0. -1.
       11    1    1    2    0    0  0.55276974160E-01  0.22009943831E-01  0.26556862204E+00  0.27215241269E+00  0.51109989000E-03 0.  1.
     -623    1    1    2    0    0 -0.95557027263E-01 -0.25767256538E-02  0.11720178129E+00  0.17130006677E+03  0.17130000000E+03 0. -1.
      622    1    1    2    0    0  0.40280053104E-01 -0.19433218177E-01  0.36172295640E+01  0.37277808213E+01  0.90000000000E+00 0.  1.
</event>
<event>
 5   0  0.4857400E+02  0.9118800E+02  0.7818608E-02  0.1180000E+00
       11   -1    0    0    0    0  0.00000000000E+00  0.00000000000E+00  0.39999999673E+01  0.40000000000E+01  0.51109989000E-03 0.  1.
     -623   -1    0    0    0    0  0.00000000000E+00  0.00000000000E+00  0.12525980253E-10  0.17130000000E+03  0.17130000000E+03 0. -1.
       11    1    1    2    0    0  0.38204760860E-01 -0.17790867464E-01  0.35122648542E-01  0.54863288100E-01  0.51109989000E-03 0.  1.
     -623    1    1    2    0    0 -0.11800941549E+00  0.50912022590E-01  0.12483844626E+00  0.17130009370E+03  0.17130000000E+03 0. -1.
      622    1    1    2    0    0  0.79804654631E-01 -0.33121155126E-01  0.38400388726E+01  0.39450430082E+01  0.90000000000E+00 0.  1.
</event>
<event>
 5   0  0.4857400E+02  0.9118800E+02  0.7818608E-02  0.1180000E+00
       11   -1    0    0    0    0  0.00000000000E+00  0.00000000000E+00  0.39999999673E+01  0.40000000000E+01  0.51109989000E-03 0.  1.
     -623   -1    0    0    0    0  0.00000000000E+00  0.00000000000E+00  0.12525980253E-10  0.17130000000E+03  0.17130000000E+03 0. -1.
       11    1    1    2    0    0  0.88385079709E-01  0.82079057818E-02  0.54062110959E+00  0.54786014401E+00  0.51109989000E-03 0.  1.
     -623    1    1    2    0    0 -0.15288426111E+00  0.10266828379E+00  0.12924434997E+00  0.17130014775E+03  0.17130000000E+03 0. -1.
      622    1    1    2    0    0  0.64499181396E-01 -0.11087618958E+00  0.33301345078E+01  0.34519921080E+01  0.90000000000E+00 0.  1.
</event>
<event>
 5   0  0.4857400E+02  0.9118800E+02  0.7818608E-02  0.1180000E+00
       11   -1    0    0    0    0  0.00000000000E+00  0.00000000000E+00  0.39999999673E+01  0.40000000000E+01  0.51109989000E-03 0.  1.
     -623   -1    0    0    0    0  0.00000000000E+00  0.00000000000E+00  0.12525980253E-10  0.17130000000E+03  0.17130000000E+03 0. -1.
       11    1    1    2    0    0 -0.67150359136E-01 -0.14769212710E+00  0.41866952802E+00  0.44900620269E+00  0.51109989000E-03 0.  1.
     -623    1    1    2    0    0  0.20279472068E+00  0.20126858673E+00  0.14969374007E+00  0.17130030369E+03  0.17130000000E+03 0. -1.
      622    1    1    2    0    0 -0.13564436155E+00 -0.53576459625E-01  0.34316366993E+01  0.35506901112E+01  0.90000000000E+00 0.  1.
</event>
<event>
 5   0  0.4857400E+02  0.9118800E+02  0.7818608E-02  0.1180000E+00
       11   -1    0    0    0    0  0.00000000000E+00  0.00000000000E+00  0.39999999673E+01  0.40000000000E+01  0.51109989000E-03 0. -1.
     -623   -1    0    0    0    0  0.00000000000E+00  0.00000000000E+00  0.12525980253E-10  0.17130000000E+03  0.17130000000E+03 0. -1.
       11    1    1    2    0    0 -0.62870123260E-01  0.17205701701E+00  0.40023138640E+00  0.44016098575E+00  0.51109989000E-03 0. -1.
     -623    1    1    2    0    0  0.42106902305E+00 -0.34589966128E+00  0.17966839595E+00  0.17130096096E+03  0.17130000000E+03 0. -1.
      622    1    1    2    0    0 -0.35819889979E+00  0.17384264427E+00  0.34201001850E+01  0.35588780525E+01  0.90000000000E+00 0. -1.
</event>
<event>
 5   0  0.4857400E+02  0.9118800E+02  0.7818608E-02  0.1180000E+00
       11   -1    0    0    0    0  0.00000000000E+00  0.00000000000E+00  0.39999999673E+01  0.40000000000E+01  0.51109989000E-03 0. -1.
     -623   -1    0    0    0    0  0.00000000000E+00  0.00000000000E+00  0.12525980253E-10  0.17130000000E+03  0.17130000000E+03 0.  1.
       11    1    1    2    0    0 -0.46470435866E-03  0.87431267127E-02 -0.12865893777E-01  0.15570827181E-01  0.51109989000E-03 0. -1.
     -623    1    1    2    0    0  0.53822662918E-01 -0.33418097054E-01  0.13192245150E+00  0.17130006251E+03  0.17130000000E+03 0.  1.
      622    1    1    2    0    0 -0.53357958560E-01  0.24674970342E-01  0.38809434096E+01  0.39843666592E+01  0.90000000000E+00 0. -1.
</event>
<event>
 5   0  0.4857400E+02  0.9118800E+02  0.7818608E-02  0.1180000E+00
       11   -1    0    0    0    0  0.00000000000E+00  0.00000000000E+00  0.39999999673E+01  0.40000000000E+01  0.51109989000E-03 0. -1.
     -623   -1    0    0    0    0  0.00000000000E+00  0.00000000000E+00  0.12525980253E-10  0.17130000000E+03  0.17130000000E+03 0. -1.
       11    1    1    2    0    0  0.42478331448E-01  0.70884418707E-01  0.89873328426E-01  0.12209212031E+00  0.51109989000E-03 0. -1.
     -623    1    1    2    0    0 -0.18844355045E+00 -0.18950688690E+00  0.14307047020E+00  0.17130026822E+03  0.17130000000E+03 0. -1.
      622    1    1    2    0    0  0.14596521900E+00  0.11862246819E+00  0.37670561687E+01  0.38776396575E+01  0.90000000000E+00 0. -1.
</event>
<event>
 5   0  0.4857400E+02  0.9118800E+02  0.7818608E-02  0.1180000E+00
       11   -1    0    0    0    0  0.00000000000E+00  0.00000000000E+00  0.39999999673E+01  0.40000000000E+01  0.51109989000E-03 0.  1.
     -623   -1    0    0    0    0  0.00000000000E+00  0.00000000000E+00  0.12525980253E-10  0.17130000000E+03  0.17130000000E+03 0.  1.
       11    1    1    2    0    0  0.48241388013E-01 -0.86294342154E-01  0.25425894800E+00  0.27280362693E+00  0.51109989000E-03 0.  1.
     -623    1    1    2    0    0  0.16383746500E+00  0.31935898017E-01  0.13560886546E+00  0.17130013500E+03  0.17130000000E+03 0.  1.
      622    1    1    2    0    0 -0.21207885301E+00  0.54358444137E-01  0.36101321539E+01  0.37270613691E+01  0.90000000000E+00 0.  1.
</event>
<event>
 5   0  0.4857400E+02  0.9118800E+02  0.7818608E-02  0.1180000E+00
       11   -1    0    0    0    0  0.00000000000E+00  0.00000000000E+00  0.39999999673E+01  0.40000000000E+01  0.51109989000E-03 0. -1.
     -623   -1    0    0    0    0  0.00000000000E+00  0.00000000000E+00  0.12525980253E-10  0.17130000000E+03  0.17130000000E+03 0.  1.
       11    1    1    2    0    0 -0.45356741431E-01  0.39899326349E-01  0.10566084697E-01  0.61327755587E-01  0.51109989000E-03 0. -1.
     -623    1    1    2    0    0  0.16179056296E-01  0.13927963494E-01  0.15552938748E+00  0.17130007194E+03  0.17130000000E+03 0.  1.
      622    1    1    2    0    0  0.29177685135E-01 -0.53827289843E-01  0.38339044952E+01  0.39386003088E+01  0.90000000000E+00 0. -1.
</event>
<event>
 5   0  0.4857400E+02  0.9118800E+02  0.7818608E-02  0.1180000E+00
       11   -1    0    0    0    0  0.00000000000E+00  0.00000000000E+00  0.39999999673E+01  0.40000000000E+01  0.51109989000E-03 0. -1.
     -623   -1    0    0    0    0  0.00000000000E+00  0.00000000000E+00  0.12525980253E-10  0.17130000000E+03  0.17130000000E+03 0. -1.
       11    1    1    2    0    0  0.11991909007E+00 -0.39265842664E-01  0.45105368128E+00  0.46837173184E+00  0.51109989000E-03 0. -1.
     -623    1    1    2    0    0  0.13010370110E-02  0.11196697374E+00  0.13694198712E+00  0.17130009134E+03  0.17130000000E+03 0. -1.
      622    1    1    2    0    0 -0.12122012708E+00 -0.72701131076E-01  0.34120042990E+01  0.35315369331E+01  0.90000000000E+00 0. -1.
</event>
<event>
 5   0  0.4857400E+02  0.9118800E+02  0.7818608E-02  0.1180000E+00
       11   -1    0    0    0    0  0.00000000000E+00  0.00000000000E+00  0.39999999673E+01  0.40000000000E+01  0.51109989000E-03 0.  1.
     -623   -1    0    0    0    0  0.00000000000E+00  0.00000000000E+00  0.12525980253E-10  0.17130000000E+03  0.17130000000E+03 0.  1.
       11    1    1    2    0    0  0.15436428076E+00 -0.90629257113E-01  0.78615090037E+00  0.80627259212E+00  0.51109989000E-03 0.  1.
     -623    1    1    2    0    0 -0.12020859286E+00  0.17318688326E+00  0.15106302297E+00  0.17130019633E+03  0.17130000000E+03 0.  1.
      622    1    1    2    0    0 -0.34155687907E-01 -0.82557626146E-01  0.30627860440E+01  0.31935310745E+01  0.90000000000E+00 0.  1.
</event>
<event>
 5   0  0.4857400E+02  0.9118800E+02  0.7818608E-02  0.1180000E+00
       11   -1    0    0    0    0  0.00000000000E+00  0.00000000000E+00  0.39999999673E+01  0.40000000000E+01  0.51109989000E-03 0.  1.
     -623   -1    0    0    0    0  0.00000000000E+00  0.00000000000E+00  0.12525980253E-10  0.17130000000E+03  0.17130000000E+03 0. -1.
       11    1    1    2    0    0 -0.97396447175E-01 -0.14075717121E+00  0.63152980277E+00  0.65431552188E+00  0.51109989000E-03 0.  1.
     -623    1    1    2    0    0 -0.53922629121E-01  0.54358038145E-01  0.15091160994E+00  0.17130008359E+03  0.17130000000E+03 0. -1.
      622    1    1    2    0    0  0.15131907630E+00  0.86399133067E-01  0.32175585546E+01  0.33456008916E+01  0.90000000000E+00 0.  1.
</event>
<event>
 5   0  0.4857400E+02  0.9118800E+02  0.7818608E-02  0.1180000E+00
       11   -1    0    0    0    0  0.00000000000E+00  0.00000000000E+00  0.39999999673E+01  0.40000000000E+01  0.51109989000E-03 0.  1.
     -623   -1    0    0    0    0  0.00000000000E+00  0.00000000000E+00  0.12525980253E-10  0.17130000000E+03  0.17130000000E+03 0.  1.
       11    1    1    2    0    0 -0.29020824385E-01 -0.63935265542E-01  0.34409504107E-01  0.78193360478E-01  0.51109989000E-03 0.  1.
     -623    1    1    2    0    0  0.11799720143E+00  0.87507941222E-01  0.14969112224E+00  0.17130012840E+03  0.17130000000E+03 0.  1.
      622    1    1    2    0    0 -0.88976377042E-01 -0.23572675680E-01  0.38158993410E+01  0.39216782437E+01  0.90000000000E+00 0.  1.
</event>
<event>
 5   0  0.4857400E+02  0.9118800E+02  0.7818608E-02  0.1180000E+00
       11   -1    0    0    0    0  0.00000000000E+00  0.00000000000E+00  0.39999999673E+01  0.40000000000E+01  0.51109989000E-03 0.  1.
     -623   -1    0    0    0    0  0.00000000000E+00  0.00000000000E+00  0.12525980253E-10  0.17130000000E+03  0.17130000000E+03 0. -1.
       11    1    1    2    0    0  0.25047266909E-02  0.33344514214E-02  0.16152407594E+00  0.16157871318E+00  0.51109989000E-03 0.  1.
     -623    1    1    2    0    0  0.34813080374E-01  0.75278085188E-01  0.10812881555E+00  0.17130005420E+03  0.17130000000E+03 0. -1.
      622    1    1    2    0    0 -0.37317807065E-01 -0.78612536610E-01  0.37303470759E+01  0.38383670820E+01  0.90000000000E+00 0.  1.
</event>
<event>
 5   0  0.4857400E+02  0.9118800E+02  0.7818608E-02  0.1180000E+00
       11   -1    0    0    0    0  0.00000000000E+00  0.00000000000E+00  0.39999999673E+01  0.40000000000E+01  0.51109989000E-03 0.  1.
     -623   -1    0    0    0    0  0.00000000000E+00  0.00000000000E+00  0.12525980253E-10  0.17130000000E+03  0.17130000000E+03 0.  1.
       11    1    1    2    0    0  0.28402249723E-01  0.12036070055E+00  0.55998126087E+00  0.57347420149E+00  0.51109989000E-03 0.  1.
     -623    1    1    2    0    0  0.51756653216E-01 -0.83474716144E-01  0.13506255398E+00  0.17130008140E+03  0.17130000000E+03 0.  1.
      622    1    1    2    0    0 -0.80158902940E-01 -0.36885984408E-01  0.33049561525E+01  0.34264443955E+01  0.90000000000E+00 0.  1.
</event>
<event>
 5   0  0.4857400E+02  0.9118800E+02  0.7818608E-02  0.1180000E+00
       11   -1    0    0    0    0  0.00000000000E+00  0.00000000000E+00  0.39999999673E+01  0.40000000000E+01  0.51109989000E-03 0. -1.
     -623   -1    0    0    0    0  0.00000000000E+00  0.00000000000E+00  0.12525980253E-10  0.17130000000E+03  0.17130000000E+03 0. -1.
       11    1    1    2    0    0 -0.12449396223E+00  0.19450542865E+00  0.90429223268E+00  0.93331442275E+00  0.51109989000E-03 0. -1.
     -623    1    1    2    0    0 -0.11973933020E-02 -0.77964417131E-01  0.16918094263E+00  0.17130010129E+03  0.17130000000E+03 0. -1.
      622    1    1    2    0    0  0.12569135553E+00 -0.11654101152E+00  0.29265267921E+01  0.30665842869E+01  0.90000000000E+00 0. -1.
</event>
<event>
 5   0  0.4857400E+02  0.9118800E+02  0.7818608E-02  0.1180000E+00
       11   -1    0    0    0    0  0.00000000000E+00  0.00000000000E+00  0.39999999673E+01  0.40000000000E+01  0.51109989000E-03 0.  1.
     -623   -1    0    0    0    0  0.00000000000E+00  0.00000000000E+00  0.12525980253E-10  0.17130000000E+03  0.17130000000E+03 0.  1.
       11    1    1    2    0    0 -0.11637609135E+00  0.25910449216E-01  0.23805094596E+00  0.26623910327E+00  0.51109989000E-03 0.  1.
     -623    1    1    2    0    0 -0.38208090157E-01 -0.11068394459E+00  0.14267491109E+00  0.17130009944E+03  0.17130000000E+03 0.  1.
      622    1    1    2    0    0  0.15458418151E+00  0.84773495377E-01  0.36192741103E+01  0.37336614603E+01  0.90000000000E+00 0.  1.
</event>
<event>
 5   0  0.4857400E+02  0.9118800E+02  0.7818608E-02  0.1180000E+00
       11   -1    0    0    0    0  0.00000000000E+00  0.00000000000E+00  0.39999999673E+01  0.40000000000E+01  0.51109989000E-03 0.  1.
     -623   -1    0    0    0    0  0.00000000000E+00  0.00000000000E+00  0.12525980253E-10  0.17130000000E+03  0.17130000000E+03 0. -1.
       11    1    1    2    0    0 -0.11401346108E+00  0.15164135094E+00  0.50340022301E+00  0.53796488210E+00  0.51109989000E-03 0.  1.
     -623    1    1    2    0    0 -0.75041937814E-01 -0.22957597598E+00  0.16010841627E+00  0.17130024510E+03  0.17130000000E+03 0. -1.
      622    1    1    2    0    0  0.18905539889E+00  0.77934625043E-01  0.33364913281E+01  0.34617900185E+01  0.90000000000E+00 0.  1.
</event>
<event>
 5   0  0.4857400E+02  0.9118800E+02  0.7818608E-02  0.1180000E+00
       11   -1    0    0    0    0  0.00000000000E+00  0.00000000000E+00  0.39999999673E+01  0.40000000000E+01  0.51109989000E-03 0.  1.
     -623   -1    0    0    0    0  0.00000000000E+00  0.00000000000E+00  0.12525980253E-10  0.17130000000E+03  0.17130000000E+03 0. -1.
       11    1    1    2    0    0  0.18336151936E-01 -0.92878068869E-02  0.96010158959E-03  0.20583023168E-01  0.51109989000E-03 0.  1.
     -623    1    1    2    0    0 -0.16421899139E-01  0.35967202508E-01  0.12287462607E+00  0.17130004863E+03  0.17130000000E+03 0. -1.
      622    1    1    2    0    0 -0.19142527971E-02 -0.26679395621E-01  0.38761652397E+01  0.39793683443E+01  0.90000000000E+00 0.  1.
</event>
<event>
 5   0  0.4857400E+02  0.9118800E+02  0.7818608E-02  0.1180000E+00
       11   -1    0    0    0    0  0.00000000000E+00  0.00000000000E+00  0.39999999673E+01  0.40000000000E+01  0.51109989000E-03 0. -1.
     -623   -1    0    0    0    0  0.00000000000E+00  0.00000000000E+00  0.12525980253E-10  0.17130000000E+03  0.17130000000E+03 0.  1.
       11    1    1    2    0    0 -0.57923897986E-01  0.85888510152E-01  0.18744945285E+00  0.21417182992E+00  0.51109989000E-03 0. -1.
     -623    1    1    2    0    0  0.28147068724E+00 -0.15479659747E+00  0.14307634923E+00  0.17130036094E+03  0.17130000000E+03 0.  1.
      622    1    1    2    0    0 -0.22354678926E+00  0.68908087314E-01  0.36694741653E+01  0.37854672289E+01  0.90000000000E+00 0. -1.
</event>
<event>
 5   0  0.4857400E+02  0.9118800E+02  0.7818608E-02  0.1180000E+00
       11   -1    0    0    0    0  0.00000000000E+00  0.00000000000E+00  0.39999999673E+01  0.40000000000E+01  0.51109989000E-03 0.  1.
     -623   -1    0    0    0    0  0.00000000000E+00  0.00000000000E+00  0.12525980253E-10  0.17130000000E+03  0.17130000000E+03 0.  1.
       11    1    1    2    0    0 -0.66585867895E-01  0.20934659263E+00  0.45063183662E+00  0.50132722552E+00  0.51109989000E-03 0.  1.
     -623    1    1    2    0    0 -0.82304123693E-01 -0.23052517500E+00  0.17205171662E+00  0.17130026129E+03  0.17130000000E+03 0.  1.
      622    1    1    2    0    0  0.14888999159E+00  0.21178582378E-01  0.33773164141E+01  0.34984114857E+01  0.90000000000E+00 0.  1.
</event>
<event>
 5   0  0.4857400E+02  0.9118800E+02  0.7818608E-02  0.1180000E+00
       11   -1    0    0    0    0  0.00000000000E+00  0.00000000000E+00  0.39999999673E+01  0.40000000000E+01  0.51109989000E-03 0. -1.
     -623   -1    0    0    0    0  0.00000000000E+00  0.00000000000E+00  0.12525980253E-10  0.17130000000E+03  0.17130000000E+03 0.  1.
       11    1    1    2    0    0 -0.32249810235E-01  0.31884963003E-01 -0.46572754267E-01  0.65007567167E-01  0.51109989000E-03 0. -1.
     -623    1    1    2    0    0  0.85158425622E-01  0.12132838215E+00  0.21952685522E+00  0.17130020480E+03  0.17130000000E+03 0.  1.
      622    1    1    2    0    0 -0.52908615387E-01 -0.15321334515E+00  0.38270458664E+01  0.39347876327E+01  0.90000000000E+00 0. -1.
</event>
<event>
 5   0  0.4857400E+02  0.9118800E+02  0.7818608E-02  0.1180000E+00
       11   -1    0    0    0    0  0.00000000000E+00  0.00000000000E+00  0.39999999673E+01  0.40000000000E+01  0.51109989000E-03 0.  1.
     -623   -1    0    0    0    0  0.00000000000E+00  0.00000000000E+00  0.12525980253E-10  0.17130000000E+03  0.17130000000E+03 0. -1.
       11    1    1    2    0    0  0.15837034771E+00  0.93842084470E-01  0.97288908889E+00  0.99015198043E+00  0.51109989000E-03 0.  1.
     -623    1    1    2    0    0 -0.13574283359E+00  0.49169431946E-01  0.15876436942E+00  0.17130013441E+03  0.17130000000E+03 0. -1.
      622    1    1    2    0    0 -0.22627514128E-01 -0.14301151642E+00  0.28683465091E+01  0.30097136067E+01  0.90000000000E+00 0. -1.
</event>
<event>
 5   0  0.4857400E+02  0.9118800E+02  0.7818608E-02  0.1180000E+00
       11   -1    0    0    0    0  0.00000000000E+00  0.00000000000E+00  0.39999999673E+01  0.40000000000E+01  0.51109989000E-03 0. -1.
     -623   -1    0    0    0    0  0.00000000000E+00  0.00000000000E+00  0.12525980253E-10  0.17130000000E+03  0.17130000000E+03 0.  1.
       11    1    1    2    0    0 -0.15101234800E+00 -0.83136664874E-01  0.11205537001E+00  0.20560423504E+00  0.51109989000E-03 0. -1.
     -623    1    1    2    0    0  0.14001393220E+00  0.25226189645E+00  0.20610670316E+00  0.17130036696E+03  0.17130000000E+03 0.  1.
      622    1    1    2    0    0  0.10998415802E-01 -0.16912523157E+00  0.36818378942E+01  0.37940288070E+01  0.90000000000E+00 0. -1.
</event>
<event>
 5   0  0.4857400E+02  0.9118800E+02  0.7818608E-02  0.1180000E+00
       11   -1    0    0    0    0  0.00000000000E+00  0.00000000000E+00  0.39999999673E+01  0.40000000000E+01  0.51109989000E-03 0. -1.
     -623   -1    0    0    0    0  0.00000000000E+00  0.00000000000E+00  0.12525980253E-10  0.17130000000E+03  0.17130000000E+03 0.  1.
       11    1    1    2    0    0  0.31178319559E-01  0.10679565723E+00  0.51141193673E+00  0.52337350932E+00  0.51109989000E-03 0. -1.
     -623    1    1    2    0    0  0.50767216498E-01 -0.21895963469E-01  0.13260981441E+00  0.17130006025E+03  0.17130000000E+03 0.  1.
      622    1    1    2    0    0 -0.81945536058E-01 -0.84899693764E-01  0.33559782162E+01  0.34765662394E+01  0.90000000000E+00 0. -1.
</event>
<event>
 5   0  0.4857400E+02  0.9118800E+02  0.7818608E-02  0.1180000E+00
       11   -1    0    0    0    0  0.00000000000E+00  0.00000000000E+00  0.39999999673E+01  0.40000000000E+01  0.51109989000E-03 0.  1.
     -623   -1    0    0    0    0  0.00000000000E+00  0.00000000000E+00  0.12525980253E-10  0.17130000000E+03  0.17130000000E+03 0.  1.
       11    1    1    2    0    0  0.13990853642E+00  0.23565678220E+00  0.82839146552E+00  0.87254867998E+00  0.51109989000E-03 0.  1.
     -623    1    1    2    0    0 -0.28176232043E+00 -0.55738021272E+00  0.19848149118E+00  0.17130125352E+03  0.17130000000E+03 0.  1.
      622    1    1    2    0    0  0.14185378401E+00  0.32172343052E+00  0.29731270107E+01  0.31261977998E+01  0.90000000000E+00 0.  1.
</event>
<event>
 5   0  0.4857400E+02  0.9118800E+02  0.7818608E-02  0.1180000E+00
       11   -1    0    0    0    0  0.00000000000E+00  0.00000000000E+00  0.39999999673E+01  0.40000000000E+01  0.51109989000E-03 0. -1.
     -623   -1    0    0    0    0  0.00000000000E+00  0.00000000000E+00  0.12525980253E-10  0.17130000000E+03  0.17130000000E+03 0. -1.
       11    1    1    2    0    0 -0.85877275505E-01 -0.72805662608E-01  0.22586811873E+00  0.25237321418E+00  0.51109989000E-03 0. -1.
     -623    1    1    2    0    0  0.49069697158E-01  0.98121110927E-01  0.13654478313E+00  0.17130008955E+03  0.17130000000E+03 0. -1.
      622    1    1    2    0    0  0.36807578347E-01 -0.25315448319E-01  0.36375870655E+01  0.37475372352E+01  0.90000000000E+00 0. -1.
</event>
<event>
 5   0  0.4857400E+02  0.9118800E+02  0.7818608E-02  0.1180000E+00
       11   -1    0    0    0    0  0.00000000000E+00  0.00000000000E+00  0.39999999673E+01  0.40000000000E+01  0.51109989000E-03 0.  1.
     -623   -1    0    0    0    0  0.00000000000E+00  0.00000000000E+00  0.12525980253E-10  0.17130000000E+03  0.17130000000E+03 0.  1.
       11    1    1    2    0    0 -0.34032391063E-01 -0.27522603545E+00  0.36019769111E+00  0.45458795863E+00  0.51109989000E-03 0.  1.
     -623    1    1    2    0    0  0.14454404050E+00 -0.10225749549E+00  0.23341658533E+00  0.17130025053E+03  0.17130000000E+03 0.  1.
      622    1    1    2    0    0 -0.11051164944E+00  0.37748353094E+00  0.34063856909E+01  0.35451615078E+01  0.90000000000E+00 0.  1.
</event>
<event>
 5   0  0.4857400E+02  0.9118800E+02  0.7818608E-02  0.1180000E+00
       11   -1    0    0    0    0  0.00000000000E+00  0.00000000000E+00  0.39999999673E+01  0.40000000000E+01  0.51109989000E-03 0. -1.
     -623   -1    0    0    0    0  0.00000000000E+00  0.00000000000E+00  0.12525980253E-10  0.17130000000E+03  0.17130000000E+03 0.  1.
       11    1    1    2    0    0  0.15802370632E+00 -0.55879957627E-02  0.32947515253E-02  0.15815762411E+00  0.51109989000E-03 0. -1.
     -623    1    1    2    0    0 -0.45099850940E-01 -0.12270833005E+00  0.26594502280E+00  0.17130025633E+03  0.17130000000E+03 0.  1.
      622    1    1    2    0    0 -0.11292385538E+00  0.12829632581E+00  0.37307601930E+01  0.38415860477E+01  0.90000000000E+00 0.  0.
</event>
<event>
 5   0  0.4857400E+02  0.9118800E+02  0.7818608E-02  0.1180000E+00
       11   -1    0    0    0    0  0.00000000000E+00  0.00000000000E+00  0.39999999673E+01  0.40000000000E+01  0.51109989000E-03 0.  1.
     -623   -1    0    0    0    0  0.00000000000E+00  0.00000000000E+00  0.12525980253E-10  0.17130000000E+03  0.17130000000E+03 0. -1.
       11    1    1    2    0    0  0.11111604103E+00  0.93450752858E-01  0.24474953239E+00  0.28457408985E+00  0.51109989000E-03 0.  1.
     -623    1    1    2    0    0  0.94961536709E-01 -0.79314102806E-01  0.15652031216E+00  0.17130011619E+03  0.17130000000E+03 0. -1.
      622    1    1    2    0    0 -0.20607757774E+00 -0.14136650052E-01  0.35987301228E+01  0.37153097192E+01  0.90000000000E+00 0.  1.
</event>
<event>
 5   0  0.4857400E+02  0.9118800E+02  0.7818608E-02  0.1180000E+00
       11   -1    0    0    0    0  0.00000000000E+00  0.00000000000E+00  0.39999999673E+01  0.40000000000E+01  0.51109989000E-03 0.  1.
     -623   -1    0    0    0    0  0.00000000000E+00  0.00000000000E+00  0.12525980253E-10  0.17130000000E+03  0.17130000000E+03 0. -1.
       11    1    1    2    0    0  0.83956463296E-02 -0.43645335952E-02  0.20004622164E-01  0.22135540630E-01  0.51109989000E-03 0.  1.
     -623    1    1    2    0    0 -0.77864453801E-01 -0.21083118556E-01  0.10604130205E+00  0.17130005182E+03  0.17130000000E+03 0. -1.
      622    1    1    2    0    0  0.69468807472E-01  0.25447652151E-01  0.38739540431E+01  0.39778126435E+01  0.90000000000E+00 0.  1.
</event>
<event>
 5   0  0.4857400E+02  0.9118800E+02  0.7818608E-02  0.1180000E+00
       11   -1    0    0    0    0  0.00000000000E+00  0.00000000000E+00  0.39999999673E+01  0.40000000000E+01  0.51109989000E-03 0.  1.
     -623   -1    0    0    0    0  0.00000000000E+00  0.00000000000E+00  0.12525980253E-10  0.17130000000E+03  0.17130000000E+03 0. -1.
       11    1    1    2    0    0 -0.11047602537E-01  0.10734127676E-01  0.31904285744E-01  0.35431845692E-01  0.51109989000E-03 0.  1.
     -623    1    1    2    0    0  0.75717068987E-02 -0.10660265648E+00  0.10829490542E+00  0.17130006757E+03  0.17130000000E+03 0. -1.
      622    1    1    2    0    0  0.34758956383E-02  0.95868528802E-01  0.38598007762E+01  0.39645005850E+01  0.90000000000E+00 0.  1.
</event>
<event>
 5   0  0.4857400E+02  0.9118800E+02  0.7818608E-02  0.1180000E+00
       11   -1    0    0    0    0  0.00000000000E+00  0.00000000000E+00  0.39999999673E+01  0.40000000000E+01  0.51109989000E-03 0.  1.
     -623   -1    0    0    0    0  0.00000000000E+00  0.00000000000E+00  0.12525980253E-10  0.17130000000E+03  0.17130000000E+03 0.  1.
       11    1    1    2    0    0 -0.18479244578E-01 -0.77520633570E-03  0.15361177279E+00  0.15472207789E+00  0.51109989000E-03 0.  1.
     -623    1    1    2    0    0  0.27726645230E-01 -0.76610800080E-01  0.10878554928E+00  0.17130005392E+03  0.17130000000E+03 0.  1.
      622    1    1    2    0    0 -0.92474006525E-02  0.77386006416E-01  0.37376026453E+01  0.38452240042E+01  0.90000000000E+00 0.  1.
</event>
<event>
 5   0  0.4857400E+02  0.9118800E+02  0.7818608E-02  0.1180000E+00
       11   -1    0    0    0    0  0.00000000000E+00  0.00000000000E+00  0.39999999673E+01  0.40000000000E+01  0.51109989000E-03 0. -1.
     -623   -1    0    0    0    0  0.00000000000E+00  0.00000000000E+00  0.12525980253E-10  0.17130000000E+03  0.17130000000E+03 0. -1.
       11    1    1    2    0    0  0.42592317709E-01  0.70066512569E-01  0.88073508260E+00  0.88454393257E+00  0.51109989000E-03 0. -1.
     -623    1    1    2    0    0  0.48514479059E-01 -0.76736738264E-01  0.13812001843E+00  0.17130007974E+03  0.17130000000E+03 0. -1.
      622    1    1    2    0    0 -0.91106796767E-01  0.66702256955E-02  0.29811448663E+01  0.31153763263E+01  0.90000000000E+00 0. -1.
</event>
<event>
 5   0  0.4857400E+02  0.9118800E+02  0.7818608E-02  0.1180000E+00
       11   -1    0    0    0    0  0.00000000000E+00  0.00000000000E+00  0.39999999673E+01  0.40000000000E+01  0.51109989000E-03 0. -1.
     -623   -1    0    0    0    0  0.00000000000E+00  0.00000000000E+00  0.12525980253E-10  0.17130000000E+03  0.17130000000E+03 0.  1.
       11    1    1    2    0    0 -0.20280514209E-01  0.15621177668E+00  0.64125728848E+00  0.66032158051E+00  0.51109989000E-03 0. -1.
     -623    1    1    2    0    0  0.37204831092E-01 -0.50056453096E-01  0.14449102468E+00  0.17130007229E+03  0.17130000000E+03 0.  1.
      622    1    1    2    0    0 -0.16924316883E-01 -0.10615532359E+00  0.32142516542E+01  0.33396061267E+01  0.90000000000E+00 0. -1.
</event>
<event>
 5   0  0.4857400E+02  0.9118800E+02  0.7818608E-02  0.1180000E+00
       11   -1    0    0    0    0  0.00000000000E+00  0.00000000000E+00  0.39999999673E+01  0.40000000000E+01  0.51109989000E-03 0. -1.
     -623   -1    0    0    0    0  0.00000000000E+00  0.00000000000E+00  0.12525980253E-10  0.17130000000E+03  0.17130000000E+03 0. -1.
       11    1    1    2    0    0  0.10355992636E+00 -0.17122122024E+00  0.32143463239E+00  0.37863154746E+00  0.51109989000E-03 0. -1.
     -623    1    1    2    0    0 -0.10390243549E+00  0.18007681501E-02  0.17503424472E+00  0.17130012095E+03  0.17130000000E+03 0. -1.
      622    1    1    2    0    0  0.34250912375E-03  0.16942045209E+00  0.35035310902E+01  0.36212475070E+01  0.90000000000E+00 0. -1.
</event>
<event>
 5   0  0.4857400E+02  0.9118800E+02  0.7818608E-02  0.1180000E+00
       11   -1    0    0    0    0  0.00000000000E+00  0.00000000000E+00  0.39999999673E+01  0.40000000000E+01  0.51109989000E-03 0. -1.
     -623   -1    0    0    0    0  0.00000000000E+00  0.00000000000E+00  0.12525980253E-10  0.17130000000E+03  0.17130000000E+03 0. -1.
       11    1    1    2    0    0  0.15322368962E+00  0.97578433883E-01  0.27578295436E+00  0.33023559614E+00  0.51109989000E-03 0. -1.
     -623    1    1    2    0    0 -0.13612588002E+00 -0.28372273921E-01  0.16738210703E+00  0.17130013821E+03  0.17130000000E+03 0. -1.
      622    1    1    2    0    0 -0.17097809599E-01 -0.69206159962E-01  0.35568349060E+01  0.36696261902E+01  0.90000000000E+00 0. -1.
</event>
<event>
 5   0  0.4857400E+02  0.9118800E+02  0.7818608E-02  0.1180000E+00
       11   -1    0    0    0    0  0.00000000000E+00  0.00000000000E+00  0.39999999673E+01  0.40000000000E+01  0.51109989000E-03 0.  1.
     -623   -1    0    0    0    0  0.00000000000E+00  0.00000000000E+00  0.12525980253E-10  0.17130000000E+03  0.17130000000E+03 0. -1.
       11    1    1    2    0    0  0.31830198845E-01  0.53064640318E-01  0.35667708392E+00  0.36200527762E+00  0.51109989000E-03 0.  1.
     -623    1    1    2    0    0 -0.33267968921E-01 -0.11468995597E+00  0.11903542682E+00  0.17130008298E+03  0.17130000000E+03 0. -1.
      622    1    1    2    0    0  0.14377700759E-02  0.61625315655E-01  0.35242874566E+01  0.36379117394E+01  0.90000000000E+00 0.  1.
</event>
<event>
 5   0  0.4857400E+02  0.9118800E+02  0.7818608E-02  0.1180000E+00
       11   -1    0    0    0    0  0.00000000000E+00  0.00000000000E+00  0.39999999673E+01  0.40000000000E+01  0.51109989000E-03 0. -1.
     -623   -1    0    0    0    0  0.00000000000E+00  0.00000000000E+00  0.12525980253E-10  0.17130000000E+03  0.17130000000E+03 0.  1.
       11    1    1    2    0    0  0.21492181424E+00 -0.18723857333E+00  0.11216547817E+01  0.11573069515E+01  0.51109989000E-03 0. -1.
     -623    1    1    2    0    0  0.18959771437E+00  0.43823401397E-01  0.21652373165E+00  0.17130024737E+03  0.17130000000E+03 0.  1.
      622    1    1    2    0    0 -0.40451952861E+00  0.14341517193E+00  0.26618214540E+01  0.28424456747E+01  0.90000000000E+00 0. -1.
</event>
<event>
 5   0  0.4857400E+02  0.9118800E+02  0.7818608E-02  0.1180000E+00
       11   -1    0    0    0    0  0.00000000000E+00  0.00000000000E+00  0.39999999673E+01  0.40000000000E+01  0.51109989000E-03 0. -1.
     -623   -1    0    0    0    0  0.00000000000E+00  0.00000000000E+00  0.12525980253E-10  0.17130000000E+03  0.17130000000E+03 0.  1.
       11    1    1    2    0    0 -0.55727016351E-01  0.26729834576E-01  0.65133974705E+00  0.65426578064E+00  0.51109989000E-03 0. -1.
     -623    1    1    2    0    0  0.89618503001E-01 -0.11530740743E+00  0.12775855920E+00  0.17130010989E+03  0.17130000000E+03 0.  1.
      622    1    1    2    0    0 -0.33891486650E-01  0.88577572857E-01  0.32209016611E+01  0.33456243259E+01  0.90000000000E+00 0. -1.
</event>
<event>
 5   0  0.4857400E+02  0.9118800E+02  0.7818608E-02  0.1180000E+00
       11   -1    0    0    0    0  0.00000000000E+00  0.00000000000E+00  0.39999999673E+01  0.40000000000E+01  0.51109989000E-03 0.  1.
     -623   -1    0    0    0    0  0.00000000000E+00  0.00000000000E+00  0.12525980253E-10  0.17130000000E+03  0.17130000000E+03 0.  1.
       11    1    1    2    0    0  0.12804885260E-01  0.53633332224E-02  0.83517317760E-02  0.16209351515E-01  0.51109989000E-03 0.  1.
     -623    1    1    2    0    0  0.29247521178E-01 -0.45894657877E-02  0.11111845303E+00  0.17130003860E+03  0.17130000000E+03 0.  1.
      622    1    1    2    0    0 -0.42052406438E-01 -0.77386743467E-03  0.38805297826E+01  0.39837520502E+01  0.90000000000E+00 0.  1.
</event>
<event>
 5   0  0.4857400E+02  0.9118800E+02  0.7818608E-02  0.1180000E+00
       11   -1    0    0    0    0  0.00000000000E+00  0.00000000000E+00  0.39999999673E+01  0.40000000000E+01  0.51109989000E-03 0. -1.
     -623   -1    0    0    0    0  0.00000000000E+00  0.00000000000E+00  0.12525980253E-10  0.17130000000E+03  0.17130000000E+03 0.  1.
       11    1    1    2    0    0  0.38073582231E-01 -0.20280852613E-01 -0.69835534429E-01  0.82086379739E-01  0.51109989000E-03 0. -1.
     -623    1    1    2    0    0 -0.33543578675E+00  0.13747570873E+00  0.27072948809E+00  0.17130059752E+03  0.17130000000E+03 0.  1.
      622    1    1    2    0    0  0.29736220452E+00 -0.11719485612E+00  0.37991060137E+01  0.39173160988E+01  0.90000000000E+00 0. -1.
</event>
<event>
 5   0  0.4857400E+02  0.9118800E+02  0.7818608E-02  0.1180000E+00
       11   -1    0    0    0    0  0.00000000000E+00  0.00000000000E+00  0.39999999673E+01  0.40000000000E+01  0.51109989000E-03 0.  1.
     -623   -1    0    0    0    0  0.00000000000E+00  0.00000000000E+00  0.12525980253E-10  0.17130000000E+03  0.17130000000E+03 0.  1.
       11    1    1    2    0    0 -0.19258233770E-01  0.56633716933E-02  0.16937985519E-01  0.26269943314E-01  0.51109989000E-03 0.  1.
     -623    1    1    2    0    0  0.45436384939E-01  0.99890704286E-02  0.11275771398E+00  0.17130004343E+03  0.17130000000E+03 0.  1.
      622    1    1    2    0    0 -0.26178151169E-01 -0.15652442122E-01  0.38703042679E+01  0.39736866284E+01  0.90000000000E+00 0.  1.
</event>
<event>
 5   0  0.4857400E+02  0.9118800E+02  0.7818608E-02  0.1180000E+00
       11   -1    0    0    0    0  0.00000000000E+00  0.00000000000E+00  0.39999999673E+01  0.40000000000E+01  0.51109989000E-03 0. -1.
     -623   -1    0    0    0    0  0.00000000000E+00  0.00000000000E+00  0.12525980253E-10  0.17130000000E+03  0.17130000000E+03 0. -1.
       11    1    1    2    0    0 -0.36911674673E-01 -0.85199487338E-01 -0.52567375206E-01  0.10670058355E+00  0.51109989000E-03 0. -1.
     -623    1    1    2    0    0  0.10257537819E+00 -0.22311131007E+00  0.27827499126E+00  0.17130040203E+03  0.17130000000E+03 0. -1.
      622    1    1    2    0    0 -0.65663703517E-01  0.30831079741E+00  0.37742923513E+01  0.38928973815E+01  0.90000000000E+00 0. -1.
</event>
<event>
 5   0  0.4857400E+02  0.9118800E+02  0.7818608E-02  0.1180000E+00
       11   -1    0    0    0    0  0.00000000000E+00  0.00000000000E+00  0.39999999673E+01  0.40000000000E+01  0.51109989000E-03 0.  1.
     -623   -1    0    0    0    0  0.00000000000E+00  0.00000000000E+00  0.12525980253E-10  0.17130000000E+03  0.17130000000E+03 0.  1.
       11    1    1    2    0    0 -0.17213474521E-01 -0.20799324223E+00  0.25794191106E+00  0.33180081860E+00  0.51109989000E-03 0.  1.
     -623    1    1    2    0    0 -0.16044646534E+00  0.27950391800E+00  0.19156533281E+00  0.17130041028E+03  0.17130000000E+03 0.  1.
      622    1    1    2    0    0  0.17765993986E+00 -0.71510675777E-01  0.35504927235E+01  0.36677888994E+01  0.90000000000E+00 0.  1.
</event>
<event>
 5   0  0.4857400E+02  0.9118800E+02  0.7818608E-02  0.1180000E+00
       11   -1    0    0    0    0  0.00000000000E+00  0.00000000000E+00  0.39999999673E+01  0.40000000000E+01  0.51109989000E-03 0. -1.
     -623   -1    0    0    0    0  0.00000000000E+00  0.00000000000E+00  0.12525980253E-10  0.17130000000E+03  0.17130000000E+03 0.  1.
       11    1    1    2    0    0  0.40734787956E-01  0.12096632600E+00  0.47986912240E+00  0.49655494241E+00  0.51109989000E-03 0. -1.
     -623    1    1    2    0    0 -0.14231796162E-01 -0.14484310196E+00  0.13456572037E+00  0.17130011468E+03  0.17130000000E+03 0.  1.
      622    1    1    2    0    0 -0.26502991794E-01  0.23876775959E-01  0.33855651246E+01  0.35033303758E+01  0.90000000000E+00 0. -1.
</event>
<event>
 5   0  0.4857400E+02  0.9118800E+02  0.7818608E-02  0.1180000E+00
       11   -1    0    0    0    0  0.00000000000E+00  0.00000000000E+00  0.39999999673E+01  0.40000000000E+01  0.51109989000E-03 0. -1.
     -623   -1    0    0    0    0  0.00000000000E+00  0.00000000000E+00  0.12525980253E-10  0.17130000000E+03  0.17130000000E+03 0. -1.
       11    1    1    2    0    0 -0.19563090396E+00  0.65166999498E-01  0.48746460827E+00  0.52928271647E+00  0.51109989000E-03 0. -1.
     -623    1    1    2    0    0  0.18961688645E+00  0.18805799171E-01  0.16178545335E+00  0.17130018238E+03  0.17130000000E+03 0. -1.
      622    1    1    2    0    0  0.60140175108E-02 -0.83972798669E-01  0.33507499057E+01  0.34705349055E+01  0.90000000000E+00 0.  1.
</event>
<event>
 5   0  0.4857400E+02  0.9118800E+02  0.7818608E-02  0.1180000E+00
       11   -1    0    0    0    0  0.00000000000E+00  0.00000000000E+00  0.39999999673E+01  0.40000000000E+01  0.51109989000E-03 0.  1.
     -623   -1    0    0    0    0  0.00000000000E+00  0.00000000000E+00  0.12525980253E-10  0.17130000000E+03  0.17130000000E+03 0.  1.
       11    1    1    2    0    0  0.28526259780E+00 -0.50963988651E-01  0.98227612875E+00  0.10241282792E+01  0.51109989000E-03 0.  1.
     -623    1    1    2    0    0 -0.81139165677E-02  0.56448228055E-01  0.19491414843E+00  0.17130012038E+03  0.17130000000E+03 0.  1.
      622    1    1    2    0    0 -0.27714868124E+00 -0.54842394041E-02  0.28228096902E+01  0.29757513363E+01  0.90000000000E+00 0.  1.
</event>
<event>
 5   0  0.4857400E+02  0.9118800E+02  0.7818608E-02  0.1180000E+00
       11   -1    0    0    0    0  0.00000000000E+00  0.00000000000E+00  0.39999999673E+01  0.40000000000E+01  0.51109989000E-03 0.  1.
     -623   -1    0    0    0    0  0.00000000000E+00  0.00000000000E+00  0.12525980253E-10  0.17130000000E+03  0.17130000000E+03 0.  1.
       11    1    1    2    0    0 -0.71187155435E-01  0.20116909877E-01  0.17447827211E+00  0.18951313892E+00  0.51109989000E-03 0.  1.
     -623    1    1    2    0    0  0.80194338131E-01  0.31558813969E-01  0.12328516832E+00  0.17130006604E+03  0.17130000000E+03 0.  1.
      622    1    1    2    0    0 -0.90071826965E-02 -0.51675723846E-01  0.37022365269E+01  0.38104208181E+01  0.90000000000E+00 0.  1.
</event>
<event>
 5   0  0.4857400E+02  0.9118800E+02  0.7818608E-02  0.1180000E+00
       11   -1    0    0    0    0  0.00000000000E+00  0.00000000000E+00  0.39999999673E+01  0.40000000000E+01  0.51109989000E-03 0. -1.
     -623   -1    0    0    0    0  0.00000000000E+00  0.00000000000E+00  0.12525980253E-10  0.17130000000E+03  0.17130000000E+03 0. -1.
       11    1    1    2    0    0  0.68294278530E-01  0.66001492054E-01  0.49428460731E+00  0.50332677227E+00  0.51109989000E-03 0. -1.
     -623    1    1    2    0    0  0.25054301681E-01 -0.53320302612E-01  0.12822480754E+00  0.17130005812E+03  0.17130000000E+03 0. -1.
      622    1    1    2    0    0 -0.93348580210E-01 -0.12681189441E-01  0.33774905525E+01  0.34966151064E+01  0.90000000000E+00 0. -1.
</event>
<event>
 5   0  0.4857400E+02  0.9118800E+02  0.7818608E-02  0.1180000E+00
       11   -1    0    0    0    0  0.00000000000E+00  0.00000000000E+00  0.39999999673E+01  0.40000000000E+01  0.51109989000E-03 0.  1.
     -623   -1    0    0    0    0  0.00000000000E+00  0.00000000000E+00  0.12525980253E-10  0.17130000000E+03  0.17130000000E+03 0.  1.
       11    1    1    2    0    0 -0.11768203322E+00 -0.30947673093E-01  0.10870858180E+01  0.10938750643E+01  0.51109989000E-03 0.  1.
     -623    1    1    2    0    0  0.25299575710E+00  0.29974015452E+00  0.16665816718E+00  0.17130053014E+03  0.17130000000E+03 0.  1.
      622    1    1    2    0    0 -0.13531372388E+00 -0.26879248143E+00  0.27462559822E+01  0.29055947965E+01  0.90000000000E+00 0.  1.
</event>
<event>
 5   0  0.4857400E+02  0.9118800E+02  0.7818608E-02  0.1180000E+00
       11   -1    0    0    0    0  0.00000000000E+00  0.00000000000E+00  0.39999999673E+01  0.40000000000E+01  0.51109989000E-03 0.  1.
     -623   -1    0    0    0    0  0.00000000000E+00  0.00000000000E+00  0.12525980253E-10  0.17130000000E+03  0.17130000000E+03 0.  1.
       11    1    1    2    0    0  0.23325945775E-01 -0.23223453833E-01  0.14065923285E-01  0.35798602978E-01  0.51109989000E-03 0.  1.
     -623    1    1    2    0    0 -0.53943907576E-01 -0.84585580521E-01  0.12695405262E+00  0.17130007642E+03  0.17130000000E+03 0.  1.
      622    1    1    2    0    0  0.30617961801E-01  0.10780903435E+00  0.38589799915E+01  0.39641249756E+01  0.90000000000E+00 0.  1.
</event>
<event>
 5   0  0.4857400E+02  0.9118800E+02  0.7818608E-02  0.1180000E+00
       11   -1    0    0    0    0  0.00000000000E+00  0.00000000000E+00  0.39999999673E+01  0.40000000000E+01  0.51109989000E-03 0. -1.
     -623   -1    0    0    0    0  0.00000000000E+00  0.00000000000E+00  0.12525980253E-10  0.17130000000E+03  0.17130000000E+03 0.  1.
       11    1    1    2    0    0  0.72460415299E-01 -0.48370283520E-01  0.16160650651E+00  0.18359498981E+00  0.51109989000E-03 0. -1.
     -623    1    1    2    0    0 -0.53763689182E-01  0.73547693960E-01  0.12983534983E+00  0.17130007343E+03  0.17130000000E+03 0.  1.
      622    1    1    2    0    0 -0.18696726116E-01 -0.25177410440E-01  0.37085581110E+01  0.38163315805E+01  0.90000000000E+00 0. -1.
</event>
<event>
 5   0  0.4857400E+02  0.9118800E+02  0.7818608E-02  0.1180000E+00
       11   -1    0    0    0    0  0.00000000000E+00  0.00000000000E+00  0.39999999673E+01  0.40000000000E+01  0.51109989000E-03 0.  1.
     -623   -1    0    0    0    0  0.00000000000E+00  0.00000000000E+00  0.12525980253E-10  0.17130000000E+03  0.17130000000E+03 0. -1.
       11    1    1    2    0    0  0.45170322966E-01  0.10211277231E+00 -0.55642479637E-02  0.11179713066E+00  0.51109989000E-03 0.  1.
     -623    1    1    2    0    0 -0.12847492693E-01  0.11497323410E+00  0.22952781574E+00  0.17130019284E+03  0.17130000000E+03 0. -1.
      622    1    1    2    0    0 -0.32322830273E-01 -0.21708600641E+00  0.37760363996E+01  0.38880100296E+01  0.90000000000E+00 0.  1.
</event>
<event>
 5   0  0.4857400E+02  0.9118800E+02  0.7818608E-02  0.1180000E+00
       11   -1    0    0    0    0  0.00000000000E+00  0.00000000000E+00  0.39999999673E+01  0.40000000000E+01  0.51109989000E-03 0. -1.
     -623   -1    0    0    0    0  0.00000000000E+00  0.00000000000E+00  0.12525980253E-10  0.17130000000E+03  0.17130000000E+03 0.  1.
       11    1    1    2    0    0  0.78853668225E-01  0.92163453790E-01  0.13152113029E+00  0.17891358848E+00  0.51109989000E-03 0. -1.
     -623    1    1    2    0    0 -0.15787583018E+00 -0.11095127413E+00  0.15596880967E+00  0.17130017969E+03  0.17130000000E+03 0.  1.
      622    1    1    2    0    0  0.79022161955E-01  0.18787820341E-01  0.37125100274E+01  0.38209067233E+01  0.90000000000E+00 0. -1.
</event>
<event>
 5   0  0.4857400E+02  0.9118800E+02  0.7818608E-02  0.1180000E+00
       11   -1    0    0    0    0  0.00000000000E+00  0.00000000000E+00  0.39999999673E+01  0.40000000000E+01  0.51109989000E-03 0. -1.
     -623   -1    0    0    0    0  0.00000000000E+00  0.00000000000E+00  0.12525980253E-10  0.17130000000E+03  0.17130000000E+03 0. -1.
       11    1    1    2    0    0 -0.71879188616E-01 -0.26418494524E-01  0.28999076857E-01  0.81888718931E-01  0.51109989000E-03 0. -1.
     -623    1    1    2    0    0  0.49680697042E-01 -0.13404872468E+00  0.16123824311E+00  0.17130013554E+03  0.17130000000E+03 0. -1.
      622    1    1    2    0    0  0.22198491574E-01  0.16046721921E+00  0.38097626474E+01  0.39179757440E+01  0.90000000000E+00 0. -1.
</event>
<event>
 5   0  0.4857400E+02  0.9118800E+02  0.7818608E-02  0.1180000E+00
       11   -1    0    0    0    0  0.00000000000E+00  0.00000000000E+00  0.39999999673E+01  0.40000000000E+01  0.51109989000E-03 0. -1.
     -623   -1    0    0    0    0  0.00000000000E+00  0.00000000000E+00  0.12525980253E-10  0.17130000000E+03  0.17130000000E+03 0. -1.
       11    1    1    2    0    0 -0.31549082753E-01 -0.15090866290E-01 -0.22413626404E-01  0.41541674733E-01  0.51109989000E-03 0. -1.
     -623    1    1    2    0    0  0.92098896624E-01  0.35747231352E+00  0.18384990310E+00  0.17130049641E+03  0.17130000000E+03 0. -1.
      622    1    1    2    0    0 -0.60549813871E-01 -0.34238144723E+00  0.38385636907E+01  0.39579619178E+01  0.90000000000E+00 0. -1.
</event>
<event>
 5   0  0.4857400E+02  0.9118800E+02  0.7818608E-02  0.1180000E+00
       11   -1    0    0    0    0  0.00000000000E+00  0.00000000000E+00  0.39999999673E+01  0.40000000000E+01  0.51109989000E-03 0. -1.
     -623   -1    0    0    0    0  0.00000000000E+00  0.00000000000E+00  0.12525980253E-10  0.17130000000E+03  0.17130000000E+03 0. -1.
       11    1    1    2    0    0 -0.38140441394E-01  0.65874784219E-02  0.30808415866E+00  0.31050635771E+00  0.51109989000E-03 0. -1.
     -623    1    1    2    0    0  0.40490928866E-01 -0.62055263972E-01  0.11436340673E+00  0.17130005420E+03  0.17130000000E+03 0. -1.
      622    1    1    2    0    0 -0.23504874723E-02  0.55467785550E-01  0.35775524020E+01  0.36894394410E+01  0.90000000000E+00 0. -1.
</event>
<event>
 5   0  0.4857400E+02  0.9118800E+02  0.7818608E-02  0.1180000E+00
       11   -1    0    0    0    0  0.00000000000E+00  0.00000000000E+00  0.39999999673E+01  0.40000000000E+01  0.51109989000E-03 0. -1.
     -623   -1    0    0    0    0  0.00000000000E+00  0.00000000000E+00  0.12525980253E-10  0.17130000000E+03  0.17130000000E+03 0. -1.
       11    1    1    2    0    0  0.22420438326E+00  0.74414599290E-01  0.34792548730E+00  0.42054434249E+00  0.51109989000E-03 0. -1.
     -623    1    1    2    0    0  0.14322128675E+00 -0.11078633659E+00  0.20757264203E+00  0.17130022146E+03  0.17130000000E+03 0. -1.
      622    1    1    2    0    0 -0.36742567002E+00  0.36371737304E-01  0.34445018380E+01  0.35792341972E+01  0.90000000000E+00 0. -1.
</event>
<event>
 5   0  0.4857400E+02  0.9118800E+02  0.7818608E-02  0.1180000E+00
       11   -1    0    0    0    0  0.00000000000E+00  0.00000000000E+00  0.39999999673E+01  0.40000000000E+01  0.51109989000E-03 0.  1.
     -623   -1    0    0    0    0  0.00000000000E+00  0.00000000000E+00  0.12525980253E-10  0.17130000000E+03  0.17130000000E+03 0.  1.
       11    1    1    2    0    0  0.87223839255E-01 -0.54735445905E-01  0.18741680469E+00  0.21384407187E+00  0.51109989000E-03 0.  1.
     -623    1    1    2    0    0  0.71886049579E-01 -0.25201253240E-01  0.13934025001E+00  0.17130007361E+03  0.17130000000E+03 0.  1.
      622    1    1    2    0    0 -0.15910988883E+00  0.79936699145E-01  0.36732429127E+01  0.37860823192E+01  0.90000000000E+00 0.  1.
</event>
<event>
 5   0  0.4857400E+02  0.9118800E+02  0.7818608E-02  0.1180000E+00
       11   -1    0    0    0    0  0.00000000000E+00  0.00000000000E+00  0.39999999673E+01  0.40000000000E+01  0.51109989000E-03 0.  1.
     -623   -1    0    0    0    0  0.00000000000E+00  0.00000000000E+00  0.12525980253E-10  0.17130000000E+03  0.17130000000E+03 0.  1.
       11    1    1    2    0    0 -0.94732979379E-02 -0.29872711955E-01  0.75413824260E+00  0.75478929011E+00  0.51109989000E-03 0.  1.
     -623    1    1    2    0    0  0.66726700424E-01  0.21555879961E+00  0.13421755800E+00  0.17130020120E+03  0.17130000000E+03 0.  1.
      622    1    1    2    0    0 -0.57253402486E-01 -0.18568608765E+00  0.31116441668E+01  0.32450095063E+01  0.90000000000E+00 0.  1.
</event>
<event>
 5   0  0.4857400E+02  0.9118800E+02  0.7818608E-02  0.1180000E+00
       11   -1    0    0    0    0  0.00000000000E+00  0.00000000000E+00  0.39999999673E+01  0.40000000000E+01  0.51109989000E-03 0.  1.
     -623   -1    0    0    0    0  0.00000000000E+00  0.00000000000E+00  0.12525980253E-10  0.17130000000E+03  0.17130000000E+03 0. -1.
       11    1    1    2    0    0 -0.48422713756E-01 -0.21138483370E+00  0.36950200134E+00  0.42843937418E+00  0.51109989000E-03 0.  1.
     -623    1    1    2    0    0 -0.13542903045E+00  0.24243697141E+00  0.17955611755E+00  0.17130031920E+03  0.17130000000E+03 0. -1.
      622    1    1    2    0    0  0.18385174421E+00 -0.31052137707E-01  0.34509418485E+01  0.35712414285E+01  0.90000000000E+00 0.  1.
</event>
<event>
 5   0  0.4857400E+02  0.9118800E+02  0.7818608E-02  0.1180000E+00
       11   -1    0    0    0    0  0.00000000000E+00  0.00000000000E+00  0.39999999673E+01  0.40000000000E+01  0.51109989000E-03 0. -1.
     -623   -1    0    0    0    0  0.00000000000E+00  0.00000000000E+00  0.12525980253E-10  0.17130000000E+03  0.17130000000E+03 0. -1.
       11    1    1    2    0    0 -0.61226305013E-02  0.39441290568E-01  0.37620995520E+00  0.37832168008E+00  0.51109989000E-03 0. -1.
     -623    1    1    2    0    0  0.98295626510E-01 -0.95627087553E-01  0.11747973675E+00  0.17130009518E+03  0.17130000000E+03 0. -1.
      622    1    1    2    0    0 -0.92172996009E-01  0.56185796985E-01  0.35063102754E+01  0.36215831417E+01  0.90000000000E+00 0. -1.
</event>
<event>
 5   0  0.4857400E+02  0.9118800E+02  0.7818608E-02  0.1180000E+00
       11   -1    0    0    0    0  0.00000000000E+00  0.00000000000E+00  0.39999999673E+01  0.40000000000E+01  0.51109989000E-03 0. -1.
     -623   -1    0    0    0    0  0.00000000000E+00  0.00000000000E+00  0.12525980253E-10  0.17130000000E+03  0.17130000000E+03 0.  1.
       11    1    1    2    0    0 -0.94015484803E-02 -0.88807501873E-03  0.60015665267E+00  0.60023116110E+00  0.51109989000E-03 0. -1.
     -623    1    1    2    0    0  0.72466625693E-01 -0.66216268090E-01  0.12273212265E+00  0.17130007209E+03  0.17130000000E+03 0.  1.
      622    1    1    2    0    0 -0.63065077212E-01  0.67104343109E-01  0.32771111920E+01  0.33996967456E+01  0.90000000000E+00 0. -1.
</event>
<event>
 5   0  0.4857400E+02  0.9118800E+02  0.7818608E-02  0.1180000E+00
       11   -1    0    0    0    0  0.00000000000E+00  0.00000000000E+00  0.39999999673E+01  0.40000000000E+01  0.51109989000E-03 0.  1.
     -623   -1    0    0    0    0  0.00000000000E+00  0.00000000000E+00  0.12525980253E-10  0.17130000000E+03  0.17130000000E+03 0. -1.
       11    1    1    2    0    0 -0.69519042679E-03  0.20898602125E+00  0.90096834096E+00  0.92488910308E+00  0.51109989000E-03 0.  1.
     -623    1    1    2    0    0 -0.94988380193E-01  0.13756106175E+00  0.18081843549E+00  0.17130017700E+03  0.17130000000E+03 0. -1.
      622    1    1    2    0    0  0.95683570620E-01 -0.34654708299E+00  0.29182131909E+01  0.30749338943E+01  0.90000000000E+00 0.  0.
</event>
<event>
 5   0  0.4857400E+02  0.9118800E+02  0.7818608E-02  0.1180000E+00
       11   -1    0    0    0    0  0.00000000000E+00  0.00000000000E+00  0.39999999673E+01  0.40000000000E+01  0.51109989000E-03 0.  1.
     -623   -1    0    0    0    0  0.00000000000E+00  0.00000000000E+00  0.12525980253E-10  0.17130000000E+03  0.17130000000E+03 0. -1.
       11    1    1    2    0    0 -0.61815422633E-01 -0.14828691713E-01  0.15960182814E+00  0.17179651143E+00  0.51109989000E-03 0.  1.
     -623    1    1    2    0    0  0.30996250159E+00  0.19548335412E+00  0.13263131406E+00  0.17130044332E+03  0.17130000000E+03 0. -1.
      622    1    1    2    0    0 -0.24814707895E+00 -0.18065466241E+00  0.37077668252E+01  0.38277601688E+01  0.90000000000E+00 0.  1.
</event>
<event>
 5   0  0.4857400E+02  0.9118800E+02  0.7818608E-02  0.1180000E+00
       11   -1    0    0    0    0  0.00000000000E+00  0.00000000000E+00  0.39999999673E+01  0.40000000000E+01  0.51109989000E-03 0.  1.
     -623   -1    0    0    0    0  0.00000000000E+00  0.00000000000E+00  0.12525980253E-10  0.17130000000E+03  0.17130000000E+03 0.  1.
       11    1    1    2    0    0 -0.29079194706E-01 -0.29479668462E-02  0.22162278727E+00  0.22354241462E+00  0.51109989000E-03 0.  1.
     -623    1    1    2    0    0  0.15472841917E+00 -0.65583453544E-01  0.11364795908E+00  0.17130012013E+03  0.17130000000E+03 0.  1.
      622    1    1    2    0    0 -0.12564922447E+00  0.68531420390E-01  0.36647292210E+01  0.37763374514E+01  0.90000000000E+00 0.  1.
</event>
<event>
 5   0  0.4857400E+02  0.9118800E+02  0.7818608E-02  0.1180000E+00
       11   -1    0    0    0    0  0.00000000000E+00  0.00000000000E+00  0.39999999673E+01  0.40000000000E+01  0.51109989000E-03 0.  1.
     -623   -1    0    0    0    0  0.00000000000E+00  0.00000000000E+00  0.12525980253E-10  0.17130000000E+03  0.17130000000E+03 0.  1.
       11    1    1    2    0    0  0.10455452247E+00  0.89917376642E-02  0.53613455006E+00  0.54630853600E+00  0.51109989000E-03 0.  1.
     -623    1    1    2    0    0 -0.34402933211E-01 -0.14148009236E-01  0.13029875369E+00  0.17130005359E+03  0.17130000000E+03 0.  1.
      622    1    1    2    0    0 -0.70151589254E-01  0.51562715720E-02  0.33335666636E+01  0.34536378695E+01  0.90000000000E+00 0.  1.
</event>
<event>
 5   0  0.4857400E+02  0.9118800E+02  0.7818608E-02  0.1180000E+00
       11   -1    0    0    0    0  0.00000000000E+00  0.00000000000E+00  0.39999999673E+01  0.40000000000E+01  0.51109989000E-03 0. -1.
     -623   -1    0    0    0    0  0.00000000000E+00  0.00000000000E+00  0.12525980253E-10  0.17130000000E+03  0.17130000000E+03 0. -1.
       11    1    1    2    0    0  0.14755224196E+00  0.27822267061E-01  0.36959950453E-01  0.15463518944E+00  0.51109989000E-03 0. -1.
     -623    1    1    2    0    0 -0.39293267352E+00 -0.66728889617E-01  0.23338627276E+00  0.17130062264E+03  0.17130000000E+03 0. -1.
      622    1    1    2    0    0  0.24538043156E+00  0.38906622556E-01  0.37296537441E+01  0.38447421673E+01  0.90000000000E+00 0. -1.
</event>
<event>
 5   0  0.4857400E+02  0.9118800E+02  0.7818608E-02  0.1180000E+00
       11   -1    0    0    0    0  0.00000000000E+00  0.00000000000E+00  0.39999999673E+01  0.40000000000E+01  0.51109989000E-03 0.  1.
     -623   -1    0    0    0    0  0.00000000000E+00  0.00000000000E+00  0.12525980253E-10  0.17130000000E+03  0.17130000000E+03 0.  1.
       11    1    1    2    0    0  0.19380759216E+00 -0.18841525291E+00  0.89553281932E+00  0.93543625225E+00  0.51109989000E-03 0.  1.
     -623    1    1    2    0    0 -0.76895456648E-02  0.18981777161E+00  0.18116827946E+00  0.17130020114E+03  0.17130000000E+03 0.  1.
      622    1    1    2    0    0 -0.18611804650E+00 -0.14025186932E-02  0.29232988686E+01  0.30643626041E+01  0.90000000000E+00 0.  0.
</event>
<event>
 5   0  0.4857400E+02  0.9118800E+02  0.7818608E-02  0.1180000E+00
       11   -1    0    0    0    0  0.00000000000E+00  0.00000000000E+00  0.39999999673E+01  0.40000000000E+01  0.51109989000E-03 0. -1.
     -623   -1    0    0    0    0  0.00000000000E+00  0.00000000000E+00  0.12525980253E-10  0.17130000000E+03  0.17130000000E+03 0. -1.
       11    1    1    2    0    0  0.78409557832E-01 -0.10216435515E+00  0.41687569872E+00  0.43631550926E+00  0.51109989000E-03 0. -1.
     -623    1    1    2    0    0 -0.10025816445E+00  0.51606252475E-01  0.13549214809E+00  0.17130009070E+03  0.17130000000E+03 0. -1.
      622    1    1    2    0    0  0.21848606614E-01  0.50558102671E-01  0.34476321206E+01  0.35635937931E+01  0.90000000000E+00 0. -1.
</event>
<event>
 5   0  0.4857400E+02  0.9118800E+02  0.7818608E-02  0.1180000E+00
       11   -1    0    0    0    0  0.00000000000E+00  0.00000000000E+00  0.39999999673E+01  0.40000000000E+01  0.51109989000E-03 0.  1.
     -623   -1    0    0    0    0  0.00000000000E+00  0.00000000000E+00  0.12525980253E-10  0.17130000000E+03  0.17130000000E+03 0.  1.
       11    1    1    2    0    0  0.16607906120E+00  0.48537516179E-01  0.52722200969E+00  0.55488868593E+00  0.51109989000E-03 0.  1.
     -623    1    1    2    0    0 -0.11475240436E+00  0.75279197583E-01  0.15012918235E+00  0.17130012076E+03  0.17130000000E+03 0.  1.
      622    1    1    2    0    0 -0.51326656843E-01 -0.12381671376E+00  0.33226487753E+01  0.34449905498E+01  0.90000000000E+00 0.  1.
</event>
<event>
 5   0  0.4857400E+02  0.9118800E+02  0.7818608E-02  0.1180000E+00
       11   -1    0    0    0    0  0.00000000000E+00  0.00000000000E+00  0.39999999673E+01  0.40000000000E+01  0.51109989000E-03 0.  1.
     -623   -1    0    0    0    0  0.00000000000E+00  0.00000000000E+00  0.12525980253E-10  0.17130000000E+03  0.17130000000E+03 0.  1.
       11    1    1    2    0    0 -0.79184825933E-01 -0.10671804136E-01  0.24166398192E+00  0.25453067682E+00  0.51109989000E-03 0.  1.
     -623    1    1    2    0    0  0.28915156086E-01  0.57616886572E-01  0.12331380914E+00  0.17130005652E+03  0.17130000000E+03 0.  1.
      622    1    1    2    0    0  0.50269669847E-01 -0.46945082435E-01  0.36350221763E+01  0.37454128081E+01  0.90000000000E+00 0.  1.
</event>
<event>
 5   0  0.4857400E+02  0.9118800E+02  0.7818608E-02  0.1180000E+00
       11   -1    0    0    0    0  0.00000000000E+00  0.00000000000E+00  0.39999999673E+01  0.40000000000E+01  0.51109989000E-03 0. -1.
     -623   -1    0    0    0    0  0.00000000000E+00  0.00000000000E+00  0.12525980253E-10  0.17130000000E+03  0.17130000000E+03 0.  1.
       11    1    1    2    0    0 -0.21010262898E+00 -0.37117199228E-01  0.10870085231E+01  0.11077493361E+01  0.51109989000E-03 0. -1.
     -623    1    1    2    0    0  0.79895915283E-01  0.10010569484E-01  0.16766063146E+00  0.17130010097E+03  0.17130000000E+03 0.  1.
      622    1    1    2    0    0  0.13020671370E+00  0.27106629744E-01  0.27453308128E+01  0.28921496900E+01  0.90000000000E+00 0. -1.
</event>
<event>
 5   0  0.4857400E+02  0.9118800E+02  0.7818608E-02  0.1180000E+00
       11   -1    0    0    0    0  0.00000000000E+00  0.00000000000E+00  0.39999999673E+01  0.40000000000E+01  0.51109989000E-03 0. -1.
     -623   -1    0    0    0    0  0.00000000000E+00  0.00000000000E+00  0.12525980253E-10  0.17130000000E+03  0.17130000000E+03 0.  1.
       11    1    1    2    0    0  0.59699247927E-01 -0.38748503493E-01  0.59606562835E-01  0.92836686079E-01  0.51109989000E-03 0. -1.
     -623    1    1    2    0    0  0.12763268352E+00  0.34966712487E+00  0.15615699277E+00  0.17130047560E+03  0.17130000000E+03 0.  1.
      622    1    1    2    0    0 -0.18733193145E+00 -0.31091862138E+00  0.37842364118E+01  0.39066877098E+01  0.90000000000E+00 0. -1.
</event>
<event>
 5   0  0.4857400E+02  0.9118800E+02  0.7818608E-02  0.1180000E+00
       11   -1    0    0    0    0  0.00000000000E+00  0.00000000000E+00  0.39999999673E+01  0.40000000000E+01  0.51109989000E-03 0. -1.
     -623   -1    0    0    0    0  0.00000000000E+00  0.00000000000E+00  0.12525980253E-10  0.17130000000E+03  0.17130000000E+03 0.  1.
       11    1    1    2    0    0 -0.18525737093E+00  0.24979822719E+00  0.40917048592E+00  0.51394571266E+00  0.51109989000E-03 0. -1.
     -623    1    1    2    0    0 -0.29216252550E+00 -0.43085985111E+00  0.26292614718E+00  0.17130099279E+03  0.17130000000E+03 0.  1.
      622    1    1    2    0    0  0.47741989643E+00  0.18106162392E+00  0.33279033343E+01  0.34850615018E+01  0.90000000000E+00 0. -1.
</event>
<event>
 5   0  0.4857400E+02  0.9118800E+02  0.7818608E-02  0.1180000E+00
       11   -1    0    0    0    0  0.00000000000E+00  0.00000000000E+00  0.39999999673E+01  0.40000000000E+01  0.51109989000E-03 0. -1.
     -623   -1    0    0    0    0  0.00000000000E+00  0.00000000000E+00  0.12525980253E-10  0.17130000000E+03  0.17130000000E+03 0.  1.
       11    1    1    2    0    0  0.36799435344E-01  0.67532750522E-01  0.14934533709E+00  0.16798559989E+00  0.51109989000E-03 0. -1.
     -623    1    1    2    0    0  0.77633698496E-01 -0.10305248732E+00  0.12785464844E+00  0.17130009630E+03  0.17130000000E+03 0.  1.
      622    1    1    2    0    0 -0.11443313384E+00  0.35519736801E-01  0.37227999818E+01  0.38319180965E+01  0.90000000000E+00 0. -1.
</event>
<event>
 5   0  0.4857400E+02  0.9118800E+02  0.7818608E-02  0.1180000E+00
       11   -1    0    0    0    0  0.00000000000E+00  0.00000000000E+00  0.39999999673E+01  0.40000000000E+01  0.51109989000E-03 0.  1.
     -623   -1    0    0    0    0  0.00000000000E+00  0.00000000000E+00  0.12525980253E-10  0.17130000000E+03  0.17130000000E+03 0. -1.
       11    1    1    2    0    0  0.21382117672E-01 -0.63018022207E-01  0.31454917172E+00  0.32151191071E+00  0.51109989000E-03 0.  1.
     -623    1    1    2    0    0 -0.46331090406E-01 -0.27954158141E+00  0.13563587495E+00  0.17130028805E+03  0.17130000000E+03 0. -1.
      622    1    1    2    0    0  0.24948972734E-01  0.34255960362E+00  0.35498149207E+01  0.36782000359E+01  0.90000000000E+00 0.  0.
</event>
<event>
 5   0  0.4857400E+02  0.9118800E+02  0.7818608E-02  0.1180000E+00
       11   -1    0    0    0    0  0.00000000000E+00  0.00000000000E+00  0.39999999673E+01  0.40000000000E+01  0.51109989000E-03 0.  1.
     -623   -1    0    0    0    0  0.00000000000E+00  0.00000000000E+00  0.12525980253E-10  0.17130000000E+03  0.17130000000E+03 0.  1.
       11    1    1    2    0    0  0.45536946042E-01 -0.31638635214E-02  0.10330834430E+00  0.11294467102E+00  0.51109989000E-03 0.  1.
     -623    1    1    2    0    0 -0.19053878535E+00 -0.85358212224E-01  0.11925524276E+00  0.17130016875E+03  0.17130000000E+03 0.  1.
      622    1    1    2    0    0  0.14500183931E+00  0.88522075745E-01  0.37774363803E+01  0.38868865816E+01  0.90000000000E+00 0.  1.
</event>
<event>
 5   0  0.4857400E+02  0.9118800E+02  0.7818608E-02  0.1180000E+00
       11   -1    0    0    0    0  0.00000000000E+00  0.00000000000E+00  0.39999999673E+01  0.40000000000E+01  0.51109989000E-03 0.  1.
     -623   -1    0    0    0    0  0.00000000000E+00  0.00000000000E+00  0.12525980253E-10  0.17130000000E+03  0.17130000000E+03 0. -1.
       11    1    1    2    0    0  0.41259964424E-01  0.96324545772E-02  0.22364733676E+00  0.22762592407E+00  0.51109989000E-03 0.  1.
     -623    1    1    2    0    0 -0.83734898384E-02  0.99845552028E-01  0.11476443896E+00  0.17130006775E+03  0.17130000000E+03 0. -1.
      622    1    1    2    0    0 -0.32886474586E-01 -0.10947800661E+00  0.36615881916E+01  0.37723063289E+01  0.90000000000E+00 0.  1.
</event>
<event>
 5   0  0.4857400E+02  0.9118800E+02  0.7818608E-02  0.1180000E+00
       11   -1    0    0    0    0  0.00000000000E+00  0.00000000000E+00  0.39999999673E+01  0.40000000000E+01  0.51109989000E-03 0. -1.
     -623   -1    0    0    0    0  0.00000000000E+00  0.00000000000E+00  0.12525980253E-10  0.17130000000E+03  0.17130000000E+03 0.  1.
       11    1    1    2    0    0  0.26031075867E+00 -0.23019917776E+00  0.85808694607E+00  0.92577903452E+00  0.51109989000E-03 0. -1.
     -623    1    1    2    0    0 -0.32820830979E+00  0.20327945598E+00  0.20387296184E+00  0.17130055635E+03  0.17130000000E+03 0.  1.
      622    1    1    2    0    0  0.67897551124E-01  0.26919721773E-01  0.29380400595E+01  0.30736646108E+01  0.90000000000E+00 0.  0.
</event>
<event>
 5   0  0.4857400E+02  0.9118800E+02  0.7818608E-02  0.1180000E+00
       11   -1    0    0    0    0  0.00000000000E+00  0.00000000000E+00  0.39999999673E+01  0.40000000000E+01  0.51109989000E-03 0.  1.
     -623   -1    0    0    0    0  0.00000000000E+00  0.00000000000E+00  0.12525980253E-10  0.17130000000E+03  0.17130000000E+03 0.  1.
       11    1    1    2    0    0  0.20951381385E+00 -0.26797134518E-01  0.86511796419E+00  0.89052988596E+00  0.51109989000E-03 0.  1.
     -623    1    1    2    0    0 -0.23558466915E+00 -0.18031515592E+00  0.16619031741E+00  0.17130033752E+03  0.17130000000E+03 0.  1.
      622    1    1    2    0    0  0.26070855300E-01  0.20711229044E+00  0.29686916858E+01  0.31091325986E+01  0.90000000000E+00 0.  1.
</event>
<event>
 5   0  0.4857400E+02  0.9118800E+02  0.7818608E-02  0.1180000E+00
       11   -1    0    0    0    0  0.00000000000E+00  0.00000000000E+00  0.39999999673E+01  0.40000000000E+01  0.51109989000E-03 0.  1.
     -623   -1    0    0    0    0  0.00000000000E+00  0.00000000000E+00  0.12525980253E-10  0.17130000000E+03  0.17130000000E+03 0. -1.
       11    1    1    2    0    0 -0.18994013085E+00  0.30512649977E-01  0.82428062117E-01  0.20929147561E+00  0.51109989000E-03 0.  1.
     -623    1    1    2    0    0  0.13106639175E+00  0.26929011794E-01  0.23639373825E+00  0.17130021537E+03  0.17130000000E+03 0. -1.
      622    1    1    2    0    0  0.58873739098E-01 -0.57441661770E-01  0.36811781670E+01  0.37904931551E+01  0.90000000000E+00 0.  1.
</event>
<event>
 5   0  0.4857400E+02  0.9118800E+02  0.7818608E-02  0.1180000E+00
       11   -1    0    0    0    0  0.00000000000E+00  0.00000000000E+00  0.39999999673E+01  0.40000000000E+01  0.51109989000E-03 0.  1.
     -623   -1    0    0    0    0  0.00000000000E+00  0.00000000000E+00  0.12525980253E-10  0.17130000000E+03  0.17130000000E+03 0.  1.
       11    1    1    2    0    0 -0.21701884151E-01 -0.56149580085E-02 -0.83660754126E-02  0.23932237046E-01  0.51109989000E-03 0.  1.
     -623    1    1    2    0    0 -0.10753435474E-01 -0.34687154375E-02  0.13569918152E+00  0.17130005412E+03  0.17130000000E+03 0.  1.
      622    1    1    2    0    0  0.32455319625E-01  0.90836734459E-02  0.38726668613E+01  0.39760136417E+01  0.90000000000E+00 0.  1.
</event>
<event>
 5   0  0.4857400E+02  0.9118800E+02  0.7818608E-02  0.1180000E+00
       11   -1    0    0    0    0  0.00000000000E+00  0.00000000000E+00  0.39999999673E+01  0.40000000000E+01  0.51109989000E-03 0.  1.
     -623   -1    0    0    0    0  0.00000000000E+00  0.00000000000E+00  0.12525980253E-10  0.17130000000E+03  0.17130000000E+03 0. -1.
       11    1    1    2    0    0  0.71217457085E-01 -0.26123286043E-01  0.16945701216E+00  0.18566176898E+00  0.51109989000E-03 0.  1.
     -623    1    1    2    0    0 -0.83342915219E-01  0.12114010194E-01  0.12401729763E+00  0.17130006560E+03  0.17130000000E+03 0. -1.
      622    1    1    2    0    0  0.12125458134E-01  0.14009275849E-01  0.37065256576E+01  0.38142726353E+01  0.90000000000E+00 0.  1.
</event>
<event>
 5   0  0.4857400E+02  0.9118800E+02  0.7818608E-02  0.1180000E+00
       11   -1    0    0    0    0  0.00000000000E+00  0.00000000000E+00  0.39999999673E+01  0.40000000000E+01  0.51109989000E-03 0.  1.
     -623   -1    0    0    0    0  0.00000000000E+00  0.00000000000E+00  0.12525980253E-10  0.17130000000E+03  0.17130000000E+03 0. -1.
       11    1    1    2    0    0  0.95080347737E-01  0.27370608299E-01  0.29874901672E+00  0.31470725911E+00  0.51109989000E-03 0.  1.
     -623    1    1    2    0    0 -0.36396213569E-01 -0.36926402835E-01  0.12809595741E+00  0.17130005574E+03  0.17130000000E+03 0. -1.
      622    1    1    2    0    0 -0.58684134168E-01  0.95557945357E-02  0.35731549932E+01  0.36852370000E+01  0.90000000000E+00 0.  1.
</event>
<event>
 5   0  0.4857400E+02  0.9118800E+02  0.7818608E-02  0.1180000E+00
       11   -1    0    0    0    0  0.00000000000E+00  0.00000000000E+00  0.39999999673E+01  0.40000000000E+01  0.51109989000E-03 0.  1.
     -623   -1    0    0    0    0  0.00000000000E+00  0.00000000000E+00  0.12525980253E-10  0.17130000000E+03  0.17130000000E+03 0. -1.
       11    1    1    2    0    0 -0.87038914553E-01 -0.88317185923E-01  0.24282845704E+00  0.27265659491E+00  0.51109989000E-03 0.  1.
     -623    1    1    2    0    0  0.93900380272E-01 -0.16358940283E-01  0.14172548538E+00  0.17130008515E+03  0.17130000000E+03 0. -1.
      622    1    1    2    0    0 -0.68614657189E-02  0.10467612621E+00  0.36154460249E+01  0.37272582591E+01  0.90000000000E+00 0.  1.
</event>
<event>
 5   0  0.4857400E+02  0.9118800E+02  0.7818608E-02  0.1180000E+00
       11   -1    0    0    0    0  0.00000000000E+00  0.00000000000E+00  0.39999999673E+01  0.40000000000E+01  0.51109989000E-03 0.  1.
     -623   -1    0    0    0    0  0.00000000000E+00  0.00000000000E+00  0.12525980253E-10  0.17130000000E+03  0.17130000000E+03 0.  1.
       11    1    1    2    0    0 -0.37382453000E-01  0.24662598948E-01  0.79890433485E-01  0.91588395360E-01  0.51109989000E-03 0.  1.
     -623    1    1    2    0    0  0.51564125053E-01 -0.46546622951E-01  0.11687676785E+00  0.17130005396E+03  0.17130000000E+03 0.  1.
      622    1    1    2    0    0 -0.14181672054E-01  0.21884024003E-01  0.38032327660E+01  0.39083576478E+01  0.90000000000E+00 0.  1.
</event>
<event>
 5   0  0.4857400E+02  0.9118800E+02  0.7818608E-02  0.1180000E+00
       11   -1    0    0    0    0  0.00000000000E+00  0.00000000000E+00  0.39999999673E+01  0.40000000000E+01  0.51109989000E-03 0.  1.
     -623   -1    0    0    0    0  0.00000000000E+00  0.00000000000E+00  0.12525980253E-10  0.17130000000E+03  0.17130000000E+03 0.  1.
       11    1    1    2    0    0 -0.74884380177E-01 -0.10976922395E+00  0.70506804767E-01  0.15042746977E+00  0.51109989000E-03 0.  1.
     -623    1    1    2    0    0 -0.39167123828E-01 -0.63862355171E-01  0.19250318375E+00  0.17130012455E+03  0.17130000000E+03 0.  1.
      622    1    1    2    0    0  0.11405150400E+00  0.17363157912E+00  0.37369899788E+01  0.38494479829E+01  0.90000000000E+00 0.  1.
</event>
<event>
 5   0  0.4857400E+02  0.9118800E+02  0.7818608E-02  0.1180000E+00
       11   -1    0    0    0    0  0.00000000000E+00  0.00000000000E+00  0.39999999673E+01  0.40000000000E+01  0.51109989000E-03 0.  1.
     -623   -1    0    0    0    0  0.00000000000E+00  0.00000000000E+00  0.12525980253E-10  0.17130000000E+03  0.17130000000E+03 0. -1.
       11    1    1    2    0    0  0.15541921785E-01  0.16960753348E-02 -0.10998826812E-01  0.19122327752E-01  0.51109989000E-03 0.  1.
     -623    1    1    2    0    0 -0.16492422079E+00 -0.27043740039E-01  0.13629252164E+00  0.17130013575E+03  0.17130000000E+03 0. -1.
      622    1    1    2    0    0  0.14938229900E+00  0.25347664704E-01  0.38747062725E+01  0.39807419250E+01  0.90000000000E+00 0.  1.
</event>
<event>
 5   0  0.4857400E+02  0.9118800E+02  0.7818608E-02  0.1180000E+00
       11   -1    0    0    0    0  0.00000000000E+00  0.00000000000E+00  0.39999999673E+01  0.40000000000E+01  0.51109989000E-03 0.  1.
     -623   -1    0    0    0    0  0.00000000000E+00  0.00000000000E+00  0.12525980253E-10  0.17130000000E+03  0.17130000000E+03 0. -1.
       11    1    1    2    0    0  0.94116705792E-01  0.72588633975E-01  0.14365999492E+00  0.18645514060E+00  0.51109989000E-03 0.  1.
     -623    1    1    2    0    0 -0.12728825063E+00  0.83634262731E-01  0.15410100369E+00  0.17130013702E+03  0.17130000000E+03 0. -1.
      622    1    1    2    0    0  0.33171544833E-01 -0.15622289671E+00  0.37022389687E+01  0.38134078364E+01  0.90000000000E+00 0.  1.
</event>
<event>
 5   0  0.4857400E+02  0.9118800E+02  0.7818608E-02  0.1180000E+00
       11   -1    0    0    0    0  0.00000000000E+00  0.00000000000E+00  0.39999999673E+01  0.40000000000E+01  0.51109989000E-03 0.  1.
     -623   -1    0    0    0    0  0.00000000000E+00  0.00000000000E+00  0.12525980253E-10  0.17130000000E+03  0.17130000000E+03 0. -1.
       11    1    1    2    0    0 -0.31323990542E-01 -0.71081133616E-02  0.30951309294E-01  0.44608994935E-01  0.51109989000E-03 0.  1.
     -623    1    1    2    0    0  0.34898822398E-01  0.19192354863E-01  0.11747704362E+00  0.17130004491E+03  0.17130000000E+03 0. -1.
      622    1    1    2    0    0 -0.35748318554E-02 -0.12084241501E-01  0.38515716144E+01  0.39553460923E+01  0.90000000000E+00 0.  1.
</event>
<event>
 5   0  0.4857400E+02  0.9118800E+02  0.7818608E-02  0.1180000E+00
       11   -1    0    0    0    0  0.00000000000E+00  0.00000000000E+00  0.39999999673E+01  0.40000000000E+01  0.51109989000E-03 0.  1.
     -623   -1    0    0    0    0  0.00000000000E+00  0.00000000000E+00  0.12525980253E-10  0.17130000000E+03  0.17130000000E+03 0.  1.
       11    1    1    2    0    0  0.36392365032E-01  0.43863262913E-01  0.12761810522E+00  0.13976777908E+00  0.51109989000E-03 0.  1.
     -623    1    1    2    0    0 -0.88657736452E-01  0.35303676542E-01  0.11980073850E+00  0.17130006847E+03  0.17130000000E+03 0.  1.
      622    1    1    2    0    0  0.52265371420E-01 -0.79166939455E-01  0.37525811236E+01  0.38601637482E+01  0.90000000000E+00 0.  1.
</event>
<event>
 5   0  0.4857400E+02  0.9118800E+02  0.7818608E-02  0.1180000E+00
       11   -1    0    0    0    0  0.00000000000E+00  0.00000000000E+00  0.39999999673E+01  0.40000000000E+01  0.51109989000E-03 0.  1.
     -623   -1    0    0    0    0  0.00000000000E+00  0.00000000000E+00  0.12525980253E-10  0.17130000000E+03  0.17130000000E+03 0. -1.
       11    1    1    2    0    0  0.16083599191E-01  0.45552564931E+00  0.48435786229E+00  0.66510532949E+00  0.51109989000E-03 0.  1.
     -623    1    1    2    0    0 -0.30046826604E+00 -0.10941845223E+00  0.33654438032E+00  0.17130062906E+03  0.17130000000E+03 0. -1.
      622    1    1    2    0    0  0.28438466685E+00 -0.34610719708E+00  0.31790977248E+01  0.33342656124E+01  0.90000000000E+00 0.  1.
</event>
<event>
 5   0  0.4857400E+02  0.9118800E+02  0.7818608E-02  0.1180000E+00
       11   -1    0    0    0    0  0.00000000000E+00  0.00000000000E+00  0.39999999673E+01  0.40000000000E+01  0.51109989000E-03 0. -1.
     -623   -1    0    0    0    0  0.00000000000E+00  0.00000000000E+00  0.12525980253E-10  0.17130000000E+03  0.17130000000E+03 0.  1.
       11    1    1    2    0    0  0.42302501703E-01 -0.58702874786E-01  0.12361456891E+00  0.14323530301E+00  0.51109989000E-03 0. -1.
     -623    1    1    2    0    0 -0.39713624731E-01  0.91017378643E-01  0.12631850210E+00  0.17130007536E+03  0.17130000000E+03 0.  1.
      622    1    1    2    0    0 -0.25888769716E-02 -0.32314503857E-01  0.37500668963E+01  0.38566893389E+01  0.90000000000E+00 0. -1.
</event>
<event>
 5   0  0.4857400E+02  0.9118800E+02  0.7818608E-02  0.1180000E+00
       11   -1    0    0    0    0  0.00000000000E+00  0.00000000000E+00  0.39999999673E+01  0.40000000000E+01  0.51109989000E-03 0. -1.
     -623   -1    0    0    0    0  0.00000000000E+00  0.00000000000E+00  0.12525980253E-10  0.17130000000E+03  0.17130000000E+03 0. -1.
       11    1    1    2    0    0 -0.10818931934E+00 -0.35708939428E-02  0.22947964138E-01  0.11065509651E+00  0.51109989000E-03 0. -1.
     -623    1    1    2    0    0 -0.48998341667E-01 -0.95060000770E-01  0.19797563424E+00  0.17130014779E+03  0.17130000000E+03 0. -1.
      622    1    1    2    0    0  0.15718766100E+00  0.98630894713E-01  0.37790763690E+01  0.38891971172E+01  0.90000000000E+00 0. -1.
</event>
<event>
 5   0  0.4857400E+02  0.9118800E+02  0.7818608E-02  0.1180000E+00
       11   -1    0    0    0    0  0.00000000000E+00  0.00000000000E+00  0.39999999673E+01  0.40000000000E+01  0.51109989000E-03 0.  1.
     -623   -1    0    0    0    0  0.00000000000E+00  0.00000000000E+00  0.12525980253E-10  0.17130000000E+03  0.17130000000E+03 0.  1.
       11    1    1    2    0    0 -0.16342265571E+00 -0.15795036894E-01  0.20361459312E+00  0.26156378064E+00  0.51109989000E-03 0.  1.
     -623    1    1    2    0    0  0.26430318265E+00  0.40745566317E-01  0.16969034134E+00  0.17130029279E+03  0.17130000000E+03 0.  1.
      622    1    1    2    0    0 -0.10088052695E+00 -0.24950529423E-01  0.36266950329E+01  0.37381434257E+01  0.90000000000E+00 0.  1.
</event>
<event>
 5   0  0.4857400E+02  0.9118800E+02  0.7818608E-02  0.1180000E+00
       11   -1    0    0    0    0  0.00000000000E+00  0.00000000000E+00  0.39999999673E+01  0.40000000000E+01  0.51109989000E-03 0. -1.
     -623   -1    0    0    0    0  0.00000000000E+00  0.00000000000E+00  0.12525980253E-10  0.17130000000E+03  0.17130000000E+03 0.  1.
       11    1    1    2    0    0 -0.13287069541E-01  0.20396244669E-01  0.70711216920E-01  0.74785629862E-01  0.51109989000E-03 0. -1.
     -623    1    1    2    0    0 -0.14549005018E-02 -0.20093405330E+00  0.11310239141E+00  0.17130015519E+03  0.17130000000E+03 0.  1.
      622    1    1    2    0    0  0.14741970043E-01  0.18053780864E+00  0.38161863590E+01  0.39250591783E+01  0.90000000000E+00 0. -1.
</event>
<event>
 5   0  0.4857400E+02  0.9118800E+02  0.7818608E-02  0.1180000E+00
       11   -1    0    0    0    0  0.00000000000E+00  0.00000000000E+00  0.39999999673E+01  0.40000000000E+01  0.51109989000E-03 0.  1.
     -623   -1    0    0    0    0  0.00000000000E+00  0.00000000000E+00  0.12525980253E-10  0.17130000000E+03  0.17130000000E+03 0. -1.
       11    1    1    2    0    0  0.10498951015E+00 -0.26647654392E-01  0.14585275522E+00  0.18167603627E+00  0.51109989000E-03 0.  1.
     -623    1    1    2    0    0 -0.53181119172E-01 -0.29263888038E-01  0.14426289372E+00  0.17130007150E+03  0.17130000000E+03 0. -1.
      622    1    1    2    0    0 -0.51808390977E-01  0.55911542431E-01  0.37098843184E+01  0.38182524623E+01  0.90000000000E+00 0.  1.
</event>
<event>
 5   0  0.4857400E+02  0.9118800E+02  0.7818608E-02  0.1180000E+00
       11   -1    0    0    0    0  0.00000000000E+00  0.00000000000E+00  0.39999999673E+01  0.40000000000E+01  0.51109989000E-03 0. -1.
     -623   -1    0    0    0    0  0.00000000000E+00  0.00000000000E+00  0.12525980253E-10  0.17130000000E+03  0.17130000000E+03 0. -1.
       11    1    1    2    0    0  0.59374459575E-01 -0.89639799819E-01  0.92874755084E-01  0.14207956052E+00  0.51109989000E-03 0. -1.
     -623    1    1    2    0    0 -0.19253895133E-01  0.65124426395E-02  0.15686297619E+00  0.17130007303E+03  0.17130000000E+03 0. -1.
      622    1    1    2    0    0 -0.40120564442E-01  0.83127357180E-01  0.37502622361E+01  0.38578474123E+01  0.90000000000E+00 0. -1.
</event>
<event>
 5   0  0.4857400E+02  0.9118800E+02  0.7818608E-02  0.1180000E+00
       11   -1    0    0    0    0  0.00000000000E+00  0.00000000000E+00  0.39999999673E+01  0.40000000000E+01  0.51109989000E-03 0. -1.
     -623   -1    0    0    0    0  0.00000000000E+00  0.00000000000E+00  0.12525980253E-10  0.17130000000E+03  0.17130000000E+03 0.  1.
       11    1    1    2    0    0  0.11292432746E+00  0.11541736773E-01  0.53435836853E+00  0.54628220057E+00  0.51109989000E-03 0. -1.
     -623    1    1    2    0    0 -0.32918160313E+00  0.23357186013E+00  0.14787224278E+00  0.17130053935E+03  0.17130000000E+03 0.  1.
      622    1    1    2    0    0  0.21625727567E+00 -0.24511359691E+00  0.33177693561E+01  0.34531784467E+01  0.90000000000E+00 0. -1.
</event>
<event>
 5   0  0.4857400E+02  0.9118800E+02  0.7818608E-02  0.1180000E+00
       11   -1    0    0    0    0  0.00000000000E+00  0.00000000000E+00  0.39999999673E+01  0.40000000000E+01  0.51109989000E-03 0. -1.
     -623   -1    0    0    0    0  0.00000000000E+00  0.00000000000E+00  0.12525980253E-10  0.17130000000E+03  0.17130000000E+03 0. -1.
       11    1    1    2    0    0  0.63740430913E-01  0.33786234537E-01 -0.16618582055E-01  0.74032362314E-01  0.51109989000E-03 0. -1.
     -623    1    1    2    0    0 -0.14968622103E+00  0.85521954283E-01  0.19823944422E+00  0.17130020146E+03  0.17130000000E+03 0. -1.
      622    1    1    2    0    0  0.85945790117E-01 -0.11930818882E+00  0.38183791052E+01  0.39257661817E+01  0.90000000000E+00 0. -1.
</event>
<event>
 5   0  0.4857400E+02  0.9118800E+02  0.7818608E-02  0.1180000E+00
       11   -1    0    0    0    0  0.00000000000E+00  0.00000000000E+00  0.39999999673E+01  0.40000000000E+01  0.51109989000E-03 0.  1.
     -623   -1    0    0    0    0  0.00000000000E+00  0.00000000000E+00  0.12525980253E-10  0.17130000000E+03  0.17130000000E+03 0.  1.
       11    1    1    2    0    0 -0.29927020462E-01  0.21665615707E-01  0.78774876573E-01  0.87010159502E-01  0.51109989000E-03 0.  1.
     -623    1    1    2    0    0  0.29907872007E-01 -0.23108640893E-01  0.11318594468E+00  0.17130004156E+03  0.17130000000E+03 0.  1.
      622    1    1    2    0    0  0.19148454559E-04  0.14430251860E-02  0.38080391461E+01  0.39129482773E+01  0.90000000000E+00 0.  1.
</event>
<event>
 5   0  0.4857400E+02  0.9118800E+02  0.7818608E-02  0.1180000E+00
       11   -1    0    0    0    0  0.00000000000E+00  0.00000000000E+00  0.39999999673E+01  0.40000000000E+01  0.51109989000E-03 0.  1.
     -623   -1    0    0    0    0  0.00000000000E+00  0.00000000000E+00  0.12525980253E-10  0.17130000000E+03  0.17130000000E+03 0. -1.
       11    1    1    2    0    0 -0.19432083610E+00  0.71957513959E-01  0.13373210276E+00  0.24662320996E+00  0.51109989000E-03 0.  1.
     -623    1    1    2    0    0  0.14585422279E+00 -0.58559580978E-01  0.22296190037E+00  0.17130021721E+03  0.17130000000E+03 0. -1.
      622    1    1    2    0    0  0.48466613319E-01 -0.13397932982E-01  0.36433059642E+01  0.37531595844E+01  0.90000000000E+00 0.  1.
</event>
<event>
 5   0  0.4857400E+02  0.9118800E+02  0.7818608E-02  0.1180000E+00
       11   -1    0    0    0    0  0.00000000000E+00  0.00000000000E+00  0.39999999673E+01  0.40000000000E+01  0.51109989000E-03 0.  1.
     -623   -1    0    0    0    0  0.00000000000E+00  0.00000000000E+00  0.12525980253E-10  0.17130000000E+03  0.17130000000E+03 0. -1.
       11    1    1    2    0    0  0.78207147978E-01  0.56928874342E-01  0.97582326970E-01  0.13740388091E+00  0.51109989000E-03 0.  1.
     -623    1    1    2    0    0 -0.10802267315E+00 -0.55914136872E-02  0.14670530302E+00  0.17130009697E+03  0.17130000000E+03 0. -1.
      622    1    1    2    0    0  0.29815525173E-01 -0.51337460655E-01  0.37557123374E+01  0.38624991471E+01  0.90000000000E+00 0.  1.
</event>
<event>
 5   0  0.4857400E+02  0.9118800E+02  0.7818608E-02  0.1180000E+00
       11   -1    0    0    0    0  0.00000000000E+00  0.00000000000E+00  0.39999999673E+01  0.40000000000E+01  0.51109989000E-03 0. -1.
     -623   -1    0    0    0    0  0.00000000000E+00  0.00000000000E+00  0.12525980253E-10  0.17130000000E+03  0.17130000000E+03 0.  1.
       11    1    1    2    0    0 -0.71018991552E-01 -0.17601751883E-01 -0.61723347418E-02  0.73429406710E-01  0.51109989000E-03 0. -1.
     -623    1    1    2    0    0 -0.81146044054E-01  0.68398474595E-01  0.18764420002E+00  0.17130013565E+03  0.17130000000E+03 0.  1.
      622    1    1    2    0    0  0.15216503561E+00 -0.50796722712E-01  0.38185281021E+01  0.39264349443E+01  0.90000000000E+00 0. -1.
</event>
<event>
 5   0  0.4857400E+02  0.9118800E+02  0.7818608E-02  0.1180000E+00
       11   -1    0    0    0    0  0.00000000000E+00  0.00000000000E+00  0.39999999673E+01  0.40000000000E+01  0.51109989000E-03 0. -1.
     -623   -1    0    0    0    0  0.00000000000E+00  0.00000000000E+00  0.12525980253E-10  0.17130000000E+03  0.17130000000E+03 0. -1.
       11    1    1    2    0    0  0.37424222971E-02  0.44933184062E-02 -0.11072085851E-01  0.12531877080E-01  0.51109989000E-03 0. -1.
     -623    1    1    2    0    0 -0.60289865122E-01 -0.30228491504E-01  0.12705860723E+00  0.17130006040E+03  0.17130000000E+03 0. -1.
      622    1    1    2    0    0  0.56547442825E-01  0.25735173098E-01  0.38840134460E+01  0.39874077245E+01  0.90000000000E+00 0. -1.
</event>
<event>
 5   0  0.4857400E+02  0.9118800E+02  0.7818608E-02  0.1180000E+00
       11   -1    0    0    0    0  0.00000000000E+00  0.00000000000E+00  0.39999999673E+01  0.40000000000E+01  0.51109989000E-03 0.  1.
     -623   -1    0    0    0    0  0.00000000000E+00  0.00000000000E+00  0.12525980253E-10  0.17130000000E+03  0.17130000000E+03 0.  1.
       11    1    1    2    0    0  0.36240193975E-01 -0.56439125969E-02  0.36852989675E-01  0.51996244858E-01  0.51109989000E-03 0.  1.
     -623    1    1    2    0    0  0.31380421996E-02  0.10588869596E+00  0.12068166373E+00  0.17130007527E+03  0.17130000000E+03 0.  1.
      622    1    1    2    0    0 -0.39378236175E-01 -0.10024478337E+00  0.38424653140E+01  0.39479284886E+01  0.90000000000E+00 0.  1.
</event>
<event>
 5   0  0.4857400E+02  0.9118800E+02  0.7818608E-02  0.1180000E+00
       11   -1    0    0    0    0  0.00000000000E+00  0.00000000000E+00  0.39999999673E+01  0.40000000000E+01  0.51109989000E-03 0. -1.
     -623   -1    0    0    0    0  0.00000000000E+00  0.00000000000E+00  0.12525980253E-10  0.17130000000E+03  0.17130000000E+03 0.  1.
       11    1    1    2    0    0 -0.21026456005E+00  0.17870162731E-01  0.46001359666E+00  0.50610601484E+00  0.51109989000E-03 0. -1.
     -623    1    1    2    0    0  0.79246273665E-01 -0.24639061246E-01  0.16665320658E+00  0.17130010117E+03  0.17130000000E+03 0.  1.
      622    1    1    2    0    0  0.13101828638E+00  0.67688985151E-02  0.33733331641E+01  0.34937928166E+01  0.90000000000E+00 0. -1.
</event>
<event>
 5   0  0.4857400E+02  0.9118800E+02  0.7818608E-02  0.1180000E+00
       11   -1    0    0    0    0  0.00000000000E+00  0.00000000000E+00  0.39999999673E+01  0.40000000000E+01  0.51109989000E-03 0.  1.
     -623   -1    0    0    0    0  0.00000000000E+00  0.00000000000E+00  0.12525980253E-10  0.17130000000E+03  0.17130000000E+03 0.  1.
       11    1    1    2    0    0 -0.86627893210E-01  0.10077029319E+00  0.85288279216E-01  0.15790312114E+00  0.51109989000E-03 0.  1.
     -623    1    1    2    0    0  0.17191320403E+00 -0.70551709002E-01  0.18081105466E+00  0.17130019622E+03  0.17130000000E+03 0.  1.
      622    1    1    2    0    0 -0.85285310820E-01 -0.30218584190E-01  0.37339006335E+01  0.38419006608E+01  0.90000000000E+00 0.  1.
</event>
<event>
 5   0  0.4857400E+02  0.9118800E+02  0.7818608E-02  0.1180000E+00
       11   -1    0    0    0    0  0.00000000000E+00  0.00000000000E+00  0.39999999673E+01  0.40000000000E+01  0.51109989000E-03 0. -1.
     -623   -1    0    0    0    0  0.00000000000E+00  0.00000000000E+00  0.12525980253E-10  0.17130000000E+03  0.17130000000E+03 0.  1.
       11    1    1    2    0    0  0.15703036335E-01 -0.23403264695E-02  0.97978214481E-01  0.99257514635E-01  0.51109989000E-03 0. -1.
     -623    1    1    2    0    0 -0.10066218002E+00  0.93814696842E-01  0.10867148503E+00  0.17130008974E+03  0.17130000000E+03 0.  1.
      622    1    1    2    0    0  0.84959143680E-01 -0.91474370373E-01  0.37933502678E+01  0.39006527494E+01  0.90000000000E+00 0. -1.
</event>
<event>
 5   0  0.4857400E+02  0.9118800E+02  0.7818608E-02  0.1180000E+00
       11   -1    0    0    0    0  0.00000000000E+00  0.00000000000E+00  0.39999999673E+01  0.40000000000E+01  0.51109989000E-03 0. -1.
     -623   -1    0    0    0    0  0.00000000000E+00  0.00000000000E+00  0.12525980253E-10  0.17130000000E+03  0.17130000000E+03 0.  1.
       11    1    1    2    0    0 -0.17278790116E-02 -0.26567783670E-01  0.24696127413E-01  0.36317938092E-01  0.51109989000E-03 0. -1.
     -623    1    1    2    0    0  0.29197479370E-01  0.10850896372E-01  0.11532408588E+00  0.17130004165E+03  0.17130000000E+03 0.  1.
      622    1    1    2    0    0 -0.27469600359E-01  0.15716887298E-01  0.38599797541E+01  0.39636404102E+01  0.90000000000E+00 0. -1.
</event>
<event>
 5   0  0.4857400E+02  0.9118800E+02  0.7818608E-02  0.1180000E+00
       11   -1    0    0    0    0  0.00000000000E+00  0.00000000000E+00  0.39999999673E+01  0.40000000000E+01  0.51109989000E-03 0. -1.
     -623   -1    0    0    0    0  0.00000000000E+00  0.00000000000E+00  0.12525980253E-10  0.17130000000E+03  0.17130000000E+03 0.  1.
       11    1    1    2    0    0  0.71151104109E-01 -0.16327280869E-01  0.12383198826E+00  0.14374867740E+00  0.51109989000E-03 0. -1.
     -623    1    1    2    0    0 -0.73247291380E-01  0.12592297210E+00  0.12812697549E+00  0.17130010986E+03  0.17130000000E+03 0.  1.
      622    1    1    2    0    0  0.20961872718E-02 -0.10959569123E+00  0.37480410036E+01  0.38561414619E+01  0.90000000000E+00 0. -1.
</event>
<event>
 5   0  0.4857400E+02  0.9118800E+02  0.7818608E-02  0.1180000E+00
       11   -1    0    0    0    0  0.00000000000E+00  0.00000000000E+00  0.39999999673E+01  0.40000000000E+01  0.51109989000E-03 0.  1.
     -623   -1    0    0    0    0  0.00000000000E+00  0.00000000000E+00  0.12525980253E-10  0.17130000000E+03  0.17130000000E+03 0.  1.
       11    1    1    2    0    0  0.10486079539E+00  0.32541948598E-01  0.87351337549E+00  0.88038664416E+00  0.51109989000E-03 0.  1.
     -623    1    1    2    0    0 -0.58349210734E-01 -0.41836330646E-01  0.13996903484E+00  0.17130007223E+03  0.17130000000E+03 0.  1.
      622    1    1    2    0    0 -0.46511584653E-01  0.92943820486E-02  0.29865175570E+01  0.31195411251E+01  0.90000000000E+00 0.  1.
</event>
<event>
 5   0  0.4857400E+02  0.9118800E+02  0.7818608E-02  0.1180000E+00
       11   -1    0    0    0    0  0.00000000000E+00  0.00000000000E+00  0.39999999673E+01  0.40000000000E+01  0.51109989000E-03 0.  1.
     -623   -1    0    0    0    0  0.00000000000E+00  0.00000000000E+00  0.12525980253E-10  0.17130000000E+03  0.17130000000E+03 0.  1.
       11    1    1    2    0    0  0.59021856141E-01  0.66261263486E-01  0.12093224971E+00  0.14999668258E+00  0.51109989000E-03 0.  1.
     -623    1    1    2    0    0 -0.35659452269E-01 -0.14719018281E+00  0.13680983012E+00  0.17130012158E+03  0.17130000000E+03 0.  1.
      622    1    1    2    0    0 -0.23362403872E-01  0.80928919323E-01  0.37422578875E+01  0.38498817370E+01  0.90000000000E+00 0.  1.
</event>
<event>
 5   0  0.4857400E+02  0.9118800E+02  0.7818608E-02  0.1180000E+00
       11   -1    0    0    0    0  0.00000000000E+00  0.00000000000E+00  0.39999999673E+01  0.40000000000E+01  0.51109989000E-03 0.  1.
     -623   -1    0    0    0    0  0.00000000000E+00  0.00000000000E+00  0.12525980253E-10  0.17130000000E+03  0.17130000000E+03 0.  1.
       11    1    1    2    0    0 -0.19887750633E+00 -0.24650419656E+00  0.18961080788E+00  0.36914644944E+00  0.51109989000E-03 0.  1.
     -623    1    1    2    0    0  0.42014773172E-02  0.14579304512E+00  0.30001918714E+00  0.17130032482E+03  0.17130000000E+03 0.  1.
      622    1    1    2    0    0  0.19467602901E+00  0.10071115145E+00  0.35103699723E+01  0.36305287266E+01  0.90000000000E+00 0.  1.
</event>
<event>
 5   0  0.4857400E+02  0.9118800E+02  0.7818608E-02  0.1180000E+00
       11   -1    0    0    0    0  0.00000000000E+00  0.00000000000E+00  0.39999999673E+01  0.40000000000E+01  0.51109989000E-03 0.  1.
     -623   -1    0    0    0    0  0.00000000000E+00  0.00000000000E+00  0.12525980253E-10  0.17130000000E+03  0.17130000000E+03 0.  1.
       11    1    1    2    0    0  0.27411829081E-01  0.12133162459E-01 -0.13201529097E-01  0.32759175790E-01  0.51109989000E-03 0.  1.
     -623    1    1    2    0    0 -0.31141014798E-01 -0.58219367787E-01  0.14975205460E+00  0.17130007818E+03  0.17130000000E+03 0.  1.
      622    1    1    2    0    0  0.37291857162E-02  0.46086205328E-01  0.38634494419E+01  0.39671626429E+01  0.90000000000E+00 0.  1.
</event>
<event>
 5   0  0.4857400E+02  0.9118800E+02  0.7818608E-02  0.1180000E+00
       11   -1    0    0    0    0  0.00000000000E+00  0.00000000000E+00  0.39999999673E+01  0.40000000000E+01  0.51109989000E-03 0.  1.
     -623   -1    0    0    0    0  0.00000000000E+00  0.00000000000E+00  0.12525980253E-10  0.17130000000E+03  0.17130000000E+03 0. -1.
       11    1    1    2    0    0  0.56767142778E-01 -0.41858424785E-01 -0.74927653679E-01  0.10290311333E+00  0.51109989000E-03 0.  1.
     -623    1    1    2    0    0  0.26219297276E+00 -0.41754156828E+00  0.32570935934E+00  0.17130101918E+03  0.17130000000E+03 0. -1.
      622    1    1    2    0    0 -0.31896011554E+00  0.45939999306E+00  0.37492182617E+01  0.38960777049E+01  0.90000000000E+00 0.  1.
</event>
<event>
 5   0  0.4857400E+02  0.9118800E+02  0.7818608E-02  0.1180000E+00
       11   -1    0    0    0    0  0.00000000000E+00  0.00000000000E+00  0.39999999673E+01  0.40000000000E+01  0.51109989000E-03 0.  1.
     -623   -1    0    0    0    0  0.00000000000E+00  0.00000000000E+00  0.12525980253E-10  0.17130000000E+03  0.17130000000E+03 0.  1.
       11    1    1    2    0    0  0.14064924879E-01 -0.50027658642E-01  0.41334243339E+00  0.41659670811E+00  0.51109989000E-03 0.  1.
     -623    1    1    2    0    0  0.21585469513E+00  0.90104436597E-01  0.12619045734E+00  0.17130020618E+03  0.17130000000E+03 0.  1.
      622    1    1    2    0    0 -0.22991962001E+00 -0.40076777955E-01  0.34604670766E+01  0.35831971155E+01  0.90000000000E+00 0.  0.
</event>
<event>
 5   0  0.4857400E+02  0.9118800E+02  0.7818608E-02  0.1180000E+00
       11   -1    0    0    0    0  0.00000000000E+00  0.00000000000E+00  0.39999999673E+01  0.40000000000E+01  0.51109989000E-03 0.  1.
     -623   -1    0    0    0    0  0.00000000000E+00  0.00000000000E+00  0.12525980253E-10  0.17130000000E+03  0.17130000000E+03 0. -1.
       11    1    1    2    0    0 -0.20275504747E-01  0.21838606813E-01  0.28257690949E-01  0.41070417105E-01  0.51109989000E-03 0.  1.
     -623    1    1    2    0    0  0.57899439174E-01 -0.11105509238E+00  0.11777481084E+00  0.17130008627E+03  0.17130000000E+03 0. -1.
      622    1    1    2    0    0 -0.37623934427E-01  0.89216485565E-01  0.38539674656E+01  0.39588433118E+01  0.90000000000E+00 0.  1.
</event>
<event>
 5   0  0.4857400E+02  0.9118800E+02  0.7818608E-02  0.1180000E+00
       11   -1    0    0    0    0  0.00000000000E+00  0.00000000000E+00  0.39999999673E+01  0.40000000000E+01  0.51109989000E-03 0.  1.
     -623   -1    0    0    0    0  0.00000000000E+00  0.00000000000E+00  0.12525980253E-10  0.17130000000E+03  0.17130000000E+03 0.  1.
       11    1    1    2    0    0  0.13720483430E-01  0.36161260940E-02 -0.18336554251E-01  0.23190913703E-01  0.51109989000E-03 0.  1.
     -623    1    1    2    0    0 -0.14194063473E-01 -0.24931196248E-01  0.14483037271E+00  0.17130006363E+03  0.17130000000E+03 0.  1.
      622    1    1    2    0    0  0.47358004250E-03  0.21315070154E-01  0.38735061489E+01  0.39767454585E+01  0.90000000000E+00 0.  1.
</event>
<event>
 5   0  0.4857400E+02  0.9118800E+02  0.7818608E-02  0.1180000E+00
       11   -1    0    0    0    0  0.00000000000E+00  0.00000000000E+00  0.39999999673E+01  0.40000000000E+01  0.51109989000E-03 0. -1.
     -623   -1    0    0    0    0  0.00000000000E+00  0.00000000000E+00  0.12525980253E-10  0.17130000000E+03  0.17130000000E+03 0.  1.
       11    1    1    2    0    0 -0.92899293721E-02  0.13543850607E+00 -0.68585329205E-01  0.15209898197E+00  0.51109989000E-03 0. -1.
     -623    1    1    2    0    0  0.14159628097E+00 -0.20669868877E+00  0.33095381946E+00  0.17130050293E+03  0.17130000000E+03 0.  1.
      622    1    1    2    0    0 -0.13230635159E+00  0.71260182700E-01  0.37376314771E+01  0.38473980874E+01  0.90000000000E+00 0. -1.
</event>
<event>
 5   0  0.4857400E+02  0.9118800E+02  0.7818608E-02  0.1180000E+00
       11   -1    0    0    0    0  0.00000000000E+00  0.00000000000E+00  0.39999999673E+01  0.40000000000E+01  0.51109989000E-03 0.  1.
     -623   -1    0    0    0    0  0.00000000000E+00  0.00000000000E+00  0.12525980253E-10  0.17130000000E+03  0.17130000000E+03 0.  1.
       11    1    1    2    0    0  0.17111637365E+00 -0.64990870173E-01  0.33445354376E+00  0.38126639072E+00  0.51109989000E-03 0.  1.
     -623    1    1    2    0    0 -0.48466629695E+00 -0.93318863764E-01  0.17899584411E+00  0.17130080458E+03  0.17130000000E+03 0.  1.
      622    1    1    2    0    0  0.31354992330E+00  0.15830973394E+00  0.34865505795E+01  0.36179290305E+01  0.90000000000E+00 0.  1.
</event>
<event>
 5   0  0.4857400E+02  0.9118800E+02  0.7818608E-02  0.1180000E+00
       11   -1    0    0    0    0  0.00000000000E+00  0.00000000000E+00  0.39999999673E+01  0.40000000000E+01  0.51109989000E-03 0.  1.
     -623   -1    0    0    0    0  0.00000000000E+00  0.00000000000E+00  0.12525980253E-10  0.17130000000E+03  0.17130000000E+03 0.  1.
       11    1    1    2    0    0 -0.95052105489E-01  0.56870529460E-01  0.39112454407E+00  0.40650686351E+00  0.51109989000E-03 0.  1.
     -623    1    1    2    0    0  0.10917237960E+00  0.23752346422E-02  0.13053157705E+00  0.17130008454E+03  0.17130000000E+03 0.  1.
      622    1    1    2    0    0 -0.14120274107E-01 -0.59245764102E-01  0.34783438462E+01  0.35934085984E+01  0.90000000000E+00 0.  1.
</event>
<event>
 5   0  0.4857400E+02  0.9118800E+02  0.7818608E-02  0.1180000E+00
       11   -1    0    0    0    0  0.00000000000E+00  0.00000000000E+00  0.39999999673E+01  0.40000000000E+01  0.51109989000E-03 0. -1.
     -623   -1    0    0    0    0  0.00000000000E+00  0.00000000000E+00  0.12525980253E-10  0.17130000000E+03  0.17130000000E+03 0. -1.
       11    1    1    2    0    0 -0.99002856375E-01 -0.53709111139E-01  0.12622640644E+00  0.16917328718E+00  0.51109989000E-03 0. -1.
     -623    1    1    2    0    0 -0.33693232075E-01 -0.98077865338E-01  0.15573605732E+00  0.17130010218E+03  0.17130000000E+03 0. -1.
      622    1    1    2    0    0  0.13269608845E+00  0.15178697648E+00  0.37180375036E+01  0.38307245289E+01  0.90000000000E+00 0. -1.
</event>
<event>
 5   0  0.4857400E+02  0.9118800E+02  0.7818608E-02  0.1180000E+00
       11   -1    0    0    0    0  0.00000000000E+00  0.00000000000E+00  0.39999999673E+01  0.40000000000E+01  0.51109989000E-03 0. -1.
     -623   -1    0    0    0    0  0.00000000000E+00  0.00000000000E+00  0.12525980253E-10  0.17130000000E+03  0.17130000000E+03 0. -1.
       11    1    1    2    0    0  0.13295741970E+00  0.86189427854E-02  0.26507360939E+00  0.29667531283E+00  0.51109989000E-03 0. -1.
     -623    1    1    2    0    0 -0.15455999019E+00 -0.37244131105E-01  0.14294368706E+00  0.17130013342E+03  0.17130000000E+03 0. -1.
      622    1    1    2    0    0  0.21602570488E-01  0.28625188320E-01  0.35919826709E+01  0.37031912698E+01  0.90000000000E+00 0. -1.
</event>
<event>
 5   0  0.4857400E+02  0.9118800E+02  0.7818608E-02  0.1180000E+00
       11   -1    0    0    0    0  0.00000000000E+00  0.00000000000E+00  0.39999999673E+01  0.40000000000E+01  0.51109989000E-03 0. -1.
     -623   -1    0    0    0    0  0.00000000000E+00  0.00000000000E+00  0.12525980253E-10  0.17130000000E+03  0.17130000000E+03 0.  1.
       11    1    1    2    0    0  0.35504527490E-01  0.25076115002E-02  0.59099455346E+00  0.59206560703E+00  0.51109989000E-03 0. -1.
     -623    1    1    2    0    0 -0.11119682701E+00 -0.51115058454E-01  0.12338157638E+00  0.17130008815E+03  0.17130000000E+03 0.  1.
      622    1    1    2    0    0  0.75692299518E-01  0.48607446954E-01  0.32856238375E+01  0.34078462421E+01  0.90000000000E+00 0. -1.
</event>
<event>
 5   0  0.4857400E+02  0.9118800E+02  0.7818608E-02  0.1180000E+00
       11   -1    0    0    0    0  0.00000000000E+00  0.00000000000E+00  0.39999999673E+01  0.40000000000E+01  0.51109989000E-03 0. -1.
     -623   -1    0    0    0    0  0.00000000000E+00  0.00000000000E+00  0.12525980253E-10  0.17130000000E+03  0.17130000000E+03 0. -1.
       11    1    1    2    0    0  0.54159906825E-02 -0.15991277808E+00  0.41603709757E+00  0.44574494649E+00  0.51109989000E-03 0. -1.
     -623    1    1    2    0    0  0.95782640461E-01  0.11361114464E+00  0.14747708417E+00  0.17130012794E+03  0.17130000000E+03 0. -1.
      622    1    1    2    0    0 -0.10119863114E+00  0.46301633437E-01  0.34364857856E+01  0.35541271163E+01  0.90000000000E+00 0. -1.
</event>
<event>
 5   0  0.4857400E+02  0.9118800E+02  0.7818608E-02  0.1180000E+00
       11   -1    0    0    0    0  0.00000000000E+00  0.00000000000E+00  0.39999999673E+01  0.40000000000E+01  0.51109989000E-03 0.  1.
     -623   -1    0    0    0    0  0.00000000000E+00  0.00000000000E+00  0.12525980253E-10  0.17130000000E+03  0.17130000000E+03 0. -1.
       11    1    1    2    0    0  0.16328351523E+00 -0.16040790977E+00  0.81274406643E+00  0.84436093148E+00  0.51109989000E-03 0.  1.
     -623    1    1    2    0    0 -0.21643389085E+00 -0.20569898965E-01  0.16879860833E+00  0.17130022113E+03  0.17130000000E+03 0. -1.
      622    1    1    2    0    0  0.53150375622E-01  0.18097780874E+00  0.30184572926E+01  0.31554179370E+01  0.90000000000E+00 0. -1.
</event>
<event>
 5   0  0.4857400E+02  0.9118800E+02  0.7818608E-02  0.1180000E+00
       11   -1    0    0    0    0  0.00000000000E+00  0.00000000000E+00  0.39999999673E+01  0.40000000000E+01  0.51109989000E-03 0.  1.
     -623   -1    0    0    0    0  0.00000000000E+00  0.00000000000E+00  0.12525980253E-10  0.17130000000E+03  0.17130000000E+03 0.  1.
       11    1    1    2    0    0 -0.51046019917E-01  0.26336646166E-01  0.42061762589E-01  0.71195281977E-01  0.51109989000E-03 0.  1.
     -623    1    1    2    0    0  0.46134621205E-01  0.21827549560E-01  0.13397544506E+00  0.17130005999E+03  0.17130000000E+03 0.  1.
      622    1    1    2    0    0  0.49113987125E-02 -0.48164195726E-01  0.38239627597E+01  0.39287447231E+01  0.90000000000E+00 0.  1.
</event>
<event>
 5   0  0.4857400E+02  0.9118800E+02  0.7818608E-02  0.1180000E+00
       11   -1    0    0    0    0  0.00000000000E+00  0.00000000000E+00  0.39999999673E+01  0.40000000000E+01  0.51109989000E-03 0. -1.
     -623   -1    0    0    0    0  0.00000000000E+00  0.00000000000E+00  0.12525980253E-10  0.17130000000E+03  0.17130000000E+03 0. -1.
       11    1    1    2    0    0  0.44138024242E-01  0.15936517315E-01  0.80909076723E-01  0.93534366337E-01  0.51109989000E-03 0. -1.
     -623    1    1    2    0    0 -0.20275023178E+00 -0.79448868529E-01  0.12174145448E+00  0.17130018167E+03  0.17130000000E+03 0. -1.
      622    1    1    2    0    0  0.15861220754E+00  0.63512351215E-01  0.37973494362E+01  0.39062839620E+01  0.90000000000E+00 0. -1.
</event>
<event>
 5   0  0.4857400E+02  0.9118800E+02  0.7818608E-02  0.1180000E+00
       11   -1    0    0    0    0  0.00000000000E+00  0.00000000000E+00  0.39999999673E+01  0.40000000000E+01  0.51109989000E-03 0.  1.
     -623   -1    0    0    0    0  0.00000000000E+00  0.00000000000E+00  0.12525980253E-10  0.17130000000E+03  0.17130000000E+03 0. -1.
       11    1    1    2    0    0 -0.31262493856E-01 -0.74346848422E-01  0.28501692437E+00  0.29620888878E+00  0.51109989000E-03 0.  1.
     -623    1    1    2    0    0  0.80793032817E-01  0.97502164589E-01  0.12271260664E+00  0.17130009075E+03  0.17130000000E+03 0. -1.
      622    1    1    2    0    0 -0.49530538961E-01 -0.23155316167E-01  0.35922704364E+01  0.37037003565E+01  0.90000000000E+00 0.  1.
</event>
<event>
 5   0  0.4857400E+02  0.9118800E+02  0.7818608E-02  0.1180000E+00
       11   -1    0    0    0    0  0.00000000000E+00  0.00000000000E+00  0.39999999673E+01  0.40000000000E+01  0.51109989000E-03 0. -1.
     -623   -1    0    0    0    0  0.00000000000E+00  0.00000000000E+00  0.12525980253E-10  0.17130000000E+03  0.17130000000E+03 0. -1.
       11    1    1    2    0    0 -0.46048794850E-02  0.46687584452E-01 -0.10190184683E-01  0.48010796120E-01  0.51109989000E-03 0. -1.
     -623    1    1    2    0    0 -0.45243718607E-01 -0.13970193079E+00  0.16363755459E+00  0.17130014110E+03  0.17130000000E+03 0. -1.
      622    1    1    2    0    0  0.49848598092E-01  0.93014346340E-01  0.38465525975E+01  0.39518481039E+01  0.90000000000E+00 0. -1.
</event>
<event>
 5   0  0.4857400E+02  0.9118800E+02  0.7818608E-02  0.1180000E+00
       11   -1    0    0    0    0  0.00000000000E+00  0.00000000000E+00  0.39999999673E+01  0.40000000000E+01  0.51109989000E-03 0.  1.
     -623   -1    0    0    0    0  0.00000000000E+00  0.00000000000E+00  0.12525980253E-10  0.17130000000E+03  0.17130000000E+03 0.  1.
       11    1    1    2    0    0  0.60869581507E-01  0.83072656794E-01  0.40448707610E+00  0.41739217555E+00  0.51109989000E-03 0.  1.
     -623    1    1    2    0    0 -0.73518664413E-01 -0.10237636375E+00  0.12796743744E+00  0.17130009417E+03  0.17130000000E+03 0.  1.
      622    1    1    2    0    0  0.12649082906E-01  0.19303706956E-01  0.34675454538E+01  0.35825136576E+01  0.90000000000E+00 0.  1.
</event>
<event>
 5   0  0.4857400E+02  0.9118800E+02  0.7818608E-02  0.1180000E+00
       11   -1    0    0    0    0  0.00000000000E+00  0.00000000000E+00  0.39999999673E+01  0.40000000000E+01  0.51109989000E-03 0. -1.
     -623   -1    0    0    0    0  0.00000000000E+00  0.00000000000E+00  0.12525980253E-10  0.17130000000E+03  0.17130000000E+03 0. -1.
       11    1    1    2    0    0  0.71505088263E-02 -0.75011638335E-02  0.83377837359E+00  0.83384293168E+00  0.51109989000E-03 0. -1.
     -623    1    1    2    0    0  0.15760529291E+00 -0.22577199571E-01  0.13543062817E+00  0.17130012753E+03  0.17130000000E+03 0. -1.
      622    1    1    2    0    0 -0.16475580174E+00  0.30078363405E-01  0.30307909656E+01  0.31660295418E+01  0.90000000000E+00 0. -1.
</event>
<event>
 5   0  0.4857400E+02  0.9118800E+02  0.7818608E-02  0.1180000E+00
       11   -1    0    0    0    0  0.00000000000E+00  0.00000000000E+00  0.39999999673E+01  0.40000000000E+01  0.51109989000E-03 0.  1.
     -623   -1    0    0    0    0  0.00000000000E+00  0.00000000000E+00  0.12525980253E-10  0.17130000000E+03  0.17130000000E+03 0.  1.
       11    1    1    2    0    0  0.42237680957E-01  0.68529687314E-01  0.20291292557E+00  0.21829854861E+00  0.51109989000E-03 0.  1.
     -623    1    1    2    0    0 -0.12473998593E-01 -0.86507885561E-02  0.12469733664E+00  0.17130004606E+03  0.17130000000E+03 0.  1.
      622    1    1    2    0    0 -0.29763682365E-01 -0.59878898758E-01  0.36723897051E+01  0.37816553923E+01  0.90000000000E+00 0.  1.
</event>
<event>
 5   0  0.4857400E+02  0.9118800E+02  0.7818608E-02  0.1180000E+00
       11   -1    0    0    0    0  0.00000000000E+00  0.00000000000E+00  0.39999999673E+01  0.40000000000E+01  0.51109989000E-03 0. -1.
     -623   -1    0    0    0    0  0.00000000000E+00  0.00000000000E+00  0.12525980253E-10  0.17130000000E+03  0.17130000000E+03 0. -1.
       11    1    1    2    0    0  0.33249548595E-01  0.55958902521E-01  0.12297977887E+00  0.13914459561E+00  0.51109989000E-03 0. -1.
     -623    1    1    2    0    0  0.96000242966E-01 -0.43116944894E-01  0.12485640452E+00  0.17130007783E+03  0.17130000000E+03 0. -1.
      622    1    1    2    0    0 -0.12924979156E+00 -0.12841957627E-01  0.37521637840E+01  0.38607775753E+01  0.90000000000E+00 0. -1.
</event>
<event>
 5   0  0.4857400E+02  0.9118800E+02  0.7818608E-02  0.1180000E+00
       11   -1    0    0    0    0  0.00000000000E+00  0.00000000000E+00  0.39999999673E+01  0.40000000000E+01  0.51109989000E-03 0.  1.
     -623   -1    0    0    0    0  0.00000000000E+00  0.00000000000E+00  0.12525980253E-10  0.17130000000E+03  0.17130000000E+03 0. -1.
       11    1    1    2    0    0  0.62843074692E-01  0.49641279484E-02 -0.46486701767E-01  0.78327321334E-01  0.51109989000E-03 0.  1.
     -623    1    1    2    0    0  0.28681862820E-01 -0.78318130941E-02  0.23074395896E+00  0.17130015799E+03  0.17130000000E+03 0. -1.
      622    1    1    2    0    0 -0.91524937512E-01  0.28676851457E-02  0.38157427102E+01  0.39215146905E+01  0.90000000000E+00 0.  1.
</event>
<event>
 5   0  0.4857400E+02  0.9118800E+02  0.7818608E-02  0.1180000E+00
       11   -1    0    0    0    0  0.00000000000E+00  0.00000000000E+00  0.39999999673E+01  0.40000000000E+01  0.51109989000E-03 0. -1.
     -623   -1    0    0    0    0  0.00000000000E+00  0.00000000000E+00  0.12525980253E-10  0.17130000000E+03  0.17130000000E+03 0. -1.
       11    1    1    2    0    0  0.30667356846E+00  0.84996882605E-01  0.35037721538E+00  0.47332610527E+00  0.51109989000E-03 0. -1.
     -623    1    1    2    0    0 -0.28079991795E+00  0.41443980715E-01  0.24258562610E+00  0.17130040693E+03  0.17130000000E+03 0. -1.
      622    1    1    2    0    0 -0.25873650516E-01 -0.12644086332E+00  0.34070371259E+01  0.35262669659E+01  0.90000000000E+00 0. -1.
</event>
<event>
 5   0  0.4857400E+02  0.9118800E+02  0.7818608E-02  0.1180000E+00
       11   -1    0    0    0    0  0.00000000000E+00  0.00000000000E+00  0.39999999673E+01  0.40000000000E+01  0.51109989000E-03 0.  1.
     -623   -1    0    0    0    0  0.00000000000E+00  0.00000000000E+00  0.12525980253E-10  0.17130000000E+03  0.17130000000E+03 0.  1.
       11    1    1    2    0    0 -0.87611711750E-02  0.16831832098E-01  0.57366311325E-01  0.60425355521E-01  0.51109989000E-03 0.  1.
     -623    1    1    2    0    0  0.54819719981E-01 -0.60630370531E-01  0.10782105789E+00  0.17130005343E+03  0.17130000000E+03 0.  1.
      622    1    1    2    0    0 -0.46058548806E-01  0.43798538433E-01  0.38348125981E+01  0.39395212101E+01  0.90000000000E+00 0.  1.
</event>
<event>
 5   0  0.4857400E+02  0.9118800E+02  0.7818608E-02  0.1180000E+00
       11   -1    0    0    0    0  0.00000000000E+00  0.00000000000E+00  0.39999999673E+01  0.40000000000E+01  0.51109989000E-03 0. -1.
     -623   -1    0    0    0    0  0.00000000000E+00  0.00000000000E+00  0.12525980253E-10  0.17130000000E+03  0.17130000000E+03 0. -1.
       11    1    1    2    0    0  0.37770431968E-01 -0.38140331190E-01  0.62750329191E-01  0.82578177692E-01  0.51109989000E-03 0. -1.
     -623    1    1    2    0    0  0.67742773391E-01  0.18218758853E+00  0.12896041983E+00  0.17130015882E+03  0.17130000000E+03 0. -1.
      622    1    1    2    0    0 -0.10551320536E+00 -0.14404725734E+00  0.38082892183E+01  0.39172630010E+01  0.90000000000E+00 0. -1.
</event>
<event>
 5   0  0.4857400E+02  0.9118800E+02  0.7818608E-02  0.1180000E+00
       11   -1    0    0    0    0  0.00000000000E+00  0.00000000000E+00  0.39999999673E+01  0.40000000000E+01  0.51109989000E-03 0. -1.
     -623   -1    0    0    0    0  0.00000000000E+00  0.00000000000E+00  0.12525980253E-10  0.17130000000E+03  0.17130000000E+03 0.  1.
       11    1    1    2    0    0 -0.46998348354E-01  0.21156822428E+00  0.10713986220E+01  0.10930989098E+01  0.51109989000E-03 0. -1.
     -623    1    1    2    0    0 -0.12195921127E+00  0.31332920851E-02  0.17821245576E+00  0.17130013615E+03  0.17130000000E+03 0.  1.
      622    1    1    2    0    0  0.16895755963E+00 -0.21470151637E+00  0.27503888896E+01  0.29067649445E+01  0.90000000000E+00 0. -1.
</event>
<event>
 5   0  0.4857400E+02  0.9118800E+02  0.7818608E-02  0.1180000E+00
       11   -1    0    0    0    0  0.00000000000E+00  0.00000000000E+00  0.39999999673E+01  0.40000000000E+01  0.51109989000E-03 0. -1.
     -623   -1    0    0    0    0  0.00000000000E+00  0.00000000000E+00  0.12525980253E-10  0.17130000000E+03  0.17130000000E+03 0.  1.
       11    1    1    2    0    0  0.55961689572E-01  0.79386068268E-01  0.78442013509E-01  0.12484898574E+00  0.51109989000E-03 0. -1.
     -623    1    1    2    0    0 -0.71687956286E-02 -0.49405226465E-01  0.15288037668E+00  0.17130007550E+03  0.17130000000E+03 0.  1.
      622    1    1    2    0    0 -0.48792893944E-01 -0.29980841803E-01  0.37686775772E+01  0.38750755190E+01  0.90000000000E+00 0. -1.
</event>
<event>
 5   0  0.4857400E+02  0.9118800E+02  0.7818608E-02  0.1180000E+00
       11   -1    0    0    0    0  0.00000000000E+00  0.00000000000E+00  0.39999999673E+01  0.40000000000E+01  0.51109989000E-03 0.  1.
     -623   -1    0    0    0    0  0.00000000000E+00  0.00000000000E+00  0.12525980253E-10  0.17130000000E+03  0.17130000000E+03 0. -1.
       11    1    1    2    0    0 -0.10454945521E+00  0.13587016078E-01  0.98555789061E+00  0.99118101907E+00  0.51109989000E-03 0.  1.
     -623    1    1    2    0    0  0.32030480088E+00  0.60261500483E-01  0.15284957586E+00  0.17130037825E+03  0.17130000000E+03 0. -1.
      622    1    1    2    0    0 -0.21575534568E+00 -0.73848516561E-01  0.28615925009E+01  0.30084407280E+01  0.90000000000E+00 0.  1.
</event>
<event>
 5   0  0.4857400E+02  0.9118800E+02  0.7818608E-02  0.1180000E+00
       11   -1    0    0    0    0  0.00000000000E+00  0.00000000000E+00  0.39999999673E+01  0.40000000000E+01  0.51109989000E-03 0.  1.
     -623   -1    0    0    0    0  0.00000000000E+00  0.00000000000E+00  0.12525980253E-10  0.17130000000E+03  0.17130000000E+03 0. -1.
       11    1    1    2    0    0  0.95191188427E-01 -0.63634587675E-01  0.36450943659E+00  0.38207082287E+00  0.51109989000E-03 0.  1.
     -623    1    1    2    0    0 -0.61488638435E-01  0.22334016392E+00  0.13531199472E+00  0.17130021007E+03  0.17130000000E+03 0. -1.
      622    1    1    2    0    0 -0.33702549992E-01 -0.15970557625E+00  0.35001785360E+01  0.36177191042E+01  0.90000000000E+00 0.  1.
</event>
<event>
 5   0  0.4857400E+02  0.9118800E+02  0.7818608E-02  0.1180000E+00
       11   -1    0    0    0    0  0.00000000000E+00  0.00000000000E+00  0.39999999673E+01  0.40000000000E+01  0.51109989000E-03 0.  1.
     -623   -1    0    0    0    0  0.00000000000E+00  0.00000000000E+00  0.12525980253E-10  0.17130000000E+03  0.17130000000E+03 0. -1.
       11    1    1    2    0    0  0.96726737285E-01  0.71954025930E-01 -0.11624886478E+00  0.16747388853E+00  0.51109989000E-03 0.  1.
     -623    1    1    2    0    0  0.96470015831E-01 -0.30023018898E-01  0.39664870772E+00  0.17130048902E+03  0.17130000000E+03 0. -1.
      622    1    1    2    0    0 -0.19319675312E+00 -0.41931007033E-01  0.37196001244E+01  0.38320370928E+01  0.90000000000E+00 0.  1.
</event>
<event>
 5   0  0.4857400E+02  0.9118800E+02  0.7818608E-02  0.1180000E+00
       11   -1    0    0    0    0  0.00000000000E+00  0.00000000000E+00  0.39999999673E+01  0.40000000000E+01  0.51109989000E-03 0. -1.
     -623   -1    0    0    0    0  0.00000000000E+00  0.00000000000E+00  0.12525980253E-10  0.17130000000E+03  0.17130000000E+03 0. -1.
       11    1    1    2    0    0 -0.24899681855E-01 -0.36111855943E-01  0.10479999858E+00  0.11361056827E+00  0.51109989000E-03 0. -1.
     -623    1    1    2    0    0 -0.28784958386E-01  0.12401068264E+00  0.11594847389E+00  0.17130008655E+03  0.17130000000E+03 0. -1.
      622    1    1    2    0    0  0.53684640241E-01 -0.87898826695E-01  0.37792514949E+01  0.38863028840E+01  0.90000000000E+00 0. -1.
</event>
<event>
 5   0  0.4857400E+02  0.9118800E+02  0.7818608E-02  0.1180000E+00
       11   -1    0    0    0    0  0.00000000000E+00  0.00000000000E+00  0.39999999673E+01  0.40000000000E+01  0.51109989000E-03 0.  1.
     -623   -1    0    0    0    0  0.00000000000E+00  0.00000000000E+00  0.12525980253E-10  0.17130000000E+03  0.17130000000E+03 0. -1.
       11    1    1    2    0    0  0.13377224544E+00 -0.16712250431E+00  0.93737783130E+00  0.96151048093E+00  0.51109989000E-03 0.  1.
     -623    1    1    2    0    0  0.32530793818E-01  0.10988355793E+00  0.16594055261E+00  0.17130011871E+03  0.17130000000E+03 0. -1.
      622    1    1    2    0    0 -0.16630303926E+00  0.57238946379E-01  0.28966815834E+01  0.30383708124E+01  0.90000000000E+00 0.  1.
</event>
<event>
 5   0  0.4857400E+02  0.9118800E+02  0.7818608E-02  0.1180000E+00
       11   -1    0    0    0    0  0.00000000000E+00  0.00000000000E+00  0.39999999673E+01  0.40000000000E+01  0.51109989000E-03 0. -1.
     -623   -1    0    0    0    0  0.00000000000E+00  0.00000000000E+00  0.12525980253E-10  0.17130000000E+03  0.17130000000E+03 0.  1.
       11    1    1    2    0    0 -0.20752820627E+00  0.10226038871E-01  0.32292835521E-01  0.21027509772E+00  0.51109989000E-03 0. -1.
     -623    1    1    2    0    0 -0.43747765281E-01  0.51590580333E-01  0.29578430541E+00  0.17130026872E+03  0.17130000000E+03 0.  1.
      622    1    1    2    0    0  0.25127597155E+00 -0.61816619204E-01  0.36719228264E+01  0.37894561815E+01  0.90000000000E+00 0. -1.
</event>
<event>
 5   0  0.4857400E+02  0.9118800E+02  0.7818608E-02  0.1180000E+00
       11   -1    0    0    0    0  0.00000000000E+00  0.00000000000E+00  0.39999999673E+01  0.40000000000E+01  0.51109989000E-03 0. -1.
     -623   -1    0    0    0    0  0.00000000000E+00  0.00000000000E+00  0.12525980253E-10  0.17130000000E+03  0.17130000000E+03 0.  1.
       11    1    1    2    0    0  0.63797939421E-01 -0.43322857856E-02  0.14906282921E-01  0.65661284384E-01  0.51109989000E-03 0. -1.
     -623    1    1    2    0    0 -0.50405327348E-01  0.42985395415E-02  0.15518116473E+00  0.17130007776E+03  0.17130000000E+03 0.  1.
      622    1    1    2    0    0 -0.13392612073E-01  0.33746244096E-04  0.38299125197E+01  0.39342609562E+01  0.90000000000E+00 0. -1.
</event>
<event>
 5   0  0.4857400E+02  0.9118800E+02  0.7818608E-02  0.1180000E+00
       11   -1    0    0    0    0  0.00000000000E+00  0.00000000000E+00  0.39999999673E+01  0.40000000000E+01  0.51109989000E-03 0. -1.
     -623   -1    0    0    0    0  0.00000000000E+00  0.00000000000E+00  0.12525980253E-10  0.17130000000E+03  0.17130000000E+03 0.  1.
       11    1    1    2    0    0 -0.20208687361E+00  0.12114850971E-01  0.73351527295E-01  0.21532900845E+00  0.51109989000E-03 0. -1.
     -623    1    1    2    0    0  0.16790663240E+00 -0.22656917576E+00  0.25740398799E+00  0.17130042552E+03  0.17130000000E+03 0.  1.
      622    1    1    2    0    0  0.34180241208E-01  0.21445432479E+00  0.36692444521E+01  0.37842454724E+01  0.90000000000E+00 0. -1.
</event>
<event>
 5   0  0.4857400E+02  0.9118800E+02  0.7818608E-02  0.1180000E+00
       11   -1    0    0    0    0  0.00000000000E+00  0.00000000000E+00  0.39999999673E+01  0.40000000000E+01  0.51109989000E-03 0. -1.
     -623   -1    0    0    0    0  0.00000000000E+00  0.00000000000E+00  0.12525980253E-10  0.17130000000E+03  0.17130000000E+03 0.  1.
       11    1    1    2    0    0  0.88643765120E-02 -0.75085610630E-01  0.15782106724E+00  0.17499764737E+00  0.51109989000E-03 0. -1.
     -623    1    1    2    0    0 -0.55010976360E-01 -0.44820684075E-01  0.12685061834E+00  0.17130006166E+03  0.17130000000E+03 0.  1.
      622    1    1    2    0    0  0.46146599848E-01  0.11990629470E+00  0.37153282818E+01  0.38249406884E+01  0.90000000000E+00 0. -1.
</event>
<event>
 5   0  0.4857400E+02  0.9118800E+02  0.7818608E-02  0.1180000E+00
       11   -1    0    0    0    0  0.00000000000E+00  0.00000000000E+00  0.39999999673E+01  0.40000000000E+01  0.51109989000E-03 0. -1.
     -623   -1    0    0    0    0  0.00000000000E+00  0.00000000000E+00  0.12525980253E-10  0.17130000000E+03  0.17130000000E+03 0.  1.
       11    1    1    2    0    0 -0.57411316684E-03 -0.74310674805E-01  0.38746938445E+00  0.39453160977E+00  0.51109989000E-03 0. -1.
     -623    1    1    2    0    0  0.40438266925E-01  0.56045151233E-01  0.12153242639E+00  0.17130005705E+03  0.17130000000E+03 0.  1.
      622    1    1    2    0    0 -0.39864153758E-01  0.18265523572E-01  0.34909981565E+01  0.36054113370E+01  0.90000000000E+00 0. -1.
</event>
<event>
 5   0  0.4857400E+02  0.9118800E+02  0.7818608E-02  0.1180000E+00
       11   -1    0    0    0    0  0.00000000000E+00  0.00000000000E+00  0.39999999673E+01  0.40000000000E+01  0.51109989000E-03 0. -1.
     -623   -1    0    0    0    0  0.00000000000E+00  0.00000000000E+00  0.12525980253E-10  0.17130000000E+03  0.17130000000E+03 0. -1.
       11    1    1    2    0    0 -0.46593592270E-02 -0.19439588674E-01  0.81488703480E+00  0.81513234996E+00  0.51109989000E-03 0. -1.
     -623    1    1    2    0    0  0.66365668936E-01  0.43495935286E-01  0.13084375464E+00  0.17130006835E+03  0.17130000000E+03 0. -1.
      622    1    1    2    0    0 -0.61706309709E-01 -0.24056346612E-01  0.30542691779E+01  0.31847993010E+01  0.90000000000E+00 0. -1.
</event>
<event>
 5   0  0.4857400E+02  0.9118800E+02  0.7818608E-02  0.1180000E+00
       11   -1    0    0    0    0  0.00000000000E+00  0.00000000000E+00  0.39999999673E+01  0.40000000000E+01  0.51109989000E-03 0. -1.
     -623   -1    0    0    0    0  0.00000000000E+00  0.00000000000E+00  0.12525980253E-10  0.17130000000E+03  0.17130000000E+03 0. -1.
       11    1    1    2    0    0 -0.50076584205E-01 -0.24901023443E-01  0.21391506963E-01  0.59879738180E-01  0.51109989000E-03 0. -1.
     -623    1    1    2    0    0 -0.20315205193E-01  0.44826120748E-01  0.14342048142E+00  0.17130006711E+03  0.17130000000E+03 0. -1.
      622    1    1    2    0    0  0.70391789398E-01 -0.19925097305E-01  0.38351879790E+01  0.39400531529E+01  0.90000000000E+00 0. -1.
</event>
<event>
 5   0  0.4857400E+02  0.9118800E+02  0.7818608E-02  0.1180000E+00
       11   -1    0    0    0    0  0.00000000000E+00  0.00000000000E+00  0.39999999673E+01  0.40000000000E+01  0.51109989000E-03 0. -1.
     -623   -1    0    0    0    0  0.00000000000E+00  0.00000000000E+00  0.12525980253E-10  0.17130000000E+03  0.17130000000E+03 0. -1.
       11    1    1    2    0    0 -0.55251302224E-01 -0.44794400145E-01  0.97825037820E-01  0.12095141143E+00  0.51109989000E-03 0. -1.
     -623    1    1    2    0    0  0.27995130491E-01 -0.94031767466E-01  0.13171188882E+00  0.17130007873E+03  0.17130000000E+03 0. -1.
      622    1    1    2    0    0  0.27256171733E-01  0.13882616761E+00  0.37704630407E+01  0.38789698562E+01  0.90000000000E+00 0. -1.
</event>
<event>
 5   0  0.4857400E+02  0.9118800E+02  0.7818608E-02  0.1180000E+00
       11   -1    0    0    0    0  0.00000000000E+00  0.00000000000E+00  0.39999999673E+01  0.40000000000E+01  0.51109989000E-03 0.  1.
     -623   -1    0    0    0    0  0.00000000000E+00  0.00000000000E+00  0.12525980253E-10  0.17130000000E+03  0.17130000000E+03 0. -1.
       11    1    1    2    0    0 -0.48069020593E-01 -0.63109969694E-01  0.21395723812E-01  0.82167738414E-01  0.51109989000E-03 0.  1.
     -623    1    1    2    0    0 -0.12704524416E+00  0.23141068495E-01  0.16991609607E+00  0.17130013295E+03  0.17130000000E+03 0. -1.
      622    1    1    2    0    0  0.17511426475E+00  0.39968901199E-01  0.38086881475E+01  0.39176993151E+01  0.90000000000E+00 0.  1.
</event>
<event>
 5   0  0.4857400E+02  0.9118800E+02  0.7818608E-02  0.1180000E+00
       11   -1    0    0    0    0  0.00000000000E+00  0.00000000000E+00  0.39999999673E+01  0.40000000000E+01  0.51109989000E-03 0. -1.
     -623   -1    0    0    0    0  0.00000000000E+00  0.00000000000E+00  0.12525980253E-10  0.17130000000E+03  0.17130000000E+03 0.  1.
       11    1    1    2    0    0  0.25002759908E-02  0.22127874525E-01  0.48947632939E-02  0.22806011089E-01  0.51109989000E-03 0. -1.
     -623    1    1    2    0    0 -0.75708786954E-01 -0.84206207937E-01  0.12235249506E+00  0.17130008112E+03  0.17130000000E+03 0.  1.
      622    1    1    2    0    0  0.73208510963E-01  0.62078333412E-01  0.38727527090E+01  0.39771128662E+01  0.90000000000E+00 0. -1.
</event>
<event>
 5   0  0.4857400E+02  0.9118800E+02  0.7818608E-02  0.1180000E+00
       11   -1    0    0    0    0  0.00000000000E+00  0.00000000000E+00  0.39999999673E+01  0.40000000000E+01  0.51109989000E-03 0.  1.
     -623   -1    0    0    0    0  0.00000000000E+00  0.00000000000E+00  0.12525980253E-10  0.17130000000E+03  0.17130000000E+03 0.  1.
       11    1    1    2    0    0  0.10447719379E+00  0.13577532617E+00  0.73183842053E+00  0.75162368124E+00  0.51109989000E-03 0.  1.
     -623    1    1    2    0    0  0.16091089843E+00 -0.18354555756E+00  0.15888069675E+00  0.17130024759E+03  0.17130000000E+03 0.  1.
      622    1    1    2    0    0 -0.26538809221E+00  0.47770231386E-01  0.31092808501E+01  0.32481287288E+01  0.90000000000E+00 0.  1.
</event>
<event>
 5   0  0.4857400E+02  0.9118800E+02  0.7818608E-02  0.1180000E+00
       11   -1    0    0    0    0  0.00000000000E+00  0.00000000000E+00  0.39999999673E+01  0.40000000000E+01  0.51109989000E-03 0. -1.
     -623   -1    0    0    0    0  0.00000000000E+00  0.00000000000E+00  0.12525980253E-10  0.17130000000E+03  0.17130000000E+03 0. -1.
       11    1    1    2    0    0 -0.45763238590E-01  0.13186459129E+00  0.29182968728E+00  0.32349246056E+00  0.51109989000E-03 0. -1.
     -623    1    1    2    0    0  0.98559607030E-01 -0.27094800394E-01  0.14554981004E+00  0.17130009233E+03  0.17130000000E+03 0. -1.
      622    1    1    2    0    0 -0.52796368439E-01 -0.10476979089E+00  0.35626204700E+01  0.36764152077E+01  0.90000000000E+00 0. -1.
</event>
<event>
 5   0  0.4857400E+02  0.9118800E+02  0.7818608E-02  0.1180000E+00
       11   -1    0    0    0    0  0.00000000000E+00  0.00000000000E+00  0.39999999673E+01  0.40000000000E+01  0.51109989000E-03 0.  1.
     -623   -1    0    0    0    0  0.00000000000E+00  0.00000000000E+00  0.12525980253E-10  0.17130000000E+03  0.17130000000E+03 0.  1.
       11    1    1    2    0    0  0.73643420227E-01 -0.87914720257E-01  0.12945571628E+00  0.17294911124E+00  0.51109989000E-03 0.  1.
     -623    1    1    2    0    0 -0.11034163877E+00  0.12987945934E+00  0.15139787555E+00  0.17130015168E+03  0.17130000000E+03 0.  1.
      622    1    1    2    0    0  0.36698218540E-01 -0.41964739088E-01  0.37191463755E+01  0.38268992097E+01  0.90000000000E+00 0.  1.
</event>
<event>
 5   0  0.4857400E+02  0.9118800E+02  0.7818608E-02  0.1180000E+00
       11   -1    0    0    0    0  0.00000000000E+00  0.00000000000E+00  0.39999999673E+01  0.40000000000E+01  0.51109989000E-03 0.  1.
     -623   -1    0    0    0    0  0.00000000000E+00  0.00000000000E+00  0.12525980253E-10  0.17130000000E+03  0.17130000000E+03 0.  1.
       11    1    1    2    0    0  0.18557939496E+00  0.74025145427E-01  0.38186918861E+00  0.43098001395E+00  0.51109989000E-03 0.  1.
     -623    1    1    2    0    0 -0.15808867642E+00 -0.21306370233E+00  0.16765775275E+00  0.17130028750E+03  0.17130000000E+03 0.  1.
      622    1    1    2    0    0 -0.27490718542E-01  0.13903855690E+00  0.34504730260E+01  0.35687324869E+01  0.90000000000E+00 0.  1.
</event>
<event>
 5   0  0.4857400E+02  0.9118800E+02  0.7818608E-02  0.1180000E+00
       11   -1    0    0    0    0  0.00000000000E+00  0.00000000000E+00  0.39999999673E+01  0.40000000000E+01  0.51109989000E-03 0.  1.
     -623   -1    0    0    0    0  0.00000000000E+00  0.00000000000E+00  0.12525980253E-10  0.17130000000E+03  0.17130000000E+03 0. -1.
       11    1    1    2    0    0  0.13085869825E+00  0.16755152506E+00  0.17929590453E+00  0.27810932214E+00  0.51109989000E-03 0.  1.
     -623    1    1    2    0    0 -0.25737525431E-01  0.74098137697E-02  0.21518237098E+00  0.17130013725E+03  0.17130000000E+03 0. -1.
      622    1    1    2    0    0 -0.10512117282E+00 -0.17496133883E+00  0.36055216919E+01  0.37217534310E+01  0.90000000000E+00 0.  1.
</event>
<event>
 5   0  0.4857400E+02  0.9118800E+02  0.7818608E-02  0.1180000E+00
       11   -1    0    0    0    0  0.00000000000E+00  0.00000000000E+00  0.39999999673E+01  0.40000000000E+01  0.51109989000E-03 0. -1.
     -623   -1    0    0    0    0  0.00000000000E+00  0.00000000000E+00  0.12525980253E-10  0.17130000000E+03  0.17130000000E+03 0.  1.
       11    1    1    2    0    0 -0.33170056803E-01  0.17899906457E+00  0.95617260052E+00  0.97334845815E+00  0.51109989000E-03 0. -1.
     -623    1    1    2    0    0  0.14921743218E+00  0.10727460521E+00  0.17083457304E+00  0.17130018377E+03  0.17130000000E+03 0.  1.
      622    1    1    2    0    0 -0.11604737538E+00 -0.28627366978E+00  0.28729927938E+01  0.30264677762E+01  0.90000000000E+00 0. -1.
</event>
<event>
 5   0  0.4857400E+02  0.9118800E+02  0.7818608E-02  0.1180000E+00
       11   -1    0    0    0    0  0.00000000000E+00  0.00000000000E+00  0.39999999673E+01  0.40000000000E+01  0.51109989000E-03 0. -1.
     -623   -1    0    0    0    0  0.00000000000E+00  0.00000000000E+00  0.12525980253E-10  0.17130000000E+03  0.17130000000E+03 0.  1.
       11    1    1    2    0    0 -0.47390041472E-01 -0.10347402858E-01  0.33259484613E+00  0.33611378679E+00  0.51109989000E-03 0. -1.
     -623    1    1    2    0    0  0.42791031901E-01 -0.11831682931E+00  0.11820110610E+00  0.17130008699E+03  0.17130000000E+03 0.  1.
      622    1    1    2    0    0  0.45990095714E-02  0.12866423217E+00  0.35492040151E+01  0.36637992271E+01  0.90000000000E+00 0. -1.
</event>
<event>
 5   0  0.4857400E+02  0.9118800E+02  0.7818608E-02  0.1180000E+00
       11   -1    0    0    0    0  0.00000000000E+00  0.00000000000E+00  0.39999999673E+01  0.40000000000E+01  0.51109989000E-03 0. -1.
     -623   -1    0    0    0    0  0.00000000000E+00  0.00000000000E+00  0.12525980253E-10  0.17130000000E+03  0.17130000000E+03 0. -1.
       11    1    1    2    0    0  0.80306101876E-02 -0.21811256468E-01  0.49915849422E-02  0.23778114971E-01  0.51109989000E-03 0. -1.
     -623    1    1    2    0    0 -0.73381853910E-01 -0.31560634186E-01  0.12296472946E+00  0.17130006276E+03  0.17130000000E+03 0. -1.
      622    1    1    2    0    0  0.65351243723E-01  0.53371890653E-01  0.38720436530E+01  0.39761591259E+01  0.90000000000E+00 0. -1.
</event>
<event>
 5   0  0.4857400E+02  0.9118800E+02  0.7818608E-02  0.1180000E+00
       11   -1    0    0    0    0  0.00000000000E+00  0.00000000000E+00  0.39999999673E+01  0.40000000000E+01  0.51109989000E-03 0. -1.
     -623   -1    0    0    0    0  0.00000000000E+00  0.00000000000E+00  0.12525980253E-10  0.17130000000E+03  0.17130000000E+03 0. -1.
       11    1    1    2    0    0  0.93032156392E-01 -0.25966741059E+00  0.11320250493E+01  0.11651451068E+01  0.51109989000E-03 0. -1.
     -623    1    1    2    0    0 -0.20866613600E+00 -0.78546332668E-01  0.20393068516E+00  0.17130026649E+03  0.17130000000E+03 0. -1.
      622    1    1    2    0    0  0.11563397961E+00  0.33821374326E+00  0.26640442329E+01  0.28345884054E+01  0.90000000000E+00 0. -1.
</event>
<event>
 5   0  0.4857400E+02  0.9118800E+02  0.7818608E-02  0.1180000E+00
       11   -1    0    0    0    0  0.00000000000E+00  0.00000000000E+00  0.39999999673E+01  0.40000000000E+01  0.51109989000E-03 0. -1.
     -623   -1    0    0    0    0  0.00000000000E+00  0.00000000000E+00  0.12525980253E-10  0.17130000000E+03  0.17130000000E+03 0. -1.
       11    1    1    2    0    0  0.84030056113E-02  0.29194569257E-01  0.54288545216E-01  0.62212866346E-01  0.51109989000E-03 0. -1.
     -623    1    1    2    0    0 -0.19199809707E-01 -0.80952570003E-01  0.11257672616E+00  0.17130005720E+03  0.17130000000E+03 0. -1.
      622    1    1    2    0    0  0.10796804096E-01  0.51758000746E-01  0.38331346960E+01  0.39377299373E+01  0.90000000000E+00 0. -1.
</event>
<event>
 5   0  0.4857400E+02  0.9118800E+02  0.7818608E-02  0.1180000E+00
       11   -1    0    0    0    0  0.00000000000E+00  0.00000000000E+00  0.39999999673E+01  0.40000000000E+01  0.51109989000E-03 0.  1.
     -623   -1    0    0    0    0  0.00000000000E+00  0.00000000000E+00  0.12525980253E-10  0.17130000000E+03  0.17130000000E+03 0.  1.
       11    1    1    2    0    0 -0.15766371808E+00  0.50333623972E-02  0.47695712893E-01  0.16479783065E+00  0.51109989000E-03 0.  1.
     -623    1    1    2    0    0 -0.17612307291E+00  0.27933550095E+00  0.25059529158E+00  0.17130050159E+03  0.17130000000E+03 0.  1.
      622    1    1    2    0    0  0.33378679099E+00 -0.28436886335E+00  0.37017089629E+01  0.38347005774E+01  0.90000000000E+00 0.  1.
</event>
<event>
 5   0  0.4857400E+02  0.9118800E+02  0.7818608E-02  0.1180000E+00
       11   -1    0    0    0    0  0.00000000000E+00  0.00000000000E+00  0.39999999673E+01  0.40000000000E+01  0.51109989000E-03 0. -1.
     -623   -1    0    0    0    0  0.00000000000E+00  0.00000000000E+00  0.12525980253E-10  0.17130000000E+03  0.17130000000E+03 0. -1.
       11    1    1    2    0    0  0.14140690686E+00 -0.11128750654E+00  0.88400155048E+00  0.90213071386E+00  0.51109989000E-03 0. -1.
     -623    1    1    2    0    0 -0.21942779089E-01  0.10422008170E+00  0.15426970448E+00  0.17130010258E+03  0.17130000000E+03 0. -1.
      622    1    1    2    0    0 -0.11946412777E+00  0.70674248455E-02  0.29617287124E+01  0.30977667104E+01  0.90000000000E+00 0. -1.
</event>
<event>
 5   0  0.4857400E+02  0.9118800E+02  0.7818608E-02  0.1180000E+00
       11   -1    0    0    0    0  0.00000000000E+00  0.00000000000E+00  0.39999999673E+01  0.40000000000E+01  0.51109989000E-03 0.  1.
     -623   -1    0    0    0    0  0.00000000000E+00  0.00000000000E+00  0.12525980253E-10  0.17130000000E+03  0.17130000000E+03 0.  1.
       11    1    1    2    0    0 -0.66130114922E-01 -0.22852720906E-01  0.12240042748E+00  0.14098781799E+00  0.51109989000E-03 0.  1.
     -623    1    1    2    0    0  0.17237918549E+00  0.64552565076E-01  0.12689010031E+00  0.17130014589E+03  0.17130000000E+03 0.  1.
      622    1    1    2    0    0 -0.10624907056E+00 -0.41699844170E-01  0.37507094396E+01  0.38588662897E+01  0.90000000000E+00 0.  1.
</event>
<event>
 5   0  0.4857400E+02  0.9118800E+02  0.7818608E-02  0.1180000E+00
       11   -1    0    0    0    0  0.00000000000E+00  0.00000000000E+00  0.39999999673E+01  0.40000000000E+01  0.51109989000E-03 0.  1.
     -623   -1    0    0    0    0  0.00000000000E+00  0.00000000000E+00  0.12525980253E-10  0.17130000000E+03  0.17130000000E+03 0. -1.
       11    1    1    2    0    0 -0.67126113801E-01  0.66957817773E-01  0.37721294780E-01  0.10204127506E+00  0.51109989000E-03 0.  1.
     -623    1    1    2    0    0  0.20052950555E+00  0.12506481936E-02  0.17281449449E+00  0.17130020455E+03  0.17130000000E+03 0. -1.
      622    1    1    2    0    0 -0.13340339175E+00 -0.68208465967E-01  0.37894641781E+01  0.38977541760E+01  0.90000000000E+00 0.  1.
</event>
<event>
 5   0  0.4857400E+02  0.9118800E+02  0.7818608E-02  0.1180000E+00
       11   -1    0    0    0    0  0.00000000000E+00  0.00000000000E+00  0.39999999673E+01  0.40000000000E+01  0.51109989000E-03 0. -1.
     -623   -1    0    0    0    0  0.00000000000E+00  0.00000000000E+00  0.12525980253E-10  0.17130000000E+03  0.17130000000E+03 0.  1.
       11    1    1    2    0    0  0.12094012426E+00  0.29363287319E+00  0.44699407562E+00  0.54831627984E+00  0.51109989000E-03 0. -1.
     -623    1    1    2    0    0  0.10945855190E+00 -0.25127834678E+00  0.22935284947E+00  0.17130037281E+03  0.17130000000E+03 0.  1.
      622    1    1    2    0    0 -0.23039867616E+00 -0.42354526417E-01  0.33236530423E+01  0.34513109106E+01  0.90000000000E+00 0.  0.
</event>
<event>
 5   0  0.4857400E+02  0.9118800E+02  0.7818608E-02  0.1180000E+00
       11   -1    0    0    0    0  0.00000000000E+00  0.00000000000E+00  0.39999999673E+01  0.40000000000E+01  0.51109989000E-03 0.  1.
     -623   -1    0    0    0    0  0.00000000000E+00  0.00000000000E+00  0.12525980253E-10  0.17130000000E+03  0.17130000000E+03 0. -1.
       11    1    1    2    0    0 -0.77777756804E-01 -0.20252615087E+00  0.69636126580E+00  0.72937335773E+00  0.51109989000E-03 0.  1.
     -623    1    1    2    0    0  0.45402329439E+00  0.36075940621E+00  0.18701987880E+00  0.17130108365E+03  0.17130000000E+03 0. -1.
      622    1    1    2    0    0 -0.37624553758E+00 -0.15823325533E+00  0.31166188228E+01  0.32695429886E+01  0.90000000000E+00 0.  1.
</event>
<event>
 5   0  0.4857400E+02  0.9118800E+02  0.7818608E-02  0.1180000E+00
       11   -1    0    0    0    0  0.00000000000E+00  0.00000000000E+00  0.39999999673E+01  0.40000000000E+01  0.51109989000E-03 0. -1.
     -623   -1    0    0    0    0  0.00000000000E+00  0.00000000000E+00  0.12525980253E-10  0.17130000000E+03  0.17130000000E+03 0. -1.
       11    1    1    2    0    0 -0.86590417407E-02 -0.12473044398E+00  0.50296900878E+00  0.51827670956E+00  0.51109989000E-03 0. -1.
     -623    1    1    2    0    0 -0.44208743746E-01  0.12040328201E+00  0.13416266976E+00  0.17130010056E+03  0.17130000000E+03 0. -1.
      622    1    1    2    0    0  0.52867785487E-01  0.43271619718E-02  0.33628682888E+01  0.34816227330E+01  0.90000000000E+00 0. -1.
</event>
<event>
 5   0  0.4857400E+02  0.9118800E+02  0.7818608E-02  0.1180000E+00
       11   -1    0    0    0    0  0.00000000000E+00  0.00000000000E+00  0.39999999673E+01  0.40000000000E+01  0.51109989000E-03 0. -1.
     -623   -1    0    0    0    0  0.00000000000E+00  0.00000000000E+00  0.12525980253E-10  0.17130000000E+03  0.17130000000E+03 0. -1.
       11    1    1    2    0    0  0.97902908548E-01 -0.15904608940E+00  0.33094058130E+00  0.38000337844E+00  0.51109989000E-03 0. -1.
     -623    1    1    2    0    0  0.13372175042E+00  0.52553840812E-01  0.17215755674E+00  0.17130014676E+03  0.17130000000E+03 0. -1.
      622    1    1    2    0    0 -0.23162465897E+00  0.10649224859E+00  0.34969018293E+01  0.36198498568E+01  0.90000000000E+00 0. -1.
</event>
<event>
 5   0  0.4857400E+02  0.9118800E+02  0.7818608E-02  0.1180000E+00
       11   -1    0    0    0    0  0.00000000000E+00  0.00000000000E+00  0.39999999673E+01  0.40000000000E+01  0.51109989000E-03 0.  1.
     -623   -1    0    0    0    0  0.00000000000E+00  0.00000000000E+00  0.12525980253E-10  0.17130000000E+03  0.17130000000E+03 0. -1.
       11    1    1    2    0    0  0.89849068828E-01 -0.79433958298E-01  0.42801704783E+00  0.44450136486E+00  0.51109989000E-03 0.  1.
     -623    1    1    2    0    0  0.24772861715E-01  0.80912741383E-01  0.13426457967E+00  0.17130007352E+03  0.17130000000E+03 0. -1.
      622    1    1    2    0    0 -0.11462193054E+00 -0.14787830851E-02  0.34377183399E+01  0.35554251163E+01  0.90000000000E+00 0.  1.
</event>
<event>
 5   0  0.4857400E+02  0.9118800E+02  0.7818608E-02  0.1180000E+00
       11   -1    0    0    0    0  0.00000000000E+00  0.00000000000E+00  0.39999999673E+01  0.40000000000E+01  0.51109989000E-03 0.  1.
     -623   -1    0    0    0    0  0.00000000000E+00  0.00000000000E+00  0.12525980253E-10  0.17130000000E+03  0.17130000000E+03 0.  1.
       11    1    1    2    0    0 -0.32921286190E-02 -0.10990504788E-01 -0.34061816271E-02  0.11978839790E-01  0.51109989000E-03 0.  1.
     -623    1    1    2    0    0 -0.30469535031E-01  0.17480961126E-02  0.11846868804E+00  0.17130004368E+03  0.17130000000E+03 0.  1.
      622    1    1    2    0    0  0.33761663650E-01  0.92424086750E-02  0.38849374610E+01  0.39879774758E+01  0.90000000000E+00 0.  1.
</event>
<event>
 5   0  0.4857400E+02  0.9118800E+02  0.7818608E-02  0.1180000E+00
       11   -1    0    0    0    0  0.00000000000E+00  0.00000000000E+00  0.39999999673E+01  0.40000000000E+01  0.51109989000E-03 0. -1.
     -623   -1    0    0    0    0  0.00000000000E+00  0.00000000000E+00  0.12525980253E-10  0.17130000000E+03  0.17130000000E+03 0.  1.
       11    1    1    2    0    0 -0.70216348288E-01  0.60393070689E-01  0.10444299231E+00  0.13959318901E+00  0.51109989000E-03 0. -1.
     -623    1    1    2    0    0  0.45664628053E-02 -0.25595894709E+00  0.14746173370E+00  0.17130025476E+03  0.17130000000E+03 0.  1.
      622    1    1    2    0    0  0.65649885483E-01  0.19556587640E+00  0.37480952414E+01  0.38601520511E+01  0.90000000000E+00 0. -1.
</event>
<event>
 5   0  0.4857400E+02  0.9118800E+02  0.7818608E-02  0.1180000E+00
       11   -1    0    0    0    0  0.00000000000E+00  0.00000000000E+00  0.39999999673E+01  0.40000000000E+01  0.51109989000E-03 0. -1.
     -623   -1    0    0    0    0  0.00000000000E+00  0.00000000000E+00  0.12525980253E-10  0.17130000000E+03  0.17130000000E+03 0. -1.
       11    1    1    2    0    0 -0.29215810398E-01 -0.11778086333E+00  0.26197814245E+00  0.28871907400E+00  0.51109989000E-03 0. -1.
     -623    1    1    2    0    0 -0.26761645182E-01  0.71321248391E-01  0.13833102622E+00  0.17130007279E+03  0.17130000000E+03 0. -1.
      622    1    1    2    0    0  0.55977455579E-01  0.46459614935E-01  0.35996907987E+01  0.37112081345E+01  0.90000000000E+00 0. -1.
</event>
<event>
 5   0  0.4857400E+02  0.9118800E+02  0.7818608E-02  0.1180000E+00
       11   -1    0    0    0    0  0.00000000000E+00  0.00000000000E+00  0.39999999673E+01  0.40000000000E+01  0.51109989000E-03 0.  1.
     -623   -1    0    0    0    0  0.00000000000E+00  0.00000000000E+00  0.12525980253E-10  0.17130000000E+03  0.17130000000E+03 0. -1.
       11    1    1    2    0    0 -0.11926831755E+00  0.10456827462E+00  0.40441389569E+00  0.43440800624E+00  0.51109989000E-03 0.  1.
     -623    1    1    2    0    0 -0.16268317235E-01 -0.26301155895E+00  0.15203479746E+00  0.17130027015E+03  0.17130000000E+03 0. -1.
      622    1    1    2    0    0  0.13553663479E+00  0.15844328433E+00  0.34435512742E+01  0.35653218413E+01  0.90000000000E+00 0.  1.
</event>
<event>
 5   0  0.4857400E+02  0.9118800E+02  0.7818608E-02  0.1180000E+00
       11   -1    0    0    0    0  0.00000000000E+00  0.00000000000E+00  0.39999999673E+01  0.40000000000E+01  0.51109989000E-03 0. -1.
     -623   -1    0    0    0    0  0.00000000000E+00  0.00000000000E+00  0.12525980253E-10  0.17130000000E+03  0.17130000000E+03 0.  1.
       11    1    1    2    0    0  0.80152457082E-01  0.56880713080E-01  0.49703449711E+00  0.50665904160E+00  0.51109989000E-03 0. -1.
     -623    1    1    2    0    0  0.78477652891E-01 -0.12526667774E-01  0.13164257569E+00  0.17130006902E+03  0.17130000000E+03 0.  1.
      622    1    1    2    0    0 -0.15863010997E+00 -0.44354045306E-01  0.33713228946E+01  0.34932719408E+01  0.90000000000E+00 0. -1.
</event>
<event>
 5   0  0.4857400E+02  0.9118800E+02  0.7818608E-02  0.1180000E+00
       11   -1    0    0    0    0  0.00000000000E+00  0.00000000000E+00  0.39999999673E+01  0.40000000000E+01  0.51109989000E-03 0. -1.
     -623   -1    0    0    0    0  0.00000000000E+00  0.00000000000E+00  0.12525980253E-10  0.17130000000E+03  0.17130000000E+03 0.  1.
       11    1    1    2    0    0 -0.12160876913E+00  0.82450618014E-01  0.18367479899E+00  0.23520946016E+00  0.51109989000E-03 0. -1.
     -623    1    1    2    0    0  0.57279926336E-01 -0.12181541454E+00  0.16160386094E+00  0.17130012912E+03  0.17130000000E+03 0.  1.
      622    1    1    2    0    0  0.64328842794E-01  0.39364796524E-01  0.36547213074E+01  0.37646614220E+01  0.90000000000E+00 0. -1.
</event>
<event>
 5   0  0.4857400E+02  0.9118800E+02  0.7818608E-02  0.1180000E+00
       11   -1    0    0    0    0  0.00000000000E+00  0.00000000000E+00  0.39999999673E+01  0.40000000000E+01  0.51109989000E-03 0.  1.
     -623   -1    0    0    0    0  0.00000000000E+00  0.00000000000E+00  0.12525980253E-10  0.17130000000E+03  0.17130000000E+03 0. -1.
       11    1    1    2    0    0 -0.45015172813E-03 -0.70934040856E-02 -0.22717979948E-02  0.74793921763E-02  0.51109989000E-03 0.  1.
     -623    1    1    2    0    0  0.66460096660E-02 -0.55265972572E-02  0.11257691539E+00  0.17130003721E+03  0.17130000000E+03 0. -1.
      622    1    1    2    0    0 -0.61958579378E-02  0.12620001343E-01  0.38896948500E+01  0.39924833975E+01  0.90000000000E+00 0.  1.
</event>
<event>
 5   0  0.4857400E+02  0.9118800E+02  0.7818608E-02  0.1180000E+00
       11   -1    0    0    0    0  0.00000000000E+00  0.00000000000E+00  0.39999999673E+01  0.40000000000E+01  0.51109989000E-03 0. -1.
     -623   -1    0    0    0    0  0.00000000000E+00  0.00000000000E+00  0.12525980253E-10  0.17130000000E+03  0.17130000000E+03 0. -1.
       11    1    1    2    0    0 -0.33748800604E-01  0.39172783348E-02  0.26239172552E-02  0.34080386979E-01  0.51109989000E-03 0. -1.
     -623    1    1    2    0    0  0.40688154634E-01  0.11051899030E-01  0.13502146830E+00  0.17130005840E+03  0.17130000000E+03 0. -1.
      622    1    1    2    0    0 -0.69393540303E-02 -0.14969177365E-01  0.38623545818E+01  0.39658612112E+01  0.90000000000E+00 0. -1.
</event>
<event>
 5   0  0.4857400E+02  0.9118800E+02  0.7818608E-02  0.1180000E+00
       11   -1    0    0    0    0  0.00000000000E+00  0.00000000000E+00  0.39999999673E+01  0.40000000000E+01  0.51109989000E-03 0. -1.
     -623   -1    0    0    0    0  0.00000000000E+00  0.00000000000E+00  0.12525980253E-10  0.17130000000E+03  0.17130000000E+03 0.  1.
       11    1    1    2    0    0  0.12965240386E+00 -0.58020247943E-01  0.19388546691E+00  0.24034960058E+00  0.51109989000E-03 0. -1.
     -623    1    1    2    0    0 -0.90073301975E-01 -0.12254903275E+00  0.16060691447E+00  0.17130014281E+03  0.17130000000E+03 0.  1.
      622    1    1    2    0    0 -0.39579101881E-01  0.18056928069E+00  0.36455075860E+01  0.37595075914E+01  0.90000000000E+00 0. -1.
</event>
<event>
 5   0  0.4857400E+02  0.9118800E+02  0.7818608E-02  0.1180000E+00
       11   -1    0    0    0    0  0.00000000000E+00  0.00000000000E+00  0.39999999673E+01  0.40000000000E+01  0.51109989000E-03 0.  1.
     -623   -1    0    0    0    0  0.00000000000E+00  0.00000000000E+00  0.12525980253E-10  0.17130000000E+03  0.17130000000E+03 0.  1.
       11    1    1    2    0    0  0.28178812583E-01 -0.81356119782E-01  0.25959442705E+00  0.27350025865E+00  0.51109989000E-03 0.  1.
     -623    1    1    2    0    0 -0.11571509329E+00  0.37337422942E-01  0.12563928607E+00  0.17130008923E+03  0.17130000000E+03 0.  1.
      622    1    1    2    0    0  0.87536280711E-01  0.44018696840E-01  0.36147662542E+01  0.37264105140E+01  0.90000000000E+00 0.  1.
</event>
<event>
 5   0  0.4857400E+02  0.9118800E+02  0.7818608E-02  0.1180000E+00
       11   -1    0    0    0    0  0.00000000000E+00  0.00000000000E+00  0.39999999673E+01  0.40000000000E+01  0.51109989000E-03 0. -1.
     -623   -1    0    0    0    0  0.00000000000E+00  0.00000000000E+00  0.12525980253E-10  0.17130000000E+03  0.17130000000E+03 0.  1.
       11    1    1    2    0    0 -0.13752349428E-01  0.20208475654E+00  0.27052764191E+00  0.33795390543E+00  0.51109989000E-03 0. -1.
     -623    1    1    2    0    0  0.75520741733E-01 -0.77395058109E-01  0.18260667704E+00  0.17130013146E+03  0.17130000000E+03 0.  1.
      622    1    1    2    0    0 -0.61768392304E-01 -0.12468969843E+00  0.35468656484E+01  0.36619146335E+01  0.90000000000E+00 0. -1.
</event>
<event>
 5   0  0.4857400E+02  0.9118800E+02  0.7818608E-02  0.1180000E+00
       11   -1    0    0    0    0  0.00000000000E+00  0.00000000000E+00  0.39999999673E+01  0.40000000000E+01  0.51109989000E-03 0.  1.
     -623   -1    0    0    0    0  0.00000000000E+00  0.00000000000E+00  0.12525980253E-10  0.17130000000E+03  0.17130000000E+03 0.  1.
       11    1    1    2    0    0 -0.19055689660E+00  0.79824053683E-01  0.51243529591E+00  0.55251606683E+00  0.51109989000E-03 0.  1.
     -623    1    1    2    0    0 -0.15549153828E+00  0.42998701210E-01  0.18012854034E+00  0.17130017067E+03  0.17130000000E+03 0.  1.
      622    1    1    2    0    0  0.34604843488E+00 -0.12282275489E+00  0.33074361311E+01  0.34473132596E+01  0.90000000000E+00 0.  1.
</event>
<event>
 5   0  0.4857400E+02  0.9118800E+02  0.7818608E-02  0.1180000E+00
       11   -1    0    0    0    0  0.00000000000E+00  0.00000000000E+00  0.39999999673E+01  0.40000000000E+01  0.51109989000E-03 0. -1.
     -623   -1    0    0    0    0  0.00000000000E+00  0.00000000000E+00  0.12525980253E-10  0.17130000000E+03  0.17130000000E+03 0.  1.
       11    1    1    2    0    0  0.44273311248E-01 -0.76522094873E-02 -0.23234760701E-01  0.50584560162E-01  0.51109989000E-03 0. -1.
     -623    1    1    2    0    0  0.48314164621E-02  0.53979810596E-01  0.17843004353E+00  0.17130010150E+03  0.17130000000E+03 0.  1.
      622    1    1    2    0    0 -0.49104727710E-01 -0.46327601108E-01  0.38448046845E+01  0.39493139383E+01  0.90000000000E+00 0. -1.
</event>
<event>
 5   0  0.4857400E+02  0.9118800E+02  0.7818608E-02  0.1180000E+00
       11   -1    0    0    0    0  0.00000000000E+00  0.00000000000E+00  0.39999999673E+01  0.40000000000E+01  0.51109989000E-03 0.  1.
     -623   -1    0    0    0    0  0.00000000000E+00  0.00000000000E+00  0.12525980253E-10  0.17130000000E+03  0.17130000000E+03 0.  1.
       11    1    1    2    0    0 -0.22565805988E-01  0.76711549329E-02 -0.13271466279E-01  0.27284707405E-01  0.51109989000E-03 0.  1.
     -623    1    1    2    0    0 -0.51518073729E-01 -0.27372434134E-01  0.14467661380E+00  0.17130007103E+03  0.17130000000E+03 0.  1.
      622    1    1    2    0    0  0.74083879717E-01  0.19701279202E-01  0.38685948198E+01  0.39726442632E+01  0.90000000000E+00 0.  1.
</event>
<event>
 5   0  0.4857400E+02  0.9118800E+02  0.7818608E-02  0.1180000E+00
       11   -1    0    0    0    0  0.00000000000E+00  0.00000000000E+00  0.39999999673E+01  0.40000000000E+01  0.51109989000E-03 0.  1.
     -623   -1    0    0    0    0  0.00000000000E+00  0.00000000000E+00  0.12525980253E-10  0.17130000000E+03  0.17130000000E+03 0.  1.
       11    1    1    2    0    0 -0.48375475667E-03  0.13303102508E-01 -0.51917240142E-02  0.14297614358E-01  0.51109989000E-03 0.  1.
     -623    1    1    2    0    0  0.65802765743E-02 -0.95931763531E-01  0.12338934327E+00  0.17130007143E+03  0.17130000000E+03 0.  1.
      622    1    1    2    0    0 -0.60965218176E-02  0.82628661024E-01  0.38818023481E+01  0.39856309580E+01  0.90000000000E+00 0.  1.
</event>
<event>
 5   0  0.4857400E+02  0.9118800E+02  0.7818608E-02  0.1180000E+00
       11   -1    0    0    0    0  0.00000000000E+00  0.00000000000E+00  0.39999999673E+01  0.40000000000E+01  0.51109989000E-03 0.  1.
     -623   -1    0    0    0    0  0.00000000000E+00  0.00000000000E+00  0.12525980253E-10  0.17130000000E+03  0.17130000000E+03 0.  1.
       11    1    1    2    0    0  0.65155261519E-01  0.34570268918E-01  0.58054260677E-01  0.93866234624E-01  0.51109989000E-03 0.  1.
     -623    1    1    2    0    0 -0.14147243741E+00  0.11745387832E+00  0.14488160976E+00  0.17130015995E+03  0.17130000000E+03 0.  1.
      622    1    1    2    0    0  0.76317175891E-01 -0.15202414724E+00  0.37970640969E+01  0.39059738106E+01  0.90000000000E+00 0.  1.
</event>
<event>
 5   0  0.4857400E+02  0.9118800E+02  0.7818608E-02  0.1180000E+00
       11   -1    0    0    0    0  0.00000000000E+00  0.00000000000E+00  0.39999999673E+01  0.40000000000E+01  0.51109989000E-03 0.  1.
     -623   -1    0    0    0    0  0.00000000000E+00  0.00000000000E+00  0.12525980253E-10  0.17130000000E+03  0.17130000000E+03 0. -1.
       11    1    1    2    0    0 -0.51256174523E-01  0.94500820349E-01  0.39491904104E-01  0.11453153359E+00  0.51109989000E-03 0.  1.
     -623    1    1    2    0    0  0.82445101664E-01 -0.30493660809E+00  0.18710747625E+00  0.17130039344E+03  0.17130000000E+03 0. -1.
      622    1    1    2    0    0 -0.31188927141E-01  0.21043578774E+00  0.37734005870E+01  0.38850750263E+01  0.90000000000E+00 0.  1.
</event>
<event>
 5   0  0.4857400E+02  0.9118800E+02  0.7818608E-02  0.1180000E+00
       11   -1    0    0    0    0  0.00000000000E+00  0.00000000000E+00  0.39999999673E+01  0.40000000000E+01  0.51109989000E-03 0. -1.
     -623   -1    0    0    0    0  0.00000000000E+00  0.00000000000E+00  0.12525980253E-10  0.17130000000E+03  0.17130000000E+03 0. -1.
       11    1    1    2    0    0 -0.13922291369E+00  0.39362376305E-01  0.54980877439E-02  0.14478572636E+00  0.51109989000E-03 0. -1.
     -623    1    1    2    0    0  0.83958133025E-01  0.43239809370E-01  0.24733998383E+00  0.17130020460E+03  0.17130000000E+03 0. -1.
      622    1    1    2    0    0  0.55264780667E-01 -0.82602185675E-01  0.37471618958E+01  0.38550096745E+01  0.90000000000E+00 0. -1.
</event>
<event>
 5   0  0.4857400E+02  0.9118800E+02  0.7818608E-02  0.1180000E+00
       11   -1    0    0    0    0  0.00000000000E+00  0.00000000000E+00  0.39999999673E+01  0.40000000000E+01  0.51109989000E-03 0. -1.
     -623   -1    0    0    0    0  0.00000000000E+00  0.00000000000E+00  0.12525980253E-10  0.17130000000E+03  0.17130000000E+03 0.  1.
       11    1    1    2    0    0  0.19578146648E+00  0.13055454510E+00  0.82340988353E+00  0.85637548388E+00  0.51109989000E-03 0. -1.
     -623    1    1    2    0    0 -0.52539395878E-01 -0.45153464979E-01  0.16927407802E+00  0.17130009764E+03  0.17130000000E+03 0.  1.
      622    1    1    2    0    0 -0.14324207060E+00 -0.85401080117E-01  0.30073160058E+01  0.31435268719E+01  0.90000000000E+00 0.  0.
</event>
<event>
 5   0  0.4857400E+02  0.9118800E+02  0.7818608E-02  0.1180000E+00
       11   -1    0    0    0    0  0.00000000000E+00  0.00000000000E+00  0.39999999673E+01  0.40000000000E+01  0.51109989000E-03 0. -1.
     -623   -1    0    0    0    0  0.00000000000E+00  0.00000000000E+00  0.12525980253E-10  0.17130000000E+03  0.17130000000E+03 0. -1.
       11    1    1    2    0    0  0.33450963605E-01  0.15586700816E+00  0.50439891517E+00  0.52899151038E+00  0.51109989000E-03 0. -1.
     -623    1    1    2    0    0 -0.14565962939E+00 -0.32101317963E+00  0.14969847973E+00  0.17130042813E+03  0.17130000000E+03 0. -1.
      622    1    1    2    0    0  0.11220866579E+00  0.16514617146E+00  0.33459025725E+01  0.34705803646E+01  0.90000000000E+00 0. -1.
</event>
<event>
 5   0  0.4857400E+02  0.9118800E+02  0.7818608E-02  0.1180000E+00
       11   -1    0    0    0    0  0.00000000000E+00  0.00000000000E+00  0.39999999673E+01  0.40000000000E+01  0.51109989000E-03 0. -1.
     -623   -1    0    0    0    0  0.00000000000E+00  0.00000000000E+00  0.12525980253E-10  0.17130000000E+03  0.17130000000E+03 0.  1.
       11    1    1    2    0    0 -0.13178950356E-01 -0.74924220248E-02  0.69781543041E-01  0.71411106228E-01  0.51109989000E-03 0. -1.
     -623    1    1    2    0    0  0.26789616769E-01  0.17673832294E-01  0.10618396032E+00  0.17130003592E+03  0.17130000000E+03 0.  1.
      622    1    1    2    0    0 -0.13610666413E-01 -0.10181410269E-01  0.38240344640E+01  0.39285529770E+01  0.90000000000E+00 0. -1.
</event>
<event>
 5   0  0.4857400E+02  0.9118800E+02  0.7818608E-02  0.1180000E+00
       11   -1    0    0    0    0  0.00000000000E+00  0.00000000000E+00  0.39999999673E+01  0.40000000000E+01  0.51109989000E-03 0.  1.
     -623   -1    0    0    0    0  0.00000000000E+00  0.00000000000E+00  0.12525980253E-10  0.17130000000E+03  0.17130000000E+03 0. -1.
       11    1    1    2    0    0  0.18710143073E+00  0.28718999964E-01  0.11991760998E+00  0.22408083529E+00  0.51109989000E-03 0.  1.
     -623    1    1    2    0    0  0.54298981391E-01 -0.12165527781E+00  0.22232710495E+00  0.17130019608E+03  0.17130000000E+03 0. -1.
      622    1    1    2    0    0 -0.24140041212E+00  0.92936277850E-01  0.36577552524E+01  0.37757230827E+01  0.90000000000E+00 0.  1.
</event>
<event>
 5   0  0.4857400E+02  0.9118800E+02  0.7818608E-02  0.1180000E+00
       11   -1    0    0    0    0  0.00000000000E+00  0.00000000000E+00  0.39999999673E+01  0.40000000000E+01  0.51109989000E-03 0.  1.
     -623   -1    0    0    0    0  0.00000000000E+00  0.00000000000E+00  0.12525980253E-10  0.17130000000E+03  0.17130000000E+03 0.  1.
       11    1    1    2    0    0 -0.20007993807E-01  0.97719926369E-01  0.50846958272E-01  0.11196061009E+00  0.51109989000E-03 0.  1.
     -623    1    1    2    0    0  0.82256437243E-01 -0.18361628242E+00  0.16840774438E+00  0.17130020094E+03  0.17130000000E+03 0.  1.
      622    1    1    2    0    0 -0.62248443436E-01  0.85896356050E-01  0.37807452647E+01  0.38878384495E+01  0.90000000000E+00 0.  1.
</event>
<event>
 5   0  0.4857400E+02  0.9118800E+02  0.7818608E-02  0.1180000E+00
       11   -1    0    0    0    0  0.00000000000E+00  0.00000000000E+00  0.39999999673E+01  0.40000000000E+01  0.51109989000E-03 0.  1.
     -623   -1    0    0    0    0  0.00000000000E+00  0.00000000000E+00  0.12525980253E-10  0.17130000000E+03  0.17130000000E+03 0.  1.
       11    1    1    2    0    0  0.68788062864E-01 -0.50908476021E-03  0.14974934297E+00  0.16479436794E+00  0.51109989000E-03 0.  1.
     -623    1    1    2    0    0  0.39118700210E-01 -0.55725217130E-01  0.12418742035E+00  0.17130005855E+03  0.17130000000E+03 0.  1.
      622    1    1    2    0    0 -0.10790676307E+00  0.56234301890E-01  0.37260632040E+01  0.38351470854E+01  0.90000000000E+00 0.  1.
</event>
<event>
 5   0  0.4857400E+02  0.9118800E+02  0.7818608E-02  0.1180000E+00
       11   -1    0    0    0    0  0.00000000000E+00  0.00000000000E+00  0.39999999673E+01  0.40000000000E+01  0.51109989000E-03 0. -1.
     -623   -1    0    0    0    0  0.00000000000E+00  0.00000000000E+00  0.12525980253E-10  0.17130000000E+03  0.17130000000E+03 0. -1.
       11    1    1    2    0    0  0.30376745539E-01 -0.28934033651E+00  0.64628204911E+00  0.70874630526E+00  0.51109989000E-03 0. -1.
     -623    1    1    2    0    0  0.18042386542E+00  0.58903555606E-01  0.20358705357E+00  0.17130022612E+03  0.17130000000E+03 0. -1.
      622    1    1    2    0    0 -0.21080061096E+00  0.23043678091E+00  0.31501308647E+01  0.32910275709E+01  0.90000000000E+00 0. -1.
</event>
<event>
 5   0  0.4857400E+02  0.9118800E+02  0.7818608E-02  0.1180000E+00
       11   -1    0    0    0    0  0.00000000000E+00  0.00000000000E+00  0.39999999673E+01  0.40000000000E+01  0.51109989000E-03 0. -1.
     -623   -1    0    0    0    0  0.00000000000E+00  0.00000000000E+00  0.12525980253E-10  0.17130000000E+03  0.17130000000E+03 0. -1.
       11    1    1    2    0    0 -0.54893570717E-01 -0.46902411667E-01  0.69836850722E+00  0.70209114324E+00  0.51109989000E-03 0. -1.
     -623    1    1    2    0    0  0.16254637464E+00 -0.19603854831E-01  0.13156184918E+00  0.17130012876E+03  0.17130000000E+03 0. -1.
      622    1    1    2    0    0 -0.10765280392E+00  0.66506266498E-01  0.31700696110E+01  0.32977800939E+01  0.90000000000E+00 0. -1.
</event>
<event>
 5   0  0.4857400E+02  0.9118800E+02  0.7818608E-02  0.1180000E+00
       11   -1    0    0    0    0  0.00000000000E+00  0.00000000000E+00  0.39999999673E+01  0.40000000000E+01  0.51109989000E-03 0. -1.
     -623   -1    0    0    0    0  0.00000000000E+00  0.00000000000E+00  0.12525980253E-10  0.17130000000E+03  0.17130000000E+03 0. -1.
       11    1    1    2    0    0  0.51384155063E-01  0.91291412236E-01  0.41596337889E+00  0.42895249987E+00  0.51109989000E-03 0. -1.
     -623    1    1    2    0    0 -0.51628329827E-01 -0.74614484191E-01  0.12837646606E+00  0.17130007213E+03  0.17130000000E+03 0. -1.
      622    1    1    2    0    0  0.24417476407E-03 -0.16676928045E-01  0.34556601224E+01  0.35709753655E+01  0.90000000000E+00 0. -1.
</event>
<event>
 5   0  0.4857400E+02  0.9118800E+02  0.7818608E-02  0.1180000E+00
       11   -1    0    0    0    0  0.00000000000E+00  0.00000000000E+00  0.39999999673E+01  0.40000000000E+01  0.51109989000E-03 0. -1.
     -623   -1    0    0    0    0  0.00000000000E+00  0.00000000000E+00  0.12525980253E-10  0.17130000000E+03  0.17130000000E+03 0.  1.
       11    1    1    2    0    0 -0.90345057398E-01 -0.98201502696E-01  0.52830752763E+00  0.54489895348E+00  0.51109989000E-03 0. -1.
     -623    1    1    2    0    0  0.24062361977E-01 -0.51674105818E-01  0.13996518752E+00  0.17130006667E+03  0.17130000000E+03 0.  1.
      622    1    1    2    0    0  0.66282695421E-01  0.14987560851E+00  0.33317272522E+01  0.34550343814E+01  0.90000000000E+00 0. -1.
</event>
<event>
 5   0  0.4857400E+02  0.9118800E+02  0.7818608E-02  0.1180000E+00
       11   -1    0    0    0    0  0.00000000000E+00  0.00000000000E+00  0.39999999673E+01  0.40000000000E+01  0.51109989000E-03 0.  1.
     -623   -1    0    0    0    0  0.00000000000E+00  0.00000000000E+00  0.12525980253E-10  0.17130000000E+03  0.17130000000E+03 0.  1.
       11    1    1    2    0    0 -0.19158579927E-01  0.12406789163E-01 -0.14518159815E-01  0.27055827277E-01  0.51109989000E-03 0.  1.
     -623    1    1    2    0    0  0.21535531147E-01 -0.55907909340E-01  0.14517511473E+00  0.17130007199E+03  0.17130000000E+03 0.  1.
      622    1    1    2    0    0 -0.23769512208E-02  0.43501120177E-01  0.38693430124E+01  0.39728721783E+01  0.90000000000E+00 0.  1.
</event>
<event>
 5   0  0.4857400E+02  0.9118800E+02  0.7818608E-02  0.1180000E+00
       11   -1    0    0    0    0  0.00000000000E+00  0.00000000000E+00  0.39999999673E+01  0.40000000000E+01  0.51109989000E-03 0.  1.
     -623   -1    0    0    0    0  0.00000000000E+00  0.00000000000E+00  0.12525980253E-10  0.17130000000E+03  0.17130000000E+03 0.  1.
       11    1    1    2    0    0 -0.65525125847E-01  0.19060173835E+00  0.34813820134E+00  0.40227233714E+00  0.51109989000E-03 0.  1.
     -623    1    1    2    0    0 -0.21427310913E+00 -0.18209041842E-01  0.18430449449E+00  0.17130023413E+03  0.17130000000E+03 0.  1.
      622    1    1    2    0    0  0.27979823498E+00 -0.17239269651E+00  0.34675572715E+01  0.35974935338E+01  0.90000000000E+00 0.  1.
</event>
<event>
 5   0  0.4857400E+02  0.9118800E+02  0.7818608E-02  0.1180000E+00
       11   -1    0    0    0    0  0.00000000000E+00  0.00000000000E+00  0.39999999673E+01  0.40000000000E+01  0.51109989000E-03 0.  1.
     -623   -1    0    0    0    0  0.00000000000E+00  0.00000000000E+00  0.12525980253E-10  0.17130000000E+03  0.17130000000E+03 0.  1.
       11    1    1    2    0    0  0.55010500214E-01  0.12251179512E+00  0.75997645312E-01  0.15430877614E+00  0.51109989000E-03 0.  1.
     -623    1    1    2    0    0 -0.31727249650E+00 -0.10184437292E+00  0.19482173334E+00  0.17130043488E+03  0.17130000000E+03 0.  1.
      622    1    1    2    0    0  0.26226199629E+00 -0.20667422200E-01  0.37291805887E+01  0.38452563452E+01  0.90000000000E+00 0.  1.
</event>
<event>
 5   0  0.4857400E+02  0.9118800E+02  0.7818608E-02  0.1180000E+00
       11   -1    0    0    0    0  0.00000000000E+00  0.00000000000E+00  0.39999999673E+01  0.40000000000E+01  0.51109989000E-03 0.  1.
     -623   -1    0    0    0    0  0.00000000000E+00  0.00000000000E+00  0.12525980253E-10  0.17130000000E+03  0.17130000000E+03 0.  1.
       11    1    1    2    0    0 -0.34281602593E-01 -0.26583006538E-01  0.99960750379E-01  0.10896924956E+00  0.51109989000E-03 0.  1.
     -623    1    1    2    0    0  0.11409336988E+00  0.16584431137E-01  0.11545922978E+00  0.17130007771E+03  0.17130000000E+03 0.  1.
      622    1    1    2    0    0 -0.79811767283E-01  0.99985754011E-02  0.37845799872E+01  0.38909530413E+01  0.90000000000E+00 0.  1.
</event>
<event>
 5   0  0.4857400E+02  0.9118800E+02  0.7818608E-02  0.1180000E+00
       11   -1    0    0    0    0  0.00000000000E+00  0.00000000000E+00  0.39999999673E+01  0.40000000000E+01  0.51109989000E-03 0. -1.
     -623   -1    0    0    0    0  0.00000000000E+00  0.00000000000E+00  0.12525980253E-10  0.17130000000E+03  0.17130000000E+03 0.  1.
       11    1    1    2    0    0  0.52428188681E-01  0.59958249739E-01  0.29215952446E+00  0.30282198670E+00  0.51109989000E-03 0. -1.
     -623    1    1    2    0    0 -0.12715831374E+00 -0.50296210016E-01  0.12277162541E+00  0.17130009858E+03  0.17130000000E+03 0.  1.
      622    1    1    2    0    0  0.74730125057E-01 -0.96620397229E-02  0.35850688175E+01  0.36970794383E+01  0.90000000000E+00 0. -1.
</event>
<event>
 5   0  0.4857400E+02  0.9118800E+02  0.7818608E-02  0.1180000E+00
       11   -1    0    0    0    0  0.00000000000E+00  0.00000000000E+00  0.39999999673E+01  0.40000000000E+01  0.51109989000E-03 0. -1.
     -623   -1    0    0    0    0  0.00000000000E+00  0.00000000000E+00  0.12525980253E-10  0.17130000000E+03  0.17130000000E+03 0. -1.
       11    1    1    2    0    0  0.10286855976E+00  0.10764193959E-01  0.96917916864E-01  0.14174326189E+00  0.51109989000E-03 0. -1.
     -623    1    1    2    0    0 -0.10838140507E+00 -0.77571162985E-01  0.15198472678E+00  0.17130011927E+03  0.17130000000E+03 0. -1.
      622    1    1    2    0    0  0.55128453147E-02  0.66806969026E-01  0.37510973237E+01  0.38581374644E+01  0.90000000000E+00 0. -1.
</event>
<event>
 5   0  0.4857400E+02  0.9118800E+02  0.7818608E-02  0.1180000E+00
       11   -1    0    0    0    0  0.00000000000E+00  0.00000000000E+00  0.39999999673E+01  0.40000000000E+01  0.51109989000E-03 0.  1.
     -623   -1    0    0    0    0  0.00000000000E+00  0.00000000000E+00  0.12525980253E-10  0.17130000000E+03  0.17130000000E+03 0.  1.
       11    1    1    2    0    0 -0.22365708372E+00 -0.13428660062E+00  0.74931719903E+00  0.79343046841E+00  0.51109989000E-03 0.  1.
     -623    1    1    2    0    0  0.33708934176E+00  0.11146030475E+00  0.17566028537E+00  0.17130045799E+03  0.17130000000E+03 0.  1.
      622    1    1    2    0    0 -0.11343225804E+00  0.22826295867E-01  0.30750224830E+01  0.32061115370E+01  0.90000000000E+00 0.  1.
</event>
<event>
 5   0  0.4857400E+02  0.9118800E+02  0.7818608E-02  0.1180000E+00
       11   -1    0    0    0    0  0.00000000000E+00  0.00000000000E+00  0.39999999673E+01  0.40000000000E+01  0.51109989000E-03 0. -1.
     -623   -1    0    0    0    0  0.00000000000E+00  0.00000000000E+00  0.12525980253E-10  0.17130000000E+03  0.17130000000E+03 0.  1.
       11    1    1    2    0    0  0.17490697748E-01 -0.16329704604E-01  0.12983721667E+00  0.13202480000E+00  0.51109989000E-03 0. -1.
     -623    1    1    2    0    0  0.57494937511E-01  0.21603343986E-01  0.10914861804E+00  0.17130004578E+03  0.17130000000E+03 0.  1.
      622    1    1    2    0    0 -0.74985635258E-01 -0.52736393816E-02  0.37610141327E+01  0.38679294154E+01  0.90000000000E+00 0. -1.
</event>
<event>
 5   0  0.4857400E+02  0.9118800E+02  0.7818608E-02  0.1180000E+00
       11   -1    0    0    0    0  0.00000000000E+00  0.00000000000E+00  0.39999999673E+01  0.40000000000E+01  0.51109989000E-03 0. -1.
     -623   -1    0    0    0    0  0.00000000000E+00  0.00000000000E+00  0.12525980253E-10  0.17130000000E+03  0.17130000000E+03 0.  1.
       11    1    1    2    0    0  0.25437368750E+00  0.10579699169E+00  0.88268781905E+00  0.92468212023E+00  0.51109989000E-03 0. -1.
     -623    1    1    2    0    0 -0.15466342059E+00  0.15710724455E+00  0.19036900509E+00  0.17130024765E+03  0.17130000000E+03 0.  1.
      622    1    1    2    0    0 -0.99710266913E-01 -0.26290423624E+00  0.29269431432E+01  0.30750702331E+01  0.90000000000E+00 0. -1.
</event>
<event>
 5   0  0.4857400E+02  0.9118800E+02  0.7818608E-02  0.1180000E+00
       11   -1    0    0    0    0  0.00000000000E+00  0.00000000000E+00  0.39999999673E+01  0.40000000000E+01  0.51109989000E-03 0. -1.
     -623   -1    0    0    0    0  0.00000000000E+00  0.00000000000E+00  0.12525980253E-10  0.17130000000E+03  0.17130000000E+03 0.  1.
       11    1    1    2    0    0 -0.16978546919E+00 -0.53384036643E-01  0.14175043912E+00  0.22753111684E+00  0.51109989000E-03 0. -1.
     -623    1    1    2    0    0  0.26068346483E+00  0.91886081131E-01  0.19638594805E+00  0.17130033557E+03  0.17130000000E+03 0.  1.
      622    1    1    2    0    0 -0.90897995642E-01 -0.38502044488E-01  0.36618635802E+01  0.37721333133E+01  0.90000000000E+00 0. -1.
</event>
<event>
 5   0  0.4857400E+02  0.9118800E+02  0.7818608E-02  0.1180000E+00
       11   -1    0    0    0    0  0.00000000000E+00  0.00000000000E+00  0.39999999673E+01  0.40000000000E+01  0.51109989000E-03 0. -1.
     -623   -1    0    0    0    0  0.00000000000E+00  0.00000000000E+00  0.12525980253E-10  0.17130000000E+03  0.17130000000E+03 0.  1.
       11    1    1    2    0    0  0.97593578979E-01  0.19462657742E-01  0.78028435613E-01  0.12645947846E+00  0.51109989000E-03 0. -1.
     -623    1    1    2    0    0 -0.16902781716E+00  0.68770121986E-02  0.15536475390E+00  0.17130015399E+03  0.17130000000E+03 0.  1.
      622    1    1    2    0    0  0.71434238177E-01 -0.26339669940E-01  0.37666067778E+01  0.38733865347E+01  0.90000000000E+00 0. -1.
</event>
<event>
 5   0  0.4857400E+02  0.9118800E+02  0.7818608E-02  0.1180000E+00
       11   -1    0    0    0    0  0.00000000000E+00  0.00000000000E+00  0.39999999673E+01  0.40000000000E+01  0.51109989000E-03 0.  1.
     -623   -1    0    0    0    0  0.00000000000E+00  0.00000000000E+00  0.12525980253E-10  0.17130000000E+03  0.17130000000E+03 0. -1.
       11    1    1    2    0    0 -0.49866835044E-02 -0.14036140624E+00  0.35153073441E+00  0.37855027385E+00  0.51109989000E-03 0.  1.
     -623    1    1    2    0    0  0.12671786580E+00  0.51263636188E-01  0.14399953905E+00  0.17130011506E+03  0.17130000000E+03 0. -1.
      622    1    1    2    0    0 -0.12173118229E+00  0.89097770051E-01  0.35044696939E+01  0.36213346613E+01  0.90000000000E+00 0.  1.
</event>
<event>
 5   0  0.4857400E+02  0.9118800E+02  0.7818608E-02  0.1180000E+00
       11   -1    0    0    0    0  0.00000000000E+00  0.00000000000E+00  0.39999999673E+01  0.40000000000E+01  0.51109989000E-03 0. -1.
     -623   -1    0    0    0    0  0.00000000000E+00  0.00000000000E+00  0.12525980253E-10  0.17130000000E+03  0.17130000000E+03 0. -1.
       11    1    1    2    0    0  0.84499521627E-02  0.47898101027E-01  0.49212616163E-01  0.69193732275E-01  0.51109989000E-03 0. -1.
     -623    1    1    2    0    0  0.52664618689E-01  0.95877938551E-01  0.12767569504E+00  0.17130008251E+03  0.17130000000E+03 0. -1.
      622    1    1    2    0    0 -0.61114570852E-01 -0.14377603958E+00  0.38231116562E+01  0.39307237598E+01  0.90000000000E+00 0. -1.
</event>
<event>
 5   0  0.4857400E+02  0.9118800E+02  0.7818608E-02  0.1180000E+00
       11   -1    0    0    0    0  0.00000000000E+00  0.00000000000E+00  0.39999999673E+01  0.40000000000E+01  0.51109989000E-03 0. -1.
     -623   -1    0    0    0    0  0.00000000000E+00  0.00000000000E+00  0.12525980253E-10  0.17130000000E+03  0.17130000000E+03 0.  1.
       11    1    1    2    0    0 -0.85936120205E-01  0.73746184286E-01  0.80967119851E-01  0.13921010083E+00  0.51109989000E-03 0. -1.
     -623    1    1    2    0    0  0.54994068640E-01  0.40114181151E-01  0.16656068022E+00  0.17130009450E+03  0.17130000000E+03 0.  1.
      622    1    1    2    0    0  0.30942051566E-01 -0.11386036544E+00  0.37524721673E+01  0.38606953985E+01  0.90000000000E+00 0. -1.
</event>
<event>
 5   0  0.4857400E+02  0.9118800E+02  0.7818608E-02  0.1180000E+00
       11   -1    0    0    0    0  0.00000000000E+00  0.00000000000E+00  0.39999999673E+01  0.40000000000E+01  0.51109989000E-03 0.  1.
     -623   -1    0    0    0    0  0.00000000000E+00  0.00000000000E+00  0.12525980253E-10  0.17130000000E+03  0.17130000000E+03 0.  1.
       11    1    1    2    0    0  0.27313751455E-01  0.73974830887E-01 -0.69634365555E-01  0.10520229424E+00  0.51109989000E-03 0.  1.
     -623    1    1    2    0    0  0.47968032416E-01 -0.30797428701E-02  0.28190462445E+00  0.17130023871E+03  0.17130000000E+03 0.  1.
      622    1    1    2    0    0 -0.75281783871E-01 -0.70895088017E-01  0.37877297085E+01  0.38945590001E+01  0.90000000000E+00 0.  1.
</event>
<event>
 5   0  0.4857400E+02  0.9118800E+02  0.7818608E-02  0.1180000E+00
       11   -1    0    0    0    0  0.00000000000E+00  0.00000000000E+00  0.39999999673E+01  0.40000000000E+01  0.51109989000E-03 0.  1.
     -623   -1    0    0    0    0  0.00000000000E+00  0.00000000000E+00  0.12525980253E-10  0.17130000000E+03  0.17130000000E+03 0. -1.
       11    1    1    2    0    0 -0.11523984053E-01 -0.18697562571E-01 -0.50844789663E-02  0.22550259510E-01  0.51109989000E-03 0.  1.
     -623    1    1    2    0    0 -0.38303164230E-01 -0.47036519632E-01  0.13173778931E+00  0.17130006140E+03  0.17130000000E+03 0. -1.
      622    1    1    2    0    0  0.49827148282E-01  0.65734082203E-01  0.38733466570E+01  0.39773883441E+01  0.90000000000E+00 0.  1.
</event>
<event>
 5   0  0.4857400E+02  0.9118800E+02  0.7818608E-02  0.1180000E+00
       11   -1    0    0    0    0  0.00000000000E+00  0.00000000000E+00  0.39999999673E+01  0.40000000000E+01  0.51109989000E-03 0. -1.
     -623   -1    0    0    0    0  0.00000000000E+00  0.00000000000E+00  0.12525980253E-10  0.17130000000E+03  0.17130000000E+03 0.  1.
       11    1    1    2    0    0 -0.14121202138E+00  0.31105198198E+00  0.78503691596E+00  0.85614098787E+00  0.51109989000E-03 0. -1.
     -623    1    1    2    0    0 -0.84336428225E-01 -0.13182366468E+00  0.21670634296E+00  0.17130020856E+03  0.17130000000E+03 0.  1.
      622    1    1    2    0    0  0.22554844960E+00 -0.17922831730E+00  0.29982567084E+01  0.31436504549E+01  0.90000000000E+00 0.  1.
</event>
<event>
 5   0  0.4857400E+02  0.9118800E+02  0.7818608E-02  0.1180000E+00
       11   -1    0    0    0    0  0.00000000000E+00  0.00000000000E+00  0.39999999673E+01  0.40000000000E+01  0.51109989000E-03 0.  1.
     -623   -1    0    0    0    0  0.00000000000E+00  0.00000000000E+00  0.12525980253E-10  0.17130000000E+03  0.17130000000E+03 0.  1.
       11    1    1    2    0    0 -0.84306710331E-02  0.38470469659E-01 -0.20461450727E-01  0.44384518008E-01  0.51109989000E-03 0.  1.
     -623    1    1    2    0    0 -0.55278194113E-01 -0.97197271956E-01  0.16969103337E+00  0.17130012054E+03  0.17130000000E+03 0.  1.
      622    1    1    2    0    0  0.63708865146E-01  0.58726802297E-01  0.38507703847E+01  0.39554949390E+01  0.90000000000E+00 0.  1.
</event>
<event>
 5   0  0.4857400E+02  0.9118800E+02  0.7818608E-02  0.1180000E+00
       11   -1    0    0    0    0  0.00000000000E+00  0.00000000000E+00  0.39999999673E+01  0.40000000000E+01  0.51109989000E-03 0.  1.
     -623   -1    0    0    0    0  0.00000000000E+00  0.00000000000E+00  0.12525980253E-10  0.17130000000E+03  0.17130000000E+03 0. -1.
       11    1    1    2    0    0  0.55312267990E-01 -0.48371403423E-01  0.97860427386E+00  0.98135917263E+00  0.51109989000E-03 0.  1.
     -623    1    1    2    0    0  0.19033132352E-01  0.12222777257E+00  0.14205806397E+00  0.17130010357E+03  0.17130000000E+03 0. -1.
      622    1    1    2    0    0 -0.74345400342E-01 -0.73856369150E-01  0.28793376295E+01  0.30185372594E+01  0.90000000000E+00 0.  1.
</event>
<event>
 5   0  0.4857400E+02  0.9118800E+02  0.7818608E-02  0.1180000E+00
       11   -1    0    0    0    0  0.00000000000E+00  0.00000000000E+00  0.39999999673E+01  0.40000000000E+01  0.51109989000E-03 0. -1.
     -623   -1    0    0    0    0  0.00000000000E+00  0.00000000000E+00  0.12525980253E-10  0.17130000000E+03  0.17130000000E+03 0.  1.
       11    1    1    2    0    0 -0.77645518659E-02  0.69705472895E-01  0.78182998774E-01  0.10503325063E+00  0.51109989000E-03 0. -1.
     -623    1    1    2    0    0  0.82536311852E-01 -0.46666906470E-01  0.13314478730E+00  0.17130007798E+03  0.17130000000E+03 0.  1.
      622    1    1    2    0    0 -0.74771759986E-01 -0.23038566425E-01  0.37886721813E+01  0.38948887646E+01  0.90000000000E+00 0. -1.
</event>
<event>
 5   0  0.4857400E+02  0.9118800E+02  0.7818608E-02  0.1180000E+00
       11   -1    0    0    0    0  0.00000000000E+00  0.00000000000E+00  0.39999999673E+01  0.40000000000E+01  0.51109989000E-03 0.  1.
     -623   -1    0    0    0    0  0.00000000000E+00  0.00000000000E+00  0.12525980253E-10  0.17130000000E+03  0.17130000000E+03 0. -1.
       11    1    1    2    0    0  0.73522340688E-02  0.51340557345E-01  0.12453235328E-01  0.53340908011E-01  0.51109989000E-03 0.  1.
     -623    1    1    2    0    0 -0.41258481834E-01 -0.91410810985E-01  0.14532804960E+00  0.17130009101E+03  0.17130000000E+03 0. -1.
      622    1    1    2    0    0  0.33906247765E-01  0.40070253640E-01  0.38422186824E+01  0.39465680866E+01  0.90000000000E+00 0.  1.
</event>
<event>
 5   0  0.4857400E+02  0.9118800E+02  0.7818608E-02  0.1180000E+00
       11   -1    0    0    0    0  0.00000000000E+00  0.00000000000E+00  0.39999999673E+01  0.40000000000E+01  0.51109989000E-03 0. -1.
     -623   -1    0    0    0    0  0.00000000000E+00  0.00000000000E+00  0.12525980253E-10  0.17130000000E+03  0.17130000000E+03 0.  1.
       11    1    1    2    0    0  0.46857138011E-01 -0.17171766205E-02  0.35956273804E-01  0.59090227002E-01  0.51109989000E-03 0. -1.
     -623    1    1    2    0    0 -0.60486507952E-01 -0.13767041136E-01  0.12739379752E+00  0.17130005860E+03  0.17130000000E+03 0.  1.
      622    1    1    2    0    0  0.13629369941E-01  0.15484217757E-01  0.38366498960E+01  0.39408511702E+01  0.90000000000E+00 0. -1.
</event>
<event>
 5   0  0.4857400E+02  0.9118800E+02  0.7818608E-02  0.1180000E+00
       11   -1    0    0    0    0  0.00000000000E+00  0.00000000000E+00  0.39999999673E+01  0.40000000000E+01  0.51109989000E-03 0. -1.
     -623   -1    0    0    0    0  0.00000000000E+00  0.00000000000E+00  0.12525980253E-10  0.17130000000E+03  0.17130000000E+03 0.  1.
       11    1    1    2    0    0 -0.93322064408E-02  0.13305811145E-01  0.28481780877E-01  0.32796459447E-01  0.51109989000E-03 0. -1.
     -623    1    1    2    0    0 -0.54813614243E-01 -0.28578860621E-01  0.10835943345E+00  0.17130004543E+03  0.17130000000E+03 0.  1.
      622    1    1    2    0    0  0.64145820684E-01  0.15273049475E-01  0.38631587530E+01  0.39671581143E+01  0.90000000000E+00 0. -1.
</event>
<event>
 5   0  0.4857400E+02  0.9118800E+02  0.7818608E-02  0.1180000E+00
       11   -1    0    0    0    0  0.00000000000E+00  0.00000000000E+00  0.39999999673E+01  0.40000000000E+01  0.51109989000E-03 0.  1.
     -623   -1    0    0    0    0  0.00000000000E+00  0.00000000000E+00  0.12525980253E-10  0.17130000000E+03  0.17130000000E+03 0.  1.
       11    1    1    2    0    0  0.99898003287E-02 -0.13574974130E+00  0.15296247225E+00  0.20475733812E+00  0.51109989000E-03 0.  1.
     -623    1    1    2    0    0  0.71544235777E-01  0.96501716737E-01  0.16128348506E+00  0.17130011805E+03  0.17130000000E+03 0.  1.
      622    1    1    2    0    0 -0.81534036106E-01  0.39248024562E-01  0.36857540101E+01  0.37951246131E+01  0.90000000000E+00 0.  1.
</event>
<event>
 5   0  0.4857400E+02  0.9118800E+02  0.7818608E-02  0.1180000E+00
       11   -1    0    0    0    0  0.00000000000E+00  0.00000000000E+00  0.39999999673E+01  0.40000000000E+01  0.51109989000E-03 0. -1.
     -623   -1    0    0    0    0  0.00000000000E+00  0.00000000000E+00  0.12525980253E-10  0.17130000000E+03  0.17130000000E+03 0.  1.
       11    1    1    2    0    0 -0.82782958345E-01  0.72922935725E-01  0.55400808656E-01  0.12345154341E+00  0.51109989000E-03 0. -1.
     -623    1    1    2    0    0 -0.11279734099E+00 -0.32241540317E-01  0.17940573904E+00  0.17130013412E+03  0.17130000000E+03 0.  1.
      622    1    1    2    0    0  0.19558029933E+00 -0.40681395408E-01  0.37651934197E+01  0.38764143376E+01  0.90000000000E+00 0. -1.
</event>
<event>
 5   0  0.4857400E+02  0.9118800E+02  0.7818608E-02  0.1180000E+00
       11   -1    0    0    0    0  0.00000000000E+00  0.00000000000E+00  0.39999999673E+01  0.40000000000E+01  0.51109989000E-03 0. -1.
     -623   -1    0    0    0    0  0.00000000000E+00  0.00000000000E+00  0.12525980253E-10  0.17130000000E+03  0.17130000000E+03 0. -1.
       11    1    1    2    0    0 -0.88568366169E-01  0.22998453349E-02  0.26735447602E+00  0.28165283922E+00  0.51109989000E-03 0. -1.
     -623    1    1    2    0    0  0.10365976948E-01 -0.13744744248E+00  0.12834873048E+00  0.17130010354E+03  0.17130000000E+03 0. -1.
      622    1    1    2    0    0  0.78202389221E-01  0.13514759714E+00  0.36042967609E+01  0.37182436213E+01  0.90000000000E+00 0. -1.
</event>
<event>
 5   0  0.4857400E+02  0.9118800E+02  0.7818608E-02  0.1180000E+00
       11   -1    0    0    0    0  0.00000000000E+00  0.00000000000E+00  0.39999999673E+01  0.40000000000E+01  0.51109989000E-03 0.  1.
     -623   -1    0    0    0    0  0.00000000000E+00  0.00000000000E+00  0.12525980253E-10  0.17130000000E+03  0.17130000000E+03 0. -1.
       11    1    1    2    0    0 -0.47078593254E-01  0.62016675784E-01  0.11915671256E+00  0.14234129895E+00  0.51109989000E-03 0.  1.
     -623    1    1    2    0    0  0.11276151358E+00 -0.17497385856E+00  0.13209835375E+00  0.17130017741E+03  0.17130000000E+03 0. -1.
      622    1    1    2    0    0 -0.65682920328E-01  0.11295718278E+00  0.37487449010E+01  0.38574812902E+01  0.90000000000E+00 0.  1.
</event>
<event>
 5   0  0.4857400E+02  0.9118800E+02  0.7818608E-02  0.1180000E+00
       11   -1    0    0    0    0  0.00000000000E+00  0.00000000000E+00  0.39999999673E+01  0.40000000000E+01  0.51109989000E-03 0.  1.
     -623   -1    0    0    0    0  0.00000000000E+00  0.00000000000E+00  0.12525980253E-10  0.17130000000E+03  0.17130000000E+03 0.  1.
       11    1    1    2    0    0 -0.98687875572E-02 -0.59757144266E-01  0.12603506727E-01  0.61866136647E-01  0.51109989000E-03 0.  1.
     -623    1    1    2    0    0 -0.95048689063E-01  0.57024877189E-01  0.15502797431E+00  0.17130010601E+03  0.17130000000E+03 0.  1.
      622    1    1    2    0    0  0.10491747662E+00  0.27322670771E-02  0.38323684863E+01  0.39380278512E+01  0.90000000000E+00 0.  1.
</event>
<event>
 5   0  0.4857400E+02  0.9118800E+02  0.7818608E-02  0.1180000E+00
       11   -1    0    0    0    0  0.00000000000E+00  0.00000000000E+00  0.39999999673E+01  0.40000000000E+01  0.51109989000E-03 0. -1.
     -623   -1    0    0    0    0  0.00000000000E+00  0.00000000000E+00  0.12525980253E-10  0.17130000000E+03  0.17130000000E+03 0.  1.
       11    1    1    2    0    0  0.27514016063E-01  0.47280937664E-01  0.21691206568E-01  0.58849620320E-01  0.51109989000E-03 0. -1.
     -623    1    1    2    0    0 -0.24713658126E-01 -0.13994725367E+00  0.14253773705E+00  0.17130011825E+03  0.17130000000E+03 0.  1.
      622    1    1    2    0    0 -0.28003579380E-02  0.92666316007E-01  0.38357710237E+01  0.39410321281E+01  0.90000000000E+00 0. -1.
</event>
<event>
 5   0  0.4857400E+02  0.9118800E+02  0.7818608E-02  0.1180000E+00
       11   -1    0    0    0    0  0.00000000000E+00  0.00000000000E+00  0.39999999673E+01  0.40000000000E+01  0.51109989000E-03 0. -1.
     -623   -1    0    0    0    0  0.00000000000E+00  0.00000000000E+00  0.12525980253E-10  0.17130000000E+03  0.17130000000E+03 0.  1.
       11    1    1    2    0    0  0.16366357821E-01 -0.30647856612E-01  0.78693055566E-01  0.86023293357E-01  0.51109989000E-03 0. -1.
     -623    1    1    2    0    0  0.35230102030E-01  0.87989597482E-01  0.11305717112E+00  0.17130006353E+03  0.17130000000E+03 0.  1.
      622    1    1    2    0    0 -0.51596459851E-01 -0.57341740870E-01  0.38082497407E+01  0.39139131770E+01  0.90000000000E+00 0. -1.
</event>
<event>
 5   0  0.4857400E+02  0.9118800E+02  0.7818608E-02  0.1180000E+00
       11   -1    0    0    0    0  0.00000000000E+00  0.00000000000E+00  0.39999999673E+01  0.40000000000E+01  0.51109989000E-03 0.  1.
     -623   -1    0    0    0    0  0.00000000000E+00  0.00000000000E+00  0.12525980253E-10  0.17130000000E+03  0.17130000000E+03 0.  1.
       11    1    1    2    0    0  0.15803944678E-01 -0.12190971283E+00  0.37750318401E-01  0.12859661936E+00  0.51109989000E-03 0.  1.
     -623    1    1    2    0    0 -0.17483316841E+00 -0.29483314753E-01  0.20353879228E+00  0.17130021268E+03  0.17130000000E+03 0.  1.
      622    1    1    2    0    0  0.15902922373E+00  0.15139302758E+00  0.37587108567E+01  0.38711907014E+01  0.90000000000E+00 0.  1.
</event>
<event>
 5   0  0.4857400E+02  0.9118800E+02  0.7818608E-02  0.1180000E+00
       11   -1    0    0    0    0  0.00000000000E+00  0.00000000000E+00  0.39999999673E+01  0.40000000000E+01  0.51109989000E-03 0. -1.
     -623   -1    0    0    0    0  0.00000000000E+00  0.00000000000E+00  0.12525980253E-10  0.17130000000E+03  0.17130000000E+03 0.  1.
       11    1    1    2    0    0 -0.68051168544E-01  0.46261651793E-01  0.31760873459E+00  0.32809552188E+00  0.51109989000E-03 0. -1.
     -623    1    1    2    0    0  0.56329748747E-01 -0.14867421980E+00  0.12410726503E+00  0.17130011874E+03  0.17130000000E+03 0.  1.
      622    1    1    2    0    0  0.11721419797E-01  0.10241256801E+00  0.35582839677E+01  0.36717857401E+01  0.90000000000E+00 0. -1.
</event>
<event>
 5   0  0.4857400E+02  0.9118800E+02  0.7818608E-02  0.1180000E+00
       11   -1    0    0    0    0  0.00000000000E+00  0.00000000000E+00  0.39999999673E+01  0.40000000000E+01  0.51109989000E-03 0. -1.
     -623   -1    0    0    0    0  0.00000000000E+00  0.00000000000E+00  0.12525980253E-10  0.17130000000E+03  0.17130000000E+03 0. -1.
       11    1    1    2    0    0  0.71440656991E-02 -0.35529087295E-01  0.66765023102E-03  0.36249975154E-01  0.51109989000E-03 0. -1.
     -623    1    1    2    0    0  0.88467730125E-01 -0.40887766579E-01  0.14113942534E+00  0.17130008587E+03  0.17130000000E+03 0. -1.
      622    1    1    2    0    0 -0.95611795824E-01  0.76416853875E-01  0.38581928918E+01  0.39636641560E+01  0.90000000000E+00 0. -1.
</event>
<event>
 5   0  0.4857400E+02  0.9118800E+02  0.7818608E-02  0.1180000E+00
       11   -1    0    0    0    0  0.00000000000E+00  0.00000000000E+00  0.39999999673E+01  0.40000000000E+01  0.51109989000E-03 0. -1.
     -623   -1    0    0    0    0  0.00000000000E+00  0.00000000000E+00  0.12525980253E-10  0.17130000000E+03  0.17130000000E+03 0. -1.
       11    1    1    2    0    0 -0.79514851096E-01 -0.38069989393E+00  0.10810660629E+01  0.11488947360E+01  0.51109989000E-03 0. -1.
     -623    1    1    2    0    0  0.44347012436E+00  0.76746081860E-01  0.25632510536E+00  0.17130078301E+03  0.17130000000E+03 0. -1.
      622    1    1    2    0    0 -0.36395527327E+00  0.30395381207E+00  0.26626087991E+01  0.28503222586E+01  0.90000000000E+00 0. -1.
</event>
<event>
 5   0  0.4857400E+02  0.9118800E+02  0.7818608E-02  0.1180000E+00
       11   -1    0    0    0    0  0.00000000000E+00  0.00000000000E+00  0.39999999673E+01  0.40000000000E+01  0.51109989000E-03 0. -1.
     -623   -1    0    0    0    0  0.00000000000E+00  0.00000000000E+00  0.12525980253E-10  0.17130000000E+03  0.17130000000E+03 0.  1.
       11    1    1    2    0    0  0.12309215733E+00  0.50277510859E-01  0.67263033234E-01  0.14901034917E+00  0.51109989000E-03 0. -1.
     -623    1    1    2    0    0 -0.10298415307E+00  0.15112787797E-01  0.18915667581E+00  0.17130013606E+03  0.17130000000E+03 0.  1.
      622    1    1    2    0    0 -0.20108004260E-01 -0.65390298655E-01  0.37435802583E+01  0.38508535902E+01  0.90000000000E+00 0. -1.
</event>
<event>
 5   0  0.4857400E+02  0.9118800E+02  0.7818608E-02  0.1180000E+00
       11   -1    0    0    0    0  0.00000000000E+00  0.00000000000E+00  0.39999999673E+01  0.40000000000E+01  0.51109989000E-03 0.  1.
     -623   -1    0    0    0    0  0.00000000000E+00  0.00000000000E+00  0.12525980253E-10  0.17130000000E+03  0.17130000000E+03 0.  1.
       11    1    1    2    0    0  0.51711229005E-01 -0.12317928427E-02  0.19985120673E-01  0.55454799523E-01  0.51109989000E-03 0.  1.
     -623    1    1    2    0    0 -0.74568107819E-01  0.98020380111E-01  0.14090819394E+00  0.17130010223E+03  0.17130000000E+03 0.  1.
      622    1    1    2    0    0  0.22856878815E-01 -0.96788587269E-01  0.38391066527E+01  0.39444429719E+01  0.90000000000E+00 0.  1.
</event>
<event>
 5   0  0.4857400E+02  0.9118800E+02  0.7818608E-02  0.1180000E+00
       11   -1    0    0    0    0  0.00000000000E+00  0.00000000000E+00  0.39999999673E+01  0.40000000000E+01  0.51109989000E-03 0.  1.
     -623   -1    0    0    0    0  0.00000000000E+00  0.00000000000E+00  0.12525980253E-10  0.17130000000E+03  0.17130000000E+03 0.  1.
       11    1    1    2    0    0  0.25854203593E-01  0.73926769426E-02  0.95987850517E-02  0.28556775235E-01  0.51109989000E-03 0.  1.
     -623    1    1    2    0    0 -0.70931015471E-01 -0.14365319183E+00  0.12506746651E+00  0.17130012058E+03  0.17130000000E+03 0.  1.
      622    1    1    2    0    0  0.45076811878E-01  0.13626051488E+00  0.38653337158E+01  0.39713226489E+01  0.90000000000E+00 0.  1.
</event>
<event>
 5   0  0.4857400E+02  0.9118800E+02  0.7818608E-02  0.1180000E+00
       11   -1    0    0    0    0  0.00000000000E+00  0.00000000000E+00  0.39999999673E+01  0.40000000000E+01  0.51109989000E-03 0. -1.
     -623   -1    0    0    0    0  0.00000000000E+00  0.00000000000E+00  0.12525980253E-10  0.17130000000E+03  0.17130000000E+03 0.  1.
       11    1    1    2    0    0 -0.27460656589E+00  0.14744839175E+00  0.39313150954E+00  0.50169955080E+00  0.51109989000E-03 0. -1.
     -623    1    1    2    0    0  0.19665615295E+00  0.33244534778E+00  0.26212899064E+00  0.17130063603E+03  0.17130000000E+03 0.  1.
      622    1    1    2    0    0  0.77950412939E-01 -0.47989373953E+00  0.33447394672E+01  0.34976644166E+01  0.90000000000E+00 0.  1.
</event>
<event>
 5   0  0.4857400E+02  0.9118800E+02  0.7818608E-02  0.1180000E+00
       11   -1    0    0    0    0  0.00000000000E+00  0.00000000000E+00  0.39999999673E+01  0.40000000000E+01  0.51109989000E-03 0. -1.
     -623   -1    0    0    0    0  0.00000000000E+00  0.00000000000E+00  0.12525980253E-10  0.17130000000E+03  0.17130000000E+03 0.  1.
       11    1    1    2    0    0  0.29186607296E-01 -0.66820667507E-01  0.44280411520E+00  0.44876787464E+00  0.51109989000E-03 0. -1.
     -623    1    1    2    0    0  0.18688731322E-01  0.87669971890E-01  0.12236749137E+00  0.17130006716E+03  0.17130000000E+03 0.  1.
      622    1    1    2    0    0 -0.47875338618E-01 -0.20849304383E-01  0.34348283608E+01  0.35511649651E+01  0.90000000000E+00 0. -1.
</event>
<event>
 5   0  0.4857400E+02  0.9118800E+02  0.7818608E-02  0.1180000E+00
       11   -1    0    0    0    0  0.00000000000E+00  0.00000000000E+00  0.39999999673E+01  0.40000000000E+01  0.51109989000E-03 0.  1.
     -623   -1    0    0    0    0  0.00000000000E+00  0.00000000000E+00  0.12525980253E-10  0.17130000000E+03  0.17130000000E+03 0.  1.
       11    1    1    2    0    0  0.96973009927E-01  0.33517070021E-01  0.41114731001E+00  0.42375645173E+00  0.51109989000E-03 0.  1.
     -623    1    1    2    0    0 -0.27529646654E+00  0.18910918986E+00  0.13987903782E+00  0.17130038271E+03  0.17130000000E+03 0.  1.
      622    1    1    2    0    0  0.17832345662E+00 -0.22262625988E+00  0.34489736195E+01  0.35758608383E+01  0.90000000000E+00 0.  1.
</event>
<event>
 5   0  0.4857400E+02  0.9118800E+02  0.7818608E-02  0.1180000E+00
       11   -1    0    0    0    0  0.00000000000E+00  0.00000000000E+00  0.39999999673E+01  0.40000000000E+01  0.51109989000E-03 0. -1.
     -623   -1    0    0    0    0  0.00000000000E+00  0.00000000000E+00  0.12525980253E-10  0.17130000000E+03  0.17130000000E+03 0.  1.
       11    1    1    2    0    0 -0.26059341593E+00  0.66869211818E-01  0.83829051984E+00  0.88040426896E+00  0.51109989000E-03 0. -1.
     -623    1    1    2    0    0 -0.97254646858E-01  0.16762845552E+00  0.20580385548E+00  0.17130023325E+03  0.17130000000E+03 0.  1.
      622    1    1    2    0    0  0.35784806279E+00 -0.23449766733E+00  0.29559055920E+01  0.31193624767E+01  0.90000000000E+00 0. -1.
</event>
<event>
 5   0  0.4857400E+02  0.9118800E+02  0.7818608E-02  0.1180000E+00
       11   -1    0    0    0    0  0.00000000000E+00  0.00000000000E+00  0.39999999673E+01  0.40000000000E+01  0.51109989000E-03 0.  1.
     -623   -1    0    0    0    0  0.00000000000E+00  0.00000000000E+00  0.12525980253E-10  0.17130000000E+03  0.17130000000E+03 0. -1.
       11    1    1    2    0    0 -0.39765237062E-01  0.18519838331E-01  0.11079256738E-01  0.45246763899E-01  0.51109989000E-03 0.  1.
     -623    1    1    2    0    0  0.11017512338E-01 -0.26019396781E-01  0.13811148650E+00  0.17130005801E+03  0.17130000000E+03 0. -1.
      622    1    1    2    0    0  0.28747724724E-01  0.74995584497E-02  0.38508092241E+01  0.39546952292E+01  0.90000000000E+00 0.  1.
</event>
<event>
 5   0  0.4857400E+02  0.9118800E+02  0.7818608E-02  0.1180000E+00
       11   -1    0    0    0    0  0.00000000000E+00  0.00000000000E+00  0.39999999673E+01  0.40000000000E+01  0.51109989000E-03 0. -1.
     -623   -1    0    0    0    0  0.00000000000E+00  0.00000000000E+00  0.12525980253E-10  0.17130000000E+03  0.17130000000E+03 0. -1.
       11    1    1    2    0    0  0.19432318977E+00  0.12903563570E-01  0.20150197767E+00  0.28023438808E+00  0.51109989000E-03 0. -1.
     -623    1    1    2    0    0 -0.42749300103E-01  0.24421593649E+00  0.20192308520E+00  0.17130029843E+03  0.17130000000E+03 0. -1.
      622    1    1    2    0    0 -0.15157388967E+00 -0.25711950006E+00  0.35965749045E+01  0.37194671829E+01  0.90000000000E+00 0. -1.
</event>
<event>
 5   0  0.4857400E+02  0.9118800E+02  0.7818608E-02  0.1180000E+00
       11   -1    0    0    0    0  0.00000000000E+00  0.00000000000E+00  0.39999999673E+01  0.40000000000E+01  0.51109989000E-03 0. -1.
     -623   -1    0    0    0    0  0.00000000000E+00  0.00000000000E+00  0.12525980253E-10  0.17130000000E+03  0.17130000000E+03 0.  1.
       11    1    1    2    0    0  0.39792749512E-01  0.34347022357E-01  0.11184782298E+00  0.12358550719E+00  0.51109989000E-03 0. -1.
     -623    1    1    2    0    0 -0.11262531626E+00  0.30967772573E-01  0.11901571293E+00  0.17130008117E+03  0.17130000000E+03 0.  1.
      622    1    1    2    0    0  0.72832566751E-01 -0.65314794930E-01  0.37691364315E+01  0.38763333247E+01  0.90000000000E+00 0. -1.
</event>
<event>
 5   0  0.4857400E+02  0.9118800E+02  0.7818608E-02  0.1180000E+00
       11   -1    0    0    0    0  0.00000000000E+00  0.00000000000E+00  0.39999999673E+01  0.40000000000E+01  0.51109989000E-03 0.  1.
     -623   -1    0    0    0    0  0.00000000000E+00  0.00000000000E+00  0.12525980253E-10  0.17130000000E+03  0.17130000000E+03 0. -1.
       11    1    1    2    0    0  0.10689364745E+00 -0.25556047945E-01  0.57253533657E-01  0.12392575112E+00  0.51109989000E-03 0.  1.
     -623    1    1    2    0    0 -0.96258446198E-01 -0.57613624424E-01  0.17366775623E+00  0.17130012477E+03  0.17130000000E+03 0. -1.
      622    1    1    2    0    0 -0.10635201248E-01  0.83169672369E-01  0.37690786775E+01  0.38759494810E+01  0.90000000000E+00 0.  1.
</event>
<event>
 5   0  0.4857400E+02  0.9118800E+02  0.7818608E-02  0.1180000E+00
       11   -1    0    0    0    0  0.00000000000E+00  0.00000000000E+00  0.39999999673E+01  0.40000000000E+01  0.51109989000E-03 0.  1.
     -623   -1    0    0    0    0  0.00000000000E+00  0.00000000000E+00  0.12525980253E-10  0.17130000000E+03  0.17130000000E+03 0. -1.
       11    1    1    2    0    0  0.16064996245E+00  0.20485367041E+00  0.42286011639E+00  0.49657262910E+00  0.51109989000E-03 0.  1.
     -623    1    1    2    0    0 -0.15720935842E+00  0.15940252432E+00  0.21122669521E+00  0.17130027653E+03  0.17130000000E+03 0. -1.
      622    1    1    2    0    0 -0.34406040314E-02 -0.36425619473E+00  0.33659131558E+01  0.35031508368E+01  0.90000000000E+00 0.  1.
</event>
<event>
 5   0  0.4857400E+02  0.9118800E+02  0.7818608E-02  0.1180000E+00
       11   -1    0    0    0    0  0.00000000000E+00  0.00000000000E+00  0.39999999673E+01  0.40000000000E+01  0.51109989000E-03 0. -1.
     -623   -1    0    0    0    0  0.00000000000E+00  0.00000000000E+00  0.12525980253E-10  0.17130000000E+03  0.17130000000E+03 0. -1.
       11    1    1    2    0    0 -0.26006579450E+00  0.23466962980E-01  0.68609325489E+00  0.73410430557E+00  0.51109989000E-03 0. -1.
     -623    1    1    2    0    0  0.12781235807E+00 -0.12655133726E+00  0.17914536435E+00  0.17130018810E+03  0.17130000000E+03 0. -1.
      622    1    1    2    0    0  0.13225343643E+00  0.10308437428E+00  0.31347613481E+01  0.32657075909E+01  0.90000000000E+00 0. -1.
</event>
<event>
 5   0  0.4857400E+02  0.9118800E+02  0.7818608E-02  0.1180000E+00
       11   -1    0    0    0    0  0.00000000000E+00  0.00000000000E+00  0.39999999673E+01  0.40000000000E+01  0.51109989000E-03 0.  1.
     -623   -1    0    0    0    0  0.00000000000E+00  0.00000000000E+00  0.12525980253E-10  0.17130000000E+03  0.17130000000E+03 0. -1.
       11    1    1    2    0    0  0.61533983888E-01 -0.28349325432E-01  0.58895350787E-01  0.89772150420E-01  0.51109989000E-03 0.  1.
     -623    1    1    2    0    0 -0.82622772674E-01  0.11776096965E+00  0.13708814692E+00  0.17130011526E+03  0.17130000000E+03 0. -1.
      622    1    1    2    0    0  0.21088788786E-01 -0.89411644214E-01  0.38040164697E+01  0.39101125918E+01  0.90000000000E+00 0.  1.
</event>
<event>
 5   0  0.4857400E+02  0.9118800E+02  0.7818608E-02  0.1180000E+00
       11   -1    0    0    0    0  0.00000000000E+00  0.00000000000E+00  0.39999999673E+01  0.40000000000E+01  0.51109989000E-03 0.  1.
     -623   -1    0    0    0    0  0.00000000000E+00  0.00000000000E+00  0.12525980253E-10  0.17130000000E+03  0.17130000000E+03 0.  1.
       11    1    1    2    0    0 -0.92229827249E-02 -0.85378061154E-01  0.65694708144E-01  0.10812276651E+00  0.51109989000E-03 0.  1.
     -623    1    1    2    0    0 -0.82148185523E-01  0.22828509829E+00  0.15196797655E+00  0.17130023922E+03  0.17130000000E+03 0.  1.
      622    1    1    2    0    0  0.91371168248E-01 -0.14290703713E+00  0.37823372827E+01  0.38916380139E+01  0.90000000000E+00 0.  1.
</event>
<event>
 5   0  0.4857400E+02  0.9118800E+02  0.7818608E-02  0.1180000E+00
       11   -1    0    0    0    0  0.00000000000E+00  0.00000000000E+00  0.39999999673E+01  0.40000000000E+01  0.51109989000E-03 0. -1.
     -623   -1    0    0    0    0  0.00000000000E+00  0.00000000000E+00  0.12525980253E-10  0.17130000000E+03  0.17130000000E+03 0.  1.
       11    1    1    2    0    0  0.17996462592E-02 -0.62240614933E-01  0.10283237826E+00  0.12021602271E+00  0.51109989000E-03 0. -1.
     -623    1    1    2    0    0  0.79515725796E-01 -0.12967137715E+00  0.12909383324E+00  0.17130011618E+03  0.17130000000E+03 0.  1.
      622    1    1    2    0    0 -0.81315372055E-01  0.19191199208E+00  0.37680737559E+01  0.38796677992E+01  0.90000000000E+00 0.  0.
</event>
<event>
 5   0  0.4857400E+02  0.9118800E+02  0.7818608E-02  0.1180000E+00
       11   -1    0    0    0    0  0.00000000000E+00  0.00000000000E+00  0.39999999673E+01  0.40000000000E+01  0.51109989000E-03 0. -1.
     -623   -1    0    0    0    0  0.00000000000E+00  0.00000000000E+00  0.12525980253E-10  0.17130000000E+03  0.17130000000E+03 0. -1.
       11    1    1    2    0    0  0.59546595763E-01 -0.63329831430E-02  0.10622009750E-02  0.59894016700E-01  0.51109989000E-03 0. -1.
     -623    1    1    2    0    0  0.60943712000E-01  0.90520962972E-01  0.16593340586E+00  0.17130011513E+03  0.17130000000E+03 0. -1.
      622    1    1    2    0    0 -0.12049030776E+00 -0.84187979829E-01  0.38330043605E+01  0.39399908576E+01  0.90000000000E+00 0. -1.
</event>
<event>
 5   0  0.4857400E+02  0.9118800E+02  0.7818608E-02  0.1180000E+00
       11   -1    0    0    0    0  0.00000000000E+00  0.00000000000E+00  0.39999999673E+01  0.40000000000E+01  0.51109989000E-03 0.  1.
     -623   -1    0    0    0    0  0.00000000000E+00  0.00000000000E+00  0.12525980253E-10  0.17130000000E+03  0.17130000000E+03 0. -1.
       11    1    1    2    0    0  0.14876085995E-01 -0.68452516882E-01  0.58206999129E-01  0.91078872263E-01  0.51109989000E-03 0.  1.
     -623    1    1    2    0    0  0.34259807240E-01  0.90791445155E-01  0.13836039993E+00  0.17130008336E+03  0.17130000000E+03 0. -1.
      622    1    1    2    0    0 -0.49135893235E-01 -0.22338928273E-01  0.38034325683E+01  0.39088377640E+01  0.90000000000E+00 0.  1.
</event>
<event>
 5   0  0.4857400E+02  0.9118800E+02  0.7818608E-02  0.1180000E+00
       11   -1    0    0    0    0  0.00000000000E+00  0.00000000000E+00  0.39999999673E+01  0.40000000000E+01  0.51109989000E-03 0.  1.
     -623   -1    0    0    0    0  0.00000000000E+00  0.00000000000E+00  0.12525980253E-10  0.17130000000E+03  0.17130000000E+03 0.  1.
       11    1    1    2    0    0 -0.33473412542E+00 -0.92910636218E-01  0.84248212397E+00  0.91129342776E+00  0.51109989000E-03 0.  1.
     -623    1    1    2    0    0  0.29205716491E+00 -0.18307030326E+00  0.21657689296E+00  0.17130048371E+03  0.17130000000E+03 0.  1.
      622    1    1    2    0    0  0.42676960511E-01  0.27598093948E+00  0.29409409504E+01  0.30882228669E+01  0.90000000000E+00 0.  1.
</event>
<event>
 5   0  0.4857400E+02  0.9118800E+02  0.7818608E-02  0.1180000E+00
       11   -1    0    0    0    0  0.00000000000E+00  0.00000000000E+00  0.39999999673E+01  0.40000000000E+01  0.51109989000E-03 0.  1.
     -623   -1    0    0    0    0  0.00000000000E+00  0.00000000000E+00  0.12525980253E-10  0.17130000000E+03  0.17130000000E+03 0.  1.
       11    1    1    2    0    0 -0.10457745268E+00 -0.22197550767E+00  0.50412968773E+00  0.56067510457E+00  0.51109989000E-03 0.  1.
     -623    1    1    2    0    0  0.15920166451E-01  0.89110106294E-01  0.18035752959E+00  0.17130011886E+03  0.17130000000E+03 0.  1.
      622    1    1    2    0    0  0.88657286234E-01  0.13286540138E+00  0.33155127500E+01  0.34392060312E+01  0.90000000000E+00 0.  0.
</event>
<event>
 5   0  0.4857400E+02  0.9118800E+02  0.7818608E-02  0.1180000E+00
       11   -1    0    0    0    0  0.00000000000E+00  0.00000000000E+00  0.39999999673E+01  0.40000000000E+01  0.51109989000E-03 0.  1.
     -623   -1    0    0    0    0  0.00000000000E+00  0.00000000000E+00  0.12525980253E-10  0.17130000000E+03  0.17130000000E+03 0. -1.
       11    1    1    2    0    0 -0.22627788713E+00 -0.61383769027E-01  0.37256223074E+00  0.44019600896E+00  0.51109989000E-03 0.  1.
     -623    1    1    2    0    0  0.10655088725E+00  0.37508558565E-01  0.18558954800E+00  0.17130013778E+03  0.17130000000E+03 0. -1.
      622    1    1    2    0    0  0.11972699989E+00  0.23875210462E-01  0.34418481886E+01  0.35596662110E+01  0.90000000000E+00 0.  1.
</event>
<event>
 5   0  0.4857400E+02  0.9118800E+02  0.7818608E-02  0.1180000E+00
       11   -1    0    0    0    0  0.00000000000E+00  0.00000000000E+00  0.39999999673E+01  0.40000000000E+01  0.51109989000E-03 0.  1.
     -623   -1    0    0    0    0  0.00000000000E+00  0.00000000000E+00  0.12525980253E-10  0.17130000000E+03  0.17130000000E+03 0.  1.
       11    1    1    2    0    0 -0.38122610957E-01 -0.14046285814E+00  0.21628074121E+00  0.26069286185E+00  0.51109989000E-03 0.  1.
     -623    1    1    2    0    0  0.18615726326E+00  0.89739040826E-01  0.15791529739E+00  0.17130019745E+03  0.17130000000E+03 0.  1.
      622    1    1    2    0    0 -0.14803465231E+00  0.50723817313E-01  0.36258039288E+01  0.37391096927E+01  0.90000000000E+00 0.  1.
</event>
<event>
 5   0  0.4857400E+02  0.9118800E+02  0.7818608E-02  0.1180000E+00
       11   -1    0    0    0    0  0.00000000000E+00  0.00000000000E+00  0.39999999673E+01  0.40000000000E+01  0.51109989000E-03 0. -1.
     -623   -1    0    0    0    0  0.00000000000E+00  0.00000000000E+00  0.12525980253E-10  0.17130000000E+03  0.17130000000E+03 0. -1.
       11    1    1    2    0    0  0.82588448218E-01 -0.28269049892E-02  0.86399156622E-01  0.11955717736E+00  0.51109989000E-03 0. -1.
     -623    1    1    2    0    0 -0.17223228970E+00  0.16236515178E-01  0.14020745400E+00  0.17130014473E+03  0.17130000000E+03 0. -1.
      622    1    1    2    0    0  0.89643841482E-01 -0.13409610188E-01  0.37733933567E+01  0.38802980891E+01  0.90000000000E+00 0. -1.
</event>
<event>
 5   0  0.4857400E+02  0.9118800E+02  0.7818608E-02  0.1180000E+00
       11   -1    0    0    0    0  0.00000000000E+00  0.00000000000E+00  0.39999999673E+01  0.40000000000E+01  0.51109989000E-03 0. -1.
     -623   -1    0    0    0    0  0.00000000000E+00  0.00000000000E+00  0.12525980253E-10  0.17130000000E+03  0.17130000000E+03 0. -1.
       11    1    1    2    0    0 -0.28795706433E+00 -0.16196680357E+00 -0.19632154641E+00  0.38431097716E+00  0.51109989000E-03 0. -1.
     -623    1    1    2    0    0  0.34234299704E+00 -0.10231096537E-01  0.70093107945E+00  0.17130177643E+03  0.17130000000E+03 0. -1.
      622    1    1    2    0    0 -0.54385932709E-01  0.17219790011E+00  0.34953904343E+01  0.36139125937E+01  0.90000000000E+00 0. -1.
</event>
<event>
 5   0  0.4857400E+02  0.9118800E+02  0.7818608E-02  0.1180000E+00
       11   -1    0    0    0    0  0.00000000000E+00  0.00000000000E+00  0.39999999673E+01  0.40000000000E+01  0.51109989000E-03 0. -1.
     -623   -1    0    0    0    0  0.00000000000E+00  0.00000000000E+00  0.12525980253E-10  0.17130000000E+03  0.17130000000E+03 0. -1.
       11    1    1    2    0    0 -0.58018335349E-01 -0.41221591633E-01  0.39752553652E+00  0.40384670392E+00  0.51109989000E-03 0. -1.
     -623    1    1    2    0    0 -0.46328715195E-01  0.27689884545E+00  0.13060551680E+00  0.17130027985E+03  0.17130000000E+03 0. -1.
      622    1    1    2    0    0  0.10434705054E+00 -0.23567725382E+00  0.34718689140E+01  0.35958734448E+01  0.90000000000E+00 0. -1.
</event>
<event>
 5   0  0.4857400E+02  0.9118800E+02  0.7818608E-02  0.1180000E+00
       11   -1    0    0    0    0  0.00000000000E+00  0.00000000000E+00  0.39999999673E+01  0.40000000000E+01  0.51109989000E-03 0.  1.
     -623   -1    0    0    0    0  0.00000000000E+00  0.00000000000E+00  0.12525980253E-10  0.17130000000E+03  0.17130000000E+03 0. -1.
       11    1    1    2    0    0  0.11024029111E-01  0.76747490635E-01  0.77255493998E-04  0.77536918484E-01  0.51109989000E-03 0.  1.
     -623    1    1    2    0    0 -0.19430524402E+00  0.79719958678E-01  0.18996125644E+00  0.17130023408E+03  0.17130000000E+03 0. -1.
      622    1    1    2    0    0  0.18328121491E+00 -0.15646744931E+00  0.38099614554E+01  0.39222290038E+01  0.90000000000E+00 0.  1.
</event>
<event>
 5   0  0.4857400E+02  0.9118800E+02  0.7818608E-02  0.1180000E+00
       11   -1    0    0    0    0  0.00000000000E+00  0.00000000000E+00  0.39999999673E+01  0.40000000000E+01  0.51109989000E-03 0. -1.
     -623   -1    0    0    0    0  0.00000000000E+00  0.00000000000E+00  0.12525980253E-10  0.17130000000E+03  0.17130000000E+03 0.  1.
       11    1    1    2    0    0 -0.27054342118E-02  0.42502718816E-01  0.63874784047E-02  0.43068104027E-01  0.51109989000E-03 0. -1.
     -623    1    1    2    0    0  0.98911779805E-01 -0.21928953249E-01  0.14173892812E+00  0.17130008860E+03  0.17130000000E+03 0.  1.
      622    1    1    2    0    0 -0.96206345593E-01 -0.20573765567E-01  0.38518735608E+01  0.39568432960E+01  0.90000000000E+00 0. -1.
</event>
<event>
 5   0  0.4857400E+02  0.9118800E+02  0.7818608E-02  0.1180000E+00
       11   -1    0    0    0    0  0.00000000000E+00  0.00000000000E+00  0.39999999673E+01  0.40000000000E+01  0.51109989000E-03 0. -1.
     -623   -1    0    0    0    0  0.00000000000E+00  0.00000000000E+00  0.12525980253E-10  0.17130000000E+03  0.17130000000E+03 0. -1.
       11    1    1    2    0    0 -0.51564870282E-01 -0.22669972680E-01  0.92315048449E-02  0.57081918445E-01  0.51109989000E-03 0. -1.
     -623    1    1    2    0    0 -0.42579676703E-01  0.40681144225E-01  0.15321778181E+00  0.17130007864E+03  0.17130000000E+03 0. -1.
      622    1    1    2    0    0  0.94144546985E-01 -0.18011171545E-01  0.38375506807E+01  0.39428394369E+01  0.90000000000E+00 0. -1.
</event>
<event>
 5   0  0.4857400E+02  0.9118800E+02  0.7818608E-02  0.1180000E+00
       11   -1    0    0    0    0  0.00000000000E+00  0.00000000000E+00  0.39999999673E+01  0.40000000000E+01  0.51109989000E-03 0.  1.
     -623   -1    0    0    0    0  0.00000000000E+00  0.00000000000E+00  0.12525980253E-10  0.17130000000E+03  0.17130000000E+03 0. -1.
       11    1    1    2    0    0 -0.95702764543E-02 -0.66774611685E-02  0.74785612460E-02  0.13869707296E-01  0.51109989000E-03 0.  1.
     -623    1    1    2    0    0 -0.20911854097E-01 -0.47606299412E-01  0.10986573856E+00  0.17130004312E+03  0.17130000000E+03 0. -1.
      622    1    1    2    0    0  0.30482130551E-01  0.54283760580E-01  0.38826556676E+01  0.39860871691E+01  0.90000000000E+00 0.  1.
</event>
<event>
 5   0  0.4857400E+02  0.9118800E+02  0.7818608E-02  0.1180000E+00
       11   -1    0    0    0    0  0.00000000000E+00  0.00000000000E+00  0.39999999673E+01  0.40000000000E+01  0.51109989000E-03 0. -1.
     -623   -1    0    0    0    0  0.00000000000E+00  0.00000000000E+00  0.12525980253E-10  0.17130000000E+03  0.17130000000E+03 0. -1.
       11    1    1    2    0    0 -0.40189295263E-01 -0.49362167265E+00  0.75770960355E+00  0.90520806431E+00  0.51109989000E-03 0. -1.
     -623    1    1    2    0    0 -0.13129709078E+00  0.30276510055E+00  0.29298786393E+00  0.17130056844E+03  0.17130000000E+03 0. -1.
      622    1    1    2    0    0  0.17148638604E+00  0.19085657210E+00  0.29493024999E+01  0.30942234967E+01  0.90000000000E+00 0. -1.
</event>
<event>
 5   0  0.4857400E+02  0.9118800E+02  0.7818608E-02  0.1180000E+00
       11   -1    0    0    0    0  0.00000000000E+00  0.00000000000E+00  0.39999999673E+01  0.40000000000E+01  0.51109989000E-03 0. -1.
     -623   -1    0    0    0    0  0.00000000000E+00  0.00000000000E+00  0.12525980253E-10  0.17130000000E+03  0.17130000000E+03 0. -1.
       11    1    1    2    0    0  0.24687239259E+00 -0.11763290773E+00  0.94043327338E-01  0.28918486794E+00  0.51109989000E-03 0. -1.
     -623    1    1    2    0    0 -0.19503176543E+00  0.90306892858E-02  0.30834885386E+00  0.17130038879E+03  0.17130000000E+03 0. -1.
      622    1    1    2    0    0 -0.51840627163E-01  0.10860221844E+00  0.35976077862E+01  0.37104263469E+01  0.90000000000E+00 0. -1.
</event>
<event>
 5   0  0.4857400E+02  0.9118800E+02  0.7818608E-02  0.1180000E+00
       11   -1    0    0    0    0  0.00000000000E+00  0.00000000000E+00  0.39999999673E+01  0.40000000000E+01  0.51109989000E-03 0. -1.
     -623   -1    0    0    0    0  0.00000000000E+00  0.00000000000E+00  0.12525980253E-10  0.17130000000E+03  0.17130000000E+03 0.  1.
       11    1    1    2    0    0  0.58434389903E-01 -0.53392139005E-01  0.62049070531E-01  0.10057657186E+00  0.51109989000E-03 0. -1.
     -623    1    1    2    0    0  0.57271297884E-02  0.13720755512E+00  0.14539887699E+00  0.17130011675E+03  0.17130000000E+03 0.  1.
      622    1    1    2    0    0 -0.64161519691E-01 -0.83815416115E-01  0.37925520198E+01  0.38993066753E+01  0.90000000000E+00 0. -1.
</event>
<event>
 5   0  0.4857400E+02  0.9118800E+02  0.7818608E-02  0.1180000E+00
       11   -1    0    0    0    0  0.00000000000E+00  0.00000000000E+00  0.39999999673E+01  0.40000000000E+01  0.51109989000E-03 0. -1.
     -623   -1    0    0    0    0  0.00000000000E+00  0.00000000000E+00  0.12525980253E-10  0.17130000000E+03  0.17130000000E+03 0. -1.
       11    1    1    2    0    0  0.45874610381E-01  0.12378339304E-01  0.75644787782E-01  0.89331395955E-01  0.51109989000E-03 0. -1.
     -623    1    1    2    0    0 -0.58990831923E-02 -0.10642325728E+00  0.12010784856E+00  0.17130007527E+03  0.17130000000E+03 0. -1.
      622    1    1    2    0    0 -0.39975527188E-01  0.94044917974E-01  0.38042473310E+01  0.39105933367E+01  0.90000000000E+00 0. -1.
</event>
<event>
 5   0  0.4857400E+02  0.9118800E+02  0.7818608E-02  0.1180000E+00
       11   -1    0    0    0    0  0.00000000000E+00  0.00000000000E+00  0.39999999673E+01  0.40000000000E+01  0.51109989000E-03 0.  1.
     -623   -1    0    0    0    0  0.00000000000E+00  0.00000000000E+00  0.12525980253E-10  0.17130000000E+03  0.17130000000E+03 0. -1.
       11    1    1    2    0    0 -0.98833165847E-01  0.10376905602E-01  0.15766577967E+00  0.18637176326E+00  0.51109989000E-03 0.  1.
     -623    1    1    2    0    0  0.11354827044E+00  0.51855975218E-01  0.13708040087E+00  0.17130010033E+03  0.17130000000E+03 0. -1.
      622    1    1    2    0    0 -0.14715104591E-01 -0.62232880820E-01  0.37052537868E+01  0.38135279061E+01  0.90000000000E+00 0.  1.
</event>
<event>
 5   0  0.4857400E+02  0.9118800E+02  0.7818608E-02  0.1180000E+00
       11   -1    0    0    0    0  0.00000000000E+00  0.00000000000E+00  0.39999999673E+01  0.40000000000E+01  0.51109989000E-03 0.  1.
     -623   -1    0    0    0    0  0.00000000000E+00  0.00000000000E+00  0.12525980253E-10  0.17130000000E+03  0.17130000000E+03 0.  1.
       11    1    1    2    0    0 -0.21148829256E-01  0.11808170690E+00  0.16468946057E+00  0.20374847761E+00  0.51109989000E-03 0.  1.
     -623    1    1    2    0    0 -0.17270645453E+00 -0.12235051239E+00  0.15259156716E+00  0.17130019872E+03  0.17130000000E+03 0.  1.
      622    1    1    2    0    0  0.19385528379E+00  0.42688054867E-02  0.36827189396E+01  0.37960528029E+01  0.90000000000E+00 0.  1.
</event>
<event>
 5   0  0.4857400E+02  0.9118800E+02  0.7818608E-02  0.1180000E+00
       11   -1    0    0    0    0  0.00000000000E+00  0.00000000000E+00  0.39999999673E+01  0.40000000000E+01  0.51109989000E-03 0. -1.
     -623   -1    0    0    0    0  0.00000000000E+00  0.00000000000E+00  0.12525980253E-10  0.17130000000E+03  0.17130000000E+03 0. -1.
       11    1    1    2    0    0 -0.38992755263E-01 -0.34519250912E-02  0.25074123430E-01  0.46490038032E-01  0.51109989000E-03 0. -1.
     -623    1    1    2    0    0 -0.25686101067E-01 -0.22669945391E+00  0.13285878011E+00  0.17130020346E+03  0.17130000000E+03 0. -1.
      622    1    1    2    0    0  0.64678856330E-01  0.23015137900E+00  0.38420670638E+01  0.39533065065E+01  0.90000000000E+00 0. -1.
</event>
<event>
 5   0  0.4857400E+02  0.9118800E+02  0.7818608E-02  0.1180000E+00
       11   -1    0    0    0    0  0.00000000000E+00  0.00000000000E+00  0.39999999673E+01  0.40000000000E+01  0.51109989000E-03 0.  1.
     -623   -1    0    0    0    0  0.00000000000E+00  0.00000000000E+00  0.12525980253E-10  0.17130000000E+03  0.17130000000E+03 0.  1.
       11    1    1    2    0    0 -0.11807319786E+00 -0.99804720804E-02  0.54412120027E-01  0.13039106528E+00  0.51109989000E-03 0.  1.
     -623    1    1    2    0    0  0.30009670350E-02  0.16098664503E-01  0.18396270337E+00  0.17130009956E+03  0.17130000000E+03 0.  1.
      622    1    1    2    0    0  0.11507223083E+00 -0.61181924228E-02  0.37616251440E+01  0.38695093713E+01  0.90000000000E+00 0.  1.
</event>
<event>
 5   0  0.4857400E+02  0.9118800E+02  0.7818608E-02  0.1180000E+00
       11   -1    0    0    0    0  0.00000000000E+00  0.00000000000E+00  0.39999999673E+01  0.40000000000E+01  0.51109989000E-03 0.  1.
     -623   -1    0    0    0    0  0.00000000000E+00  0.00000000000E+00  0.12525980253E-10  0.17130000000E+03  0.17130000000E+03 0. -1.
       11    1    1    2    0    0 -0.16326962093E+00  0.34917872921E+00  0.94544931008E+00  0.10210080378E+01  0.51109989000E-03 0.  1.
     -623    1    1    2    0    0  0.14750989447E-01 -0.58838507629E-01  0.23373093999E+00  0.17130017020E+03  0.17130000000E+03 0. -1.
      622    1    1    2    0    0  0.14851863149E+00 -0.29034022158E+00  0.28208197173E+01  0.29788217647E+01  0.90000000000E+00 0.  0.
</event>
<event>
 5   0  0.4857400E+02  0.9118800E+02  0.7818608E-02  0.1180000E+00
       11   -1    0    0    0    0  0.00000000000E+00  0.00000000000E+00  0.39999999673E+01  0.40000000000E+01  0.51109989000E-03 0.  1.
     -623   -1    0    0    0    0  0.00000000000E+00  0.00000000000E+00  0.12525980253E-10  0.17130000000E+03  0.17130000000E+03 0. -1.
       11    1    1    2    0    0 -0.51698980370E-01  0.83101811158E-02  0.40343499206E-01  0.66103727828E-01  0.51109989000E-03 0.  1.
     -623    1    1    2    0    0  0.59059068615E-01 -0.36281326252E-01  0.13026966629E+00  0.17130006356E+03  0.17130000000E+03 0. -1.
      622    1    1    2    0    0 -0.73600882444E-02  0.27971145136E-01  0.38293868019E+01  0.39338327156E+01  0.90000000000E+00 0.  1.
</event>
<event>
 5   0  0.4857400E+02  0.9118800E+02  0.7818608E-02  0.1180000E+00
       11   -1    0    0    0    0  0.00000000000E+00  0.00000000000E+00  0.39999999673E+01  0.40000000000E+01  0.51109989000E-03 0. -1.
     -623   -1    0    0    0    0  0.00000000000E+00  0.00000000000E+00  0.12525980253E-10  0.17130000000E+03  0.17130000000E+03 0. -1.
       11    1    1    2    0    0 -0.85603225968E-03  0.28988739778E-01 -0.16966750743E-01  0.33603745015E-01  0.51109989000E-03 0. -1.
     -623    1    1    2    0    0 -0.15031133008E-01 -0.39023514436E-02  0.15421364774E+00  0.17130007012E+03  0.17130000000E+03 0. -1.
      622    1    1    2    0    0  0.15887165268E-01 -0.25086388335E-01  0.38627530704E+01  0.39663261353E+01  0.90000000000E+00 0. -1.
</event>
<event>
 5   0  0.4857400E+02  0.9118800E+02  0.7818608E-02  0.1180000E+00
       11   -1    0    0    0    0  0.00000000000E+00  0.00000000000E+00  0.39999999673E+01  0.40000000000E+01  0.51109989000E-03 0. -1.
     -623   -1    0    0    0    0  0.00000000000E+00  0.00000000000E+00  0.12525980253E-10  0.17130000000E+03  0.17130000000E+03 0.  1.
       11    1    1    2    0    0 -0.35144451176E-01 -0.30637911608E+00  0.87897982722E+00  0.93150904081E+00  0.51109989000E-03 0. -1.
     -623    1    1    2    0    0 -0.11044702487E+00 -0.18215789906E+00  0.23242342233E+00  0.17130029014E+03  0.17130000000E+03 0.  1.
      622    1    1    2    0    0  0.14559147604E+00  0.48853701515E+00  0.28885967178E+01  0.30682008231E+01  0.90000000000E+00 0. -1.
</event>
<event>
 5   0  0.4857400E+02  0.9118800E+02  0.7818608E-02  0.1180000E+00
       11   -1    0    0    0    0  0.00000000000E+00  0.00000000000E+00  0.39999999673E+01  0.40000000000E+01  0.51109989000E-03 0.  1.
     -623   -1    0    0    0    0  0.00000000000E+00  0.00000000000E+00  0.12525980253E-10  0.17130000000E+03  0.17130000000E+03 0.  1.
       11    1    1    2    0    0  0.40840875086E-02 -0.10230173805E+00  0.25728537529E+00  0.27690856061E+00  0.51109989000E-03 0.  1.
     -623    1    1    2    0    0 -0.20210442332E-01  0.26489015708E-01  0.13092756315E+00  0.17130005328E+03  0.17130000000E+03 0.  1.
      622    1    1    2    0    0  0.16126354824E-01  0.75812722342E-01  0.36117870289E+01  0.37230381640E+01  0.90000000000E+00 0.  1.
</event>
<event>
 5   0  0.4857400E+02  0.9118800E+02  0.7818608E-02  0.1180000E+00
       11   -1    0    0    0    0  0.00000000000E+00  0.00000000000E+00  0.39999999673E+01  0.40000000000E+01  0.51109989000E-03 0.  1.
     -623   -1    0    0    0    0  0.00000000000E+00  0.00000000000E+00  0.12525980253E-10  0.17130000000E+03  0.17130000000E+03 0.  1.
       11    1    1    2    0    0 -0.33232668895E+00 -0.19515681191E+00  0.94187368101E+00  0.10176706253E+01  0.51109989000E-03 0.  1.
     -623    1    1    2    0    0  0.44362147197E+00  0.70688996285E+00  0.26587278138E+00  0.17130223928E+03  0.17130000000E+03 0.  1.
      622    1    1    2    0    0 -0.11129478303E+00 -0.51173315094E+00  0.27922535050E+01  0.29800900964E+01  0.90000000000E+00 0.  1.
</event>
<event>
 5   0  0.4857400E+02  0.9118800E+02  0.7818608E-02  0.1180000E+00
       11   -1    0    0    0    0  0.00000000000E+00  0.00000000000E+00  0.39999999673E+01  0.40000000000E+01  0.51109989000E-03 0. -1.
     -623   -1    0    0    0    0  0.00000000000E+00  0.00000000000E+00  0.12525980253E-10  0.17130000000E+03  0.17130000000E+03 0. -1.
       11    1    1    2    0    0 -0.73077996056E-01 -0.99385099884E-01  0.95819158555E-01  0.15620295758E+00  0.51109989000E-03 0. -1.
     -623    1    1    2    0    0  0.26108236651E-01  0.11257981604E+00  0.16767644147E+00  0.17130012105E+03  0.17130000000E+03 0. -1.
      622    1    1    2    0    0  0.46969759405E-01 -0.13194716153E-01  0.37365043673E+01  0.38436759939E+01  0.90000000000E+00 0. -1.
</event>
<event>
 5   0  0.4857400E+02  0.9118800E+02  0.7818608E-02  0.1180000E+00
       11   -1    0    0    0    0  0.00000000000E+00  0.00000000000E+00  0.39999999673E+01  0.40000000000E+01  0.51109989000E-03 0.  1.
     -623   -1    0    0    0    0  0.00000000000E+00  0.00000000000E+00  0.12525980253E-10  0.17130000000E+03  0.17130000000E+03 0. -1.
       11    1    1    2    0    0  0.63569972822E-02  0.57599609238E-02  0.17208501749E-01  0.19234924482E-01  0.51109989000E-03 0.  1.
     -623    1    1    2    0    0 -0.20995727697E-01 -0.27663202428E-01  0.10522635268E+00  0.17130003584E+03  0.17130000000E+03 0. -1.
      622    1    1    2    0    0  0.14638730415E-01  0.21903241504E-01  0.38775651129E+01  0.39807292359E+01  0.90000000000E+00 0.  1.
</event>
<event>
 5   0  0.4857400E+02  0.9118800E+02  0.7818608E-02  0.1180000E+00
       11   -1    0    0    0    0  0.00000000000E+00  0.00000000000E+00  0.39999999673E+01  0.40000000000E+01  0.51109989000E-03 0. -1.
     -623   -1    0    0    0    0  0.00000000000E+00  0.00000000000E+00  0.12525980253E-10  0.17130000000E+03  0.17130000000E+03 0.  1.
       11    1    1    2    0    0  0.16268961740E+00  0.15588315207E+00  0.10751197466E+00  0.24965286825E+00  0.51109989000E-03 0. -1.
     -623    1    1    2    0    0 -0.36088827925E-01 -0.27445262900E+00  0.25629471283E+00  0.17130041539E+03  0.17130000000E+03 0.  1.
      622    1    1    2    0    0 -0.12660078948E+00  0.11856947693E+00  0.36361932799E+01  0.37499317393E+01  0.90000000000E+00 0. -1.
</event>
<event>
 5   0  0.4857400E+02  0.9118800E+02  0.7818608E-02  0.1180000E+00
       11   -1    0    0    0    0  0.00000000000E+00  0.00000000000E+00  0.39999999673E+01  0.40000000000E+01  0.51109989000E-03 0.  1.
     -623   -1    0    0    0    0  0.00000000000E+00  0.00000000000E+00  0.12525980253E-10  0.17130000000E+03  0.17130000000E+03 0.  1.
       11    1    1    2    0    0 -0.24081113047E-01 -0.18261555510E-01  0.11834936402E-01  0.32460920455E-01  0.51109989000E-03 0.  1.
     -623    1    1    2    0    0  0.42465929884E-01  0.32304842837E-01  0.12417641129E+00  0.17130005332E+03  0.17130000000E+03 0.  1.
      622    1    1    2    0    0 -0.18384816837E-01 -0.14043287327E-01  0.38639886197E+01  0.39674857616E+01  0.90000000000E+00 0.  1.
</event>
<event>
 5   0  0.4857400E+02  0.9118800E+02  0.7818608E-02  0.1180000E+00
       11   -1    0    0    0    0  0.00000000000E+00  0.00000000000E+00  0.39999999673E+01  0.40000000000E+01  0.51109989000E-03 0. -1.
     -623   -1    0    0    0    0  0.00000000000E+00  0.00000000000E+00  0.12525980253E-10  0.17130000000E+03  0.17130000000E+03 0. -1.
       11    1    1    2    0    0  0.35465272168E-01  0.93407561808E-01  0.98208361099E-01  0.14009961294E+00  0.51109989000E-03 0. -1.
     -623    1    1    2    0    0 -0.21789969083E-01 -0.21252493332E+00  0.15040294148E+00  0.17130019925E+03  0.17130000000E+03 0. -1.
      622    1    1    2    0    0 -0.13675303085E-01  0.11911737151E+00  0.37513886648E+01  0.38597011382E+01  0.90000000000E+00 0. -1.
</event>
<event>
 5   0  0.4857400E+02  0.9118800E+02  0.7818608E-02  0.1180000E+00
       11   -1    0    0    0    0  0.00000000000E+00  0.00000000000E+00  0.39999999673E+01  0.40000000000E+01  0.51109989000E-03 0.  1.
     -623   -1    0    0    0    0  0.00000000000E+00  0.00000000000E+00  0.12525980253E-10  0.17130000000E+03  0.17130000000E+03 0. -1.
       11    1    1    2    0    0 -0.92778666029E-02 -0.13560636016E-01  0.13510653356E+00  0.13610292535E+00  0.51109989000E-03 0.  1.
     -623    1    1    2    0    0  0.70287445028E-01  0.11864749857E+00  0.10933267693E+00  0.17130009040E+03  0.17130000000E+03 0. -1.
      622    1    1    2    0    0 -0.61009578425E-01 -0.10508686256E+00  0.37555607569E+01  0.38638066742E+01  0.90000000000E+00 0.  1.
</event>
<event>
 5   0  0.4857400E+02  0.9118800E+02  0.7818608E-02  0.1180000E+00
       11   -1    0    0    0    0  0.00000000000E+00  0.00000000000E+00  0.39999999673E+01  0.40000000000E+01  0.51109989000E-03 0. -1.
     -623   -1    0    0    0    0  0.00000000000E+00  0.00000000000E+00  0.12525980253E-10  0.17130000000E+03  0.17130000000E+03 0.  1.
       11    1    1    2    0    0 -0.94681989369E-01 -0.64154062836E-01  0.43408856318E-01  0.12233156959E+00  0.51109989000E-03 0. -1.
     -623    1    1    2    0    0 -0.69676115262E-01 -0.81422855915E-01  0.19135308209E+00  0.17130014040E+03  0.17130000000E+03 0.  1.
      622    1    1    2    0    0  0.16435810463E+00  0.14557691875E+00  0.37652380290E+01  0.38775280322E+01  0.90000000000E+00 0. -1.
</event>
<event>
 5   0  0.4857400E+02  0.9118800E+02  0.7818608E-02  0.1180000E+00
       11   -1    0    0    0    0  0.00000000000E+00  0.00000000000E+00  0.39999999673E+01  0.40000000000E+01  0.51109989000E-03 0. -1.
     -623   -1    0    0    0    0  0.00000000000E+00  0.00000000000E+00  0.12525980253E-10  0.17130000000E+03  0.17130000000E+03 0. -1.
       11    1    1    2    0    0  0.17288295093E+00 -0.97977404296E-01  0.31160705437E+00  0.36957719631E+00  0.51109989000E-03 0. -1.
     -623    1    1    2    0    0 -0.11726267682E+00 -0.22717946199E-01  0.17394200457E+00  0.17130012995E+03  0.17130000000E+03 0. -1.
      622    1    1    2    0    0 -0.55620274112E-01  0.12069535050E+00  0.35144509084E+01  0.36302928491E+01  0.90000000000E+00 0. -1.
</event>
<event>
 5   0  0.4857400E+02  0.9118800E+02  0.7818608E-02  0.1180000E+00
       11   -1    0    0    0    0  0.00000000000E+00  0.00000000000E+00  0.39999999673E+01  0.40000000000E+01  0.51109989000E-03 0. -1.
     -623   -1    0    0    0    0  0.00000000000E+00  0.00000000000E+00  0.12525980253E-10  0.17130000000E+03  0.17130000000E+03 0. -1.
       11    1    1    2    0    0 -0.36289385493E-02  0.23984752113E-01  0.11320604800E-01  0.26774145085E-01  0.51109989000E-03 0. -1.
     -623    1    1    2    0    0  0.12360840727E+00  0.72609541079E-01  0.12190075070E+00  0.17130010336E+03  0.17130000000E+03 0. -1.
      622    1    1    2    0    0 -0.11997946872E+00 -0.96594293191E-01  0.38667786119E+01  0.39731224954E+01  0.90000000000E+00 0. -1.
</event>
<event>
 5   0  0.4857400E+02  0.9118800E+02  0.7818608E-02  0.1180000E+00
       11   -1    0    0    0    0  0.00000000000E+00  0.00000000000E+00  0.39999999673E+01  0.40000000000E+01  0.51109989000E-03 0.  1.
     -623   -1    0    0    0    0  0.00000000000E+00  0.00000000000E+00  0.12525980253E-10  0.17130000000E+03  0.17130000000E+03 0.  1.
       11    1    1    2    0    0 -0.26761754779E-01 -0.47832871408E-01  0.42450245568E-01  0.69328635338E-01  0.51109989000E-03 0.  1.
     -623    1    1    2    0    0  0.97131043062E-01  0.16561780647E+00  0.13392646264E+00  0.17130015995E+03  0.17130000000E+03 0.  1.
      622    1    1    2    0    0 -0.70369288283E-01 -0.11778493507E+00  0.38236232592E+01  0.39305114115E+01  0.90000000000E+00 0.  1.
</event>
<event>
 5   0  0.4857400E+02  0.9118800E+02  0.7818608E-02  0.1180000E+00
       11   -1    0    0    0    0  0.00000000000E+00  0.00000000000E+00  0.39999999673E+01  0.40000000000E+01  0.51109989000E-03 0. -1.
     -623   -1    0    0    0    0  0.00000000000E+00  0.00000000000E+00  0.12525980253E-10  0.17130000000E+03  0.17130000000E+03 0. -1.
       11    1    1    2    0    0 -0.52231474918E-01  0.46030400762E-02 -0.12533202064E-01  0.53913424369E-01  0.51109989000E-03 0. -1.
     -623    1    1    2    0    0 -0.12085051898E-01  0.91917418488E-01  0.17231644924E+00  0.17130011176E+03  0.17130000000E+03 0. -1.
      622    1    1    2    0    0  0.64316526816E-01 -0.96520458564E-01  0.38402167202E+01  0.39459748190E+01  0.90000000000E+00 0. -1.
</event>
<event>
 5   0  0.4857400E+02  0.9118800E+02  0.7818608E-02  0.1180000E+00
       11   -1    0    0    0    0  0.00000000000E+00  0.00000000000E+00  0.39999999673E+01  0.40000000000E+01  0.51109989000E-03 0.  1.
     -623   -1    0    0    0    0  0.00000000000E+00  0.00000000000E+00  0.12525980253E-10  0.17130000000E+03  0.17130000000E+03 0. -1.
       11    1    1    2    0    0  0.98363795842E-02  0.21665037683E-02 -0.12203920003E-01  0.15831771488E-01  0.51109989000E-03 0.  1.
     -623    1    1    2    0    0  0.16305633289E+00  0.17377237689E+00  0.13909409703E+00  0.17130022222E+03  0.17130000000E+03 0. -1.
      622    1    1    2    0    0 -0.17289271248E+00 -0.17593888066E+00  0.38731097903E+01  0.39839460122E+01  0.90000000000E+00 0.  1.
</event>
<event>
 5   0  0.4857400E+02  0.9118800E+02  0.7818608E-02  0.1180000E+00
       11   -1    0    0    0    0  0.00000000000E+00  0.00000000000E+00  0.39999999673E+01  0.40000000000E+01  0.51109989000E-03 0.  1.
     -623   -1    0    0    0    0  0.00000000000E+00  0.00000000000E+00  0.12525980253E-10  0.17130000000E+03  0.17130000000E+03 0. -1.
       11    1    1    2    0    0 -0.35402746271E-01  0.18676375822E-01 -0.54046633612E-01  0.67256682086E-01  0.51109989000E-03 0.  1.
     -623    1    1    2    0    0  0.22326545389E+00 -0.47072027046E-01  0.23070327562E+00  0.17130030732E+03  0.17130000000E+03 0. -1.
      622    1    1    2    0    0 -0.18786270762E+00  0.28395651224E-01  0.38233433254E+01  0.39324359999E+01  0.90000000000E+00 0.  1.
</event>
<event>
 5   0  0.4857400E+02  0.9118800E+02  0.7818608E-02  0.1180000E+00
       11   -1    0    0    0    0  0.00000000000E+00  0.00000000000E+00  0.39999999673E+01  0.40000000000E+01  0.51109989000E-03 0. -1.
     -623   -1    0    0    0    0  0.00000000000E+00  0.00000000000E+00  0.12525980253E-10  0.17130000000E+03  0.17130000000E+03 0.  1.
       11    1    1    2    0    0 -0.37856176726E-01  0.71416086989E-01  0.50924309095E-01  0.95534779410E-01  0.51109989000E-03 0. -1.
     -623    1    1    2    0    0  0.18885230821E-01  0.38706254262E-01  0.15147159751E+00  0.17130007238E+03  0.17130000000E+03 0.  1.
      622    1    1    2    0    0  0.18970945905E-01 -0.11012234125E+00  0.37976040608E+01  0.39043928374E+01  0.90000000000E+00 0. -1.
</event>
<event>
 5   0  0.4857400E+02  0.9118800E+02  0.7818608E-02  0.1180000E+00
       11   -1    0    0    0    0  0.00000000000E+00  0.00000000000E+00  0.39999999673E+01  0.40000000000E+01  0.51109989000E-03 0.  1.
     -623   -1    0    0    0    0  0.00000000000E+00  0.00000000000E+00  0.12525980253E-10  0.17130000000E+03  0.17130000000E+03 0.  1.
       11    1    1    2    0    0 -0.98407153797E-01  0.46592434620E-01  0.21384844123E+00  0.23997133145E+00  0.51109989000E-03 0.  1.
     -623    1    1    2    0    0  0.47340758711E-01  0.22269223105E+00  0.14594708837E+00  0.17130021347E+03  0.17130000000E+03 0.  1.
      622    1    1    2    0    0  0.51066395086E-01 -0.26928466567E+00  0.36402044378E+01  0.37598152025E+01  0.90000000000E+00 0. -1.
</event>
<event>
 5   0  0.4857400E+02  0.9118800E+02  0.7818608E-02  0.1180000E+00
       11   -1    0    0    0    0  0.00000000000E+00  0.00000000000E+00  0.39999999673E+01  0.40000000000E+01  0.51109989000E-03 0. -1.
     -623   -1    0    0    0    0  0.00000000000E+00  0.00000000000E+00  0.12525980253E-10  0.17130000000E+03  0.17130000000E+03 0.  1.
       11    1    1    2    0    0 -0.17174302306E+00  0.27430485903E+00  0.36959593682E+00  0.49126392031E+00  0.51109989000E-03 0. -1.
     -623    1    1    2    0    0 -0.18242325885E+00 -0.14329438381E+00  0.26051692212E+00  0.17130035517E+03  0.17130000000E+03 0.  1.
      622    1    1    2    0    0  0.35416628191E+00 -0.13101047522E+00  0.33698871084E+01  0.35083809120E+01  0.90000000000E+00 0. -1.
</event>
<event>
 5   0  0.4857400E+02  0.9118800E+02  0.7818608E-02  0.1180000E+00
       11   -1    0    0    0    0  0.00000000000E+00  0.00000000000E+00  0.39999999673E+01  0.40000000000E+01  0.51109989000E-03 0. -1.
     -623   -1    0    0    0    0  0.00000000000E+00  0.00000000000E+00  0.12525980253E-10  0.17130000000E+03  0.17130000000E+03 0.  1.
       11    1    1    2    0    0  0.12712847959E+00 -0.12359695521E+00  0.98869974060E+00  0.10044726457E+01  0.51109989000E-03 0. -1.
     -623    1    1    2    0    0 -0.54389712693E-01 -0.95553017802E-02  0.15828914850E+00  0.17130008203E+03  0.17130000000E+03 0.  1.
      622    1    1    2    0    0 -0.72738766902E-01  0.13315225699E+00  0.28530110783E+01  0.29954453199E+01  0.90000000000E+00 0. -1.
</event>
<event>
 5   0  0.4857400E+02  0.9118800E+02  0.7818608E-02  0.1180000E+00
       11   -1    0    0    0    0  0.00000000000E+00  0.00000000000E+00  0.39999999673E+01  0.40000000000E+01  0.51109989000E-03 0. -1.
     -623   -1    0    0    0    0  0.00000000000E+00  0.00000000000E+00  0.12525980253E-10  0.17130000000E+03  0.17130000000E+03 0.  1.
       11    1    1    2    0    0 -0.45059207072E-01 -0.79308722949E-01  0.42534554691E+00  0.43501643783E+00  0.51109989000E-03 0. -1.
     -623    1    1    2    0    0  0.17487975308E-01  0.13539978101E+00  0.12581634225E+00  0.17130010061E+03  0.17130000000E+03 0.  1.
      622    1    1    2    0    0  0.27571231763E-01 -0.56091058059E-01  0.34488380782E+01  0.35648829531E+01  0.90000000000E+00 0. -1.
</event>
<event>
 5   0  0.4857400E+02  0.9118800E+02  0.7818608E-02  0.1180000E+00
       11   -1    0    0    0    0  0.00000000000E+00  0.00000000000E+00  0.39999999673E+01  0.40000000000E+01  0.51109989000E-03 0.  1.
     -623   -1    0    0    0    0  0.00000000000E+00  0.00000000000E+00  0.12525980253E-10  0.17130000000E+03  0.17130000000E+03 0. -1.
       11    1    1    2    0    0 -0.56623124041E+00  0.10991598763E+00  0.44172483382E+00  0.72651251331E+00  0.51109989000E-03 0.  1.
     -623    1    1    2    0    0  0.68872021197E-01 -0.71196745752E-01  0.45138371375E+00  0.17130062335E+03  0.17130000000E+03 0. -1.
      622    1    1    2    0    0  0.49735921922E+00 -0.38719241881E-01  0.31068914198E+01  0.32728641382E+01  0.90000000000E+00 0.  0.
</event>
<event>
 5   0  0.4857400E+02  0.9118800E+02  0.7818608E-02  0.1180000E+00
       11   -1    0    0    0    0  0.00000000000E+00  0.00000000000E+00  0.39999999673E+01  0.40000000000E+01  0.51109989000E-03 0. -1.
     -623   -1    0    0    0    0  0.00000000000E+00  0.00000000000E+00  0.12525980253E-10  0.17130000000E+03  0.17130000000E+03 0. -1.
       11    1    1    2    0    0 -0.10466441397E+00 -0.48563511853E-01  0.31785678543E+00  0.33815122578E+00  0.51109989000E-03 0. -1.
     -623    1    1    2    0    0  0.91426745085E-02  0.14069651178E+00  0.13521383586E+00  0.17130011139E+03  0.17130000000E+03 0. -1.
      622    1    1    2    0    0  0.95521739465E-01 -0.92132999924E-01  0.35469293461E+01  0.36617373852E+01  0.90000000000E+00 0. -1.
</event>
<event>
 5   0  0.4857400E+02  0.9118800E+02  0.7818608E-02  0.1180000E+00
       11   -1    0    0    0    0  0.00000000000E+00  0.00000000000E+00  0.39999999673E+01  0.40000000000E+01  0.51109989000E-03 0. -1.
     -623   -1    0    0    0    0  0.00000000000E+00  0.00000000000E+00  0.12525980253E-10  0.17130000000E+03  0.17130000000E+03 0. -1.
       11    1    1    2    0    0  0.33179755944E-01  0.54438449737E-01  0.17792828697E+00  0.18900576060E+00  0.51109989000E-03 0. -1.
     -623    1    1    2    0    0 -0.82417073802E-01  0.26066288011E-01  0.12014185728E+00  0.17130006394E+03  0.17130000000E+03 0. -1.
      622    1    1    2    0    0  0.49237317858E-01 -0.80504737747E-01  0.37019298231E+01  0.38109302987E+01  0.90000000000E+00 0. -1.
</event>
<event>
 5   0  0.4857400E+02  0.9118800E+02  0.7818608E-02  0.1180000E+00
       11   -1    0    0    0    0  0.00000000000E+00  0.00000000000E+00  0.39999999673E+01  0.40000000000E+01  0.51109989000E-03 0.  1.
     -623   -1    0    0    0    0  0.00000000000E+00  0.00000000000E+00  0.12525980253E-10  0.17130000000E+03  0.17130000000E+03 0.  1.
       11    1    1    2    0    0  0.31525403922E+00  0.21020459647E+00  0.45812114748E-01  0.38166751592E+00  0.51109989000E-03 0.  1.
     -623    1    1    2    0    0 -0.42315479592E+00 -0.10957054301E-01  0.45807973031E+00  0.17130113548E+03  0.17130000000E+03 0.  1.
      622    1    1    2    0    0  0.10790075670E+00 -0.19924754217E+00  0.34961081223E+01  0.36171970031E+01  0.90000000000E+00 0.  1.
</event>
<event>
 5   0  0.4857400E+02  0.9118800E+02  0.7818608E-02  0.1180000E+00
       11   -1    0    0    0    0  0.00000000000E+00  0.00000000000E+00  0.39999999673E+01  0.40000000000E+01  0.51109989000E-03 0.  1.
     -623   -1    0    0    0    0  0.00000000000E+00  0.00000000000E+00  0.12525980253E-10  0.17130000000E+03  0.17130000000E+03 0.  1.
       11    1    1    2    0    0  0.87570047517E-01 -0.33045654083E-01 -0.48237074069E-01  0.10529769708E+00  0.51109989000E-03 0.  1.
     -623    1    1    2    0    0 -0.24538772423E+00 -0.16427671402E+00  0.26786010538E+00  0.17130046395E+03  0.17130000000E+03 0.  1.
      622    1    1    2    0    0  0.15781767671E+00  0.19732236811E+00  0.37803769360E+01  0.38942383485E+01  0.90000000000E+00 0.  1.
</event>
<event>
 5   0  0.4857400E+02  0.9118800E+02  0.7818608E-02  0.1180000E+00
       11   -1    0    0    0    0  0.00000000000E+00  0.00000000000E+00  0.39999999673E+01  0.40000000000E+01  0.51109989000E-03 0. -1.
     -623   -1    0    0    0    0  0.00000000000E+00  0.00000000000E+00  0.12525980253E-10  0.17130000000E+03  0.17130000000E+03 0. -1.
       11    1    1    2    0    0 -0.53072035983E-01  0.78123238547E-01  0.67406837235E-01  0.11603372067E+00  0.51109989000E-03 0. -1.
     -623    1    1    2    0    0 -0.86131171762E-01  0.94235419047E-01  0.16096854747E+00  0.17130012320E+03  0.17130000000E+03 0. -1.
      622    1    1    2    0    0  0.13920320775E+00 -0.17235865759E+00  0.37716245827E+01  0.38838430752E+01  0.90000000000E+00 0. -1.
</event>
<event>
 5   0  0.4857400E+02  0.9118800E+02  0.7818608E-02  0.1180000E+00
       11   -1    0    0    0    0  0.00000000000E+00  0.00000000000E+00  0.39999999673E+01  0.40000000000E+01  0.51109989000E-03 0.  1.
     -623   -1    0    0    0    0  0.00000000000E+00  0.00000000000E+00  0.12525980253E-10  0.17130000000E+03  0.17130000000E+03 0. -1.
       11    1    1    2    0    0  0.18774465164E+00 -0.88694756405E-01  0.52901559454E+00  0.56830676093E+00  0.51109989000E-03 0.  1.
     -623    1    1    2    0    0 -0.21136181718E+00  0.10355606742E+00  0.15977330713E+00  0.17130023621E+03  0.17130000000E+03 0. -1.
      622    1    1    2    0    0  0.23617165536E-01 -0.14861311016E-01  0.33112110657E+01  0.34314570303E+01  0.90000000000E+00 0.  1.
</event>
<event>
 5   0  0.4857400E+02  0.9118800E+02  0.7818608E-02  0.1180000E+00
       11   -1    0    0    0    0  0.00000000000E+00  0.00000000000E+00  0.39999999673E+01  0.40000000000E+01  0.51109989000E-03 0.  1.
     -623   -1    0    0    0    0  0.00000000000E+00  0.00000000000E+00  0.12525980253E-10  0.17130000000E+03  0.17130000000E+03 0. -1.
       11    1    1    2    0    0  0.33795982187E-03  0.47452625821E-01  0.18832828236E+00  0.19421552222E+00  0.51109989000E-03 0.  1.
     -623    1    1    2    0    0 -0.52853095102E-01  0.36006006427E-01  0.11520220845E+00  0.17130005068E+03  0.17130000000E+03 0. -1.
      622    1    1    2    0    0  0.52515135280E-01 -0.83458632249E-01  0.36964694765E+01  0.38057338023E+01  0.90000000000E+00 0.  1.
</event>
<event>
 5   0  0.4857400E+02  0.9118800E+02  0.7818608E-02  0.1180000E+00
       11   -1    0    0    0    0  0.00000000000E+00  0.00000000000E+00  0.39999999673E+01  0.40000000000E+01  0.51109989000E-03 0. -1.
     -623   -1    0    0    0    0  0.00000000000E+00  0.00000000000E+00  0.12525980253E-10  0.17130000000E+03  0.17130000000E+03 0. -1.
       11    1    1    2    0    0  0.99753937829E-02  0.29031304858E-01  0.24628370151E-01  0.39359153730E-01  0.51109989000E-03 0. -1.
     -623    1    1    2    0    0 -0.92143541846E-01 -0.47041526467E-02  0.11936248573E+00  0.17130006643E+03  0.17130000000E+03 0. -1.
      622    1    1    2    0    0  0.82168148063E-01 -0.24327152212E-01  0.38560091115E+01  0.39605744132E+01  0.90000000000E+00 0. -1.
</event>
<event>
 5   0  0.4857400E+02  0.9118800E+02  0.7818608E-02  0.1180000E+00
       11   -1    0    0    0    0  0.00000000000E+00  0.00000000000E+00  0.39999999673E+01  0.40000000000E+01  0.51109989000E-03 0. -1.
     -623   -1    0    0    0    0  0.00000000000E+00  0.00000000000E+00  0.12525980253E-10  0.17130000000E+03  0.17130000000E+03 0. -1.
       11    1    1    2    0    0  0.11885952616E+00 -0.20789883749E+00  0.20069632948E+00  0.31245606327E+00  0.51109989000E-03 0. -1.
     -623    1    1    2    0    0  0.21909984863E-01  0.19309299908E+00  0.22634558356E+00  0.17130025977E+03  0.17130000000E+03 0. -1.
      622    1    1    2    0    0 -0.14076951102E+00  0.14805838414E-01  0.35729580543E+01  0.36872841667E+01  0.90000000000E+00 0. -1.
</event>
<event>
 5   0  0.4857400E+02  0.9118800E+02  0.7818608E-02  0.1180000E+00
       11   -1    0    0    0    0  0.00000000000E+00  0.00000000000E+00  0.39999999673E+01  0.40000000000E+01  0.51109989000E-03 0.  1.
     -623   -1    0    0    0    0  0.00000000000E+00  0.00000000000E+00  0.12525980253E-10  0.17130000000E+03  0.17130000000E+03 0. -1.
       11    1    1    2    0    0 -0.90309550319E-01 -0.31431394600E-01  0.35340788147E+00  0.36611629212E+00  0.51109989000E-03 0.  1.
     -623    1    1    2    0    0 -0.33670281179E-01 -0.54352727748E-01  0.12921522536E+00  0.17130006067E+03  0.17130000000E+03 0. -1.
      622    1    1    2    0    0  0.12397983150E+00  0.85784122348E-01  0.35173768605E+01  0.36338230410E+01  0.90000000000E+00 0.  1.
</event>
<event>
 5   0  0.4857400E+02  0.9118800E+02  0.7818608E-02  0.1180000E+00
       11   -1    0    0    0    0  0.00000000000E+00  0.00000000000E+00  0.39999999673E+01  0.40000000000E+01  0.51109989000E-03 0. -1.
     -623   -1    0    0    0    0  0.00000000000E+00  0.00000000000E+00  0.12525980253E-10  0.17130000000E+03  0.17130000000E+03 0.  1.
       11    1    1    2    0    0 -0.50016951933E-02 -0.14526456275E+00  0.16750257700E+00  0.22177507675E+00  0.51109989000E-03 0. -1.
     -623    1    1    2    0    0 -0.10047049022E+00  0.13697931095E+00  0.16472482348E+00  0.17130016343E+03  0.17130000000E+03 0.  1.
      622    1    1    2    0    0  0.10547218541E+00  0.82852518001E-02  0.36677725669E+01  0.37780614910E+01  0.90000000000E+00 0. -1.
</event>
<event>
 5   0  0.4857400E+02  0.9118800E+02  0.7818608E-02  0.1180000E+00
       11   -1    0    0    0    0  0.00000000000E+00  0.00000000000E+00  0.39999999673E+01  0.40000000000E+01  0.51109989000E-03 0. -1.
     -623   -1    0    0    0    0  0.00000000000E+00  0.00000000000E+00  0.12525980253E-10  0.17130000000E+03  0.17130000000E+03 0.  1.
       11    1    1    2    0    0  0.18368040625E-01  0.11728417002E+00  0.31226102104E+00  0.33406611312E+00  0.51109989000E-03 0. -1.
     -623    1    1    2    0    0  0.68218482024E-02 -0.14563307385E+00  0.13431917095E+00  0.17130011470E+03  0.17130000000E+03 0.  1.
      622    1    1    2    0    0 -0.25189888827E-01  0.28348903827E-01  0.35534197754E+01  0.36658191841E+01  0.90000000000E+00 0. -1.
</event>
<event>
 5   0  0.4857400E+02  0.9118800E+02  0.7818608E-02  0.1180000E+00
       11   -1    0    0    0    0  0.00000000000E+00  0.00000000000E+00  0.39999999673E+01  0.40000000000E+01  0.51109989000E-03 0.  1.
     -623   -1    0    0    0    0  0.00000000000E+00  0.00000000000E+00  0.12525980253E-10  0.17130000000E+03  0.17130000000E+03 0. -1.
       11    1    1    2    0    0 -0.49307645147E-01 -0.12076624345E+00  0.24141767856E-01  0.13266052769E+00  0.51109989000E-03 0.  1.
     -623    1    1    2    0    0 -0.13352655766E+00 -0.12337557494E+00  0.22734275235E+00  0.17130024733E+03  0.17130000000E+03 0. -1.
      622    1    1    2    0    0  0.18283420280E+00  0.24414181840E+00  0.37485154472E+01  0.38670921415E+01  0.90000000000E+00 0.  1.
</event>
<event>
 5   0  0.4857400E+02  0.9118800E+02  0.7818608E-02  0.1180000E+00
       11   -1    0    0    0    0  0.00000000000E+00  0.00000000000E+00  0.39999999673E+01  0.40000000000E+01  0.51109989000E-03 0.  1.
     -623   -1    0    0    0    0  0.00000000000E+00  0.00000000000E+00  0.12525980253E-10  0.17130000000E+03  0.17130000000E+03 0.  1.
       11    1    1    2    0    0  0.39460979085E-01 -0.23878481820E-01  0.91991500588E+00  0.92107069762E+00  0.51109989000E-03 0.  1.
     -623    1    1    2    0    0  0.56439548268E+00 -0.29037621409E-01  0.19982356054E+00  0.17130104879E+03  0.17130000000E+03 0.  1.
      622    1    1    2    0    0 -0.60385646176E+00  0.52916103229E-01  0.28802614009E+01  0.30778805172E+01  0.90000000000E+00 0.  1.
</event>
<event>
 5   0  0.4857400E+02  0.9118800E+02  0.7818608E-02  0.1180000E+00
       11   -1    0    0    0    0  0.00000000000E+00  0.00000000000E+00  0.39999999673E+01  0.40000000000E+01  0.51109989000E-03 0. -1.
     -623   -1    0    0    0    0  0.00000000000E+00  0.00000000000E+00  0.12525980253E-10  0.17130000000E+03  0.17130000000E+03 0.  1.
       11    1    1    2    0    0 -0.20098352782E+00  0.13726786774E-01  0.12042304071E+00  0.23470145523E+00  0.51109989000E-03 0. -1.
     -623    1    1    2    0    0  0.20406817172E+00 -0.64808744181E-01  0.22406833442E+00  0.17130028036E+03  0.17130000000E+03 0.  1.
      622    1    1    2    0    0 -0.30846438970E-02  0.51081957407E-01  0.36555085922E+01  0.37650181871E+01  0.90000000000E+00 0. -1.
</event>
<event>
 5   0  0.4857400E+02  0.9118800E+02  0.7818608E-02  0.1180000E+00
       11   -1    0    0    0    0  0.00000000000E+00  0.00000000000E+00  0.39999999673E+01  0.40000000000E+01  0.51109989000E-03 0.  1.
     -623   -1    0    0    0    0  0.00000000000E+00  0.00000000000E+00  0.12525980253E-10  0.17130000000E+03  0.17130000000E+03 0. -1.
       11    1    1    2    0    0  0.62736306259E-01  0.38315793088E-01  0.11834548511E+00  0.13931927070E+00  0.51109989000E-03 0.  1.
     -623    1    1    2    0    0 -0.14047011115E+00 -0.69344816157E-01  0.12839913279E+00  0.17130011975E+03  0.17130000000E+03 0. -1.
      622    1    1    2    0    0  0.77733804889E-01  0.31029023069E-01  0.37532553495E+01  0.38605609778E+01  0.90000000000E+00 0.  1.
</event>
<event>
 5   0  0.4857400E+02  0.9118800E+02  0.7818608E-02  0.1180000E+00
       11   -1    0    0    0    0  0.00000000000E+00  0.00000000000E+00  0.39999999673E+01  0.40000000000E+01  0.51109989000E-03 0. -1.
     -623   -1    0    0    0    0  0.00000000000E+00  0.00000000000E+00  0.12525980253E-10  0.17130000000E+03  0.17130000000E+03 0. -1.
       11    1    1    2    0    0  0.44357827028E-01  0.52321405846E-01  0.47623388781E+00  0.48114875397E+00  0.51109989000E-03 0. -1.
     -623    1    1    2    0    0  0.57241796517E-01 -0.11396781495E-01  0.12377606558E+00  0.17130005466E+03  0.17130000000E+03 0. -1.
      622    1    1    2    0    0 -0.10159962355E+00 -0.40924624351E-01  0.33999900140E+01  0.35187965846E+01  0.90000000000E+00 0. -1.
</event>
<event>
 5   0  0.4857400E+02  0.9118800E+02  0.7818608E-02  0.1180000E+00
       11   -1    0    0    0    0  0.00000000000E+00  0.00000000000E+00  0.39999999673E+01  0.40000000000E+01  0.51109989000E-03 0. -1.
     -623   -1    0    0    0    0  0.00000000000E+00  0.00000000000E+00  0.12525980253E-10  0.17130000000E+03  0.17130000000E+03 0. -1.
       11    1    1    2    0    0  0.13085055741E-01 -0.13400434234E-02  0.10747259485E-01  0.16993504926E-01  0.51109989000E-03 0. -1.
     -623    1    1    2    0    0 -0.55219158182E-01  0.13973432979E+00  0.11206357300E+00  0.17130010255E+03  0.17130000000E+03 0. -1.
      622    1    1    2    0    0  0.42134102441E-01 -0.13839428637E+00  0.38771891349E+01  0.39829039467E+01  0.90000000000E+00 0. -1.
</event>
<event>
 5   0  0.4857400E+02  0.9118800E+02  0.7818608E-02  0.1180000E+00
       11   -1    0    0    0    0  0.00000000000E+00  0.00000000000E+00  0.39999999673E+01  0.40000000000E+01  0.51109989000E-03 0.  1.
     -623   -1    0    0    0    0  0.00000000000E+00  0.00000000000E+00  0.12525980253E-10  0.17130000000E+03  0.17130000000E+03 0. -1.
       11    1    1    2    0    0 -0.13587526193E-01 -0.37635303059E-01  0.22454424672E-01  0.45885720163E-01  0.51109989000E-03 0.  1.
     -623    1    1    2    0    0  0.15034097221E-01  0.33011469710E-01  0.12727386613E+00  0.17130005112E+03  0.17130000000E+03 0. -1.
      622    1    1    2    0    0 -0.14465710279E-02  0.46238333495E-02  0.38502716766E+01  0.39540631578E+01  0.90000000000E+00 0.  1.
</event>
<event>
 5   0  0.4857400E+02  0.9118800E+02  0.7818608E-02  0.1180000E+00
       11   -1    0    0    0    0  0.00000000000E+00  0.00000000000E+00  0.39999999673E+01  0.40000000000E+01  0.51109989000E-03 0.  1.
     -623   -1    0    0    0    0  0.00000000000E+00  0.00000000000E+00  0.12525980253E-10  0.17130000000E+03  0.17130000000E+03 0.  1.
       11    1    1    2    0    0  0.14331414090E-01  0.56483643546E-01  0.10811553514E+01  0.10827247787E+01  0.51109989000E-03 0.  1.
     -623    1    1    2    0    0  0.12417923963E+00 -0.27939867360E+00  0.15667002763E+00  0.17130034451E+03  0.17130000000E+03 0.  1.
      622    1    1    2    0    0 -0.13851065372E+00  0.22291503005E+00  0.27621745884E+01  0.29169307103E+01  0.90000000000E+00 0.  1.
</event>
<event>
 5   0  0.4857400E+02  0.9118800E+02  0.7818608E-02  0.1180000E+00
       11   -1    0    0    0    0  0.00000000000E+00  0.00000000000E+00  0.39999999673E+01  0.40000000000E+01  0.51109989000E-03 0. -1.
     -623   -1    0    0    0    0  0.00000000000E+00  0.00000000000E+00  0.12525980253E-10  0.17130000000E+03  0.17130000000E+03 0.  1.
       11    1    1    2    0    0  0.17514885658E+00  0.17677514388E-02  0.12145495673E+00  0.21314740121E+00  0.51109989000E-03 0. -1.
     -623    1    1    2    0    0 -0.11192035610E-01 -0.23781260588E+00  0.21174674838E+00  0.17130029631E+03  0.17130000000E+03 0.  1.
      622    1    1    2    0    0 -0.16395682097E+00  0.23604485444E+00  0.36667982623E+01  0.37865562862E+01  0.90000000000E+00 0. -1.
</event>
<event>
 5   0  0.4857400E+02  0.9118800E+02  0.7818608E-02  0.1180000E+00
       11   -1    0    0    0    0  0.00000000000E+00  0.00000000000E+00  0.39999999673E+01  0.40000000000E+01  0.51109989000E-03 0.  1.
     -623   -1    0    0    0    0  0.00000000000E+00  0.00000000000E+00  0.12525980253E-10  0.17130000000E+03  0.17130000000E+03 0.  1.
       11    1    1    2    0    0 -0.15834798316E-01 -0.23459673541E-02  0.26794680236E+00  0.26842502588E+00  0.51109989000E-03 0.  1.
     -623    1    1    2    0    0 -0.47752911469E-01 -0.35090681639E+00  0.12889801127E+00  0.17130041457E+03  0.17130000000E+03 0.  1.
      622    1    1    2    0    0  0.63587709785E-01  0.35325278374E+00  0.36031551537E+01  0.37311604077E+01  0.90000000000E+00 0.  0.
</event>
<event>
 5   0  0.4857400E+02  0.9118800E+02  0.7818608E-02  0.1180000E+00
       11   -1    0    0    0    0  0.00000000000E+00  0.00000000000E+00  0.39999999673E+01  0.40000000000E+01  0.51109989000E-03 0. -1.
     -623   -1    0    0    0    0  0.00000000000E+00  0.00000000000E+00  0.12525980253E-10  0.17130000000E+03  0.17130000000E+03 0. -1.
       11    1    1    2    0    0  0.83376160255E-01 -0.19321348100E-01  0.75962963649E+00  0.76443596490E+00  0.51109989000E-03 0. -1.
     -623    1    1    2    0    0  0.14006288730E+00 -0.55288349500E-01  0.14156794998E+00  0.17130012468E+03  0.17130000000E+03 0. -1.
      622    1    1    2    0    0 -0.22343904755E+00  0.74609697600E-01  0.30988023809E+01  0.32354393536E+01  0.90000000000E+00 0. -1.
</event>
<event>
 5   0  0.4857400E+02  0.9118800E+02  0.7818608E-02  0.1180000E+00
       11   -1    0    0    0    0  0.00000000000E+00  0.00000000000E+00  0.39999999673E+01  0.40000000000E+01  0.51109989000E-03 0.  1.
     -623   -1    0    0    0    0  0.00000000000E+00  0.00000000000E+00  0.12525980253E-10  0.17130000000E+03  0.17130000000E+03 0. -1.
       11    1    1    2    0    0 -0.33233437656E-01 -0.27210870898E-01 -0.20594060909E-02  0.43004595684E-01  0.51109989000E-03 0.  1.
     -623    1    1    2    0    0 -0.80249542655E-03  0.18211270980E-01  0.14900179930E+00  0.17130006577E+03  0.17130000000E+03 0. -1.
      622    1    1    2    0    0  0.34035933082E-01  0.89995999176E-02  0.38530575742E+01  0.39569296313E+01  0.90000000000E+00 0.  1.
</event>
<event>
 5   0  0.4857400E+02  0.9118800E+02  0.7818608E-02  0.1180000E+00
       11   -1    0    0    0    0  0.00000000000E+00  0.00000000000E+00  0.39999999673E+01  0.40000000000E+01  0.51109989000E-03 0.  1.
     -623   -1    0    0    0    0  0.00000000000E+00  0.00000000000E+00  0.12525980253E-10  0.17130000000E+03  0.17130000000E+03 0.  1.
       11    1    1    2    0    0 -0.12952985815E+00  0.23924606343E-01  0.10059648858E+01  0.10145521098E+01  0.51109989000E-03 0.  1.
     -623    1    1    2    0    0 -0.23279534422E-01 -0.14504540788E+00  0.15430144705E+00  0.17130013248E+03  0.17130000000E+03 0.  1.
      622    1    1    2    0    0  0.15280939257E+00  0.12112080154E+00  0.28397336345E+01  0.29853154062E+01  0.90000000000E+00 0.  1.
</event>
<event>
 5   0  0.4857400E+02  0.9118800E+02  0.7818608E-02  0.1180000E+00
       11   -1    0    0    0    0  0.00000000000E+00  0.00000000000E+00  0.39999999673E+01  0.40000000000E+01  0.51109989000E-03 0.  1.
     -623   -1    0    0    0    0  0.00000000000E+00  0.00000000000E+00  0.12525980253E-10  0.17130000000E+03  0.17130000000E+03 0. -1.
       11    1    1    2    0    0  0.96194559601E-01 -0.37867039224E-01  0.24033088435E+00  0.26162282231E+00  0.51109989000E-03 0.  1.
     -623    1    1    2    0    0 -0.20878362138E+00  0.29681359346E-01  0.13318828274E+00  0.17130018158E+03  0.17130000000E+03 0. -1.
      622    1    1    2    0    0  0.11258906178E+00  0.81856798778E-02  0.36264808003E+01  0.37381955937E+01  0.90000000000E+00 0. -1.
</event>
<event>
 5   0  0.4857400E+02  0.9118800E+02  0.7818608E-02  0.1180000E+00
       11   -1    0    0    0    0  0.00000000000E+00  0.00000000000E+00  0.39999999673E+01  0.40000000000E+01  0.51109989000E-03 0. -1.
     -623   -1    0    0    0    0  0.00000000000E+00  0.00000000000E+00  0.12525980253E-10  0.17130000000E+03  0.17130000000E+03 0. -1.
       11    1    1    2    0    0  0.66663237466E-01 -0.16986962728E+00  0.15710769119E+00  0.24079610743E+00  0.51109989000E-03 0. -1.
     -623    1    1    2    0    0 -0.17171033684E-01  0.88362941145E-01  0.19439752190E+00  0.17130013396E+03  0.17130000000E+03 0. -1.
      622    1    1    2    0    0 -0.49492203782E-01  0.81506686132E-01  0.36484947543E+01  0.37590699368E+01  0.90000000000E+00 0.  0.
</event>
<event>
 5   0  0.4857400E+02  0.9118800E+02  0.7818608E-02  0.1180000E+00
       11   -1    0    0    0    0  0.00000000000E+00  0.00000000000E+00  0.39999999673E+01  0.40000000000E+01  0.51109989000E-03 0.  1.
     -623   -1    0    0    0    0  0.00000000000E+00  0.00000000000E+00  0.12525980253E-10  0.17130000000E+03  0.17130000000E+03 0. -1.
       11    1    1    2    0    0 -0.60073539748E-02 -0.24442349053E-02  0.21523670777E-01  0.22485377716E-01  0.51109989000E-03 0.  1.
     -623    1    1    2    0    0  0.62668533044E-01  0.30587705037E-01  0.10468582128E+00  0.17130004618E+03  0.17130000000E+03 0. -1.
      622    1    1    2    0    0 -0.56661179069E-01 -0.28143470132E-01  0.38737904753E+01  0.39774684399E+01  0.90000000000E+00 0.  1.
</event>
<event>
 5   0  0.4857400E+02  0.9118800E+02  0.7818608E-02  0.1180000E+00
       11   -1    0    0    0    0  0.00000000000E+00  0.00000000000E+00  0.39999999673E+01  0.40000000000E+01  0.51109989000E-03 0. -1.
     -623   -1    0    0    0    0  0.00000000000E+00  0.00000000000E+00  0.12525980253E-10  0.17130000000E+03  0.17130000000E+03 0.  1.
       11    1    1    2    0    0 -0.13236712567E-01  0.81376362089E-01  0.14989780557E+00  0.17107582004E+00  0.51109989000E-03 0. -1.
     -623    1    1    2    0    0  0.10675081402E-01 -0.53113892335E-01  0.12862131892E+00  0.17130005685E+03  0.17130000000E+03 0.  1.
      622    1    1    2    0    0  0.25616311645E-02 -0.28262469753E-01  0.37214808429E+01  0.38288673251E+01  0.90000000000E+00 0. -1.
</event>
<event>
 5   0  0.4857400E+02  0.9118800E+02  0.7818608E-02  0.1180000E+00
       11   -1    0    0    0    0  0.00000000000E+00  0.00000000000E+00  0.39999999673E+01  0.40000000000E+01  0.51109989000E-03 0. -1.
     -623   -1    0    0    0    0  0.00000000000E+00  0.00000000000E+00  0.12525980253E-10  0.17130000000E+03  0.17130000000E+03 0.  1.
       11    1    1    2    0    0 -0.17003355136E+00 -0.26857786990E+00  0.94025615052E+00  0.99253582837E+00  0.51109989000E-03 0. -1.
     -623    1    1    2    0    0  0.85390356580E-01  0.19438393495E+00  0.19256241574E+00  0.17130023980E+03  0.17130000000E+03 0.  1.
      622    1    1    2    0    0  0.84643194784E-01  0.74193934947E-01  0.28671814011E+01  0.30072243676E+01  0.90000000000E+00 0. -1.
</event>
<event>
 5   0  0.4857400E+02  0.9118800E+02  0.7818608E-02  0.1180000E+00
       11   -1    0    0    0    0  0.00000000000E+00  0.00000000000E+00  0.39999999673E+01  0.40000000000E+01  0.51109989000E-03 0. -1.
     -623   -1    0    0    0    0  0.00000000000E+00  0.00000000000E+00  0.12525980253E-10  0.17130000000E+03  0.17130000000E+03 0. -1.
       11    1    1    2    0    0 -0.41783271372E-01 -0.10635718328E+00  0.73021361779E+00  0.73910072455E+00  0.51109989000E-03 0. -1.
     -623    1    1    2    0    0  0.95879351348E-01  0.39096902298E+00  0.14952615612E+00  0.17130053826E+03  0.17130000000E+03 0. -1.
      622    1    1    2    0    0 -0.54096079976E-01 -0.28461183971E+00  0.31202601934E+01  0.32603610168E+01  0.90000000000E+00 0. -1.
</event>
<event>
 5   0  0.4857400E+02  0.9118800E+02  0.7818608E-02  0.1180000E+00
       11   -1    0    0    0    0  0.00000000000E+00  0.00000000000E+00  0.39999999673E+01  0.40000000000E+01  0.51109989000E-03 0.  1.
     -623   -1    0    0    0    0  0.00000000000E+00  0.00000000000E+00  0.12525980253E-10  0.17130000000E+03  0.17130000000E+03 0.  1.
       11    1    1    2    0    0  0.12832867951E-01 -0.57940288627E-01  0.41850451007E-01  0.72618737379E-01  0.51109989000E-03 0.  1.
     -623    1    1    2    0    0  0.16742518367E+00  0.18305434974E+00  0.14182863903E+00  0.17130023834E+03  0.17130000000E+03 0.  1.
      622    1    1    2    0    0 -0.18025805162E+00 -0.12511406112E+00  0.38163208773E+01  0.39271429223E+01  0.90000000000E+00 0.  1.
</event>
<event>
 5   0  0.4857400E+02  0.9118800E+02  0.7818608E-02  0.1180000E+00
       11   -1    0    0    0    0  0.00000000000E+00  0.00000000000E+00  0.39999999673E+01  0.40000000000E+01  0.51109989000E-03 0. -1.
     -623   -1    0    0    0    0  0.00000000000E+00  0.00000000000E+00  0.12525980253E-10  0.17130000000E+03  0.17130000000E+03 0. -1.
       11    1    1    2    0    0  0.60810192587E-01 -0.36843649077E+00  0.68140910065E+00  0.77702120365E+00  0.51109989000E-03 0. -1.
     -623    1    1    2    0    0 -0.39967710122E-01  0.52720928026E-01  0.24022872453E+00  0.17130018122E+03  0.17130000000E+03 0. -1.
      622    1    1    2    0    0 -0.20842482465E-01  0.31571556274E+00  0.30783621422E+01  0.32227975742E+01  0.90000000000E+00 0.  0.
</event>
<event>
 5   0  0.4857400E+02  0.9118800E+02  0.7818608E-02  0.1180000E+00
       11   -1    0    0    0    0  0.00000000000E+00  0.00000000000E+00  0.39999999673E+01  0.40000000000E+01  0.51109989000E-03 0. -1.
     -623   -1    0    0    0    0  0.00000000000E+00  0.00000000000E+00  0.12525980253E-10  0.17130000000E+03  0.17130000000E+03 0. -1.
       11    1    1    2    0    0 -0.26167435897E+00 -0.22459995373E+00  0.93232323335E+00  0.99405506991E+00  0.51109989000E-03 0. -1.
     -623    1    1    2    0    0  0.20632787549E+00  0.29719544653E+00  0.20160596378E+00  0.17130050070E+03  0.17130000000E+03 0. -1.
      622    1    1    2    0    0  0.55346483475E-01 -0.72595492790E-01  0.28660707702E+01  0.30054442265E+01  0.90000000000E+00 0. -1.
</event>
<event>
 5   0  0.4857400E+02  0.9118800E+02  0.7818608E-02  0.1180000E+00
       11   -1    0    0    0    0  0.00000000000E+00  0.00000000000E+00  0.39999999673E+01  0.40000000000E+01  0.51109989000E-03 0.  1.
     -623   -1    0    0    0    0  0.00000000000E+00  0.00000000000E+00  0.12525980253E-10  0.17130000000E+03  0.17130000000E+03 0. -1.
       11    1    1    2    0    0 -0.13820362326E+00 -0.13438631998E+00  0.49724037918E+00  0.53329933469E+00  0.51109989000E-03 0.  1.
     -623    1    1    2    0    0  0.25651747672E-01  0.10033050515E+00  0.15709533195E+00  0.17130010334E+03  0.17130000000E+03 0. -1.
      622    1    1    2    0    0  0.11255187559E+00  0.34055814829E-01  0.33456642562E+01  0.34665973286E+01  0.90000000000E+00 0.  1.
</event>
<event>
 5   0  0.4857400E+02  0.9118800E+02  0.7818608E-02  0.1180000E+00
       11   -1    0    0    0    0  0.00000000000E+00  0.00000000000E+00  0.39999999673E+01  0.40000000000E+01  0.51109989000E-03 0. -1.
     -623   -1    0    0    0    0  0.00000000000E+00  0.00000000000E+00  0.12525980253E-10  0.17130000000E+03  0.17130000000E+03 0.  1.
       11    1    1    2    0    0  0.85065427481E-01 -0.70984762781E-01 -0.55565815317E-02  0.11093286402E+00  0.51109989000E-03 0. -1.
     -623    1    1    2    0    0  0.13242485465E+00 -0.13290394791E+00  0.23409432080E+00  0.17130026270E+03  0.17130000000E+03 0.  1.
      622    1    1    2    0    0 -0.21749028213E+00  0.20388871069E+00  0.37714622281E+01  0.38888044393E+01  0.90000000000E+00 0. -1.
</event>
<event>
 5   0  0.4857400E+02  0.9118800E+02  0.7818608E-02  0.1180000E+00
       11   -1    0    0    0    0  0.00000000000E+00  0.00000000000E+00  0.39999999673E+01  0.40000000000E+01  0.51109989000E-03 0.  1.
     -623   -1    0    0    0    0  0.00000000000E+00  0.00000000000E+00  0.12525980253E-10  0.17130000000E+03  0.17130000000E+03 0. -1.
       11    1    1    2    0    0 -0.21827397787E-01 -0.58266168016E-01  0.67655979955E-01  0.91918303271E-01  0.51109989000E-03 0.  1.
     -623    1    1    2    0    0 -0.41369076097E-01 -0.24813246779E-01  0.13079651604E+00  0.17130005673E+03  0.17130000000E+03 0. -1.
      622    1    1    2    0    0  0.63196473884E-01  0.83079414795E-01  0.38015474714E+01  0.39080249693E+01  0.90000000000E+00 0.  1.
</event>
<event>
 5   0  0.4857400E+02  0.9118800E+02  0.7818608E-02  0.1180000E+00
       11   -1    0    0    0    0  0.00000000000E+00  0.00000000000E+00  0.39999999673E+01  0.40000000000E+01  0.51109989000E-03 0.  1.
     -623   -1    0    0    0    0  0.00000000000E+00  0.00000000000E+00  0.12525980253E-10  0.17130000000E+03  0.17130000000E+03 0.  1.
       11    1    1    2    0    0 -0.42242201605E-01  0.14784177960E+00  0.10989698816E+01  0.11096741221E+01  0.51109989000E-03 0.  1.
     -623    1    1    2    0    0  0.25230525371E+00 -0.64209957392E-01  0.16401246627E+00  0.17130027636E+03  0.17130000000E+03 0.  1.
      622    1    1    2    0    0 -0.21006305211E+00 -0.83631822204E-01  0.27370176195E+01  0.28900495181E+01  0.90000000000E+00 0.  1.
</event>
<event>
 5   0  0.4857400E+02  0.9118800E+02  0.7818608E-02  0.1180000E+00
       11   -1    0    0    0    0  0.00000000000E+00  0.00000000000E+00  0.39999999673E+01  0.40000000000E+01  0.51109989000E-03 0.  1.
     -623   -1    0    0    0    0  0.00000000000E+00  0.00000000000E+00  0.12525980253E-10  0.17130000000E+03  0.17130000000E+03 0.  1.
       11    1    1    2    0    0 -0.62175172530E-01  0.18979498566E-01  0.21205736393E+00  0.22179846768E+00  0.51109989000E-03 0.  1.
     -623    1    1    2    0    0  0.70506355597E-01  0.12894742511E-01  0.11870598790E+00  0.17130005613E+03  0.17130000000E+03 0.  1.
      622    1    1    2    0    0 -0.83311830675E-02 -0.31874241077E-01  0.36692366155E+01  0.37781454070E+01  0.90000000000E+00 0.  1.
</event>
<event>
 5   0  0.4857400E+02  0.9118800E+02  0.7818608E-02  0.1180000E+00
       11   -1    0    0    0    0  0.00000000000E+00  0.00000000000E+00  0.39999999673E+01  0.40000000000E+01  0.51109989000E-03 0. -1.
     -623   -1    0    0    0    0  0.00000000000E+00  0.00000000000E+00  0.12525980253E-10  0.17130000000E+03  0.17130000000E+03 0. -1.
       11    1    1    2    0    0  0.21515387735E+00 -0.17311783852E-01  0.10671168590E+01  0.10887284055E+01  0.51109989000E-03 0. -1.
     -623    1    1    2    0    0 -0.24547492849E+00  0.89803992739E-01  0.16562805824E+00  0.17130027950E+03  0.17130000000E+03 0. -1.
      622    1    1    2    0    0  0.30321051139E-01 -0.72492208887E-01  0.27672550501E+01  0.29109920987E+01  0.90000000000E+00 0. -1.
</event>
<event>
 5   0  0.4857400E+02  0.9118800E+02  0.7818608E-02  0.1180000E+00
       11   -1    0    0    0    0  0.00000000000E+00  0.00000000000E+00  0.39999999673E+01  0.40000000000E+01  0.51109989000E-03 0. -1.
     -623   -1    0    0    0    0  0.00000000000E+00  0.00000000000E+00  0.12525980253E-10  0.17130000000E+03  0.17130000000E+03 0. -1.
       11    1    1    2    0    0  0.96345565562E-01  0.47130907789E-01  0.15000726173E+00  0.18440778255E+00  0.51109989000E-03 0. -1.
     -623    1    1    2    0    0  0.43320816338E-02 -0.68180713894E-01  0.14356560778E+00  0.17130007378E+03  0.17130000000E+03 0. -1.
      622    1    1    2    0    0 -0.10067764720E+00  0.21049806105E-01  0.37064270979E+01  0.38155184333E+01  0.90000000000E+00 0. -1.
</event>
<event>
 5   0  0.4857400E+02  0.9118800E+02  0.7818608E-02  0.1180000E+00
       11   -1    0    0    0    0  0.00000000000E+00  0.00000000000E+00  0.39999999673E+01  0.40000000000E+01  0.51109989000E-03 0.  1.
     -623   -1    0    0    0    0  0.00000000000E+00  0.00000000000E+00  0.12525980253E-10  0.17130000000E+03  0.17130000000E+03 0.  1.
       11    1    1    2    0    0 -0.49899723747E-01  0.72770302283E-01  0.83197586749E-01  0.12127489018E+00  0.51109989000E-03 0.  1.
     -623    1    1    2    0    0  0.23866016833E-01 -0.25370867127E+00  0.14863020860E+00  0.17130025402E+03  0.17130000000E+03 0.  1.
      622    1    1    2    0    0  0.26033706914E-01  0.18093836898E+00  0.37681721720E+01  0.38784710860E+01  0.90000000000E+00 0.  1.
</event>
<event>
 5   0  0.4857400E+02  0.9118800E+02  0.7818608E-02  0.1180000E+00
       11   -1    0    0    0    0  0.00000000000E+00  0.00000000000E+00  0.39999999673E+01  0.40000000000E+01  0.51109989000E-03 0. -1.
     -623   -1    0    0    0    0  0.00000000000E+00  0.00000000000E+00  0.12525980253E-10  0.17130000000E+03  0.17130000000E+03 0. -1.
       11    1    1    2    0    0  0.27889212448E+00  0.82630486687E-01  0.29615539632E+00  0.41511070140E+00  0.51109989000E-03 0. -1.
     -623    1    1    2    0    0 -0.60635091762E+00 -0.75845329397E-01  0.25058105074E+00  0.17130127321E+03  0.17130000000E+03 0. -1.
      622    1    1    2    0    0  0.32745879314E+00 -0.67851572898E-02  0.34532635203E+01  0.35836160844E+01  0.90000000000E+00 0. -1.
</event>
<event>
 5   0  0.4857400E+02  0.9118800E+02  0.7818608E-02  0.1180000E+00
       11   -1    0    0    0    0  0.00000000000E+00  0.00000000000E+00  0.39999999673E+01  0.40000000000E+01  0.51109989000E-03 0. -1.
     -623   -1    0    0    0    0  0.00000000000E+00  0.00000000000E+00  0.12525980253E-10  0.17130000000E+03  0.17130000000E+03 0.  1.
       11    1    1    2    0    0  0.91894814068E-01  0.36832553954E-01  0.31143078617E+00  0.32678844789E+00  0.51109989000E-03 0. -1.
     -623    1    1    2    0    0 -0.52745869759E-01 -0.10644753264E+00  0.12830955975E+00  0.17130008925E+03  0.17130000000E+03 0.  1.
      622    1    1    2    0    0 -0.39148944309E-01  0.69614978687E-01  0.35602596214E+01  0.36731223036E+01  0.90000000000E+00 0. -1.
</event>
<event>
 5   0  0.4857400E+02  0.9118800E+02  0.7818608E-02  0.1180000E+00
       11   -1    0    0    0    0  0.00000000000E+00  0.00000000000E+00  0.39999999673E+01  0.40000000000E+01  0.51109989000E-03 0. -1.
     -623   -1    0    0    0    0  0.00000000000E+00  0.00000000000E+00  0.12525980253E-10  0.17130000000E+03  0.17130000000E+03 0.  1.
       11    1    1    2    0    0  0.18786640572E-01 -0.79665937889E-01  0.71324652255E+00  0.71792789518E+00  0.51109989000E-03 0. -1.
     -623    1    1    2    0    0 -0.13903602321E+00 -0.32353922202E-01  0.13488893249E+00  0.17130011259E+03  0.17130000000E+03 0.  1.
      622    1    1    2    0    0  0.12024938264E+00  0.11201986009E+00  0.31518645123E+01  0.32819595164E+01  0.90000000000E+00 0. -1.
</event>
<event>
 5   0  0.4857400E+02  0.9118800E+02  0.7818608E-02  0.1180000E+00
       11   -1    0    0    0    0  0.00000000000E+00  0.00000000000E+00  0.39999999673E+01  0.40000000000E+01  0.51109989000E-03 0. -1.
     -623   -1    0    0    0    0  0.00000000000E+00  0.00000000000E+00  0.12525980253E-10  0.17130000000E+03  0.17130000000E+03 0. -1.
       11    1    1    2    0    0  0.91552069210E-01 -0.15759893937E+00  0.26842207380E+00  0.32445319847E+00  0.51109989000E-03 0. -1.
     -623    1    1    2    0    0 -0.27477257379E+00  0.11884752937E+00  0.17320660641E+00  0.17130034917E+03  0.17130000000E+03 0. -1.
      622    1    1    2    0    0  0.18322050458E+00  0.38751409996E-01  0.35583712871E+01  0.36751976331E+01  0.90000000000E+00 0. -1.
</event>
<event>
 5   0  0.4857400E+02  0.9118800E+02  0.7818608E-02  0.1180000E+00
       11   -1    0    0    0    0  0.00000000000E+00  0.00000000000E+00  0.39999999673E+01  0.40000000000E+01  0.51109989000E-03 0. -1.
     -623   -1    0    0    0    0  0.00000000000E+00  0.00000000000E+00  0.12525980253E-10  0.17130000000E+03  0.17130000000E+03 0. -1.
       11    1    1    2    0    0 -0.66425072848E-02  0.24916937677E-01 -0.32437742486E-01  0.41442068565E-01  0.51109989000E-03 0. -1.
     -623    1    1    2    0    0 -0.25149896514E-01 -0.13243916411E+00  0.17932909157E+00  0.17130014691E+03  0.17130000000E+03 0. -1.
      622    1    1    2    0    0  0.31792403799E-01  0.10752222643E+00  0.38531086183E+01  0.39584110209E+01  0.90000000000E+00 0. -1.
</event>
<event>
 5   0  0.4857400E+02  0.9118800E+02  0.7818608E-02  0.1180000E+00
       11   -1    0    0    0    0  0.00000000000E+00  0.00000000000E+00  0.39999999673E+01  0.40000000000E+01  0.51109989000E-03 0.  1.
     -623   -1    0    0    0    0  0.00000000000E+00  0.00000000000E+00  0.12525980253E-10  0.17130000000E+03  0.17130000000E+03 0.  1.
       11    1    1    2    0    0  0.10385277883E+00 -0.27709656114E-01  0.32516839503E-01  0.11229795540E+00  0.51109989000E-03 0.  1.
     -623    1    1    2    0    0 -0.61151318817E-01  0.97548716616E-01  0.18642021520E+00  0.17130014013E+03  0.17130000000E+03 0.  1.
      622    1    1    2    0    0 -0.42701460015E-01 -0.69839060502E-01  0.37810629127E+01  0.38875619170E+01  0.90000000000E+00 0.  1.
</event>
<event>
 5   0  0.4857400E+02  0.9118800E+02  0.7818608E-02  0.1180000E+00
       11   -1    0    0    0    0  0.00000000000E+00  0.00000000000E+00  0.39999999673E+01  0.40000000000E+01  0.51109989000E-03 0.  1.
     -623   -1    0    0    0    0  0.00000000000E+00  0.00000000000E+00  0.12525980253E-10  0.17130000000E+03  0.17130000000E+03 0.  1.
       11    1    1    2    0    0 -0.39366338250E-01 -0.33273021391E+00 -0.20471367320E-01  0.33567609677E+00  0.51109989000E-03 0.  1.
     -623    1    1    2    0    0 -0.30129822437E+00  0.17082074096E+00  0.48956340990E+00  0.17130104971E+03  0.17130000000E+03 0.  1.
      622    1    1    2    0    0  0.34066456262E+00  0.16190947295E+00  0.35309079248E+01  0.36632741905E+01  0.90000000000E+00 0.  1.
</event>
<event>
 5   0  0.4857400E+02  0.9118800E+02  0.7818608E-02  0.1180000E+00
       11   -1    0    0    0    0  0.00000000000E+00  0.00000000000E+00  0.39999999673E+01  0.40000000000E+01  0.51109989000E-03 0.  1.
     -623   -1    0    0    0    0  0.00000000000E+00  0.00000000000E+00  0.12525980253E-10  0.17130000000E+03  0.17130000000E+03 0. -1.
       11    1    1    2    0    0  0.53961400353E-01  0.65606777718E-02 -0.54255035670E-01  0.76803289892E-01  0.51109989000E-03 0.  1.
     -623    1    1    2    0    0 -0.58432811835E-01  0.42188902179E-01  0.23618226498E+00  0.17130017798E+03  0.17130000000E+03 0. -1.
      622    1    1    2    0    0  0.44714114819E-02 -0.48749579951E-01  0.38180727380E+01  0.39230187290E+01  0.90000000000E+00 0.  1.
</event>
<event>
 5   0  0.4857400E+02  0.9118800E+02  0.7818608E-02  0.1180000E+00
       11   -1    0    0    0    0  0.00000000000E+00  0.00000000000E+00  0.39999999673E+01  0.40000000000E+01  0.51109989000E-03 0.  1.
     -623   -1    0    0    0    0  0.00000000000E+00  0.00000000000E+00  0.12525980253E-10  0.17130000000E+03  0.17130000000E+03 0. -1.
       11    1    1    2    0    0 -0.11628844432E+00  0.18603421225E+00  0.76218820888E+00  0.79313482926E+00  0.51109989000E-03 0.  1.
     -623    1    1    2    0    0  0.23738882303E+00 -0.23203389263E+00  0.16297143800E+00  0.17130039916E+03  0.17130000000E+03 0. -1.
      622    1    1    2    0    0 -0.12110037871E+00  0.45999680380E-01  0.30748403205E+01  0.32064660093E+01  0.90000000000E+00 0.  1.
</event>
<event>
 5   0  0.4857400E+02  0.9118800E+02  0.7818608E-02  0.1180000E+00
       11   -1    0    0    0    0  0.00000000000E+00  0.00000000000E+00  0.39999999673E+01  0.40000000000E+01  0.51109989000E-03 0. -1.
     -623   -1    0    0    0    0  0.00000000000E+00  0.00000000000E+00  0.12525980253E-10  0.17130000000E+03  0.17130000000E+03 0. -1.
       11    1    1    2    0    0  0.15753966465E-01  0.53963839022E-01 -0.40748041427E-01  0.69433043175E-01  0.51109989000E-03 0. -1.
     -623    1    1    2    0    0 -0.15362888164E+00  0.45591957865E-01  0.21860855693E+00  0.17130021445E+03  0.17130000000E+03 0. -1.
      622    1    1    2    0    0  0.13787491518E+00 -0.99555796887E-01  0.38221394519E+01  0.39303525082E+01  0.90000000000E+00 0. -1.
</event>
<event>
 5   0  0.4857400E+02  0.9118800E+02  0.7818608E-02  0.1180000E+00
       11   -1    0    0    0    0  0.00000000000E+00  0.00000000000E+00  0.39999999673E+01  0.40000000000E+01  0.51109989000E-03 0.  1.
     -623   -1    0    0    0    0  0.00000000000E+00  0.00000000000E+00  0.12525980253E-10  0.17130000000E+03  0.17130000000E+03 0. -1.
       11    1    1    2    0    0  0.12370702904E+00 -0.11902710286E-02  0.17740171296E-01  0.12497928100E+00  0.51109989000E-03 0.  1.
     -623    1    1    2    0    0 -0.24318846641E-01  0.11931775059E+00  0.21655172893E+00  0.17130018016E+03  0.17130000000E+03 0. -1.
      622    1    1    2    0    0 -0.99388182399E-01 -0.11812747957E+00  0.37657080671E+01  0.38748405592E+01  0.90000000000E+00 0.  1.
</event>
<event>
 5   0  0.4857400E+02  0.9118800E+02  0.7818608E-02  0.1180000E+00
       11   -1    0    0    0    0  0.00000000000E+00  0.00000000000E+00  0.39999999673E+01  0.40000000000E+01  0.51109989000E-03 0.  1.
     -623   -1    0    0    0    0  0.00000000000E+00  0.00000000000E+00  0.12525980253E-10  0.17130000000E+03  0.17130000000E+03 0. -1.
       11    1    1    2    0    0  0.15035818904E-01  0.13764345297E+00  0.68317412221E+00  0.69706451529E+00  0.51109989000E-03 0.  1.
     -623    1    1    2    0    0  0.15701977900E+00 -0.12812034833E-02  0.14660579040E+00  0.17130013471E+03  0.17130000000E+03 0. -1.
      622    1    1    2    0    0 -0.17205559790E+00 -0.13636224949E+00  0.31702200547E+01  0.33028007792E+01  0.90000000000E+00 0.  1.
</event>
<event>
 5   0  0.4857400E+02  0.9118800E+02  0.7818608E-02  0.1180000E+00
       11   -1    0    0    0    0  0.00000000000E+00  0.00000000000E+00  0.39999999673E+01  0.40000000000E+01  0.51109989000E-03 0.  1.
     -623   -1    0    0    0    0  0.00000000000E+00  0.00000000000E+00  0.12525980253E-10  0.17130000000E+03  0.17130000000E+03 0. -1.
       11    1    1    2    0    0  0.10344702875E+00  0.40892349454E-01  0.49085546540E+00  0.50330191847E+00  0.51109989000E-03 0.  1.
     -623    1    1    2    0    0 -0.21396247974E-01 -0.15198167434E+00  0.13320296078E+00  0.17130012055E+03  0.17130000000E+03 0. -1.
      622    1    1    2    0    0 -0.82050780780E-01  0.11108932488E+00  0.33759415412E+01  0.34965775350E+01  0.90000000000E+00 0.  1.
</event>
<event>
 5   0  0.4857400E+02  0.9118800E+02  0.7818608E-02  0.1180000E+00
       11   -1    0    0    0    0  0.00000000000E+00  0.00000000000E+00  0.39999999673E+01  0.40000000000E+01  0.51109989000E-03 0.  1.
     -623   -1    0    0    0    0  0.00000000000E+00  0.00000000000E+00  0.12525980253E-10  0.17130000000E+03  0.17130000000E+03 0.  1.
       11    1    1    2    0    0 -0.18687526593E+00 -0.11664666139E-02  0.51788959998E+00  0.55057572109E+00  0.51109989000E-03 0.  1.
     -623    1    1    2    0    0  0.71981896094E-01  0.82087888906E-01  0.15524190268E+00  0.17130010514E+03  0.17130000000E+03 0.  1.
      622    1    1    2    0    0  0.11489336983E+00 -0.80921422292E-01  0.33268684647E+01  0.34493191422E+01  0.90000000000E+00 0.  1.
</event>
<event>
 5   0  0.4857400E+02  0.9118800E+02  0.7818608E-02  0.1180000E+00
       11   -1    0    0    0    0  0.00000000000E+00  0.00000000000E+00  0.39999999673E+01  0.40000000000E+01  0.51109989000E-03 0. -1.
     -623   -1    0    0    0    0  0.00000000000E+00  0.00000000000E+00  0.12525980253E-10  0.17130000000E+03  0.17130000000E+03 0.  1.
       11    1    1    2    0    0 -0.48515230042E-01 -0.62158361715E-01  0.23372029690E+00  0.24666338983E+00  0.51109989000E-03 0. -1.
     -623    1    1    2    0    0  0.16570723620E+00  0.43305275660E-01  0.12451308178E+00  0.17130013087E+03  0.17130000000E+03 0.  1.
      622    1    1    2    0    0 -0.11719200616E+00  0.18853086055E-01  0.36417665887E+01  0.37532057353E+01  0.90000000000E+00 0. -1.
</event>
<event>
 5   0  0.4857400E+02  0.9118800E+02  0.7818608E-02  0.1180000E+00
       11   -1    0    0    0    0  0.00000000000E+00  0.00000000000E+00  0.39999999673E+01  0.40000000000E+01  0.51109989000E-03 0. -1.
     -623   -1    0    0    0    0  0.00000000000E+00  0.00000000000E+00  0.12525980253E-10  0.17130000000E+03  0.17130000000E+03 0.  1.
       11    1    1    2    0    0 -0.54373658563E-02  0.28672895043E-01  0.96082591287E-02  0.30729134766E-01  0.51109989000E-03 0. -1.
     -623    1    1    2    0    0 -0.52627688951E-01 -0.23847910607E-02  0.12508166205E+00  0.17130005377E+03  0.17130000000E+03 0.  1.
      622    1    1    2    0    0  0.58065054807E-01 -0.26288103982E-01  0.38653100462E+01  0.39692170976E+01  0.90000000000E+00 0. -1.
</event>
<event>
 5   0  0.4857400E+02  0.9118800E+02  0.7818608E-02  0.1180000E+00
       11   -1    0    0    0    0  0.00000000000E+00  0.00000000000E+00  0.39999999673E+01  0.40000000000E+01  0.51109989000E-03 0. -1.
     -623   -1    0    0    0    0  0.00000000000E+00  0.00000000000E+00  0.12525980253E-10  0.17130000000E+03  0.17130000000E+03 0. -1.
       11    1    1    2    0    0 -0.66215475570E-01 -0.22296953820E-01  0.34012253881E+00  0.34722506531E+00  0.51109989000E-03 0. -1.
     -623    1    1    2    0    0 -0.11221817120E+00 -0.10975084267E+00  0.12680209546E+00  0.17130011885E+03  0.17130000000E+03 0. -1.
      622    1    1    2    0    0  0.17843364677E+00  0.13204779649E+00  0.35330753331E+01  0.36526560879E+01  0.90000000000E+00 0. -1.
</event>
<event>
 5   0  0.4857400E+02  0.9118800E+02  0.7818608E-02  0.1180000E+00
       11   -1    0    0    0    0  0.00000000000E+00  0.00000000000E+00  0.39999999673E+01  0.40000000000E+01  0.51109989000E-03 0. -1.
     -623   -1    0    0    0    0  0.00000000000E+00  0.00000000000E+00  0.12525980253E-10  0.17130000000E+03  0.17130000000E+03 0. -1.
       11    1    1    2    0    0  0.47690769252E-01 -0.35375644549E-01  0.24294410754E+00  0.25009587423E+00  0.51109989000E-03 0. -1.
     -623    1    1    2    0    0 -0.74934701588E-01  0.44336023673E-01  0.11693317479E+00  0.17130006204E+03  0.17130000000E+03 0. -1.
      622    1    1    2    0    0  0.27243932337E-01 -0.89603791235E-02  0.36401226850E+01  0.37498420877E+01  0.90000000000E+00 0. -1.
</event>
<event>
 5   0  0.4857400E+02  0.9118800E+02  0.7818608E-02  0.1180000E+00
       11   -1    0    0    0    0  0.00000000000E+00  0.00000000000E+00  0.39999999673E+01  0.40000000000E+01  0.51109989000E-03 0. -1.
     -623   -1    0    0    0    0  0.00000000000E+00  0.00000000000E+00  0.12525980253E-10  0.17130000000E+03  0.17130000000E+03 0.  1.
       11    1    1    2    0    0  0.11635822889E+00 -0.32168018528E-01  0.23661479361E+00  0.26563290576E+00  0.51109989000E-03 0. -1.
     -623    1    1    2    0    0 -0.96978148198E-01 -0.39094221688E-01  0.13993675169E+00  0.17130008907E+03  0.17130000000E+03 0.  1.
      622    1    1    2    0    0 -0.19380080691E-01  0.71262240216E-01  0.36234484221E+01  0.37342780242E+01  0.90000000000E+00 0. -1.
</event>
<event>
 5   0  0.4857400E+02  0.9118800E+02  0.7818608E-02  0.1180000E+00
       11   -1    0    0    0    0  0.00000000000E+00  0.00000000000E+00  0.39999999673E+01  0.40000000000E+01  0.51109989000E-03 0. -1.
     -623   -1    0    0    0    0  0.00000000000E+00  0.00000000000E+00  0.12525980253E-10  0.17130000000E+03  0.17130000000E+03 0.  1.
       11    1    1    2    0    0 -0.23958118443E-01  0.13384650645E+00  0.34544168944E+00  0.37123995038E+00  0.51109989000E-03 0. -1.
     -623    1    1    2    0    0 -0.66434822799E-02 -0.46108054756E-01  0.14047219011E+00  0.17130006393E+03  0.17130000000E+03 0.  1.
      622    1    1    2    0    0  0.30601600723E-01 -0.87738451699E-01  0.35140860878E+01  0.36286961193E+01  0.90000000000E+00 0.  0.
</event>
<event>
 5   0  0.4857400E+02  0.9118800E+02  0.7818608E-02  0.1180000E+00
       11   -1    0    0    0    0  0.00000000000E+00  0.00000000000E+00  0.39999999673E+01  0.40000000000E+01  0.51109989000E-03 0.  1.
     -623   -1    0    0    0    0  0.00000000000E+00  0.00000000000E+00  0.12525980253E-10  0.17130000000E+03  0.17130000000E+03 0.  1.
       11    1    1    2    0    0 -0.22016319162E-02  0.14464910073E-01 -0.15936299964E-01  0.21640417826E-01  0.51109989000E-03 0.  1.
     -623    1    1    2    0    0  0.10258352008E-01 -0.10957830422E+00  0.14198686355E+00  0.17130009420E+03  0.17130000000E+03 0.  1.
      622    1    1    2    0    0 -0.80567200916E-02  0.95113394147E-01  0.38739494038E+01  0.39782653822E+01  0.90000000000E+00 0.  1.
</event>
<event>
 5   0  0.4857400E+02  0.9118800E+02  0.7818608E-02  0.1180000E+00
       11   -1    0    0    0    0  0.00000000000E+00  0.00000000000E+00  0.39999999673E+01  0.40000000000E+01  0.51109989000E-03 0. -1.
     -623   -1    0    0    0    0  0.00000000000E+00  0.00000000000E+00  0.12525980253E-10  0.17130000000E+03  0.17130000000E+03 0.  1.
       11    1    1    2    0    0  0.73533818118E-01 -0.45071460436E-01  0.14018728697E+00  0.16459464026E+00  0.51109989000E-03 0. -1.
     -623    1    1    2    0    0 -0.14129245106E+00 -0.54331224029E-01  0.13356125581E+00  0.17130011896E+03  0.17130000000E+03 0.  1.
      622    1    1    2    0    0  0.67758632937E-01  0.99402684465E-01  0.37262514246E+01  0.38352864046E+01  0.90000000000E+00 0. -1.
</event>
<event>
 5   0  0.4857400E+02  0.9118800E+02  0.7818608E-02  0.1180000E+00
       11   -1    0    0    0    0  0.00000000000E+00  0.00000000000E+00  0.39999999673E+01  0.40000000000E+01  0.51109989000E-03 0.  1.
     -623   -1    0    0    0    0  0.00000000000E+00  0.00000000000E+00  0.12525980253E-10  0.17130000000E+03  0.17130000000E+03 0.  1.
       11    1    1    2    0    0  0.27702430523E-01  0.35068692740E-01  0.27709930549E+00  0.28068046635E+00  0.51109989000E-03 0.  1.
     -623    1    1    2    0    0  0.70188370404E-01 -0.23207103790E-01  0.11551849575E+00  0.17130005490E+03  0.17130000000E+03 0.  1.
      622    1    1    2    0    0 -0.97890800927E-01 -0.11861588951E-01  0.36073821661E+01  0.37192646314E+01  0.90000000000E+00 0.  1.
</event>
<event>
 5   0  0.4857400E+02  0.9118800E+02  0.7818608E-02  0.1180000E+00
       11   -1    0    0    0    0  0.00000000000E+00  0.00000000000E+00  0.39999999673E+01  0.40000000000E+01  0.51109989000E-03 0. -1.
     -623   -1    0    0    0    0  0.00000000000E+00  0.00000000000E+00  0.12525980253E-10  0.17130000000E+03  0.17130000000E+03 0.  1.
       11    1    1    2    0    0  0.19441284105E+00 -0.32111161605E+00  0.62181990463E+00  0.72633964352E+00  0.51109989000E-03 0. -1.
     -623    1    1    2    0    0 -0.21566327245E+00  0.30073408293E+00  0.23138085564E+00  0.17130055601E+03  0.17130000000E+03 0.  1.
      622    1    1    2    0    0  0.21250431408E-01  0.20377533120E-01  0.31467992071E+01  0.32731043482E+01  0.90000000000E+00 0. -1.
</event>
<event>
 5   0  0.4857400E+02  0.9118800E+02  0.7818608E-02  0.1180000E+00
       11   -1    0    0    0    0  0.00000000000E+00  0.00000000000E+00  0.39999999673E+01  0.40000000000E+01  0.51109989000E-03 0. -1.
     -623   -1    0    0    0    0  0.00000000000E+00  0.00000000000E+00  0.12525980253E-10  0.17130000000E+03  0.17130000000E+03 0. -1.
       11    1    1    2    0    0 -0.12201759874E+00 -0.18085496084E+00  0.27242985412E+00  0.34902019698E+00  0.51109989000E-03 0. -1.
     -623    1    1    2    0    0 -0.30257848329E-02  0.29872779558E-02  0.19606036379E+00  0.17130011225E+03  0.17130000000E+03 0. -1.
      622    1    1    2    0    0  0.12504338357E+00  0.17786768289E+00  0.35315097494E+01  0.36508675504E+01  0.90000000000E+00 0. -1.
</event>
<event>
 5   0  0.4857400E+02  0.9118800E+02  0.7818608E-02  0.1180000E+00
       11   -1    0    0    0    0  0.00000000000E+00  0.00000000000E+00  0.39999999673E+01  0.40000000000E+01  0.51109989000E-03 0. -1.
     -623   -1    0    0    0    0  0.00000000000E+00  0.00000000000E+00  0.12525980253E-10  0.17130000000E+03  0.17130000000E+03 0.  1.
       11    1    1    2    0    0 -0.18482286126E-01  0.42708077298E-02  0.17519584044E-01  0.25826957723E-01  0.51109989000E-03 0. -1.
     -623    1    1    2    0    0  0.28854499321E-01  0.32064555413E-01  0.11178400396E+00  0.17130004190E+03  0.17130000000E+03 0.  1.
      622    1    1    2    0    0 -0.10372213195E-01 -0.36335363142E-01  0.38706963794E+01  0.39741311381E+01  0.90000000000E+00 0. -1.
</event>
<event>
 5   0  0.4857400E+02  0.9118800E+02  0.7818608E-02  0.1180000E+00
       11   -1    0    0    0    0  0.00000000000E+00  0.00000000000E+00  0.39999999673E+01  0.40000000000E+01  0.51109989000E-03 0. -1.
     -623   -1    0    0    0    0  0.00000000000E+00  0.00000000000E+00  0.12525980253E-10  0.17130000000E+03  0.17130000000E+03 0. -1.
       11    1    1    2    0    0 -0.21613173532E-02  0.44831992253E-01  0.18926574919E+00  0.19451571622E+00  0.51109989000E-03 0. -1.
     -623    1    1    2    0    0  0.19566187857E+00  0.13026385670E-01  0.11888476763E+00  0.17130015349E+03  0.17130000000E+03 0. -1.
      622    1    1    2    0    0 -0.19350056122E+00 -0.57858377924E-01  0.36918494505E+01  0.38053307904E+01  0.90000000000E+00 0. -1.
</event>
<event>
 5   0  0.4857400E+02  0.9118800E+02  0.7818608E-02  0.1180000E+00
       11   -1    0    0    0    0  0.00000000000E+00  0.00000000000E+00  0.39999999673E+01  0.40000000000E+01  0.51109989000E-03 0.  1.
     -623   -1    0    0    0    0  0.00000000000E+00  0.00000000000E+00  0.12525980253E-10  0.17130000000E+03  0.17130000000E+03 0. -1.
       11    1    1    2    0    0 -0.10402170719E+00  0.10075752505E+00  0.43966451978E+00  0.46290144264E+00  0.51109989000E-03 0.  1.
     -623    1    1    2    0    0 -0.22137554676E+00  0.24390368400E-02  0.15695291874E+00  0.17130021497E+03  0.17130000000E+03 0. -1.
      622    1    1    2    0    0  0.32539725394E+00 -0.10319656189E+00  0.34033825288E+01  0.35368835916E+01  0.90000000000E+00 0.  1.
</event>
<event>
 5   0  0.4857400E+02  0.9118800E+02  0.7818608E-02  0.1180000E+00
       11   -1    0    0    0    0  0.00000000000E+00  0.00000000000E+00  0.39999999673E+01  0.40000000000E+01  0.51109989000E-03 0.  1.
     -623   -1    0    0    0    0  0.00000000000E+00  0.00000000000E+00  0.12525980253E-10  0.17130000000E+03  0.17130000000E+03 0. -1.
       11    1    1    2    0    0 -0.14699410999E+00  0.83044276959E-01  0.76013726551E-01  0.18515390397E+00  0.51109989000E-03 0.  1.
     -623    1    1    2    0    0  0.27381135458E+00  0.16461757763E+00  0.22774440412E+00  0.17130044933E+03  0.17130000000E+03 0. -1.
      622    1    1    2    0    0 -0.12681724459E+00 -0.24766185459E+00  0.36962418367E+01  0.38143967705E+01  0.90000000000E+00 0.  1.
</event>
<event>
 5   0  0.4857400E+02  0.9118800E+02  0.7818608E-02  0.1180000E+00
       11   -1    0    0    0    0  0.00000000000E+00  0.00000000000E+00  0.39999999673E+01  0.40000000000E+01  0.51109989000E-03 0. -1.
     -623   -1    0    0    0    0  0.00000000000E+00  0.00000000000E+00  0.12525980253E-10  0.17130000000E+03  0.17130000000E+03 0.  1.
       11    1    1    2    0    0 -0.50912556826E-01  0.64336604739E-02 -0.12714356598E-01  0.52871509491E-01  0.51109989000E-03 0. -1.
     -623    1    1    2    0    0  0.93529398304E-01  0.29417794941E-01  0.17008062401E+00  0.17130011249E+03  0.17130000000E+03 0.  1.
      622    1    1    2    0    0 -0.42616841478E-01 -0.35851455415E-01  0.38426336999E+01  0.39470159962E+01  0.90000000000E+00 0. -1.
</event>
<event>
 5   0  0.4857400E+02  0.9118800E+02  0.7818608E-02  0.1180000E+00
       11   -1    0    0    0    0  0.00000000000E+00  0.00000000000E+00  0.39999999673E+01  0.40000000000E+01  0.51109989000E-03 0. -1.
     -623   -1    0    0    0    0  0.00000000000E+00  0.00000000000E+00  0.12525980253E-10  0.17130000000E+03  0.17130000000E+03 0.  1.
       11    1    1    2    0    0  0.48477434534E-02 -0.13101286478E-01 -0.13333533343E-01  0.19318091481E-01  0.51109989000E-03 0. -1.
     -623    1    1    2    0    0 -0.87649867281E-01  0.87780164006E-01  0.13743375550E+00  0.17130010005E+03  0.17130000000E+03 0.  1.
      622    1    1    2    0    0  0.82802123828E-01 -0.74678877528E-01  0.38758997452E+01  0.39805818622E+01  0.90000000000E+00 0. -1.
</event>
<event>
 5   0  0.4857400E+02  0.9118800E+02  0.7818608E-02  0.1180000E+00
       11   -1    0    0    0    0  0.00000000000E+00  0.00000000000E+00  0.39999999673E+01  0.40000000000E+01  0.51109989000E-03 0. -1.
     -623   -1    0    0    0    0  0.00000000000E+00  0.00000000000E+00  0.12525980253E-10  0.17130000000E+03  0.17130000000E+03 0.  1.
       11    1    1    2    0    0 -0.40994823019E-01 -0.34922763842E-01  0.68463491473E-01  0.87107323667E-01  0.51109989000E-03 0. -1.
     -623    1    1    2    0    0 -0.25965894887E-01  0.97410431254E-01  0.12473294528E+00  0.17130007508E+03  0.17130000000E+03 0.  1.
      622    1    1    2    0    0  0.66960717905E-01 -0.62487667412E-01  0.38068035306E+01  0.39128175995E+01  0.90000000000E+00 0. -1.
</event>
<event>
 5   0  0.4857400E+02  0.9118800E+02  0.7818608E-02  0.1180000E+00
       11   -1    0    0    0    0  0.00000000000E+00  0.00000000000E+00  0.39999999673E+01  0.40000000000E+01  0.51109989000E-03 0. -1.
     -623   -1    0    0    0    0  0.00000000000E+00  0.00000000000E+00  0.12525980253E-10  0.17130000000E+03  0.17130000000E+03 0. -1.
       11    1    1    2    0    0 -0.56134242625E-01 -0.39479203955E-01  0.40861122687E-01  0.79872105959E-01  0.51109989000E-03 0. -1.
     -623    1    1    2    0    0  0.80170526270E-01 -0.45231451051E-01  0.14482695795E+00  0.17130008595E+03  0.17130000000E+03 0. -1.
      622    1    1    2    0    0 -0.24036283644E-01  0.84710655006E-01  0.38143118867E+01  0.39200419395E+01  0.90000000000E+00 0. -1.
</event>
<event>
 5   0  0.4857400E+02  0.9118800E+02  0.7818608E-02  0.1180000E+00
       11   -1    0    0    0    0  0.00000000000E+00  0.00000000000E+00  0.39999999673E+01  0.40000000000E+01  0.51109989000E-03 0.  1.
     -623   -1    0    0    0    0  0.00000000000E+00  0.00000000000E+00  0.12525980253E-10  0.17130000000E+03  0.17130000000E+03 0.  1.
       11    1    1    2    0    0 -0.29565805684E-01 -0.15659641870E-01  0.83307364997E-01  0.89776052124E-01  0.51109989000E-03 0.  1.
     -623    1    1    2    0    0  0.94462053896E-01 -0.53560834776E-01  0.11270927120E+00  0.17130007150E+03  0.17130000000E+03 0.  1.
      622    1    1    2    0    0 -0.64896248212E-01  0.69220476646E-01  0.38039833312E+01  0.39101524499E+01  0.90000000000E+00 0.  1.
</event>
<event>
 5   0  0.4857400E+02  0.9118800E+02  0.7818608E-02  0.1180000E+00
       11   -1    0    0    0    0  0.00000000000E+00  0.00000000000E+00  0.39999999673E+01  0.40000000000E+01  0.51109989000E-03 0. -1.
     -623   -1    0    0    0    0  0.00000000000E+00  0.00000000000E+00  0.12525980253E-10  0.17130000000E+03  0.17130000000E+03 0.  1.
       11    1    1    2    0    0 -0.14285661247E+00  0.16005416954E+00  0.57854667178E+00  0.61704283609E+00  0.51109989000E-03 0. -1.
     -623    1    1    2    0    0 -0.15528292585E-01 -0.31946551619E+00  0.16855917202E+00  0.17130038153E+03  0.17130000000E+03 0.  1.
      622    1    1    2    0    0  0.15838490505E+00  0.15941134665E+00  0.32528941236E+01  0.33825756362E+01  0.90000000000E+00 0. -1.
</event>
<event>
 5   0  0.4857400E+02  0.9118800E+02  0.7818608E-02  0.1180000E+00
       11   -1    0    0    0    0  0.00000000000E+00  0.00000000000E+00  0.39999999673E+01  0.40000000000E+01  0.51109989000E-03 0. -1.
     -623   -1    0    0    0    0  0.00000000000E+00  0.00000000000E+00  0.12525980253E-10  0.17130000000E+03  0.17130000000E+03 0.  1.
       11    1    1    2    0    0  0.27124439429E-01 -0.10119089254E+00  0.66937906171E-02  0.10497809297E+00  0.51109989000E-03 0. -1.
     -623    1    1    2    0    0 -0.36940331994E-01 -0.83341353947E-01  0.20835292235E+00  0.17130015097E+03  0.17130000000E+03 0.  1.
      622    1    1    2    0    0  0.98158925649E-02  0.18453224649E+00  0.37849532544E+01  0.38948709401E+01  0.90000000000E+00 0. -1.
</event>
<event>
 5   0  0.4857400E+02  0.9118800E+02  0.7818608E-02  0.1180000E+00
       11   -1    0    0    0    0  0.00000000000E+00  0.00000000000E+00  0.39999999673E+01  0.40000000000E+01  0.51109989000E-03 0.  1.
     -623   -1    0    0    0    0  0.00000000000E+00  0.00000000000E+00  0.12525980253E-10  0.17130000000E+03  0.17130000000E+03 0. -1.
       11    1    1    2    0    0 -0.23443638819E+00  0.11657451348E+00  0.43539044893E+00  0.50805033368E+00  0.51109989000E-03 0.  1.
     -623    1    1    2    0    0  0.20837781118E+00 -0.18677155320E-01  0.19239915544E+00  0.17130023581E+03  0.17130000000E+03 0. -1.
      622    1    1    2    0    0  0.26058577011E-01 -0.97897358159E-01  0.33722103630E+01  0.34917138592E+01  0.90000000000E+00 0.  1.
</event>
<event>
 5   0  0.4857400E+02  0.9118800E+02  0.7818608E-02  0.1180000E+00
       11   -1    0    0    0    0  0.00000000000E+00  0.00000000000E+00  0.39999999673E+01  0.40000000000E+01  0.51109989000E-03 0.  1.
     -623   -1    0    0    0    0  0.00000000000E+00  0.00000000000E+00  0.12525980253E-10  0.17130000000E+03  0.17130000000E+03 0. -1.
       11    1    1    2    0    0 -0.47994154566E-01 -0.11582211647E+00  0.32608730886E+00  0.34935854900E+00  0.51109989000E-03 0.  1.
     -623    1    1    2    0    0 -0.76127323486E-01 -0.46088934378E-01  0.14192120070E+00  0.17130008191E+03  0.17130000000E+03 0. -1.
      622    1    1    2    0    0  0.12412147805E+00  0.16191105085E+00  0.35319914578E+01  0.36505595445E+01  0.90000000000E+00 0.  1.
</event>
<event>
 5   0  0.4857400E+02  0.9118800E+02  0.7818608E-02  0.1180000E+00
       11   -1    0    0    0    0  0.00000000000E+00  0.00000000000E+00  0.39999999673E+01  0.40000000000E+01  0.51109989000E-03 0. -1.
     -623   -1    0    0    0    0  0.00000000000E+00  0.00000000000E+00  0.12525980253E-10  0.17130000000E+03  0.17130000000E+03 0. -1.
       11    1    1    2    0    0  0.29004317436E-02  0.11630071639E+00  0.50610031078E-01  0.12686964020E+00  0.51109989000E-03 0. -1.
     -623    1    1    2    0    0 -0.34112079935E-01 -0.13127566792E+00  0.18259147927E+00  0.17130015101E+03  0.17130000000E+03 0. -1.
      622    1    1    2    0    0  0.31211648192E-01  0.14974951532E-01  0.37667984570E+01  0.38729793482E+01  0.90000000000E+00 0. -1.
</event>
<event>
 5   0  0.4857400E+02  0.9118800E+02  0.7818608E-02  0.1180000E+00
       11   -1    0    0    0    0  0.00000000000E+00  0.00000000000E+00  0.39999999673E+01  0.40000000000E+01  0.51109989000E-03 0. -1.
     -623   -1    0    0    0    0  0.00000000000E+00  0.00000000000E+00  0.12525980253E-10  0.17130000000E+03  0.17130000000E+03 0. -1.
       11    1    1    2    0    0 -0.42499223724E-02  0.25622160852E-01  0.27122838900E+00  0.27246955277E+00  0.51109989000E-03 0. -1.
     -623    1    1    2    0    0  0.65336518443E-01 -0.77426290804E-01  0.11247936714E+00  0.17130006689E+03  0.17130000000E+03 0. -1.
      622    1    1    2    0    0 -0.61086596071E-01  0.51804129952E-01  0.36162922112E+01  0.37274635608E+01  0.90000000000E+00 0. -1.
</event>
<event>
 5   0  0.4857400E+02  0.9118800E+02  0.7818608E-02  0.1180000E+00
       11   -1    0    0    0    0  0.00000000000E+00  0.00000000000E+00  0.39999999673E+01  0.40000000000E+01  0.51109989000E-03 0. -1.
     -623   -1    0    0    0    0  0.00000000000E+00  0.00000000000E+00  0.12525980253E-10  0.17130000000E+03  0.17130000000E+03 0.  1.
       11    1    1    2    0    0  0.53472357542E-01 -0.41755464838E-01  0.30764949302E+00  0.31504171730E+00  0.51109989000E-03 0. -1.
     -623    1    1    2    0    0 -0.63213074772E-01  0.82510140623E-01  0.11930931819E+00  0.17130007308E+03  0.17130000000E+03 0.  1.
      622    1    1    2    0    0  0.97407172305E-02 -0.40754675785E-01  0.35730411562E+01  0.36848851989E+01  0.90000000000E+00 0. -1.
</event>
<event>
 5   0  0.4857400E+02  0.9118800E+02  0.7818608E-02  0.1180000E+00
       11   -1    0    0    0    0  0.00000000000E+00  0.00000000000E+00  0.39999999673E+01  0.40000000000E+01  0.51109989000E-03 0. -1.
     -623   -1    0    0    0    0  0.00000000000E+00  0.00000000000E+00  0.12525980253E-10  0.17130000000E+03  0.17130000000E+03 0. -1.
       11    1    1    2    0    0 -0.76232808781E-01 -0.76484883912E-02  0.21068775910E+00  0.22418638131E+00  0.51109989000E-03 0. -1.
     -623    1    1    2    0    0  0.15181561549E-01 -0.15127795166E+00  0.12640053243E+00  0.17130011411E+03  0.17130000000E+03 0. -1.
      622    1    1    2    0    0  0.61051247232E-01  0.15892644006E+00  0.36629116758E+01  0.37756995131E+01  0.90000000000E+00 0. -1.
</event>
<event>
 5   0  0.4857400E+02  0.9118800E+02  0.7818608E-02  0.1180000E+00
       11   -1    0    0    0    0  0.00000000000E+00  0.00000000000E+00  0.39999999673E+01  0.40000000000E+01  0.51109989000E-03 0.  1.
     -623   -1    0    0    0    0  0.00000000000E+00  0.00000000000E+00  0.12525980253E-10  0.17130000000E+03  0.17130000000E+03 0. -1.
       11    1    1    2    0    0  0.25819726077E+00 -0.86436294082E-01  0.77565572813E+00  0.82205786184E+00  0.51109989000E-03 0.  1.
     -623    1    1    2    0    0 -0.12446115340E+00 -0.12646357799E+00  0.18709695359E+00  0.17130019407E+03  0.17130000000E+03 0. -1.
      622    1    1    2    0    0 -0.13373610737E+00  0.21289987207E+00  0.30372472856E+01  0.31777480668E+01  0.90000000000E+00 0.  1.
</event>
<event>
 5   0  0.4857400E+02  0.9118800E+02  0.7818608E-02  0.1180000E+00
       11   -1    0    0    0    0  0.00000000000E+00  0.00000000000E+00  0.39999999673E+01  0.40000000000E+01  0.51109989000E-03 0.  1.
     -623   -1    0    0    0    0  0.00000000000E+00  0.00000000000E+00  0.12525980253E-10  0.17130000000E+03  0.17130000000E+03 0.  1.
       11    1    1    2    0    0  0.13697438827E-01 -0.58592064981E-01 -0.41617830328E-01  0.73163890897E-01  0.51109989000E-03 0.  1.
     -623    1    1    2    0    0  0.24418915230E-01  0.39496416828E-01  0.21969832545E+00  0.17130014718E+03  0.17130000000E+03 0.  1.
      622    1    1    2    0    0 -0.38116354057E-01  0.19095648153E-01  0.38219194722E+01  0.39266889299E+01  0.90000000000E+00 0.  1.
</event>
<event>
 5   0  0.4857400E+02  0.9118800E+02  0.7818608E-02  0.1180000E+00
       11   -1    0    0    0    0  0.00000000000E+00  0.00000000000E+00  0.39999999673E+01  0.40000000000E+01  0.51109989000E-03 0.  1.
     -623   -1    0    0    0    0  0.00000000000E+00  0.00000000000E+00  0.12525980253E-10  0.17130000000E+03  0.17130000000E+03 0.  1.
       11    1    1    2    0    0  0.42681610225E-02 -0.24170207189E-02 -0.49113899022E-02  0.69600403403E-02  0.51109989000E-03 0.  1.
     -623    1    1    2    0    0  0.70882917400E-01  0.65422078873E-01  0.11592425767E+00  0.17130006638E+03  0.17130000000E+03 0.  1.
      622    1    1    2    0    0 -0.75151078422E-01 -0.63005058154E-01  0.38889870996E+01  0.39929735765E+01  0.90000000000E+00 0.  1.
</event>
<event>
 5   0  0.4857400E+02  0.9118800E+02  0.7818608E-02  0.1180000E+00
       11   -1    0    0    0    0  0.00000000000E+00  0.00000000000E+00  0.39999999673E+01  0.40000000000E+01  0.51109989000E-03 0.  1.
     -623   -1    0    0    0    0  0.00000000000E+00  0.00000000000E+00  0.12525980253E-10  0.17130000000E+03  0.17130000000E+03 0. -1.
       11    1    1    2    0    0 -0.62215162108E-01 -0.75655203626E-02  0.70282621513E+00  0.70561527293E+00  0.51109989000E-03 0.  1.
     -623    1    1    2    0    0  0.11976721346E+00  0.88343672952E-01  0.12977994649E+00  0.17130011381E+03  0.17130000000E+03 0. -1.
      622    1    1    2    0    0 -0.57552051351E-01 -0.80778152590E-01  0.31673938057E+01  0.32942709162E+01  0.90000000000E+00 0.  1.
</event>
<event>
 5   0  0.4857400E+02  0.9118800E+02  0.7818608E-02  0.1180000E+00
       11   -1    0    0    0    0  0.00000000000E+00  0.00000000000E+00  0.39999999673E+01  0.40000000000E+01  0.51109989000E-03 0.  1.
     -623   -1    0    0    0    0  0.00000000000E+00  0.00000000000E+00  0.12525980253E-10  0.17130000000E+03  0.17130000000E+03 0. -1.
       11    1    1    2    0    0 -0.25339152399E-01 -0.84639226610E-01  0.12631806563E-01  0.89250742774E-01  0.51109989000E-03 0.  1.
     -623    1    1    2    0    0  0.86033933003E-01  0.34654023185E-01  0.18252645636E+00  0.17130012235E+03  0.17130000000E+03 0. -1.
      622    1    1    2    0    0 -0.60694780604E-01  0.49985203425E-01  0.38048417044E+01  0.39106269028E+01  0.90000000000E+00 0.  1.
</event>
<event>
 5   0  0.4857400E+02  0.9118800E+02  0.7818608E-02  0.1180000E+00
       11   -1    0    0    0    0  0.00000000000E+00  0.00000000000E+00  0.39999999673E+01  0.40000000000E+01  0.51109989000E-03 0.  1.
     -623   -1    0    0    0    0  0.00000000000E+00  0.00000000000E+00  0.12525980253E-10  0.17130000000E+03  0.17130000000E+03 0.  1.
       11    1    1    2    0    0 -0.20205187730E+00 -0.18000341765E+00  0.10915002457E+01  0.11245440139E+01  0.51109989000E-03 0.  1.
     -623    1    1    2    0    0  0.16911570379E-01  0.35760257577E-01  0.18773765597E+00  0.17130010744E+03  0.17130000000E+03 0.  1.
      622    1    1    2    0    0  0.18514030692E+00  0.14424316007E+00  0.27207620657E+01  0.28753485424E+01  0.90000000000E+00 0.  1.
</event>
<event>
 5   0  0.4857400E+02  0.9118800E+02  0.7818608E-02  0.1180000E+00
       11   -1    0    0    0    0  0.00000000000E+00  0.00000000000E+00  0.39999999673E+01  0.40000000000E+01  0.51109989000E-03 0. -1.
     -623   -1    0    0    0    0  0.00000000000E+00  0.00000000000E+00  0.12525980253E-10  0.17130000000E+03  0.17130000000E+03 0. -1.
       11    1    1    2    0    0 -0.50681514176E-01 -0.12422631660E-01  0.18476935096E+00  0.19199716647E+00  0.51109989000E-03 0. -1.
     -623    1    1    2    0    0 -0.39888266864E-01  0.82205157800E-01  0.11694405514E+00  0.17130006429E+03  0.17130000000E+03 0. -1.
      622    1    1    2    0    0  0.90569781041E-01 -0.69782526140E-01  0.36982865613E+01  0.38079385467E+01  0.90000000000E+00 0. -1.
</event>
<event>
 5   0  0.4857400E+02  0.9118800E+02  0.7818608E-02  0.1180000E+00
       11   -1    0    0    0    0  0.00000000000E+00  0.00000000000E+00  0.39999999673E+01  0.40000000000E+01  0.51109989000E-03 0.  1.
     -623   -1    0    0    0    0  0.00000000000E+00  0.00000000000E+00  0.12525980253E-10  0.17130000000E+03  0.17130000000E+03 0.  1.
       11    1    1    2    0    0  0.18773223595E+00 -0.25935535558E+00  0.30109877051E-01  0.32158274021E+00  0.51109989000E-03 0.  1.
     -623    1    1    2    0    0  0.35595379705E+00  0.12661383485E+00  0.44850468059E+00  0.17130100376E+03  0.17130000000E+03 0.  1.
      622    1    1    2    0    0 -0.54368603301E+00  0.13274152073E+00  0.35213854097E+01  0.36774134956E+01  0.90000000000E+00 0.  1.
</event>
<event>
 5   0  0.4857400E+02  0.9118800E+02  0.7818608E-02  0.1180000E+00
       11   -1    0    0    0    0  0.00000000000E+00  0.00000000000E+00  0.39999999673E+01  0.40000000000E+01  0.51109989000E-03 0. -1.
     -623   -1    0    0    0    0  0.00000000000E+00  0.00000000000E+00  0.12525980253E-10  0.17130000000E+03  0.17130000000E+03 0.  1.
       11    1    1    2    0    0 -0.20673182664E+00  0.69789191895E-01  0.11768885571E+01  0.11969442411E+01  0.51109989000E-03 0. -1.
     -623    1    1    2    0    0  0.30035111095E+00 -0.15165670333E+00  0.17182506603E+00  0.17130041662E+03  0.17130000000E+03 0.  1.
      622    1    1    2    0    0 -0.93619284316E-01  0.81867511436E-01  0.26512863443E+01  0.28026391382E+01  0.90000000000E+00 0. -1.
</event>
<event>
 5   0  0.4857400E+02  0.9118800E+02  0.7818608E-02  0.1180000E+00
       11   -1    0    0    0    0  0.00000000000E+00  0.00000000000E+00  0.39999999673E+01  0.40000000000E+01  0.51109989000E-03 0. -1.
     -623   -1    0    0    0    0  0.00000000000E+00  0.00000000000E+00  0.12525980253E-10  0.17130000000E+03  0.17130000000E+03 0. -1.
       11    1    1    2    0    0 -0.11087366100E+00  0.72976796955E-01  0.29271667075E+00  0.32140611717E+00  0.51109989000E-03 0. -1.
     -623    1    1    2    0    0 -0.60950339642E-02 -0.39734390629E-02  0.14313280412E+00  0.17130005995E+03  0.17130000000E+03 0. -1.
      622    1    1    2    0    0  0.11696869496E+00 -0.69003357892E-01  0.35641504925E+01  0.36785339297E+01  0.90000000000E+00 0. -1.
</event>
<event>
 5   0  0.4857400E+02  0.9118800E+02  0.7818608E-02  0.1180000E+00
       11   -1    0    0    0    0  0.00000000000E+00  0.00000000000E+00  0.39999999673E+01  0.40000000000E+01  0.51109989000E-03 0.  1.
     -623   -1    0    0    0    0  0.00000000000E+00  0.00000000000E+00  0.12525980253E-10  0.17130000000E+03  0.17130000000E+03 0.  1.
       11    1    1    2    0    0  0.12052111483E+00  0.24776949312E+00  0.37048735722E+00  0.46171008645E+00  0.51109989000E-03 0.  1.
     -623    1    1    2    0    0  0.21972359833E-01 -0.28077284464E+00  0.21110022430E+00  0.17130036159E+03  0.17130000000E+03 0.  1.
      622    1    1    2    0    0 -0.14249347467E+00  0.33003351522E-01  0.34184123858E+01  0.35379283276E+01  0.90000000000E+00 0.  1.
</event>
<event>
 5   0  0.4857400E+02  0.9118800E+02  0.7818608E-02  0.1180000E+00
       11   -1    0    0    0    0  0.00000000000E+00  0.00000000000E+00  0.39999999673E+01  0.40000000000E+01  0.51109989000E-03 0.  1.
     -623   -1    0    0    0    0  0.00000000000E+00  0.00000000000E+00  0.12525980253E-10  0.17130000000E+03  0.17130000000E+03 0. -1.
       11    1    1    2    0    0 -0.13115152614E+00 -0.18227964842E+00 -0.19632084389E-02  0.22456782595E+00  0.51109989000E-03 0.  1.
     -623    1    1    2    0    0  0.22585073067E+00  0.14035249348E+00  0.33739016622E+00  0.17130053864E+03  0.17130000000E+03 0. -1.
      622    1    1    2    0    0 -0.94699204527E-01  0.41927154942E-01  0.36645730096E+01  0.37748935307E+01  0.90000000000E+00 0.  1.
</event>
<event>
 5   0  0.4857400E+02  0.9118800E+02  0.7818608E-02  0.1180000E+00
       11   -1    0    0    0    0  0.00000000000E+00  0.00000000000E+00  0.39999999673E+01  0.40000000000E+01  0.51109989000E-03 0. -1.
     -623   -1    0    0    0    0  0.00000000000E+00  0.00000000000E+00  0.12525980253E-10  0.17130000000E+03  0.17130000000E+03 0.  1.
       11    1    1    2    0    0  0.13694123280E+00  0.20042425450E-01  0.33346466568E+00  0.36104507272E+00  0.51109989000E-03 0. -1.
     -623    1    1    2    0    0 -0.69716078927E-01  0.32766677453E-01  0.14174707164E+00  0.17130007597E+03  0.17130000000E+03 0.  1.
      622    1    1    2    0    0 -0.67225153869E-01 -0.52809102903E-01  0.35247882300E+01  0.36388789605E+01  0.90000000000E+00 0. -1.
</event>
<event>
 5   0  0.4857400E+02  0.9118800E+02  0.7818608E-02  0.1180000E+00
       11   -1    0    0    0    0  0.00000000000E+00  0.00000000000E+00  0.39999999673E+01  0.40000000000E+01  0.51109989000E-03 0.  1.
     -623   -1    0    0    0    0  0.00000000000E+00  0.00000000000E+00  0.12525980253E-10  0.17130000000E+03  0.17130000000E+03 0.  1.
       11    1    1    2    0    0 -0.94713148352E-01 -0.27712709129E+00  0.60715490391E+00  0.67409742898E+00  0.51109989000E-03 0.  1.
     -623    1    1    2    0    0 -0.23848667716E+00  0.30989236227E+00  0.20918142542E+00  0.17130057404E+03  0.17130000000E+03 0.  1.
      622    1    1    2    0    0  0.33319982551E+00 -0.32765270974E-01  0.31836636380E+01  0.33253285322E+01  0.90000000000E+00 0.  1.
</event>
<event>
 5   0  0.4857400E+02  0.9118800E+02  0.7818608E-02  0.1180000E+00
       11   -1    0    0    0    0  0.00000000000E+00  0.00000000000E+00  0.39999999673E+01  0.40000000000E+01  0.51109989000E-03 0.  1.
     -623   -1    0    0    0    0  0.00000000000E+00  0.00000000000E+00  0.12525980253E-10  0.17130000000E+03  0.17130000000E+03 0.  1.
       11    1    1    2    0    0  0.98297568222E-03 -0.15323208412E+00  0.11463519007E+01  0.11565483039E+01  0.51109989000E-03 0.  1.
     -623    1    1    2    0    0  0.91676339887E-01  0.13730740712E+00  0.15818699255E+00  0.17130015260E+03  0.17130000000E+03 0.  1.
      622    1    1    2    0    0 -0.92659315569E-01  0.15924677001E-01  0.26954610741E+01  0.28432990954E+01  0.90000000000E+00 0.  1.
</event>
<event>
 5   0  0.4857400E+02  0.9118800E+02  0.7818608E-02  0.1180000E+00
       11   -1    0    0    0    0  0.00000000000E+00  0.00000000000E+00  0.39999999673E+01  0.40000000000E+01  0.51109989000E-03 0. -1.
     -623   -1    0    0    0    0  0.00000000000E+00  0.00000000000E+00  0.12525980253E-10  0.17130000000E+03  0.17130000000E+03 0. -1.
       11    1    1    2    0    0  0.16281806349E+00  0.35597591232E-01  0.32393867296E+00  0.36429855251E+00  0.51109989000E-03 0. -1.
     -623    1    1    2    0    0 -0.17636174111E+00 -0.10251226985E+00  0.15437490071E+00  0.17130019102E+03  0.17130000000E+03 0. -1.
      622    1    1    2    0    0  0.13543677620E-01  0.66914678615E-01  0.35216863937E+01  0.36355104265E+01  0.90000000000E+00 0. -1.
</event>
<event>
 5   0  0.4857400E+02  0.9118800E+02  0.7818608E-02  0.1180000E+00
       11   -1    0    0    0    0  0.00000000000E+00  0.00000000000E+00  0.39999999673E+01  0.40000000000E+01  0.51109989000E-03 0.  1.
     -623   -1    0    0    0    0  0.00000000000E+00  0.00000000000E+00  0.12525980253E-10  0.17130000000E+03  0.17130000000E+03 0.  1.
       11    1    1    2    0    0 -0.11623141715E+00  0.12024794610E+00  0.13994809060E+00  0.21807118141E+00  0.51109989000E-03 0.  1.
     -623    1    1    2    0    0 -0.48335485773E+00 -0.12082850581E+00  0.23696448697E+00  0.17130088845E+03  0.17130000000E+03 0.  1.
      622    1    1    2    0    0  0.59958627488E+00  0.58055970734E-03  0.36230873898E+01  0.37810403690E+01  0.90000000000E+00 0.  1.
</event>
<event>
 5   0  0.4857400E+02  0.9118800E+02  0.7818608E-02  0.1180000E+00
       11   -1    0    0    0    0  0.00000000000E+00  0.00000000000E+00  0.39999999673E+01  0.40000000000E+01  0.51109989000E-03 0.  1.
     -623   -1    0    0    0    0  0.00000000000E+00  0.00000000000E+00  0.12525980253E-10  0.17130000000E+03  0.17130000000E+03 0. -1.
       11    1    1    2    0    0 -0.95158925155E-02  0.44763670953E-01  0.12621194523E+00  0.13425369563E+00  0.51109989000E-03 0.  1.
     -623    1    1    2    0    0 -0.10954654745E-01 -0.12280708184E+00  0.11521887463E+00  0.17130008312E+03  0.17130000000E+03 0. -1.
      622    1    1    2    0    0  0.20470547261E-01  0.78043410888E-01  0.37585691475E+01  0.38656631842E+01  0.90000000000E+00 0.  1.
</event>
<event>
 5   0  0.4857400E+02  0.9118800E+02  0.7818608E-02  0.1180000E+00
       11   -1    0    0    0    0  0.00000000000E+00  0.00000000000E+00  0.39999999673E+01  0.40000000000E+01  0.51109989000E-03 0. -1.
     -623   -1    0    0    0    0  0.00000000000E+00  0.00000000000E+00  0.12525980253E-10  0.17130000000E+03  0.17130000000E+03 0. -1.
       11    1    1    2    0    0 -0.72499828542E-02  0.26826212867E-01 -0.49447787183E-02  0.28229771658E-01  0.51109989000E-03 0. -1.
     -623    1    1    2    0    0  0.52517924755E-01 -0.11313512013E+00  0.13781929915E+00  0.17130010085E+03  0.17130000000E+03 0. -1.
      622    1    1    2    0    0 -0.45267941901E-01  0.86308907260E-01  0.38671254469E+01  0.39716693765E+01  0.90000000000E+00 0. -1.
</event>
<event>
 5   0  0.4857400E+02  0.9118800E+02  0.7818608E-02  0.1180000E+00
       11   -1    0    0    0    0  0.00000000000E+00  0.00000000000E+00  0.39999999673E+01  0.40000000000E+01  0.51109989000E-03 0.  1.
     -623   -1    0    0    0    0  0.00000000000E+00  0.00000000000E+00  0.12525980253E-10  0.17130000000E+03  0.17130000000E+03 0.  1.
       11    1    1    2    0    0  0.45058933375E-01 -0.91693861698E-01  0.10331531853E+01  0.10381925820E+01  0.51109989000E-03 0.  1.
     -623    1    1    2    0    0 -0.29797301125E+00 -0.14028175535E+00  0.16645919727E+00  0.17130039748E+03  0.17130000000E+03 0.  1.
      622    1    1    2    0    0  0.25291407788E+00  0.23197561705E+00  0.28003875848E+01  0.29614099417E+01  0.90000000000E+00 0.  0.
</event>
<event>
 5   0  0.4857400E+02  0.9118800E+02  0.7818608E-02  0.1180000E+00
       11   -1    0    0    0    0  0.00000000000E+00  0.00000000000E+00  0.39999999673E+01  0.40000000000E+01  0.51109989000E-03 0.  1.
     -623   -1    0    0    0    0  0.00000000000E+00  0.00000000000E+00  0.12525980253E-10  0.17130000000E+03  0.17130000000E+03 0.  1.
       11    1    1    2    0    0  0.29212335073E+00  0.29220247740E+00  0.10679983026E+01  0.11451370990E+01  0.51109989000E-03 0.  1.
     -623    1    1    2    0    0 -0.40487630629E+00  0.10089823795E+00  0.25449905655E+00  0.17130069724E+03  0.17130000000E+03 0.  1.
      622    1    1    2    0    0  0.11275295556E+00 -0.39310071535E+00  0.26775026082E+01  0.28541656606E+01  0.90000000000E+00 0.  1.
</event>
<event>
 5   0  0.4857400E+02  0.9118800E+02  0.7818608E-02  0.1180000E+00
       11   -1    0    0    0    0  0.00000000000E+00  0.00000000000E+00  0.39999999673E+01  0.40000000000E+01  0.51109989000E-03 0.  1.
     -623   -1    0    0    0    0  0.00000000000E+00  0.00000000000E+00  0.12525980253E-10  0.17130000000E+03  0.17130000000E+03 0.  1.
       11    1    1    2    0    0 -0.81161098953E-01  0.81897353934E-01  0.77098718218E+00  0.77956128487E+00  0.51109989000E-03 0.  1.
     -623    1    1    2    0    0  0.40145549580E-01  0.21188392685E+00  0.15136257721E+00  0.17130020262E+03  0.17130000000E+03 0.  1.
      622    1    1    2    0    0  0.41015549373E-01 -0.29378128079E+00  0.30776502080E+01  0.32202360968E+01  0.90000000000E+00 0.  0.
</event>
<event>
 5   0  0.4857400E+02  0.9118800E+02  0.7818608E-02  0.1180000E+00
       11   -1    0    0    0    0  0.00000000000E+00  0.00000000000E+00  0.39999999673E+01  0.40000000000E+01  0.51109989000E-03 0.  1.
     -623   -1    0    0    0    0  0.00000000000E+00  0.00000000000E+00  0.12525980253E-10  0.17130000000E+03  0.17130000000E+03 0. -1.
       11    1    1    2    0    0  0.13128677576E+00 -0.18386415339E+00  0.41672885325E+00  0.47403105673E+00  0.51109989000E-03 0.  1.
     -623    1    1    2    0    0  0.14694654204E+00  0.24044886920E-01  0.18940808973E+00  0.17130016943E+03  0.17130000000E+03 0. -1.
      622    1    1    2    0    0 -0.27823331780E+00  0.15981926647E+00  0.33938630244E+01  0.35257995129E+01  0.90000000000E+00 0.  1.
</event>
<event>
 5   0  0.4857400E+02  0.9118800E+02  0.7818608E-02  0.1180000E+00
       11   -1    0    0    0    0  0.00000000000E+00  0.00000000000E+00  0.39999999673E+01  0.40000000000E+01  0.51109989000E-03 0.  1.
     -623   -1    0    0    0    0  0.00000000000E+00  0.00000000000E+00  0.12525980253E-10  0.17130000000E+03  0.17130000000E+03 0.  1.
       11    1    1    2    0    0 -0.64420496241E-02  0.33588484735E-01  0.10788455517E+00  0.11317696221E+00  0.51109989000E-03 0.  1.
     -623    1    1    2    0    0 -0.58373662360E-01 -0.65931437589E-01  0.11168061791E+00  0.17130005904E+03  0.17130000000E+03 0.  1.
      622    1    1    2    0    0  0.64815711984E-01  0.32342952854E-01  0.37804347943E+01  0.38867639981E+01  0.90000000000E+00 0.  1.
</event>
<event>
 5   0  0.4857400E+02  0.9118800E+02  0.7818608E-02  0.1180000E+00
       11   -1    0    0    0    0  0.00000000000E+00  0.00000000000E+00  0.39999999673E+01  0.40000000000E+01  0.51109989000E-03 0. -1.
     -623   -1    0    0    0    0  0.00000000000E+00  0.00000000000E+00  0.12525980253E-10  0.17130000000E+03  0.17130000000E+03 0. -1.
       11    1    1    2    0    0 -0.67658201727E-01 -0.41364586240E-02 -0.66150689778E-01  0.94714927715E-01  0.51109989000E-03 0. -1.
     -623    1    1    2    0    0  0.18253509724E+00  0.73156564196E-01  0.26868259021E+00  0.17130032359E+03  0.17130000000E+03 0. -1.
      622    1    1    2    0    0 -0.11487689552E+00 -0.69020105572E-01  0.37974680669E+01  0.39049614845E+01  0.90000000000E+00 0. -1.
</event>
<event>
 5   0  0.4857400E+02  0.9118800E+02  0.7818608E-02  0.1180000E+00
       11   -1    0    0    0    0  0.00000000000E+00  0.00000000000E+00  0.39999999673E+01  0.40000000000E+01  0.51109989000E-03 0.  1.
     -623   -1    0    0    0    0  0.00000000000E+00  0.00000000000E+00  0.12525980253E-10  0.17130000000E+03  0.17130000000E+03 0.  1.
       11    1    1    2    0    0  0.14551395406E+00 -0.30003714639E-01  0.53496030355E+00  0.55520925903E+00  0.51109989000E-03 0.  1.
     -623    1    1    2    0    0 -0.91493233566E-01  0.18366052209E+00  0.14407737474E+00  0.17130018348E+03  0.17130000000E+03 0.  1.
      622    1    1    2    0    0 -0.54020720495E-01 -0.15365680745E+00  0.33209622891E+01  0.34446072604E+01  0.90000000000E+00 0.  1.
</event>
<event>
 5   0  0.4857400E+02  0.9118800E+02  0.7818608E-02  0.1180000E+00
       11   -1    0    0    0    0  0.00000000000E+00  0.00000000000E+00  0.39999999673E+01  0.40000000000E+01  0.51109989000E-03 0. -1.
     -623   -1    0    0    0    0  0.00000000000E+00  0.00000000000E+00  0.12525980253E-10  0.17130000000E+03  0.17130000000E+03 0. -1.
       11    1    1    2    0    0  0.94927383518E-01  0.90813050472E-01  0.11286675585E+01  0.11362873480E+01  0.51109989000E-03 0. -1.
     -623    1    1    2    0    0 -0.79998181763E-01 -0.20715307906E+00  0.15547824866E+00  0.17130021449E+03  0.17130000000E+03 0. -1.
      622    1    1    2    0    0 -0.14929201755E-01  0.11634002859E+00  0.27158541602E+01  0.28634981583E+01  0.90000000000E+00 0. -1.
</event>
<event>
 5   0  0.4857400E+02  0.9118800E+02  0.7818608E-02  0.1180000E+00
       11   -1    0    0    0    0  0.00000000000E+00  0.00000000000E+00  0.39999999673E+01  0.40000000000E+01  0.51109989000E-03 0. -1.
     -623   -1    0    0    0    0  0.00000000000E+00  0.00000000000E+00  0.12525980253E-10  0.17130000000E+03  0.17130000000E+03 0. -1.
       11    1    1    2    0    0 -0.18978604537E-01  0.34766447721E-01  0.49328376615E-01  0.63264866072E-01  0.51109989000E-03 0. -1.
     -623    1    1    2    0    0  0.88004997797E-01 -0.10009474321E+00  0.11946879738E+00  0.17130009351E+03  0.17130000000E+03 0. -1.
      622    1    1    2    0    0 -0.69026393259E-01  0.65328295492E-01  0.38312027934E+01  0.39366416236E+01  0.90000000000E+00 0. -1.
</event>
<event>
 5   0  0.4857400E+02  0.9118800E+02  0.7818608E-02  0.1180000E+00
       11   -1    0    0    0    0  0.00000000000E+00  0.00000000000E+00  0.39999999673E+01  0.40000000000E+01  0.51109989000E-03 0.  1.
     -623   -1    0    0    0    0  0.00000000000E+00  0.00000000000E+00  0.12525980253E-10  0.17130000000E+03  0.17130000000E+03 0. -1.
       11    1    1    2    0    0  0.26283998783E+00 -0.44391764488E+00  0.44517142889E+00  0.68141440912E+00  0.51109989000E-03 0.  1.
     -623    1    1    2    0    0 -0.35998551016E-01  0.26025844902E+00  0.37461361864E+00  0.17130061111E+03  0.17130000000E+03 0. -1.
      622    1    1    2    0    0 -0.22684143681E+00  0.18365919586E+00  0.31802149198E+01  0.33179744836E+01  0.90000000000E+00 0.  1.
</event>
<event>
 5   0  0.4857400E+02  0.9118800E+02  0.7818608E-02  0.1180000E+00
       11   -1    0    0    0    0  0.00000000000E+00  0.00000000000E+00  0.39999999673E+01  0.40000000000E+01  0.51109989000E-03 0.  1.
     -623   -1    0    0    0    0  0.00000000000E+00  0.00000000000E+00  0.12525980253E-10  0.17130000000E+03  0.17130000000E+03 0.  1.
       11    1    1    2    0    0 -0.48693617422E+00  0.18096527586E+00  0.25325938803E+00  0.57792373864E+00  0.51109989000E-03 0.  1.
     -623    1    1    2    0    0 -0.20223158417E+00  0.14626331512E+00  0.53557230601E+00  0.17130101905E+03  0.17130000000E+03 0.  1.
      622    1    1    2    0    0  0.68916775839E+00 -0.32722859098E+00  0.32111682733E+01  0.34210572093E+01  0.90000000000E+00 0.  1.
</event>
<event>
 5   0  0.4857400E+02  0.9118800E+02  0.7818608E-02  0.1180000E+00
       11   -1    0    0    0    0  0.00000000000E+00  0.00000000000E+00  0.39999999673E+01  0.40000000000E+01  0.51109989000E-03 0. -1.
     -623   -1    0    0    0    0  0.00000000000E+00  0.00000000000E+00  0.12525980253E-10  0.17130000000E+03  0.17130000000E+03 0. -1.
       11    1    1    2    0    0 -0.53091900572E-01 -0.35063732102E-01  0.67828157674E-01  0.93000728018E-01  0.51109989000E-03 0. -1.
     -623    1    1    2    0    0  0.34861421728E-01 -0.94515608125E-01  0.13258133414E+00  0.17130008093E+03  0.17130000000E+03 0. -1.
      622    1    1    2    0    0  0.18230478844E-01  0.12957934023E+00  0.37995904755E+01  0.39069183428E+01  0.90000000000E+00 0. -1.
</event>
<event>
 5   0  0.4857400E+02  0.9118800E+02  0.7818608E-02  0.1180000E+00
       11   -1    0    0    0    0  0.00000000000E+00  0.00000000000E+00  0.39999999673E+01  0.40000000000E+01  0.51109989000E-03 0. -1.
     -623   -1    0    0    0    0  0.00000000000E+00  0.00000000000E+00  0.12525980253E-10  0.17130000000E+03  0.17130000000E+03 0.  1.
       11    1    1    2    0    0  0.86900930030E-01 -0.26282914580E-01  0.17620017445E+00  0.19821535242E+00  0.51109989000E-03 0. -1.
     -623    1    1    2    0    0 -0.10065977871E+00  0.64890937423E-01  0.13040150599E+00  0.17130009150E+03  0.17130000000E+03 0.  1.
      622    1    1    2    0    0  0.13758848679E-01 -0.38608022843E-01  0.36933982869E+01  0.38016931480E+01  0.90000000000E+00 0. -1.
</event>
<event>
 5   0  0.4857400E+02  0.9118800E+02  0.7818608E-02  0.1180000E+00
       11   -1    0    0    0    0  0.00000000000E+00  0.00000000000E+00  0.39999999673E+01  0.40000000000E+01  0.51109989000E-03 0.  1.
     -623   -1    0    0    0    0  0.00000000000E+00  0.00000000000E+00  0.12525980253E-10  0.17130000000E+03  0.17130000000E+03 0.  1.
       11    1    1    2    0    0  0.67166054551E-01 -0.50949114655E-01  0.20716826781E-01  0.86813243823E-01  0.51109989000E-03 0.  1.
     -623    1    1    2    0    0  0.21920075787E-01 -0.59745227931E-01  0.17375310660E+00  0.17130009994E+03  0.17130000000E+03 0.  1.
      622    1    1    2    0    0 -0.89086130339E-01  0.11069434259E+00  0.38055300340E+01  0.39130868142E+01  0.90000000000E+00 0.  1.
</event>
<event>
 5   0  0.4857400E+02  0.9118800E+02  0.7818608E-02  0.1180000E+00
       11   -1    0    0    0    0  0.00000000000E+00  0.00000000000E+00  0.39999999673E+01  0.40000000000E+01  0.51109989000E-03 0. -1.
     -623   -1    0    0    0    0  0.00000000000E+00  0.00000000000E+00  0.12525980253E-10  0.17130000000E+03  0.17130000000E+03 0. -1.
       11    1    1    2    0    0  0.31850647377E-01 -0.96568346493E-02  0.15069947174E+00  0.15433181848E+00  0.51109989000E-03 0. -1.
     -623    1    1    2    0    0 -0.43447523704E-02  0.18426081308E+00  0.11475066997E+00  0.17130013759E+03  0.17130000000E+03 0. -1.
      622    1    1    2    0    0 -0.27505895007E-01 -0.17460397844E+00  0.37345498257E+01  0.38455305907E+01  0.90000000000E+00 0. -1.
</event>
<event>
 5   0  0.4857400E+02  0.9118800E+02  0.7818608E-02  0.1180000E+00
       11   -1    0    0    0    0  0.00000000000E+00  0.00000000000E+00  0.39999999673E+01  0.40000000000E+01  0.51109989000E-03 0.  1.
     -623   -1    0    0    0    0  0.00000000000E+00  0.00000000000E+00  0.12525980253E-10  0.17130000000E+03  0.17130000000E+03 0. -1.
       11    1    1    2    0    0 -0.21853713611E-01  0.29976776696E-01 -0.69649843368E-02  0.37748697588E-01  0.51109989000E-03 0.  1.
     -623    1    1    2    0    0 -0.60128898620E-02 -0.96084090130E-01  0.14904317050E+00  0.17130009189E+03  0.17130000000E+03 0. -1.
      622    1    1    2    0    0  0.27866603473E-01  0.66107313435E-01  0.38579217812E+01  0.39621594105E+01  0.90000000000E+00 0.  1.
</event>
</LesHouchesEvents>
